title                                                                   
Freq      RMP2-FC                                                     Aug-CC-pVTZ         
Number of atoms                            I                5
Info1-9                                    I   N=           9
          33          24           0           0           0         100
           6           2           1
Full Title                                 C   N=           1
title       
Route                                      C   N=           4
#p freq mp2/aug-cc-pvtz density=current         
Charge                                     I                0
Multiplicity                               I                1
Number of electrons                        I               32
Number of alpha electrons                  I               16
Number of beta electrons                   I               16
Number of basis functions                  I              207
Number of independent functions            I              207
Number of point charges in /Mol/           I                0
Number of translation vectors              I                0
Atomic numbers                             I   N=           5
           1           8           8           7           8
Nuclear charges                            R   N=           5
  1.00000000E+00  8.00000000E+00  8.00000000E+00  7.00000000E+00  8.00000000E+00
Current cartesian coordinates              R   N=          15
  2.92642867E+00  3.17935068E+00  8.47884075E-33  2.74777906E+00  1.36646359E+00
  7.81678555E-32 -1.38912977E-16  1.27209594E+00 -1.59221115E-32 -4.94351752E-01
 -1.43991884E+00 -1.93713804E-33 -2.68102486E+00 -1.77604938E+00 -5.79999049E-32
Number of symbols in /Mol/                 I                0
Force Field                                I                0
Atom Types                                 C   N=           5
                                                            
Int Atom Types                             I   N=           5
           0           0           0           0           0
MM charges                                 R   N=           5
  0.00000000E+00  0.00000000E+00  0.00000000E+00  0.00000000E+00  0.00000000E+00
Integer atomic weights                     I   N=           5
           1          16          16          14          16
Real atomic weights                        R   N=           5
  1.00782504E+00  1.59949146E+01  1.59949146E+01  1.40030740E+01  1.59949146E+01
Atom fragment info                         I   N=           5
           0           0           0           0           0
Atom residue num                           I   N=           5
           0           0           0           0           0
Nuclear spins                              I   N=           5
           1           0           0           2           0
Nuclear ZEff                               R   N=           5
 -1.00000000E+00 -5.60000000E+00 -5.60000000E+00 -4.55000000E+00 -5.60000000E+00
Nuclear ZNuc                               R   N=           5
  1.00000000E+00  8.00000000E+00  8.00000000E+00  7.00000000E+00  8.00000000E+00
Nuclear QMom                               R   N=           5
  0.00000000E+00  0.00000000E+00  0.00000000E+00  2.04400000E+00  0.00000000E+00
Nuclear GFac                               R   N=           5
  2.79284600E+00  0.00000000E+00  0.00000000E+00  4.03761000E-01  0.00000000E+00
MicOpt                                     I   N=           5
          -1          -1          -1          -1          -1
Number of residues                         I                0
Number of secondary structures             I                0
SymInf integers                            I   N=          26
           1           2           1           1           1           1
           1          -1           0           0           0           0
           0           0           0           0           0           0
           0           0           0           0           0           0
           0           0
RotTr to input orientation                 R   N=          12
 -9.95179595E-01 -9.84530688E-17 -9.80692302E-02  9.80692302E-02 -7.28326237E-17
 -9.95179595E-01  9.08358458E-17 -1.00000000E+00  8.21367576E-17  2.60052562E+00
  0.00000000E+00  3.45101753E+00
Number of contracted shells                I               65
Number of primitive shells                 I              119
Pure/Cartesian d shells                    I                0
Pure/Cartesian f shells                    I                0
Highest angular momentum                   I                3
Largest degree of contraction              I                7
Shell types                                I   N=          65
           0           0           0           0           1           1
           1          -2          -2           0           0           0
           0           0           1           1           1           1
          -2          -2          -2          -3          -3           0
           0           0           0           0           1           1
           1           1          -2          -2          -2          -3
          -3           0           0           0           0           0
           1           1           1           1          -2          -2
          -2          -3          -3           0           0           0
           0           0           1           1           1           1
          -2          -2          -2          -3          -3
Number of primitives per shell             I   N=          65
           3           1           1           1           1           1
           1           1           1           7           6           1
           1           1           3           1           1           1
           1           1           1           1           1           7
           6           1           1           1           3           1
           1           1           1           1           1           1
           1           7           6           1           1           1
           3           1           1           1           1           1
           1           1           1           7           6           1
           1           1           3           1           1           1
           1           1           1           1           1
Shell to atom map                          I   N=          65
           1           1           1           1           1           1
           1           1           1           2           2           2
           2           2           2           2           2           2
           2           2           2           2           2           3
           3           3           3           3           3           3
           3           3           3           3           3           3
           3           4           4           4           4           4
           4           4           4           4           4           4
           4           4           4           5           5           5
           5           5           5           5           5           5
           5           5           5           5           5
Primitive exponents                        R   N=         119
  3.38700000E+01  5.09500000E+00  1.15900000E+00  3.25800000E-01  1.02700000E-01
  2.52600000E-02  1.40700000E+00  3.88000000E-01  1.02000000E-01  1.05700000E+00
  2.47000000E-01  1.53300000E+04  2.29900000E+03  5.22400000E+02  1.47300000E+02
  4.75500000E+01  1.67600000E+01  6.20700000E+00  5.22400000E+02  1.47300000E+02
  4.75500000E+01  1.67600000E+01  6.20700000E+00  6.88200000E-01  1.75200000E+00
  2.38400000E-01  7.37600000E-02  3.44600000E+01  7.74900000E+00  2.28000000E+00
  7.15600000E-01  2.14000000E-01  5.97400000E-02  2.31400000E+00  6.45000000E-01
  2.14000000E-01  1.42800000E+00  5.00000000E-01  1.53300000E+04  2.29900000E+03
  5.22400000E+02  1.47300000E+02  4.75500000E+01  1.67600000E+01  6.20700000E+00
  5.22400000E+02  1.47300000E+02  4.75500000E+01  1.67600000E+01  6.20700000E+00
  6.88200000E-01  1.75200000E+00  2.38400000E-01  7.37600000E-02  3.44600000E+01
  7.74900000E+00  2.28000000E+00  7.15600000E-01  2.14000000E-01  5.97400000E-02
  2.31400000E+00  6.45000000E-01  2.14000000E-01  1.42800000E+00  5.00000000E-01
  1.14200000E+04  1.71200000E+03  3.89300000E+02  1.10000000E+02  3.55700000E+01
  1.25400000E+01  4.64400000E+00  3.89300000E+02  1.10000000E+02  3.55700000E+01
  1.25400000E+01  4.64400000E+00  5.11800000E-01  1.29300000E+00  1.78700000E-01
  5.76000000E-02  2.66300000E+01  5.94800000E+00  1.74200000E+00  5.55000000E-01
  1.72500000E-01  4.91000000E-02  1.65400000E+00  4.69000000E-01  1.51000000E-01
  1.09300000E+00  3.64000000E-01  1.53300000E+04  2.29900000E+03  5.22400000E+02
  1.47300000E+02  4.75500000E+01  1.67600000E+01  6.20700000E+00  5.22400000E+02
  1.47300000E+02  4.75500000E+01  1.67600000E+01  6.20700000E+00  6.88200000E-01
  1.75200000E+00  2.38400000E-01  7.37600000E-02  3.44600000E+01  7.74900000E+00
  2.28000000E+00  7.15600000E-01  2.14000000E-01  5.97400000E-02  2.31400000E+00
  6.45000000E-01  2.14000000E-01  1.42800000E+00  5.00000000E-01
Contraction coefficients                   R   N=         119
  2.54948632E-02  1.90362766E-01  8.52162022E-01  1.00000000E+00  1.00000000E+00
  1.00000000E+00  1.00000000E+00  1.00000000E+00  1.00000000E+00  1.00000000E+00
  1.00000000E+00  5.19808943E-04  4.02025621E-03  2.07128267E-02  8.10105536E-02
  2.35962985E-01  4.42653446E-01  3.57064423E-01 -4.42115008E-05 -1.22591041E-03
 -1.05517725E-02 -6.74452633E-02 -1.71198607E-01  1.07329856E+00  1.00000000E+00
  1.00000000E+00  1.00000000E+00  4.11634896E-02  2.57762836E-01  8.02419274E-01
  1.00000000E+00  1.00000000E+00  1.00000000E+00  1.00000000E+00  1.00000000E+00
  1.00000000E+00  1.00000000E+00  1.00000000E+00  5.19808943E-04  4.02025621E-03
  2.07128267E-02  8.10105536E-02  2.35962985E-01  4.42653446E-01  3.57064423E-01
 -4.42115008E-05 -1.22591041E-03 -1.05517725E-02 -6.74452633E-02 -1.71198607E-01
  1.07329856E+00  1.00000000E+00  1.00000000E+00  1.00000000E+00  4.11634896E-02
  2.57762836E-01  8.02419274E-01  1.00000000E+00  1.00000000E+00  1.00000000E+00
  1.00000000E+00  1.00000000E+00  1.00000000E+00  1.00000000E+00  1.00000000E+00
  5.34563860E-04  4.13435660E-03  2.12335358E-02  8.25006224E-02  2.38138871E-01
  4.42551547E-01  3.53757422E-01 -4.89867350E-05 -1.19527323E-03 -1.03490714E-02
 -6.48680190E-02 -1.71552477E-01  1.07289568E+00  1.00000000E+00  1.00000000E+00
  1.00000000E+00  3.98072123E-02  2.49002660E-01  8.10479727E-01  1.00000000E+00
  1.00000000E+00  1.00000000E+00  1.00000000E+00  1.00000000E+00  1.00000000E+00
  1.00000000E+00  1.00000000E+00  5.19808943E-04  4.02025621E-03  2.07128267E-02
  8.10105536E-02  2.35962985E-01  4.42653446E-01  3.57064423E-01 -4.42115008E-05
 -1.22591041E-03 -1.05517725E-02 -6.74452633E-02 -1.71198607E-01  1.07329856E+00
  1.00000000E+00  1.00000000E+00  1.00000000E+00  4.11634896E-02  2.57762836E-01
  8.02419274E-01  1.00000000E+00  1.00000000E+00  1.00000000E+00  1.00000000E+00
  1.00000000E+00  1.00000000E+00  1.00000000E+00  1.00000000E+00
Coordinates of each shell                  R   N=         195
  2.92642867E+00  3.17935068E+00  1.80355091E-32  2.92642867E+00  3.17935068E+00
  1.80355091E-32  2.92642867E+00  3.17935068E+00  1.80355091E-32  2.92642867E+00
  3.17935068E+00  1.80355091E-32  2.92642867E+00  3.17935068E+00  1.80355091E-32
  2.92642867E+00  3.17935068E+00  1.80355091E-32  2.92642867E+00  3.17935068E+00
  1.80355091E-32  2.92642867E+00  3.17935068E+00  1.80355091E-32  2.92642867E+00
  3.17935068E+00  1.80355091E-32  2.74777906E+00  1.36646359E+00  1.69344959E-32
  2.74777906E+00  1.36646359E+00  1.69344959E-32  2.74777906E+00  1.36646359E+00
  1.69344959E-32  2.74777906E+00  1.36646359E+00  1.69344959E-32  2.74777906E+00
  1.36646359E+00  1.69344959E-32  2.74777906E+00  1.36646359E+00  1.69344959E-32
  2.74777906E+00  1.36646359E+00  1.69344959E-32  2.74777906E+00  1.36646359E+00
  1.69344959E-32  2.74777906E+00  1.36646359E+00  1.69344959E-32  2.74777906E+00
  1.36646359E+00  1.69344959E-32  2.74777906E+00  1.36646359E+00  1.69344959E-32
  2.74777906E+00  1.36646359E+00  1.69344959E-32  2.74777906E+00  1.36646359E+00
  1.69344959E-32  2.74777906E+00  1.36646359E+00  1.69344959E-32  2.43768521E-18
  1.27209594E+00  0.00000000E+00  2.43768521E-18  1.27209594E+00  0.00000000E+00
  2.43768521E-18  1.27209594E+00  0.00000000E+00  2.43768521E-18  1.27209594E+00
  0.00000000E+00  2.43768521E-18  1.27209594E+00  0.00000000E+00  2.43768521E-18
  1.27209594E+00  0.00000000E+00  2.43768521E-18  1.27209594E+00  0.00000000E+00
  2.43768521E-18  1.27209594E+00  0.00000000E+00  2.43768521E-18  1.27209594E+00
  0.00000000E+00  2.43768521E-18  1.27209594E+00  0.00000000E+00  2.43768521E-18
  1.27209594E+00  0.00000000E+00  2.43768521E-18  1.27209594E+00  0.00000000E+00
  2.43768521E-18  1.27209594E+00  0.00000000E+00  2.43768521E-18  1.27209594E+00
  0.00000000E+00 -4.94351752E-01 -1.43991884E+00 -3.04667790E-33 -4.94351752E-01
 -1.43991884E+00 -3.04667790E-33 -4.94351752E-01 -1.43991884E+00 -3.04667790E-33
 -4.94351752E-01 -1.43991884E+00 -3.04667790E-33 -4.94351752E-01 -1.43991884E+00
 -3.04667790E-33 -4.94351752E-01 -1.43991884E+00 -3.04667790E-33 -4.94351752E-01
 -1.43991884E+00 -3.04667790E-33 -4.94351752E-01 -1.43991884E+00 -3.04667790E-33
 -4.94351752E-01 -1.43991884E+00 -3.04667790E-33 -4.94351752E-01 -1.43991884E+00
 -3.04667790E-33 -4.94351752E-01 -1.43991884E+00 -3.04667790E-33 -4.94351752E-01
 -1.43991884E+00 -3.04667790E-33 -4.94351752E-01 -1.43991884E+00 -3.04667790E-33
 -4.94351752E-01 -1.43991884E+00 -3.04667790E-33 -2.68102486E+00 -1.77604938E+00
 -1.65230914E-32 -2.68102486E+00 -1.77604938E+00 -1.65230914E-32 -2.68102486E+00
 -1.77604938E+00 -1.65230914E-32 -2.68102486E+00 -1.77604938E+00 -1.65230914E-32
 -2.68102486E+00 -1.77604938E+00 -1.65230914E-32 -2.68102486E+00 -1.77604938E+00
 -1.65230914E-32 -2.68102486E+00 -1.77604938E+00 -1.65230914E-32 -2.68102486E+00
 -1.77604938E+00 -1.65230914E-32 -2.68102486E+00 -1.77604938E+00 -1.65230914E-32
 -2.68102486E+00 -1.77604938E+00 -1.65230914E-32 -2.68102486E+00 -1.77604938E+00
 -1.65230914E-32 -2.68102486E+00 -1.77604938E+00 -1.65230914E-32 -2.68102486E+00
 -1.77604938E+00 -1.65230914E-32 -2.68102486E+00 -1.77604938E+00 -1.65230914E-32
Num ILSW                                   I              100
ILSW                                       I   N=         100
           0           0           0           0           2           0
           0           0           0           0           0          -1
           5           0           0           0           2           0
           0           0           0           0           1           0
           1           0           0           0           0           0
           0           0      100000           0          -1           0
           0           0           0           0           0           0
           0           0           0           1           1           0
           0 -2000000000           1           0           0           0
           0           0           4          52           0           0
           0           0           0           0           0           0
           0           0           0           5           4           1
           0           0           0           0           0           0
           0           0           0           0           0           0
           0           0           0           0           0           0
           0           0           0           0           0           0
           0           0           0           0
Num RLSW                                   I               52
RLSW                                       R   N=          52
  1.00000000E+00  1.00000000E+00  1.00000000E+00  1.00000000E+00  1.00000000E+00
  0.00000000E+00  0.00000000E+00  1.00000000E+00  0.00000000E+00  0.00000000E+00
  0.00000000E+00  0.00000000E+00  1.00000000E+00  0.00000000E+00  0.00000000E+00
  0.00000000E+00  0.00000000E+00  1.00000000E+00  0.00000000E+00  0.00000000E+00
  0.00000000E+00  0.00000000E+00  1.00000000E+00  0.00000000E+00  0.00000000E+00
  0.00000000E+00  0.00000000E+00  1.00000000E+00  0.00000000E+00  0.00000000E+00
  0.00000000E+00  0.00000000E+00  1.00000000E+00  0.00000000E+00  0.00000000E+00
  0.00000000E+00  0.00000000E+00  0.00000000E+00  1.00000000E+00  1.00000000E+00
  0.00000000E+00  1.00000000E+00  0.00000000E+00  0.00000000E+00  0.00000000E+00
  0.00000000E+00  0.00000000E+00  0.00000000E+00  0.00000000E+00  0.00000000E+00
  0.00000000E+00  0.00000000E+00
MxBond                                     I                2
NBond                                      I   N=           5
           1           2           2           2           1
IBond                                      I   N=          10
           2           0           1           3           2           4
           3           5           4           0
RBond                                      R   N=          10
  1.00000000E+00  0.00000000E+00  1.00000000E+00  1.00000000E+00  1.00000000E+00
  1.00000000E+00  1.00000000E+00  2.00000000E+00  2.00000000E+00  0.00000000E+00
Virial Ratio                               R      2.002320645802053E+00
SCF Energy                                 R     -2.795019031089508E+02
MP2 Energy                                 R     -2.804467117342911E+02
Total Energy                               R     -2.804467117342911E+02
Post-SCF wavefunction norm                 R      1.584112519155590E+00
RMS Force                                  R      1.813948892400947E-03
RMS Density                                R      3.789392894433581E-09
NImag                                      I                1
Job Status                                 I                1
Nuclear derivative order                   I                2
External E-field                           R   N=          35
  0.00000000E+00  0.00000000E+00  0.00000000E+00  0.00000000E+00  0.00000000E+00
  0.00000000E+00  0.00000000E+00  0.00000000E+00  0.00000000E+00  0.00000000E+00
  0.00000000E+00  0.00000000E+00  0.00000000E+00  0.00000000E+00  0.00000000E+00
  0.00000000E+00  0.00000000E+00  0.00000000E+00  0.00000000E+00  0.00000000E+00
  0.00000000E+00  0.00000000E+00  0.00000000E+00  0.00000000E+00  0.00000000E+00
  0.00000000E+00  0.00000000E+00  0.00000000E+00  0.00000000E+00  0.00000000E+00
  0.00000000E+00  0.00000000E+00  0.00000000E+00  0.00000000E+00  0.00000000E+00
IOpCl                                      I                0
IROHF                                      I                0
Alpha Orbital Energies                     R   N=         207
 -2.06910185E+01 -2.06843931E+01 -2.06595906E+01 -1.58129380E+01 -1.62414826E+00
 -1.49636536E+00 -1.25539126E+00 -9.48183045E-01 -7.73200814E-01 -7.59581466E-01
 -7.11911910E-01 -6.80133458E-01 -6.20606791E-01 -5.89669914E-01 -4.85396269E-01
 -4.72638213E-01  2.97212777E-02  7.15961671E-02  8.59224384E-02  1.01705144E-01
  1.33919716E-01  1.33942669E-01  1.44283872E-01  1.54720514E-01  1.78186216E-01
  1.94160667E-01  1.99790648E-01  2.06366841E-01  2.20797484E-01  2.35284807E-01
  2.37332737E-01  2.66168423E-01  2.93523184E-01  3.04109752E-01  3.10650901E-01
  3.43394414E-01  3.49464957E-01  3.87287964E-01  4.22601881E-01  4.32319283E-01
  5.27298244E-01  5.29179452E-01  5.58485227E-01  5.81571436E-01  6.25891812E-01
  6.38281925E-01  6.74400109E-01  6.84922420E-01  7.06371107E-01  7.11329812E-01
  7.24519104E-01  7.29417248E-01  7.44764966E-01  7.91421125E-01  7.92112713E-01
  8.10387524E-01  8.12653915E-01  8.30660143E-01  8.68159756E-01  9.08215553E-01
  9.22174875E-01  9.26392458E-01  9.57021276E-01  9.76931690E-01  9.85306831E-01
  1.01746708E+00  1.05176741E+00  1.05483246E+00  1.08282023E+00  1.11842854E+00
  1.14178769E+00  1.18932416E+00  1.22108224E+00  1.23363188E+00  1.33869904E+00
  1.35019057E+00  1.38616039E+00  1.45487116E+00  1.48918318E+00  1.50981701E+00
  1.53789855E+00  1.56695646E+00  1.57941601E+00  1.61383147E+00  1.66375863E+00
  1.66936007E+00  1.70332615E+00  1.79332255E+00  1.83143962E+00  1.83459294E+00
  1.87813292E+00  1.91067755E+00  1.95886575E+00  1.99233875E+00  2.00664786E+00
  2.07774525E+00  2.12158649E+00  2.13195830E+00  2.14983496E+00  2.22471600E+00
  2.26406169E+00  2.26499255E+00  2.28958762E+00  2.31484002E+00  2.34435479E+00
  2.38709816E+00  2.42447350E+00  2.42925591E+00  2.45412457E+00  2.46291801E+00
  2.47695551E+00  2.50165221E+00  2.58765379E+00  2.59679182E+00  2.62072973E+00
  2.62531561E+00  2.63443406E+00  2.66675439E+00  2.75753229E+00  2.82324313E+00
  2.85583427E+00  2.88450571E+00  2.89378943E+00  2.92459691E+00  2.95794118E+00
  3.02598738E+00  3.06846444E+00  3.12094359E+00  3.20454383E+00  3.22703877E+00
  3.31736190E+00  3.34213955E+00  3.51685513E+00  3.64542719E+00  3.83848740E+00
  3.84997873E+00  4.15317733E+00  4.16478660E+00  4.18491147E+00  4.25810369E+00
  4.35595316E+00  4.39432952E+00  4.46492298E+00  4.52105024E+00  4.66233051E+00
  4.71257385E+00  4.80577067E+00  4.82462498E+00  4.83739759E+00  4.89585234E+00
  5.02323370E+00  5.07752144E+00  5.10806126E+00  5.14761980E+00  5.18181334E+00
  5.24951754E+00  5.27391300E+00  5.30929053E+00  5.34155586E+00  5.35641992E+00
  5.60906047E+00  5.67363046E+00  5.77083940E+00  5.83166922E+00  5.95793908E+00
  6.16750035E+00  6.30885378E+00  6.33747299E+00  6.39563109E+00  6.49360579E+00
  6.50539932E+00  6.61453828E+00  6.66750969E+00  6.69961054E+00  6.75751121E+00
  6.76326710E+00  6.83280385E+00  6.89827136E+00  7.01652250E+00  7.05725274E+00
  7.05726514E+00  7.09066221E+00  7.12546990E+00  7.15080092E+00  7.18179545E+00
  7.22631764E+00  7.25023607E+00  7.31226698E+00  7.32528813E+00  7.34884339E+00
  7.39917826E+00  7.43237730E+00  7.48449250E+00  7.60832218E+00  7.61897549E+00
  7.62786777E+00  7.66733071E+00  7.79490350E+00  7.88694954E+00  8.09507842E+00
  8.31619956E+00  8.41554495E+00  8.54604024E+00  1.33924753E+01  1.43986026E+01
  1.52348146E+01  1.61523896E+01
Alpha MO coefficients                      R   N=       42849
  9.25252084E-05 -6.41456882E-04 -7.30621180E-04 -4.65786771E-06 -2.09130474E-05
 -2.65290698E-05  0.00000000E+00 -5.41154435E-05  5.51664060E-05  0.00000000E+00
  7.98753007E-05  3.42667047E-05  0.00000000E+00  3.19854247E-05  0.00000000E+00
  0.00000000E+00 -5.02447133E-05  2.21277166E-05 -6.06380697E-06  0.00000000E+00
  0.00000000E+00 -1.39834907E-04  1.23725926E-04  4.50478943E-03 -2.83156982E-04
  1.09533162E-05  1.55560995E-03  1.83017357E-03  1.06362811E-04  7.42212068E-06
  0.00000000E+00 -6.17246410E-04 -3.81926684E-05  0.00000000E+00 -1.08858822E-03
  7.96995571E-04  0.00000000E+00 -4.01164297E-04  6.78093087E-05  0.00000000E+00
  2.90171060E-05  0.00000000E+00  0.00000000E+00 -5.41573452E-05  5.49860816E-06
 -3.78815775E-04  0.00000000E+00  0.00000000E+00  7.42127739E-04 -2.98144979E-05
 -4.46840113E-04  0.00000000E+00  0.00000000E+00  2.42178313E-04 -1.09043153E-05
  0.00000000E+00  8.02411678E-05  1.27791093E-05  0.00000000E+00  0.00000000E+00
 -1.09510377E-04 -3.24593098E-06  0.00000000E+00  2.54118524E-04 -2.81864696E-05
  0.00000000E+00  0.00000000E+00 -3.55838469E-04  5.11988211E-05  9.76911517E-01
 -9.21654606E-03  4.33186623E-02  2.04119278E-03 -9.20278551E-04  1.49469984E-03
 -1.35487321E-03  0.00000000E+00 -1.43709672E-03  1.38359094E-03  0.00000000E+00
  8.18281261E-05 -1.16219807E-03  0.00000000E+00 -1.39630652E-04 -1.68613691E-05
  0.00000000E+00  4.62885878E-05  0.00000000E+00  0.00000000E+00 -3.52422199E-05
  2.14676162E-05  7.47492998E-04  0.00000000E+00  0.00000000E+00 -2.33519951E-04
 -3.89749291E-04 -3.59486049E-04  0.00000000E+00  0.00000000E+00 -3.13198021E-04
 -3.74458800E-04  0.00000000E+00  4.74569096E-05 -4.90096786E-05  0.00000000E+00
  0.00000000E+00 -3.90530338E-05 -1.57206305E-05  0.00000000E+00  2.37125769E-05
  2.22478353E-05  0.00000000E+00  0.00000000E+00 -3.05551579E-04 -1.39980507E-04
  3.90341646E-05  4.57580750E-05 -2.64299076E-04 -7.00869639E-04 -1.42217261E-04
 -2.69033267E-05 -9.74250177E-05  0.00000000E+00  2.68402029E-04  7.08874778E-04
  0.00000000E+00 -8.35195825E-04 -4.77309651E-04  0.00000000E+00 -1.23186190E-04
 -2.68318955E-05  0.00000000E+00 -1.81364011E-05  0.00000000E+00  0.00000000E+00
 -2.95961541E-05  1.50291407E-05 -3.28664418E-04  0.00000000E+00  0.00000000E+00
 -8.27803245E-04  1.27537181E-04 -3.68009010E-05  0.00000000E+00  0.00000000E+00
  9.71830158E-05 -1.16283483E-04  0.00000000E+00 -2.05171774E-05 -1.19977982E-04
  0.00000000E+00  0.00000000E+00 -6.26425600E-05 -1.37946550E-04  0.00000000E+00
  2.38640880E-06 -1.52962670E-04  0.00000000E+00  0.00000000E+00  4.38676700E-05
 -4.17063928E-04 -2.55921046E-03  1.21986060E-04 -1.22554889E-04 -2.46336708E-04
  1.32992073E-04 -7.86501699E-06 -2.76782614E-05  0.00000000E+00  6.88047552E-05
  1.63206415E-04  0.00000000E+00  2.32027633E-04  1.99256517E-04  0.00000000E+00
  1.25983212E-04  2.27182180E-05  0.00000000E+00 -3.32666206E-06  0.00000000E+00
  0.00000000E+00 -1.78815457E-05  1.26011577E-06  7.76954285E-07  0.00000000E+00
  0.00000000E+00  7.99582189E-05  8.73111336E-05 -9.99423303E-05  0.00000000E+00
  0.00000000E+00  1.66194421E-04  1.61244017E-04  0.00000000E+00  1.59057056E-05
 -3.52876255E-06  0.00000000E+00  0.00000000E+00 -4.35279133E-06 -1.19615723E-05
  0.00000000E+00 -3.36088758E-05  4.54000024E-05  0.00000000E+00  0.00000000E+00
  8.34686972E-05  8.99060735E-05  3.88504081E-05 -1.00077168E-03 -4.95605613E-04
 -1.10567765E-05 -2.22818607E-05  1.66169345E-05  0.00000000E+00 -7.16933815E-07
  2.74950222E-04  0.00000000E+00 -4.23002579E-05  1.34796195E-04  0.00000000E+00
  2.61188013E-05  0.00000000E+00  0.00000000E+00  1.22837944E-05  1.09475425E-05
 -2.80580173E-05  0.00000000E+00  0.00000000E+00  1.10087361E-05  3.55361525E-05
  1.10544542E-04  8.49100376E-05 -2.79808650E-05  7.63846405E-04  6.60769773E-04
  1.02353400E-05  2.49333248E-06  0.00000000E+00 -7.26021309E-05  1.71992618E-05
  0.00000000E+00  3.35432723E-04  9.08407633E-04  0.00000000E+00  3.12073436E-06
  8.23686082E-05  0.00000000E+00 -2.29605219E-06  0.00000000E+00  0.00000000E+00
 -2.22421764E-07 -6.07450758E-06 -3.60780215E-05  0.00000000E+00  0.00000000E+00
 -1.98157887E-05  8.40469759E-05 -2.34160819E-05  0.00000000E+00  0.00000000E+00
 -2.68778940E-04 -1.62622331E-04  0.00000000E+00  9.17964010E-06  5.99595274E-06
  0.00000000E+00  0.00000000E+00  2.62931825E-06 -1.87023264E-05  0.00000000E+00
 -4.03975359E-05 -3.81388313E-05  0.00000000E+00  0.00000000E+00 -7.69718432E-05
  2.02257619E-05  2.59816571E-03  3.93613340E-05  9.05297705E-05 -6.92227555E-05
 -4.69377646E-04  7.30052086E-06  1.58209601E-05  0.00000000E+00 -6.24336628E-05
 -5.55734274E-05  0.00000000E+00  2.34731772E-04 -1.88972500E-04  0.00000000E+00
 -1.88498546E-04 -6.47666357E-05  0.00000000E+00 -8.71524114E-06  0.00000000E+00
  0.00000000E+00  2.23981214E-05  1.97967083E-05  4.45709232E-06  0.00000000E+00
  0.00000000E+00 -1.17556836E-04 -4.66225676E-05 -4.18913036E-06  0.00000000E+00
  0.00000000E+00 -2.22500956E-04 -2.06813120E-04  0.00000000E+00  3.27778836E-06
 -5.40001889E-07  0.00000000E+00  0.00000000E+00  1.72155973E-06 -1.36056010E-05
  0.00000000E+00 -4.65033908E-05  3.49726481E-06  0.00000000E+00  0.00000000E+00
 -7.65018386E-05  1.87978042E-04  2.58695542E-04  1.46520801E-03 -7.80083126E-05
 -1.53923687E-03  3.95933745E-04 -1.44458540E-04  1.47959192E-07  0.00000000E+00
 -2.08988245E-03 -4.04074531E-04  0.00000000E+00  1.03863211E-03  7.62642896E-04
  0.00000000E+00 -1.70975810E-04  5.49209445E-05  0.00000000E+00 -1.23348911E-04
  0.00000000E+00  0.00000000E+00  2.43111889E-04  9.40693701E-05 -4.42325068E-04
  0.00000000E+00  0.00000000E+00  8.99056255E-04 -6.61876475E-05  1.16369731E-05
  0.00000000E+00  0.00000000E+00 -3.38313986E-04 -1.23058816E-04  0.00000000E+00
 -1.27787209E-06  1.52917712E-05  0.00000000E+00  0.00000000E+00  1.88533457E-05
  1.33326558E-05  0.00000000E+00  1.64595242E-04 -7.18226061E-05  0.00000000E+00
  0.00000000E+00 -2.40613395E-04  4.22379368E-05  9.76649364E-01 -9.84826393E-03
  4.35680071E-02  4.50109129E-03 -4.45699837E-04  2.14818777E-03  4.81020671E-04
  0.00000000E+00 -2.38412681E-03 -6.03939729E-04  0.00000000E+00  1.13914036E-03
 -3.46955434E-06  0.00000000E+00  4.81057117E-06 -4.20998264E-05  0.00000000E+00
 -2.32352928E-04  0.00000000E+00  0.00000000E+00  1.02741535E-04  3.18498969E-05
  3.90624797E-04  0.00000000E+00  0.00000000E+00 -8.34123594E-04 -4.19301569E-04
 -1.53575862E-04  0.00000000E+00  0.00000000E+00  2.55880177E-04  1.69460807E-05
  0.00000000E+00  5.22724115E-05  1.77015590E-05  0.00000000E+00  0.00000000E+00
 -2.21203599E-05 -1.32861398E-05  0.00000000E+00  1.38356378E-04  9.26455320E-06
  0.00000000E+00  0.00000000E+00 -1.89815520E-04 -1.40705626E-04  4.85715263E-04
  1.94632203E-03  4.31858453E-05  1.18226196E-05 -4.08605666E-05 -2.31645532E-04
  0.00000000E+00  1.16710108E-04 -1.21863290E-03  0.00000000E+00  3.13663179E-04
 -3.18156999E-04  0.00000000E+00  7.95966540E-06  0.00000000E+00  0.00000000E+00
  9.48427604E-05  1.32280961E-05 -1.57206418E-04  0.00000000E+00  0.00000000E+00
 -5.33125507E-04 -2.34703420E-05  9.76828192E-01 -9.14834138E-03  4.34549050E-02
  2.57047101E-04 -1.07922586E-03 -1.56155265E-03  1.44306345E-03  0.00000000E+00
  1.57785201E-03 -1.24954892E-03  0.00000000E+00 -5.51167742E-04 -7.98667667E-04
  0.00000000E+00  5.22660308E-05 -2.35517729E-05  0.00000000E+00  2.67396799E-05
  0.00000000E+00  0.00000000E+00 -1.22272621E-04 -2.39411429E-06  7.49336839E-04
  0.00000000E+00  0.00000000E+00 -2.17761818E-04 -2.30391903E-04 -2.72317011E-04
  0.00000000E+00  0.00000000E+00  1.53764600E-04  1.29950402E-04  0.00000000E+00
 -6.44909187E-05 -1.91454743E-06  0.00000000E+00  0.00000000E+00  1.72899913E-05