 Entering Gaussian System, Link 0=g16
 Input=hoono_a1_95p93353.gjf
 Output=hoono_a1_95p93353.log
 Initial command:
 /sw/contrib/gaussian/g16/B01/g16/l1.exe "/scr/Gau-11062.inp" -scrdir="/scr/"
 Entering Link 1 = /sw/contrib/gaussian/g16/B01/g16/l1.exe PID=     11063.
  
 Copyright (c) 1988-2017, Gaussian, Inc.  All Rights Reserved.
  
 This is part of the Gaussian(R) 16 program.  It is based on
 the Gaussian(R) 09 system (copyright 2009, Gaussian, Inc.),
 the Gaussian(R) 03 system (copyright 2003, Gaussian, Inc.),
 the Gaussian(R) 98 system (copyright 1998, Gaussian, Inc.),
 the Gaussian(R) 94 system (copyright 1995, Gaussian, Inc.),
 the Gaussian 92(TM) system (copyright 1992, Gaussian, Inc.),
 the Gaussian 90(TM) system (copyright 1990, Gaussian, Inc.),
 the Gaussian 88(TM) system (copyright 1988, Gaussian, Inc.),
 the Gaussian 86(TM) system (copyright 1986, Carnegie Mellon
 University), and the Gaussian 82(TM) system (copyright 1983,
 Carnegie Mellon University). Gaussian is a federally registered
 trademark of Gaussian, Inc.
  
 This software contains proprietary and confidential information,
 including trade secrets, belonging to Gaussian, Inc.
  
 This software is provided under written license and may be
 used, copied, transmitted, or stored only in accord with that
 written license.
  
 The following legend is applicable only to US Government
 contracts under FAR:
  
                    RESTRICTED RIGHTS LEGEND
  
 Use, reproduction and disclosure by the US Government is
 subject to restrictions as set forth in subparagraphs (a)
 and (c) of the Commercial Computer Software - Restricted
 Rights clause in FAR 52.227-19.
  
 Gaussian, Inc.
 340 Quinnipiac St., Bldg. 40, Wallingford CT 06492
  
  
 ---------------------------------------------------------------
 Warning -- This program may not be used in any manner that
 competes with the business of Gaussian, Inc. or will provide
 assistance to any competitor of Gaussian, Inc.  The licensee
 of this program is prohibited from giving any competitor of
 Gaussian, Inc. access to this program.  By using this program,
 the user acknowledges that Gaussian, Inc. is engaged in the
 business of creating and licensing software in the field of
 computational chemistry and represents and warrants to the
 licensee that it is not a competitor of Gaussian, Inc. and that
 it will not use this program in any manner prohibited above.
 ---------------------------------------------------------------
  

 Cite this work as:
 Gaussian 16, Revision B.01,
 M. J. Frisch, G. W. Trucks, H. B. Schlegel, G. E. Scuseria, 
 M. A. Robb, J. R. Cheeseman, G. Scalmani, V. Barone, 
 G. A. Petersson, H. Nakatsuji, X. Li, M. Caricato, A. V. Marenich, 
 J. Bloino, B. G. Janesko, R. Gomperts, B. Mennucci, H. P. Hratchian, 
 J. V. Ortiz, A. F. Izmaylov, J. L. Sonnenberg, D. Williams-Young, 
 F. Ding, F. Lipparini, F. Egidi, J. Goings, B. Peng, A. Petrone, 
 T. Henderson, D. Ranasinghe, V. G. Zakrzewski, J. Gao, N. Rega, 
 G. Zheng, W. Liang, M. Hada, M. Ehara, K. Toyota, R. Fukuda, 
 J. Hasegawa, M. Ishida, T. Nakajima, Y. Honda, O. Kitao, H. Nakai, 
 T. Vreven, K. Throssell, J. A. Montgomery, Jr., J. E. Peralta, 
 F. Ogliaro, M. J. Bearpark, J. J. Heyd, E. N. Brothers, K. N. Kudin, 
 V. N. Staroverov, T. A. Keith, R. Kobayashi, J. Normand, 
 K. Raghavachari, A. P. Rendell, J. C. Burant, S. S. Iyengar, 
 J. Tomasi, M. Cossi, J. M. Millam, M. Klene, C. Adamo, R. Cammi, 
 J. W. Ochterski, R. L. Martin, K. Morokuma, O. Farkas, 
 J. B. Foresman, and D. J. Fox, Gaussian, Inc., Wallingford CT, 2016.
 
 ******************************************
 Gaussian 16:  ES64L-G16RevB.01 20-Dec-2017
                21-Feb-2022 
 ******************************************
 %nproc=28
 Will use up to   28 processors via shared memory.
 %mem=120GB
 %chk=hoono_a1_95p93353.chk
 ---------------------------------------
 #p freq mp2/aug-cc-pvtz density=current
 ---------------------------------------
 1/10=4,30=1,38=1/1,3;
 2/12=2,17=6,18=5,40=1/2;
 3/5=16,6=1,7=10,11=9,25=1,30=1,71=2,140=1/1,2,3;
 4//1;
 5/5=2,38=5,98=1/2;
 8/6=3,8=1,10=1,19=11,30=-1/1;
 9/15=3,16=-3/6;
 11/6=1,8=1,15=11,17=12,24=-1,27=1,28=-2,29=300,32=6,42=3/1,2,10;
 10/6=2,21=1/2;
 8/6=4,8=1,10=1,19=11,30=-1/11,4;
 10/5=1,20=4/2;
 11/12=2,14=11,16=1,17=2,28=-2,42=3,76=2/2,10,12;
 6/7=2,8=2,9=2,10=2,22=-1/1;
 7/8=1,10=1,12=2,25=1,44=2/1,2,3,16;
 1/10=4,30=1/3;
 99//99;
 Leave Link    1 at Mon Feb 21 20:37:19 2022, MaxMem= 16106127360 cpu:               4.1 elap:               0.2
 (Enter /sw/contrib/gaussian/g16/B01/g16/l101.exe)
 -----
 title
 -----
 Symbolic Z-matrix:
 Charge =  0 Multiplicity = 1
 H
 O                    1    r1
 O                    2    r2       1    a1
 N                    3    r3       2    a2       1    d1       0
 O                    4    r4       3    a3       2    d2       0
       Variables:
  r1                    0.96898                  
  r2                    1.45492                  
  r3                    1.45878                  
  r4                    1.17073                  
  a1                   95.93353                  
  a2                  102.29752                  
  a3                  109.06955                  
  d1                  180.                       
  d2                  180.                       
 
 ITRead=  0  0  0  0  0
 MicOpt= -1 -1 -1 -1 -1
 NAtoms=      5 NQM=        5 NQMF=       0 NMMI=      0 NMMIF=      0
                NMic=       0 NMicF=      0.
                    Isotopes and Nuclear Properties:
 (Nuclear quadrupole moments (NQMom) in fm**2, nuclear magnetic moments (NMagM)
  in nuclear magnetons)

  Atom         1           2           3           4           5
 IAtWgt=           1          16          16          14          16
 AtmWgt=   1.0078250  15.9949146  15.9949146  14.0030740  15.9949146
 NucSpn=           1           0           0           2           0
 AtZEff=  -0.0000000  -0.0000000  -0.0000000  -0.0000000  -0.0000000
 NQMom=    0.0000000   0.0000000   0.0000000   2.0440000   0.0000000
 NMagM=    2.7928460   0.0000000   0.0000000   0.4037610   0.0000000
 AtZNuc=   1.0000000   8.0000000   8.0000000   7.0000000   8.0000000
 Leave Link  101 at Mon Feb 21 20:37:19 2022, MaxMem= 16106127360 cpu:               3.2 elap:               0.1
 (Enter /sw/contrib/gaussian/g16/B01/g16/l103.exe)

 GradGradGradGradGradGradGradGradGradGradGradGradGradGradGradGradGradGrad
 Berny optimization.
 Initialization pass.
                       ----------------------------
                       !    Initial Parameters    !
                       ! (Angstroms and Degrees)  !
 ----------------------                            ----------------------
 !      Name          Value   Derivative information (Atomic Units)     !
 ------------------------------------------------------------------------
 !       r1          0.969    calculate D2E/DX2 analytically            !
 !       r2          1.4549   calculate D2E/DX2 analytically            !
 !       r3          1.4588   calculate D2E/DX2 analytically            !
 !       r4          1.1707   calculate D2E/DX2 analytically            !
 !       a1         95.9335   calculate D2E/DX2 analytically            !
 !       a2        102.2975   calculate D2E/DX2 analytically            !
 !       a3        109.0696   calculate D2E/DX2 analytically            !
 !       d1        180.0      calculate D2E/DX2 analytically            !
 !       d2        180.0      calculate D2E/DX2 analytically            !
 ------------------------------------------------------------------------
 Trust Radius=3.00D-01 FncErr=1.00D-07 GrdErr=1.00D-07 EigMax=2.50D+02 EigMin=1.00D-04
 Number of steps in this run=      2 maximum allowed number of steps=      2.
 GradGradGradGradGradGradGradGradGradGradGradGradGradGradGradGradGradGrad

 Leave Link  103 at Mon Feb 21 20:37:19 2022, MaxMem= 16106127360 cpu:               0.6 elap:               0.0
 (Enter /sw/contrib/gaussian/g16/B01/g16/l202.exe)
                          Input orientation:                          
 ---------------------------------------------------------------------
 Center     Atomic      Atomic             Coordinates (Angstroms)
 Number     Number       Type             X           Y           Z
 ---------------------------------------------------------------------
      1          1           0        0.000000    0.000000    0.000000
      2          8           0        0.000000    0.000000    0.968976
      3          8           0        1.447125    0.000000    1.119377
      4          7           0        1.608822    0.000000    2.569172
      5          8           0        2.750884    0.000000    2.826663
 ---------------------------------------------------------------------
                    Distance matrix (angstroms):
                    1          2          3          4          5
     1  H    0.000000
     2  O    0.968976   0.000000
     3  O    1.829529   1.454919   0.000000
     4  N    3.031329   2.269127   1.458784   0.000000
     5  O    3.944285   3.319392   2.148165   1.170729   0.000000
 Stoichiometry    HNO3
 Framework group  CS[SG(HNO3)]
 Deg. of freedom     7
 Full point group                 CS      NOp   2
 Largest Abelian subgroup         CS      NOp   2
 Largest concise Abelian subgroup C1      NOp   1
                         Standard orientation:                         
 ---------------------------------------------------------------------
 Center     Atomic      Atomic             Coordinates (Angstroms)
 Number     Number       Type             X           Y           Z
 ---------------------------------------------------------------------
      1          1           0        1.519791    1.691470   -0.000000
      2          8           0        1.453997    0.724731    0.000000
      3          8           0        0.000000    0.672936   -0.000000
      4          7           0       -0.259766   -0.762533    0.000000
      5          8           0       -1.416676   -0.941884   -0.000000
 ---------------------------------------------------------------------
 Rotational constants (GHZ):          54.8504689           5.0159750           4.5957061
 Leave Link  202 at Mon Feb 21 20:37:20 2022, MaxMem= 16106127360 cpu:               4.1 elap:               0.2
 (Enter /sw/contrib/gaussian/g16/B01/g16/l301.exe)
 Standard basis: Aug-CC-pVTZ (5D, 7F)
 Ernie: Thresh=  0.10000D-02 Tol=  0.10000D-05 Strict=F.
 Ernie:  12 primitive shells out of 131 were deleted.
 There are   166 symmetry adapted cartesian basis functions of A'  symmetry.
 There are    79 symmetry adapted cartesian basis functions of A"  symmetry.
 There are   136 symmetry adapted basis functions of A'  symmetry.
 There are    71 symmetry adapted basis functions of A"  symmetry.
   207 basis functions,   315 primitive gaussians,   245 cartesian basis functions
    16 alpha electrons       16 beta electrons
       nuclear repulsion energy       116.9106959772 Hartrees.
 IExCor=    0 DFT=F Ex=HF Corr=None ExCW=0 ScaHFX=  1.000000
 ScaDFX=  1.000000  1.000000  1.000000  1.000000 ScalE2=  1.000000  1.000000
 IRadAn=      5 IRanWt=     -1 IRanGd=            0 ICorTp=0 IEmpDi=  4
 NAtoms=    5 NActive=    5 NUniq=    5 SFac= 1.00D+00 NAtFMM=   60 NAOKFM=F Big=F
 Integral buffers will be    131072 words long.
 Raffenetti 1 integral format.
 Two-electron integral symmetry is turned on.
 Leave Link  301 at Mon Feb 21 20:37:20 2022, MaxMem= 16106127360 cpu:               2.5 elap:               0.1
 (Enter /sw/contrib/gaussian/g16/B01/g16/l302.exe)
 NPDir=0 NMtPBC=     1 NCelOv=     1 NCel=       1 NClECP=     1 NCelD=      1
         NCelK=      1 NCelE2=     1 NClLst=     1 CellRange=     0.0.
 One-electron integrals computed using PRISM.
 One-electron integral symmetry used in STVInt
 NBasis=   207 RedAO= T EigKep=  1.81D-04  NBF=   136    71
 NBsUse=   207 1.00D-06 EigRej= -1.00D+00 NBFU=   136    71
 Leave Link  302 at Mon Feb 21 20:37:20 2022, MaxMem= 16106127360 cpu:               4.4 elap:               0.2
 (Enter /sw/contrib/gaussian/g16/B01/g16/l303.exe)
 DipDrv:  MaxL=1.
 Leave Link  303 at Mon Feb 21 20:37:20 2022, MaxMem= 16106127360 cpu:               0.9 elap:               0.1
 (Enter /sw/contrib/gaussian/g16/B01/g16/l401.exe)
 ExpMin= 2.53D-02 ExpMax= 1.53D+04 ExpMxC= 5.22D+02 IAcc=3 IRadAn=         5 AccDes= 0.00D+00
 Harris functional with IExCor=  205 and IRadAn=       5 diagonalized for initial guess.
 HarFok:  IExCor=  205 AccDes= 0.00D+00 IRadAn=         5 IDoV= 1 UseB2=F ITyADJ=14
 ICtDFT=  3500011 ScaDFX=  1.000000  1.000000  1.000000  1.000000
 FoFCou: FMM=F IPFlag=           0 FMFlag=      100000 FMFlg1=           0
         NFxFlg=           0 DoJE=T BraDBF=F KetDBF=T FulRan=T
         wScrn=  0.000000 ICntrl=       500 IOpCl=  0 I1Cent=   200000004 NGrid=           0
         NMat0=    1 NMatS0=      1 NMatT0=    0 NMatD0=    1 NMtDS0=    0 NMtDT0=    0
 Petite list used in FoFCou.
 Harris En= -279.628264552962    
 JPrj=0 DoOrth=F DoCkMO=F.
 Initial guess orbital symmetries:
       Occupied  (A') (A') (A') (A') (A') (A') (A') (A') (A') (A')
                 (A") (A') (A') (A") (A") (A')
       Virtual   (A") (A') (A') (A') (A') (A') (A") (A') (A') (A')
                 (A") (A') (A") (A') (A') (A") (A') (A") (A') (A')
                 (A') (A') (A') (A') (A') (A") (A') (A") (A') (A')
                 (A") (A') (A") (A') (A') (A") (A') (A") (A') (A')
                 (A") (A') (A") (A') (A") (A') (A') (A') (A") (A")
                 (A') (A') (A') (A') (A") (A') (A") (A') (A") (A')
                 (A') (A') (A") (A') (A') (A") (A') (A") (A') (A')
                 (A") (A') (A') (A") (A") (A') (A') (A") (A') (A')
                 (A') (A") (A') (A") (A') (A") (A') (A") (A') (A')
                 (A') (A") (A') (A") (A') (A") (A") (A') (A') (A")
                 (A') (A') (A") (A') (A') (A') (A") (A') (A") (A')
                 (A") (A') (A') (A') (A") (A') (A') (A') (A") (A')
                 (A") (A') (A') (A") (A") (A') (A") (A') (A") (A')
                 (A') (A') (A') (A") (A") (A') (A") (A') (A') (A')
                 (A') (A") (A") (A') (A') (A") (A') (A') (A') (A')
                 (A") (A') (A') (A") (A') (A") (A') (A") (A") (A')
                 (A') (A") (A') (A") (A') (A") (A") (A") (A') (A')
                 (A") (A') (A") (A') (A") (A') (A") (A") (A') (A')
                 (A') (A') (A') (A') (A') (A') (A') (A') (A') (A')
                 (A')
 The electronic state of the initial guess is 1-A'.
 Leave Link  401 at Mon Feb 21 20:37:20 2022, MaxMem= 16106127360 cpu:               7.5 elap:               0.3
 (Enter /sw/contrib/gaussian/g16/B01/g16/l502.exe)
 Keep R1 ints in memory in symmetry-blocked form, NReq=348887737.
 FoFCou: FMM=F IPFlag=           0 FMFlag=           0 FMFlg1=           0
         NFxFlg=           0 DoJE=F BraDBF=F KetDBF=F FulRan=T
         wScrn=  0.000000 ICntrl=       600 IOpCl=  0 I1Cent=           0 NGrid=           0
         NMat0=    1 NMatS0=  21528 NMatT0=    0 NMatD0=    1 NMtDS0=    0 NMtDT0=    0
 Petite list used in FoFCou.
 Closed shell SCF:
 Using DIIS extrapolation, IDIIS=  1040.
 NGot= 16106127360 LenX= 15988850015 LenY= 15988789549
 Requested convergence on RMS density matrix=1.00D-08 within 128 cycles.
 Requested convergence on MAX density matrix=1.00D-06.
 Requested convergence on             energy=1.00D-06.
 No special actions if energy rises.

 Cycle   1  Pass 1  IDiag  1:
 E= -279.370151552649    
 DIIS: error= 2.79D-02 at cycle   1 NSaved=   1.
 NSaved= 1 IEnMin= 1 EnMin= -279.370151552649     IErMin= 1 ErrMin= 2.79D-02
 ErrMax= 2.79D-02  0.00D+00 EMaxC= 1.00D-01 BMatC= 4.38D-01 BMatP= 4.38D-01
 IDIUse=3 WtCom= 7.21D-01 WtEn= 2.79D-01
 Coeff-Com:  0.100D+01
 Coeff-En:   0.100D+01
 Coeff:      0.100D+01
 Gap=     0.513 Goal=   None    Shift=    0.000
 GapD=    0.513 DampG=2.000 DampE=0.500 DampFc=1.0000 IDamp=-1.
 RMSDP=1.62D-03 MaxDP=9.94D-02              OVMax= 1.13D-01

 Cycle   2  Pass 1  IDiag  1:
 E= -279.452010205666     Delta-E=       -0.081858653017 Rises=F Damp=F
 DIIS: error= 1.79D-02 at cycle   2 NSaved=   2.
 NSaved= 2 IEnMin= 2 EnMin= -279.452010205666     IErMin= 2 ErrMin= 1.79D-02
 ErrMax= 1.79D-02  0.00D+00 EMaxC= 1.00D-01 BMatC= 7.19D-02 BMatP= 4.38D-01
 IDIUse=3 WtCom= 8.21D-01 WtEn= 1.79D-01
 Coeff-Com:  0.195D+00 0.805D+00
 Coeff-En:   0.000D+00 0.100D+01
 Coeff:      0.160D+00 0.840D+00
 Gap=     0.530 Goal=   None    Shift=    0.000
 RMSDP=9.01D-04 MaxDP=3.74D-02 DE=-8.19D-02 OVMax= 6.92D-02

 Cycle   3  Pass 1  IDiag  1:
 E= -279.481152326074     Delta-E=       -0.029142120408 Rises=F Damp=F
 DIIS: error= 1.04D-02 at cycle   3 NSaved=   3.
 NSaved= 3 IEnMin= 3 EnMin= -279.481152326074     IErMin= 3 ErrMin= 1.04D-02
 ErrMax= 1.04D-02  0.00D+00 EMaxC= 1.00D-01 BMatC= 2.88D-02 BMatP= 7.19D-02
 IDIUse=3 WtCom= 8.96D-01 WtEn= 1.04D-01
 Coeff-Com: -0.330D-01 0.378D+00 0.655D+00
 Coeff-En:   0.000D+00 0.241D+00 0.759D+00
 Coeff:     -0.296D-01 0.364D+00 0.665D+00
 Gap=     0.510 Goal=   None    Shift=    0.000
 RMSDP=3.77D-04 MaxDP=1.54D-02 DE=-2.91D-02 OVMax= 3.82D-02

 Cycle   4  Pass 1  IDiag  1:
 E= -279.500281024675     Delta-E=       -0.019128698601 Rises=F Damp=F
 DIIS: error= 1.28D-03 at cycle   4 NSaved=   4.
 NSaved= 4 IEnMin= 4 EnMin= -279.500281024675     IErMin= 4 ErrMin= 1.28D-03
 ErrMax= 1.28D-03  0.00D+00 EMaxC= 1.00D-01 BMatC= 4.94D-04 BMatP= 2.88D-02
 IDIUse=3 WtCom= 9.87D-01 WtEn= 1.28D-02
 Coeff-Com: -0.117D-01 0.573D-01 0.158D+00 0.796D+00
 Coeff-En:   0.000D+00 0.000D+00 0.000D+00 0.100D+01
 Coeff:     -0.115D-01 0.566D-01 0.156D+00 0.799D+00
 Gap=     0.502 Goal=   None    Shift=    0.000
 RMSDP=9.05D-05 MaxDP=2.79D-03 DE=-1.91D-02 OVMax= 1.12D-02

 Cycle   5  Pass 1  IDiag  1:
 E= -279.500958833624     Delta-E=       -0.000677808950 Rises=F Damp=F
 DIIS: error= 7.23D-04 at cycle   5 NSaved=   5.
 NSaved= 5 IEnMin= 5 EnMin= -279.500958833624     IErMin= 5 ErrMin= 7.23D-04
 ErrMax= 7.23D-04  0.00D+00 EMaxC= 1.00D-01 BMatC= 8.75D-05 BMatP= 4.94D-04
 IDIUse=3 WtCom= 9.93D-01 WtEn= 7.23D-03
 Coeff-Com:  0.614D-02-0.725D-01-0.118D+00 0.210D-01 0.116D+01
 Coeff-En:   0.000D+00 0.000D+00 0.000D+00 0.000D+00 0.100D+01
 Coeff:      0.610D-02-0.719D-01-0.117D+00 0.208D-01 0.116D+01
 Gap=     0.502 Goal=   None    Shift=    0.000
 RMSDP=7.64D-05 MaxDP=2.10D-03 DE=-6.78D-04 OVMax= 1.11D-02

 Cycle   6  Pass 1  IDiag  1:
 E= -279.501274840064     Delta-E=       -0.000316006440 Rises=F Damp=F
 DIIS: error= 2.92D-04 at cycle   6 NSaved=   6.
 NSaved= 6 IEnMin= 6 EnMin= -279.501274840064     IErMin= 6 ErrMin= 2.92D-04
 ErrMax= 2.92D-04  0.00D+00 EMaxC= 1.00D-01 BMatC= 1.68D-05 BMatP= 8.75D-05
 IDIUse=3 WtCom= 9.97D-01 WtEn= 2.92D-03
 Coeff-Com:  0.639D-03 0.105D-02 0.355D-02-0.129D+00-0.223D+00 0.135D+01
 Coeff-En:   0.000D+00 0.000D+00 0.000D+00 0.000D+00 0.000D+00 0.100D+01
 Coeff:      0.637D-03 0.105D-02 0.354D-02-0.129D+00-0.222D+00 0.135D+01
 Gap=     0.502 Goal=   None    Shift=    0.000
 RMSDP=4.53D-05 MaxDP=1.25D-03 DE=-3.16D-04 OVMax= 5.54D-03

 Cycle   7  Pass 1  IDiag  1:
 E= -279.501347621040     Delta-E=       -0.000072780976 Rises=F Damp=F
 DIIS: error= 1.26D-04 at cycle   7 NSaved=   7.
 NSaved= 7 IEnMin= 7 EnMin= -279.501347621040     IErMin= 7 ErrMin= 1.26D-04
 ErrMax= 1.26D-04  0.00D+00 EMaxC= 1.00D-01 BMatC= 4.70D-06 BMatP= 1.68D-05
 IDIUse=3 WtCom= 9.99D-01 WtEn= 1.26D-03
 Coeff-Com: -0.942D-03 0.137D-01 0.267D-01-0.259D-01-0.292D+00 0.408D+00
 Coeff-Com:  0.871D+00
 Coeff-En:   0.000D+00 0.000D+00 0.000D+00 0.000D+00 0.000D+00 0.000D+00
 Coeff-En:   0.100D+01
 Coeff:     -0.941D-03 0.137D-01 0.266D-01-0.259D-01-0.292D+00 0.407D+00
 Coeff:      0.871D+00
 Gap=     0.503 Goal=   None    Shift=    0.000
 RMSDP=1.34D-05 MaxDP=3.79D-04 DE=-7.28D-05 OVMax= 1.56D-03

 Cycle   8  Pass 1  IDiag  1:
 E= -279.501356732591     Delta-E=       -0.000009111551 Rises=F Damp=F
 DIIS: error= 5.68D-05 at cycle   8 NSaved=   8.
 NSaved= 8 IEnMin= 8 EnMin= -279.501356732591     IErMin= 8 ErrMin= 5.68D-05
 ErrMax= 5.68D-05  0.00D+00 EMaxC= 1.00D-01 BMatC= 6.07D-07 BMatP= 4.70D-06
 IDIUse=1 WtCom= 1.00D+00 WtEn= 0.00D+00
 Coeff-Com: -0.450D-03 0.346D-02 0.762D-02 0.275D-01-0.413D-01-0.196D+00
 Coeff-Com:  0.154D+00 0.104D+01
 Coeff:     -0.450D-03 0.346D-02 0.762D-02 0.275D-01-0.413D-01-0.196D+00
 Coeff:      0.154D+00 0.104D+01
 Gap=     0.502 Goal=   None    Shift=    0.000
 RMSDP=7.02D-06 MaxDP=2.05D-04 DE=-9.11D-06 OVMax= 7.57D-04

 Cycle   9  Pass 1  IDiag  1:
 E= -279.501358546825     Delta-E=       -0.000001814234 Rises=F Damp=F
 DIIS: error= 1.54D-05 at cycle   9 NSaved=   9.
 NSaved= 9 IEnMin= 9 EnMin= -279.501358546825     IErMin= 9 ErrMin= 1.54D-05
 ErrMax= 1.54D-05  0.00D+00 EMaxC= 1.00D-01 BMatC= 6.87D-08 BMatP= 6.07D-07
 IDIUse=1 WtCom= 1.00D+00 WtEn= 0.00D+00
 Coeff-Com:  0.123D-03-0.172D-02-0.307D-02-0.204D-02 0.342D-01-0.322D-03
 Coeff-Com: -0.161D+00-0.111D+00 0.124D+01
 Coeff:      0.123D-03-0.172D-02-0.307D-02-0.204D-02 0.342D-01-0.322D-03
 Coeff:     -0.161D+00-0.111D+00 0.124D+01
 Gap=     0.502 Goal=   None    Shift=    0.000
 RMSDP=1.94D-06 MaxDP=6.63D-05 DE=-1.81D-06 OVMax= 1.76D-04

 Cycle  10  Pass 1  IDiag  1:
 E= -279.501358706990     Delta-E=       -0.000000160164 Rises=F Damp=F
 DIIS: error= 4.34D-06 at cycle  10 NSaved=  10.
 NSaved=10 IEnMin=10 EnMin= -279.501358706990     IErMin=10 ErrMin= 4.34D-06
 ErrMax= 4.34D-06  0.00D+00 EMaxC= 1.00D-01 BMatC= 5.57D-09 BMatP= 6.87D-08
 IDIUse=1 WtCom= 1.00D+00 WtEn= 0.00D+00
 Coeff-Com:  0.309D-04-0.242D-03-0.320D-03-0.270D-02 0.161D-02 0.195D-01
 Coeff-Com: -0.117D-01-0.752D-01-0.808D-01 0.115D+01
 Coeff:      0.309D-04-0.242D-03-0.320D-03-0.270D-02 0.161D-02 0.195D-01
 Coeff:     -0.117D-01-0.752D-01-0.808D-01 0.115D+01
 Gap=     0.502 Goal=   None    Shift=    0.000
 RMSDP=5.05D-07 MaxDP=2.11D-05 DE=-1.60D-07 OVMax= 4.19D-05

 Cycle  11  Pass 1  IDiag  1:
 E= -279.501358719556     Delta-E=       -0.000000012566 Rises=F Damp=F
 DIIS: error= 2.04D-06 at cycle  11 NSaved=  11.
 NSaved=11 IEnMin=11 EnMin= -279.501358719556     IErMin=11 ErrMin= 2.04D-06
 ErrMax= 2.04D-06  0.00D+00 EMaxC= 1.00D-01 BMatC= 6.63D-10 BMatP= 5.57D-09
 IDIUse=1 WtCom= 1.00D+00 WtEn= 0.00D+00
 Coeff-Com: -0.213D-04 0.245D-03 0.488D-03 0.527D-03-0.430D-02-0.345D-02
 Coeff-Com:  0.201D-01 0.322D-01-0.139D+00-0.179D+00 0.127D+01
 Coeff:     -0.213D-04 0.245D-03 0.488D-03 0.527D-03-0.430D-02-0.345D-02
 Coeff:      0.201D-01 0.322D-01-0.139D+00-0.179D+00 0.127D+01
 Gap=     0.502 Goal=   None    Shift=    0.000
 RMSDP=1.78D-07 MaxDP=6.55D-06 DE=-1.26D-08 OVMax= 1.74D-05

 Cycle  12  Pass 1  IDiag  1:
 E= -279.501358721367     Delta-E=       -0.000000001811 Rises=F Damp=F
 DIIS: error= 5.90D-07 at cycle  12 NSaved=  12.
 NSaved=12 IEnMin=12 EnMin= -279.501358721367     IErMin=12 ErrMin= 5.90D-07
 ErrMax= 5.90D-07  0.00D+00 EMaxC= 1.00D-01 BMatC= 7.16D-11 BMatP= 6.63D-10
 IDIUse=1 WtCom= 1.00D+00 WtEn= 0.00D+00
 Coeff-Com:  0.124D-05-0.292D-04-0.630D-04 0.184D-03 0.108D-02-0.230D-02
 Coeff-Com: -0.409D-02 0.537D-02 0.417D-01-0.114D+00-0.278D+00 0.135D+01
 Coeff:      0.124D-05-0.292D-04-0.630D-04 0.184D-03 0.108D-02-0.230D-02
 Coeff:     -0.409D-02 0.537D-02 0.417D-01-0.114D+00-0.278D+00 0.135D+01
 Gap=     0.502 Goal=   None    Shift=    0.000
 RMSDP=7.17D-08 MaxDP=2.83D-06 DE=-1.81D-09 OVMax= 6.69D-06

 Cycle  13  Pass 1  IDiag  1:
 E= -279.501358721597     Delta-E=       -0.000000000230 Rises=F Damp=F
 DIIS: error= 1.67D-07 at cycle  13 NSaved=  13.
 NSaved=13 IEnMin=13 EnMin= -279.501358721597     IErMin=13 ErrMin= 1.67D-07
 ErrMax= 1.67D-07  0.00D+00 EMaxC= 1.00D-01 BMatC= 4.00D-12 BMatP= 7.16D-11
 IDIUse=1 WtCom= 1.00D+00 WtEn= 0.00D+00
 Coeff-Com:  0.128D-05-0.140D-04-0.223D-04-0.886D-04 0.122D-03 0.749D-03
 Coeff-Com: -0.768D-03-0.331D-02 0.524D-03 0.411D-01-0.355D-01-0.326D+00
 Coeff-Com:  0.132D+01
 Coeff:      0.128D-05-0.140D-04-0.223D-04-0.886D-04 0.122D-03 0.749D-03
 Coeff:     -0.768D-03-0.331D-02 0.524D-03 0.411D-01-0.355D-01-0.326D+00
 Coeff:      0.132D+01
 Gap=     0.502 Goal=   None    Shift=    0.000
 RMSDP=1.91D-08 MaxDP=5.60D-07 DE=-2.30D-10 OVMax= 1.56D-06

 Cycle  14  Pass 1  IDiag  1:
 E= -279.501358721611     Delta-E=       -0.000000000014 Rises=F Damp=F
 DIIS: error= 2.43D-08 at cycle  14 NSaved=  14.
 NSaved=14 IEnMin=14 EnMin= -279.501358721611     IErMin=14 ErrMin= 2.43D-08
 ErrMax= 2.43D-08  0.00D+00 EMaxC= 1.00D-01 BMatC= 1.94D-13 BMatP= 4.00D-12
 IDIUse=1 WtCom= 1.00D+00 WtEn= 0.00D+00
 Coeff-Com: -0.188D-06 0.309D-05 0.552D-05 0.444D-05-0.820D-04 0.463D-04
 Coeff-Com:  0.270D-03 0.233D-03-0.242D-02 0.144D-02 0.169D-01-0.256D-01
 Coeff-Com: -0.199D+00 0.121D+01
 Coeff:     -0.188D-06 0.309D-05 0.552D-05 0.444D-05-0.820D-04 0.463D-04
 Coeff:      0.270D-03 0.233D-03-0.242D-02 0.144D-02 0.169D-01-0.256D-01
 Coeff:     -0.199D+00 0.121D+01
 Gap=     0.502 Goal=   None    Shift=    0.000
 RMSDP=3.77D-09 MaxDP=9.10D-08 DE=-1.36D-11 OVMax= 3.39D-07

 SCF Done:  E(RHF) =  -279.501358722     A.U. after   14 cycles
            NFock= 14  Conv=0.38D-08     -V/T= 2.0023
 KE= 2.788515595326D+02 PE=-8.951478516165D+02 EE= 2.198842373851D+02
 Leave Link  502 at Mon Feb 21 20:37:24 2022, MaxMem= 16106127360 cpu:              56.1 elap:               3.8
 (Enter /sw/contrib/gaussian/g16/B01/g16/l801.exe)
 ExpMin= 2.53D-02 ExpMax= 1.53D+04 ExpMxC= 5.22D+02 IAcc=3 IRadAn=         5 AccDes= 0.00D+00
 HarFok:  IExCor=  205 AccDes= 0.00D+00 IRadAn=         5 IDoV=-2 UseB2=F ITyADJ=14
 ICtDFT= 12500011 ScaDFX=  1.000000  1.000000  1.000000  1.000000
 Largest valence mixing into a core orbital is  2.08D-04
 Largest core mixing into a valence orbital is  3.63D-05
 Range of M.O.s used for correlation:     5   207
 NBasis=   207 NAE=    16 NBE=    16 NFC=     4 NFV=     0
 NROrb=    203 NOA=    12 NOB=    12 NVA=   191 NVB=   191

 **** Warning!!: The largest alpha MO coefficient is  0.17313873D+02

 Leave Link  801 at Mon Feb 21 20:37:24 2022, MaxMem= 16106127360 cpu:               2.3 elap:               0.1
 (Enter /sw/contrib/gaussian/g16/B01/g16/l906.exe)
 Frozen-core derivative calculation, NFC=   4 NFV=   0.
 FulOut=F Deriv=T AODrv=T NAtomX=     5
   MMem=           0  MDisk=          12 MDiskD=          12
  W3Min=      811440 MinDsk=     2425030 NBas6D=         245
 NBas2D=       30762    NTT=       30135    LW2=     7400000
    MDV= 16105574283 MDiskM=      328644 NBas2p=       30702
 Disk-based method using ON**2 memory for 12 occupieds at a time.
 Permanent disk used for amplitudes=    11516536 words.
 Estimated scratch disk usage=   321251614 words.
 IMap=   1   2   3   4   5   6   7   8   9  10  11  12  13  14  15  16
 Actual    scratch disk usage=   310331678 words.
 JobTyp=1 Pass  1:  I=   5 to  16 NPSUse= 28 ParTrn=T ParDer=T DoDerP=T.
 (rs|ai) integrals will be sorted in core.
 Spin components of T(2) and E(2):
     alpha-alpha T2 =       0.3404246549D-01 E2=     -0.1224492423D+00
     alpha-beta  T2 =       0.1869226108D+00 E2=     -0.7003893180D+00
     beta-beta   T2 =       0.3404246549D-01 E2=     -0.1224492423D+00
 The integrals were generated   1 times.
 ANorm=    0.1120271191D+01
 E2 =    -0.9452878026D+00 EUMP2 =    -0.28044664652425D+03
 Leave Link  906 at Mon Feb 21 20:39:01 2022, MaxMem= 16106127360 cpu:            2710.2 elap:              97.0
 (Enter /sw/contrib/gaussian/g16/B01/g16/l1101.exe)
 Using compressed Sx but separate Hx and Fx, NAtomX=     5.
 Will process      6 centers per pass.
 Leave Link 1101 at Mon Feb 21 20:39:02 2022, MaxMem= 16106127360 cpu:               5.2 elap:               0.2
 (Enter /sw/contrib/gaussian/g16/B01/g16/l1102.exe)
 Leave Link 1102 at Mon Feb 21 20:39:02 2022, MaxMem= 16106127360 cpu:               0.9 elap:               0.1
 (Enter /sw/contrib/gaussian/g16/B01/g16/l1110.exe)
 Forming Gx(P) for the SCF density, NAtomX=     5.
 Integral derivatives from FoFJK, PRISM(SPDF).
 Do as many integral derivatives as possible in FoFJK.
 G2DrvN: MDV=   16106126844.
 G2DrvN: will do     6 centers at a time, making    1 passes.
 Calling FoFCou, ICntrl=  3107 FMM=F I1Cent=   0 AccDes= 0.00D+00.
 FoFJK:  IHMeth= 1 ICntrl=    3107 DoSepK=F KAlg= 0 I1Cent=           0 FoldK=F
 IRaf=         0 NMat=       1 IRICut=       1 DoRegI=T DoRafI=F ISym2E= 1 IDoP0=0 IntGTp=1.
 FoFCou: FMM=F IPFlag=           0 FMFlag=      100000 FMFlg1=           0
         NFxFlg=           0 DoJE=F BraDBF=F KetDBF=F FulRan=T
         wScrn=  0.000000 ICntrl=      3107 IOpCl=  0 I1Cent=           0 NGrid=           0
         NMat0=    1 NMatS0=      1 NMatT0=    0 NMatD0=    1 NMtDS0=    0 NMtDT0=    0
 Petite list used in FoFCou.
 End of G2Drv F.D. properties file   721 does not exist.
 End of G2Drv F.D. properties file   722 does not exist.
 End of G2Drv F.D. properties file   788 does not exist.
 Leave Link 1110 at Mon Feb 21 20:39:05 2022, MaxMem= 16106127360 cpu:              83.5 elap:               3.0
 (Enter /sw/contrib/gaussian/g16/B01/g16/l1002.exe)
 Minotr:  Closed shell wavefunction.
          IDoAtm=11111
          Frozen-core window.
          Direct CPHF calculation.
          Differentiating once with respect to electric field.
                with respect to dipole field.
          Differentiating once with respect to nuclear coordinates.
          Requested convergence is 1.0D-08 RMS, and 1.0D-07 maximum.
          Secondary convergence is 1.0D-12 RMS, and 1.0D-12 maximum.
          NewPWx=T KeepS1=T KeepF1=T KeepIn=T MapXYZ=F SortEE=F KeepMc=T.
 Keep R1 ints in memory in symmetry-blocked form, NReq=348888983.
 FoFCou: FMM=F IPFlag=           0 FMFlag=           0 FMFlg1=           0
         NFxFlg=           0 DoJE=F BraDBF=F KetDBF=F FulRan=T
         wScrn=  0.000000 ICntrl=       600 IOpCl=  0 I1Cent=           0 NGrid=           0
         NMat0=    1 NMatS0=  21528 NMatT0=    0 NMatD0=    1 NMtDS0=    0 NMtDT0=    0
 Petite list used in FoFCou.
          MDV=   16106127360 using IRadAn=       1.
          Solving linear equations simultaneously, MaxMat=       0.
          There are    18 degrees of freedom in the 1st order CPHF.  IDoFFX=6 NUNeed=    18.
     15 vectors produced by pass  0 Test12= 1.70D-14 5.56D-09 XBig12= 8.28D+00 1.07D+00.
 AX will form    15 AO Fock derivatives at one time.
     15 vectors produced by pass  1 Test12= 1.70D-14 5.56D-09 XBig12= 1.34D+00 2.66D-01.
     15 vectors produced by pass  2 Test12= 1.70D-14 5.56D-09 XBig12= 1.40D-01 9.70D-02.
     15 vectors produced by pass  3 Test12= 1.70D-14 5.56D-09 XBig12= 4.91D-03 1.10D-02.
     15 vectors produced by pass  4 Test12= 1.70D-14 5.56D-09 XBig12= 9.92D-05 1.94D-03.
     15 vectors produced by pass  5 Test12= 1.70D-14 5.56D-09 XBig12= 1.42D-06 1.85D-04.
     15 vectors produced by pass  6 Test12= 1.70D-14 5.56D-09 XBig12= 1.13D-08 1.46D-05.
     12 vectors produced by pass  7 Test12= 1.70D-14 5.56D-09 XBig12= 8.22D-11 1.32D-06.
      3 vectors produced by pass  8 Test12= 1.70D-14 5.56D-09 XBig12= 5.68D-13 1.20D-07.
      2 vectors produced by pass  9 Test12= 1.70D-14 5.56D-09 XBig12= 3.71D-15 1.06D-08.
 InvSVY:  IOpt=1 It=  1 EMax= 1.44D-15
 Solved reduced A of dimension   122 with    15 vectors.
 FullF1:  Do perturbations      1 to      18.
 Saving first derivative matrices.
 End of Minotr F.D. properties file   721 does not exist.
 End of Minotr F.D. properties file   722 does not exist.
 End of Minotr F.D. properties file   788 does not exist.
 Leave Link 1002 at Mon Feb 21 20:39:08 2022, MaxMem= 16106127360 cpu:              80.2 elap:               2.9
 (Enter /sw/contrib/gaussian/g16/B01/g16/l811.exe)
 MDV= 16106127360.
 Form MO integral derivatives with frozen-active canonical formalism.
 MOERI=1 MOERIx=1 NAtoms=     5 NAtomX=     5.
 Discarding MO integrals.
 MO basis two electron integral derivatives will not be stored on disk.
 IAlg= 3 DoFC=T DoPWx=T Debug=F.
 Frozen-core window:  NFC=   4 NFV=   0.
 Reordered first order wavefunction length =     18678272
 In DefCFB: NBatch=  1 ICI= 16 ICA=191 LFMax= 96
            Large arrays: LIAPS=   619940160 LIARS=   288257200 words.
 In StABat: MaxSiz= 55 MinSiz= 25 NAtomB=  5
 DoIAMN: NPSUse= 28.
 Leave Link  811 at Mon Feb 21 20:40:29 2022, MaxMem= 16106127360 cpu:            2279.3 elap:              81.5
 (Enter /sw/contrib/gaussian/g16/B01/g16/l804.exe)
 Frozen-core window:  NFC=   4 NFV=   0.
 Closed-shell transformation, MDV= 16106127360 ITran=4 ISComp=1.
 Semi-Direct transformation.
 ModeAB=           2 MOrb=            16 LenV=   16104923037
 LASXX=     67341636 LTotXX=    67341636 LenRXX=    67341636
 LTotAB=    68301760 MaxLAS=    99807120 LenRXY=    99807120
 NonZer=   134683272 LenScr=   202817536 LnRSAI=           0
 LnScr1=           0 LExtra=           0 Total=    369966292
 MaxDsk=          -1 SrtSym=           F ITran=            4
 DoSDTr:  NPSUse= 28
 JobTyp=0 Pass  1:  I=   1 to  16.
 (rs|ai) integrals will be sorted in core.
 Complete sort for first half transformation.
 First half transformation complete.
 Begin second half transformation for I=  10.
 Begin second half transformation for I=  10.
 Complete sort for second half transformation.
 Second half transformation complete.
 Spin components of T(2) and E(2):
     alpha-alpha T2 =       0.3404246549D-01 E2=     -0.1224492423D+00
     alpha-beta  T2 =       0.1869226108D+00 E2=     -0.7003893180D+00
     beta-beta   T2 =       0.3404246549D-01 E2=     -0.1224492423D+00
 ANorm=    0.1584302712D+01
 E2 =    -0.9452878026D+00 EUMP2 =    -0.28044664652425D+03
 Leave Link  804 at Mon Feb 21 20:40:45 2022, MaxMem= 16106127360 cpu:             429.5 elap:              15.4
 (Enter /sw/contrib/gaussian/g16/B01/g16/l1002.exe)
 Minotr:  Closed shell wavefunction.
          Computing MP2/KS-MP2 derivatives.
          Using Z-Vector for PSCF gradient.
          Skipping F1 and S1 gradient terms here.
          IDoAtm=11111
          Frozen-core window.
          Using MO integrals in the linear equations.
          Forming densities via direct SCF.
          Differentiating once with respect to electric field.
                with respect to dipole field.
          Differentiating once with respect to nuclear coordinates.
          Using symmetry in CPHF.
          Requested convergence is 1.0D-10 RMS, and 1.0D-09 maximum.
          NewPWx=F KeepS1=T KeepF1=T KeepIn=T MapXYZ=F SortEE=F KeepMc=T.
          MDV=   16106127360 using IRadAn=       5.
          Solving linear equations separately, MaxMat=       0.
          There are     1 degrees of freedom in the 1st order CPHF.  IDoFFX=0 NUNeed=     1.
 FoFJK:  IHMeth= 1 ICntrl=       0 DoSepK=F KAlg= 0 I1Cent=           0 FoldK=F
 IRaf=         0 NMat=       1 IRICut=       1 DoRegI=T DoRafI=F ISym2E= 0 IDoP0=0 IntGTp=1.
 FoFCou: FMM=F IPFlag=           0 FMFlag=      100000 FMFlg1=           0
         NFxFlg=           0 DoJE=F BraDBF=F KetDBF=F FulRan=T
         wScrn=  0.000000 ICntrl=         0 IOpCl=  0 I1Cent=           0 NGrid=           0
         NMat0=    1 NMatS0=      1 NMatT0=    0 NMatD0=    1 NMtDS0=    0 NMtDT0=    0
 Symmetry not used in FoFCou.
 LinEq1:  Iter=  0 NonCon=     1 RMS=5.96D-03 Max=1.32D-01 NDo=     1
 LinEq1:  Iter=  1 NonCon=     1 RMS=1.90D-03 Max=3.82D-02 NDo=     1
 LinEq1:  Iter=  2 NonCon=     1 RMS=8.68D-04 Max=1.43D-02 NDo=     1
 LinEq1:  Iter=  3 NonCon=     1 RMS=3.86D-04 Max=7.77D-03 NDo=     1
 LinEq1:  Iter=  4 NonCon=     1 RMS=1.19D-04 Max=1.92D-03 NDo=     1
 LinEq1:  Iter=  5 NonCon=     1 RMS=4.49D-05 Max=7.18D-04 NDo=     1
 LinEq1:  Iter=  6 NonCon=     1 RMS=2.01D-05 Max=2.35D-04 NDo=     1
 LinEq1:  Iter=  7 NonCon=     1 RMS=8.12D-06 Max=1.59D-04 NDo=     1
 LinEq1:  Iter=  8 NonCon=     1 RMS=3.47D-06 Max=3.39D-05 NDo=     1
 LinEq1:  Iter=  9 NonCon=     1 RMS=9.45D-07 Max=1.31D-05 NDo=     1
 LinEq1:  Iter= 10 NonCon=     1 RMS=1.86D-07 Max=2.03D-06 NDo=     1
 LinEq1:  Iter= 11 NonCon=     1 RMS=3.47D-08 Max=3.54D-07 NDo=     1
 LinEq1:  Iter= 12 NonCon=     1 RMS=8.35D-09 Max=1.28D-07 NDo=     1
 LinEq1:  Iter= 13 NonCon=     1 RMS=1.50D-09 Max=2.54D-08 NDo=     1
 LinEq1:  Iter= 14 NonCon=     1 RMS=2.72D-10 Max=3.83D-09 NDo=     1
 LinEq1:  Iter= 15 NonCon=     0 RMS=4.93D-11 Max=5.54D-10 NDo=     1
 Linear equations converged to 1.000D-10 1.000D-09 after    15 iterations.
 End of Minotr F.D. properties file   721 does not exist.
 End of Minotr F.D. properties file   722 does not exist.
 End of Minotr F.D. properties file   788 does not exist.
 Leave Link 1002 at Mon Feb 21 20:40:47 2022, MaxMem= 16106127360 cpu:              65.8 elap:               2.4
 (Enter /sw/contrib/gaussian/g16/B01/g16/l1102.exe)
 Use density number 2.
 Symmetrizing basis deriv contribution to polar:
 IMax=3 JMax=2 DiffMx= 0.00D+00
 Leave Link 1102 at Mon Feb 21 20:40:47 2022, MaxMem= 16106127360 cpu:               3.7 elap:               0.2
 (Enter /sw/contrib/gaussian/g16/B01/g16/l1110.exe)
 Forming Gx(P) for generalized density number  2 NAtomX=     5.
 Integral derivatives from FoFJK, PRISM(SPDF).
 Do as many integral derivatives as possible in FoFJK.
 G2DrvN: MDV=   16106126844.
 G2DrvN: will do     6 centers at a time, making    1 passes.
 Calling FoFCou, ICntrl=  3107 FMM=F I1Cent=   0 AccDes= 0.00D+00.
 FoFJK:  IHMeth= 1 ICntrl=    3107 DoSepK=F KAlg= 0 I1Cent=           0 FoldK=F
 IRaf=         0 NMat=       1 IRICut=       1 DoRegI=T DoRafI=F ISym2E= 1 IDoP0=0 IntGTp=1.
 FoFCou: FMM=F IPFlag=           0 FMFlag=      100000 FMFlg1=           0
         NFxFlg=           0 DoJE=F BraDBF=F KetDBF=F FulRan=T
         wScrn=  0.000000 ICntrl=      3107 IOpCl=  0 I1Cent=           0 NGrid=           0
         NMat0=    1 NMatS0=      1 NMatT0=    0 NMatD0=    1 NMtDS0=    0 NMtDT0=    0
 Petite list used in FoFCou.
 End of G2Drv F.D. properties file   721 does not exist.
 End of G2Drv F.D. properties file   722 does not exist.
 End of G2Drv F.D. properties file   788 does not exist.
 Leave Link 1110 at Mon Feb 21 20:40:50 2022, MaxMem= 16106127360 cpu:              83.8 elap:               3.0
 (Enter /sw/contrib/gaussian/g16/B01/g16/l1112.exe)
 MP22nd: MDV=   16106127360
 This link is doing NAtomX=     5 total of    18 degrees of freedom.
 Using ON3 I/O method in MakUI.
 Frozen-core window:  NFC=   4 NFV=   0.
 Using Ix for Sx.
 Use MO integrals over full window.
 Using OV2 memory method for fx*t*t/D, MaxI=    16 DoOO2=F NP=  28.
 R2 and R3 integrals will be kept in memory, NReq=   915591705.
 FoFCou: FMM=F IPFlag=           0 FMFlag=           0 FMFlg1=           0
         NFxFlg=           0 DoJE=F BraDBF=F KetDBF=F FulRan=T
         wScrn=  0.000000 ICntrl=       600 IOpCl=  0 I1Cent=           0 NGrid=           0
         NMat0=    1 NMatS0=      1 NMatT0=    0 NMatD0=    1 NMtDS0=    0 NMtDT0=    0
 Symmetry not used in FoFCou.
 DD1Dir will call FoFMem   1 times, MxPair=       272
 NAB=   136 NAA=     0 NBB=     0.
 Symmetry is being used.
 FoFJK:  IHMeth= 1 ICntrl=       0 DoSepK=F KAlg= 0 I1Cent=           0 FoldK=F
 IRaf=         0 NMat=      18 IRICut=      45 DoRegI=T DoRafI=T ISym2E= 2 IDoP0=3 IntGTp=3.
 Discarding MO integrals.
 Leave Link 1112 at Mon Feb 21 20:41:24 2022, MaxMem= 16106127360 cpu:             946.7 elap:              34.2
 (Enter /sw/contrib/gaussian/g16/B01/g16/l601.exe)
 Copying SCF densities to generalized density rwf, IOpCl= 0 IROHF=0.

 **********************************************************************

            Population analysis using the MP2 Density.

 **********************************************************************

 Orbital symmetries:
       Occupied  (A') (A') (A') (A') (A') (A') (A') (A') (A') (A')
                 (A") (A') (A") (A') (A") (A')
       Virtual   (A') (A") (A') (A') (A") (A') (A') (A') (A") (A')
                 (A") (A') (A') (A') (A") (A') (A') (A") (A') (A')
                 (A') (A') (A') (A') (A") (A') (A') (A") (A') (A')
                 (A") (A') (A") (A') (A') (A") (A') (A') (A") (A')
                 (A") (A') (A") (A') (A') (A") (A') (A') (A") (A')
                 (A") (A') (A') (A') (A") (A') (A") (A') (A") (A')
                 (A') (A') (A") (A') (A') (A") (A') (A") (A') (A')
                 (A") (A') (A') (A") (A") (A') (A') (A") (A') (A')
                 (A') (A") (A') (A") (A') (A") (A') (A") (A') (A')
                 (A") (A') (A') (A") (A') (A") (A') (A") (A') (A')
                 (A") (A') (A") (A') (A') (A") (A') (A') (A") (A')
                 (A") (A') (A') (A') (A") (A') (A') (A') (A") (A')
                 (A") (A') (A") (A') (A') (A") (A") (A') (A") (A')
                 (A') (A') (A') (A") (A") (A") (A') (A') (A') (A')
                 (A") (A') (A") (A') (A') (A") (A') (A') (A') (A')
                 (A") (A') (A') (A") (A') (A") (A') (A") (A') (A")
                 (A') (A") (A') (A') (A") (A") (A") (A') (A") (A')
                 (A") (A') (A") (A') (A") (A') (A") (A") (A') (A')
                 (A') (A') (A') (A') (A') (A') (A') (A') (A') (A')
                 (A')
 The electronic state is 1-A'.
 Alpha  occ. eigenvalues --  -20.69070 -20.68427 -20.66062 -15.81280  -1.62411
 Alpha  occ. eigenvalues --   -1.49679  -1.25416  -0.94816  -0.77363  -0.75811
 Alpha  occ. eigenvalues --   -0.71198  -0.67890  -0.62075  -0.59097  -0.48543
 Alpha  occ. eigenvalues --   -0.47252
 Alpha virt. eigenvalues --    0.02981   0.07160   0.08593   0.10166   0.13387
 Alpha virt. eigenvalues --    0.13406   0.14411   0.15462   0.17820   0.19400
 Alpha virt. eigenvalues --    0.19966   0.20641   0.22072   0.23535   0.23736
 Alpha virt. eigenvalues --    0.26532   0.29344   0.30373   0.31095   0.34329
 Alpha virt. eigenvalues --    0.35000   0.38729   0.42332   0.43114   0.52761
 Alpha virt. eigenvalues --    0.52937   0.55816   0.58121   0.62609   0.63813
 Alpha virt. eigenvalues --    0.67462   0.68477   0.70649   0.71011   0.72742
 Alpha virt. eigenvalues --    0.72859   0.74444   0.79312   0.79411   0.81149
 Alpha virt. eigenvalues --    0.81225   0.82956   0.86778   0.90862   0.92102
 Alpha virt. eigenvalues --    0.92728   0.95493   0.97663   0.98587   1.01731
 Alpha virt. eigenvalues --    1.05161   1.05450   1.08262   1.11746   1.14347
 Alpha virt. eigenvalues --    1.19009   1.22089   1.23497   1.33939   1.35170
 Alpha virt. eigenvalues --    1.38569   1.45632   1.48718   1.50643   1.53738
 Alpha virt. eigenvalues --    1.56660   1.57956   1.61089   1.66270   1.67058
 Alpha virt. eigenvalues --    1.70314   1.79696   1.83074   1.83586   1.87748
 Alpha virt. eigenvalues --    1.91103   1.95508   1.99376   2.00413   2.07891
 Alpha virt. eigenvalues --    2.12563   2.13207   2.14967   2.22629   2.26285
 Alpha virt. eigenvalues --    2.26421   2.29080   2.31385   2.34263   2.38659
 Alpha virt. eigenvalues --    2.42723   2.43308   2.45340   2.46249   2.47928
 Alpha virt. eigenvalues --    2.49966   2.59049   2.59869   2.62050   2.62538
 Alpha virt. eigenvalues --    2.63510   2.66572   2.75794   2.82708   2.84745
 Alpha virt. eigenvalues --    2.87996   2.89243   2.92746   2.95456   3.02424
 Alpha virt. eigenvalues --    3.06894   3.12040   3.20833   3.22404   3.31459
 Alpha virt. eigenvalues --    3.34265   3.51888   3.63851   3.83731   3.84139
 Alpha virt. eigenvalues --    4.14636   4.17031   4.18349   4.25850   4.34570
 Alpha virt. eigenvalues --    4.39583   4.46186   4.52643   4.65931   4.72862
 Alpha virt. eigenvalues --    4.80308   4.82423   4.82790   4.89561   5.02460
 Alpha virt. eigenvalues --    5.07706   5.10241   5.13799   5.17407   5.24949
 Alpha virt. eigenvalues --    5.27044   5.30669   5.32860   5.35753   5.60271
 Alpha virt. eigenvalues --    5.67353   5.76548   5.84034   5.95797   6.17370
 Alpha virt. eigenvalues --    6.31104   6.33337   6.39346   6.49378   6.50522
 Alpha virt. eigenvalues --    6.61490   6.66798   6.70227   6.76093   6.76141
 Alpha virt. eigenvalues --    6.83443   6.89899   7.02354   7.05022   7.05676
 Alpha virt. eigenvalues --    7.08922   7.12517   7.14321   7.18209   7.22661
 Alpha virt. eigenvalues --    7.24160   7.30341   7.32454   7.34964   7.39977
 Alpha virt. eigenvalues --    7.44649   7.48477   7.60722   7.62056   7.62643
 Alpha virt. eigenvalues --    7.66672   7.79540   7.88705   8.09400   8.31825
 Alpha virt. eigenvalues --    8.39665   8.54295  13.38926  14.38942  15.18185
 Alpha virt. eigenvalues --   16.15383
          Condensed to atoms (all electrons):
               1          2          3          4          5
     1  H    0.586844   0.129564   0.019419   0.012110  -0.000554
     2  O    0.129564   8.322467  -0.176232  -0.089423   0.015401
     3  O    0.019419  -0.176232   8.475057  -0.131197  -0.038538
     4  N    0.012110  -0.089423  -0.131197   6.972880  -0.055442
     5  O   -0.000554   0.015401  -0.038538  -0.055442   8.272538
 Mulliken charges:
               1
     1  H    0.252618
     2  O   -0.201777
     3  O   -0.148509
     4  N    0.291072
     5  O   -0.193404
 Sum of Mulliken charges =  -0.00000
 Mulliken charges with hydrogens summed into heavy atoms:
               1
     2  O    0.050841
     3  O   -0.148509
     4  N    0.291072
     5  O   -0.193404
 APT charges:
               1
     1  H    0.299707
     2  O   -0.286396
     3  O   -0.496788
     4  N    0.875527
     5  O   -0.392050
 Sum of APT charges =  -0.00000
 APT charges with hydrogens summed into heavy atoms:
               1
     2  O    0.013311
     3  O   -0.496788
     4  N    0.875527
     5  O   -0.392050
 Electronic spatial extent (au):  <R**2>=            252.7051
 Charge=             -0.0000 electrons
 Dipole moment (field-independent basis, Debye):
    X=              0.4697    Y=              1.3575    Z=             -0.0000  Tot=              1.4365
 Quadrupole moment (field-independent basis, Debye-Ang):
   XX=            -22.6073   YY=            -18.5994   ZZ=            -22.0075
   XY=              3.1566   XZ=             -0.0000   YZ=              0.0000
 Traceless Quadrupole moment (field-independent basis, Debye-Ang):
   XX=             -1.5359   YY=              2.4720   ZZ=             -0.9361
   XY=              3.1566   XZ=             -0.0000   YZ=              0.0000
 Octapole moment (field-independent basis, Debye-Ang**2):
  XXX=              2.5068  YYY=             11.3702  ZZZ=             -0.0000  XYY=              7.7618
  XXY=              6.2842  XXZ=             -0.0000  XZZ=             -1.5754  YZZ=             -0.8551
  YYZ=             -0.0000  XYZ=             -0.0000
 Hexadecapole moment (field-independent basis, Debye-Ang**3):
 XXXX=           -158.6752 YYYY=            -89.8113 ZZZZ=            -18.2332 XXXY=            -37.3691
 XXXZ=             -0.0000 YYYX=            -30.9379 YYYZ=              0.0000 ZZZX=             -0.0000
 ZZZY=              0.0000 XXYY=            -34.4323 XXZZ=            -30.7772 YYZZ=            -20.7089
 XXYZ=              0.0000 YYXZ=             -0.0000 ZZXY=            -15.0499
 N-N= 1.169106959772D+02 E-N=-8.959318287082D+02  KE= 2.802037168589D+02
 Symmetry A'   KE= 2.662313378688D+02
 Symmetry A"   KE= 1.397237899018D+01
  Exact polarizability:  33.909   9.418  30.251  -0.000   0.000  17.913
 Approx polarizability:  28.997   5.062  23.538   0.000  -0.000  15.514
 No NMR shielding tensors so no spin-rotation constants.
 Leave Link  601 at Mon Feb 21 20:41:25 2022, MaxMem= 16106127360 cpu:               5.3 elap:               0.2
 (Enter /sw/contrib/gaussian/g16/B01/g16/l701.exe)
 ... and contract with generalized density number  2.
 Compute integral second derivatives.
 Leave Link  701 at Mon Feb 21 20:41:25 2022, MaxMem= 16106127360 cpu:               6.3 elap:               0.3
 (Enter /sw/contrib/gaussian/g16/B01/g16/l702.exe)
 L702 exits ... SP integral derivatives will be done elsewhere.
 Leave Link  702 at Mon Feb 21 20:41:25 2022, MaxMem= 16106127360 cpu:               0.5 elap:               0.0
 (Enter /sw/contrib/gaussian/g16/B01/g16/l703.exe)
 Integral derivatives from FoFJK, PRISM(SPDF).
 Compute integral second derivatives, UseDBF=F ICtDFT=           0.
 Calling FoFJK, ICntrl=  10100127 FMM=F ISym2X=1 I1Cent= 0 IOpClX= 0 NMat=1 NMatS=1 NMatT=0.
 FoFJK:  IHMeth= 1 ICntrl=10100127 DoSepK=F KAlg= 0 I1Cent=           0 FoldK=F
 IRaf=         0 NMat=       1 IRICut=       1 DoRegI=T DoRafI=F ISym2E= 1 IDoP0=0 IntGTp=1.
 FoFCou: FMM=F IPFlag=           0 FMFlag=      100000 FMFlg1=         800
         NFxFlg=           0 DoJE=F BraDBF=F KetDBF=F FulRan=T
         wScrn=  0.000000 ICntrl=  10100127 IOpCl=  0 I1Cent=           0 NGrid=           0
         NMat0=    1 NMatS0=      1 NMatT0=    0 NMatD0=    1 NMtDS0=    0 NMtDT0=    0
 Petite list used in FoFCou.
 Leave Link  703 at Mon Feb 21 20:41:40 2022, MaxMem= 16106127360 cpu:             422.9 elap:              15.1
 (Enter /sw/contrib/gaussian/g16/B01/g16/l716.exe)
 Dipole        = 1.84784629D-01 5.34088389D-01-5.11145906D-33
 Polarizability= 3.39088221D+01 9.41783459D+00 3.02512392D+01
                -3.73541511D-32 1.93557242D-31 1.79125061D+01
 Full mass-weighted force constant matrix:
 Low frequencies --- -259.4659  -25.8914  -20.8942   -0.0012   -0.0012    0.0011
 Low frequencies ---   73.0576  226.0739  338.5556
 ******    1 imaginary frequencies (negative Signs) ****** 
 Diagonal vibrational polarizability:
       13.9522356      25.0914734      50.5301710
 Harmonic frequencies (cm**-1), IR intensities (KM/Mole), Raman scattering
 activities (A**4/AMU), depolarization ratios for plane and unpolarized
 incident light, reduced masses (AMU), force constants (mDyne/A),
 and normal coordinates:
                      1                      2                      3
                     A"                     A"                     A'
 Frequencies --   -256.9225               226.0253               338.5509
 Red. masses --      1.1192                12.6963                 8.6987
 Frc consts  --      0.0435                 0.3822                 0.5874
 IR Inten    --    123.9033                 0.0307                 5.3017
  Atom  AN      X      Y      Z        X      Y      Z        X      Y      Z
     1   1     0.00  -0.00   1.00    -0.00   0.00  -0.42     0.55  -0.42  -0.00
     2   8     0.00  -0.00  -0.06     0.00   0.00  -0.35    -0.09  -0.38  -0.00
     3   8    -0.00   0.00  -0.05     0.00  -0.00   0.35    -0.15   0.44   0.00
     4   7     0.00   0.00   0.05    -0.00  -0.00   0.59     0.04   0.25   0.00
     5   8     0.00  -0.00   0.00    -0.00   0.00  -0.48     0.16  -0.26  -0.00
                      4                      5                      6
                     A'                     A'                     A'
 Frequencies --    452.7647               786.8491               969.5717
 Red. masses --     12.4722                12.9169                15.7376
 Frc consts  --      1.5064                 4.7118                 8.7166
 IR Inten    --    198.2229               169.6585                23.7595
  Atom  AN      X      Y      Z        X      Y      Z        X      Y      Z
     1   1     0.39   0.21   0.00    -0.35   0.17   0.00    -0.08  -0.03  -0.00
     2   8     0.33   0.21   0.00     0.42   0.08  -0.00    -0.53   0.03  -0.00
     3   8     0.18   0.43  -0.00    -0.06  -0.27   0.00     0.76  -0.02   0.00
     4   7    -0.35  -0.41  -0.00    -0.14   0.62   0.00    -0.12   0.24   0.00
     5   8    -0.22  -0.30   0.00    -0.21  -0.37  -0.00    -0.12  -0.22  -0.00
                      7                      8                      9
                     A'                     A'                     A'
 Frequencies --   1381.4458              1677.7128              3778.1289
 Red. masses --      1.1301                13.0034                 1.0671
 Frc consts  --      1.2707                21.5647                 8.9744
 IR Inten    --    159.6946               137.9032                80.5556
  Atom  AN      X      Y      Z        X      Y      Z        X      Y      Z
     1   1     1.00  -0.03   0.00    -0.37  -0.00  -0.00     0.08   0.99  -0.00
     2   8    -0.03   0.05   0.00    -0.00  -0.04  -0.00    -0.01  -0.06   0.00
     3   8    -0.02  -0.05  -0.00     0.00   0.15   0.00     0.00   0.00   0.00
     4   7     0.02   0.01  -0.00     0.70  -0.05   0.00    -0.00  -0.00  -0.00
     5   8    -0.03  -0.01   0.00    -0.59  -0.07  -0.00     0.00   0.00  -0.00

 -------------------
 - Thermochemistry -
 -------------------
 Temperature   298.150 Kelvin.  Pressure   1.00000 Atm.
 Atom     1 has atomic number  1 and mass   1.00783
 Atom     2 has atomic number  8 and mass  15.99491
 Atom     3 has atomic number  8 and mass  15.99491
 Atom     4 has atomic number  7 and mass  14.00307
 Atom     5 has atomic number  8 and mass  15.99491
 Molecular mass:    62.99564 amu.
 Principal axes and moments of inertia in atomic units:
                           1         2         3
     Eigenvalues --    32.90293 359.79868 392.70161
           X            0.80919  -0.58755   0.00000
           Y            0.58755   0.80919   0.00000
           Z            0.00000  -0.00000   1.00000
 This molecule is an asymmetric top.
 Rotational symmetry number  1.
 Rotational temperatures (Kelvin)      2.63241     0.24073     0.22056
 Rotational constants (GHZ):          54.85047     5.01598     4.59571
    1 imaginary frequencies ignored.
 Zero-point vibrational energy      57486.8 (Joules/Mol)
                                   13.73968 (Kcal/Mol)
 Warning -- explicit consideration of   3 degrees of freedom as
           vibrations may cause significant error
 Vibrational temperatures:    325.20   487.10   651.43  1132.10  1395.00
          (Kelvin)           1987.59  2413.85  5435.88
 
 Zero-point correction=                           0.021896 (Hartree/Particle)
 Thermal correction to Energy=                    0.026019
 Thermal correction to Enthalpy=                  0.026963
 Thermal correction to Gibbs Free Energy=        -0.004236
 Sum of electronic and zero-point Energies=           -280.424751
 Sum of electronic and thermal Energies=              -280.420628
 Sum of electronic and thermal Enthalpies=            -280.419683
 Sum of electronic and thermal Free Energies=         -280.450882
 
                     E (Thermal)             CV                S
                      KCal/Mol        Cal/Mol-Kelvin    Cal/Mol-Kelvin
 Total                   16.327             11.953             65.663
 Electronic               0.000              0.000              0.000
 Translational            0.889              2.981             38.341
 Rotational               0.889              2.981             23.057
 Vibrational             14.550              5.991              4.266
 Vibration     1          0.650              1.801              1.910
 Vibration     2          0.719              1.598              1.219
 Vibration     3          0.811              1.355              0.787
                       Q            Log10(Q)             Ln(Q)
 Total Bot       0.887625D+02          1.948229          4.485964
 Total V=0       0.104590D+13         12.019489         27.675896
 Vib (Bot)       0.185049D-09         -9.732714        -22.410403
 Vib (Bot)    1  0.872902D+00         -0.059034         -0.135932
 Vib (Bot)    2  0.548971D+00         -0.260451         -0.599710
 Vib (Bot)    3  0.377904D+00         -0.422618         -0.973114
 Vib (V=0)       0.218044D+01          0.338545          0.779529
 Vib (V=0)    1  0.150596D+01          0.177814          0.409432
 Vib (V=0)    2  0.124254D+01          0.094311          0.217159
 Vib (V=0)    3  0.112675D+01          0.051826          0.119335
 Electronic      0.100000D+01          0.000000          0.000000
 Translational   0.196526D+08          7.293420         16.793719
 Rotational      0.244075D+05          4.387524         10.102647
 
                                                                title
                                                             IR Spectrum
 
     3                                                                      1         1                                              
     7                                                                      6         3             9     7          4   3   2       
     7                                                                      7         8             7     8          5   3   2       
     8                                                                      8         1             0     7          3   9   6       
 
     X                                                                      X         X             X     X          X   X           
     X                                                                      X         X             X     X          X               
     X                                                                      X         X                   X          X               
     X                                                                      X         X                   X          X               
     X                                                                      X         X                   X          X               
     X                                                                      X         X                   X          X               
     X                                                                      X         X                   X          X               
     X                                                                      X         X                   X          X               
                                                                            X         X                   X          X               
                                                                            X         X                   X          X               
                                                                            X         X                   X          X               
                                                                            X         X                   X          X               
                                                                            X         X                   X          X               
                                                                            X         X                   X          X               
                                                                                      X                   X          X               
                                                                                      X                   X          X               
                                                                                                          X          X               
                                                                                                                     X               
                                                                                                                     X               
                                                                                                                     X               
 
 ***** Axes restored to original set *****
 -------------------------------------------------------------------
 Center     Atomic                   Forces (Hartrees/Bohr)
 Number     Number              X              Y              Z
 -------------------------------------------------------------------
      1        1          -0.003403998   -0.000000000   -0.000303265
      2        8           0.001960436   -0.000000000   -0.002440499
      3        8           0.000929652    0.000000000    0.002809604
      4        7           0.000068597   -0.000000000   -0.000429495
      5        8           0.000445313    0.000000000    0.000363655
 -------------------------------------------------------------------
 Cartesian Forces:  Max     0.003403998 RMS     0.001431930
 -----------------------------------------------------------------------------------------------
                       Internal Coordinate Forces (Hartree/Bohr or radian)
  Cent   Atom   N1       Length/X         N2         Alpha/Y        N3         Beta/Z          J
 -----------------------------------------------------------------------------------------------
      1  H 
      2  O        1   0.000303(     1)
      3  O        2   0.001719(     2)      1   0.006233(     5)
      4  N        3  -0.000008(     3)      2   0.000860(     6)      1  -0.000000(     8)     0
      5  O        4   0.000514(     4)      3   0.000568(     7)      2   0.000000(     9)     0
 -----------------------------------------------------------------------------------------------
 Internal  Forces:  Max     0.006233065 RMS     0.002191564
 Force constants in Cartesian coordinates: 
                1             2             3             4             5 
      1  0.659496D-01
      2  0.000000D+00 -0.218341D-02
      3  0.802720D-02  0.000000D+00  0.512302D+00
      4 -0.329648D-01  0.000000D+00 -0.182012D-01  0.272928D+00
      5  0.000000D+00  0.150969D-02  0.000000D+00  0.000000D+00  0.443086D-02
      6  0.460273D-01  0.000000D+00 -0.507396D+00  0.328146D-01  0.000000D+00
      7 -0.223288D-01  0.000000D+00  0.119499D-01 -0.221574D+00  0.000000D+00
      8  0.000000D+00  0.226059D-02  0.000000D+00  0.000000D+00 -0.731570D-02
      9 -0.534096D-01  0.000000D+00 -0.152488D-02 -0.178647D-01  0.000000D+00
     10 -0.948749D-02  0.000000D+00 -0.511817D-02 -0.178924D-01  0.000000D+00
     11  0.000000D+00 -0.253527D-02  0.000000D+00  0.000000D+00 -0.504917D-02
     12  0.500017D-02  0.000000D+00 -0.468198D-02  0.134142D-01  0.000000D+00
     13 -0.116852D-02  0.000000D+00  0.334223D-02 -0.496561D-03  0.000000D+00
     14  0.000000D+00  0.948392D-03  0.000000D+00  0.000000D+00  0.642432D-02
     15 -0.564509D-02  0.000000D+00  0.130079D-02 -0.101629D-01  0.000000D+00
                6             7             8             9            10 
      6  0.589172D+00
      7 -0.188138D-01  0.346778D+00
      8  0.000000D+00  0.000000D+00  0.384990D-02
      9 -0.753433D-01  0.349387D-01  0.000000D+00  0.178909D+00
     10 -0.515946D-01 -0.716564D-01  0.000000D+00  0.174451D+00  0.827206D+00
     11  0.000000D+00  0.000000D+00  0.821201D-02  0.000000D+00  0.000000D+00
     12  0.174836D-01  0.619145D-01  0.000000D+00 -0.883445D-01 -0.355508D-01
     13 -0.843345D-02 -0.312187D-01  0.000000D+00 -0.138116D+00 -0.728170D+00
     14  0.000000D+00  0.000000D+00 -0.700681D-02  0.000000D+00  0.000000D+00
     15 -0.239165D-01 -0.899894D-01  0.000000D+00 -0.136964D-01 -0.821877D-01
               11            12            13            14            15 
     11  0.892567D-02
     12  0.000000D+00  0.188786D+00
     13  0.000000D+00 -0.447781D-01  0.761053D+00
     14 -0.955324D-02  0.000000D+00  0.000000D+00  0.918734D-02
     15  0.000000D+00 -0.113244D+00  0.187985D+00  0.000000D+00  0.149556D+00
 Force constants in internal coordinates: 
                1             2             3             4             5 
      1  0.512302D+00
      2 -0.961232D-02  0.285078D+00
      3  0.355721D-02  0.234219D-02  0.117713D+00
      4 -0.354648D-02  0.610141D-02  0.152912D+00  0.812139D+00
      5  0.112946D-01  0.703067D-01  0.333658D-02  0.436071D-02  0.221680D+00
      6  0.501347D-02  0.592173D-01  0.418917D-01  0.213739D-01  0.318287D-01
      7 -0.118106D-02  0.379173D-01  0.321674D-01  0.851353D-01  0.212687D-01
      8  0.000000D+00  0.000000D+00  0.000000D+00  0.000000D+00  0.000000D+00
      9  0.000000D+00  0.000000D+00  0.000000D+00  0.000000D+00  0.000000D+00
                6             7             8             9 
      6  0.282941D+00
      7  0.959662D-01  0.483101D+00
      8  0.000000D+00  0.000000D+00 -0.733339D-02
      9  0.000000D+00  0.000000D+00 -0.361091D-02  0.410088D-01
 Leave Link  716 at Mon Feb 21 20:41:40 2022, MaxMem= 16106127360 cpu:               1.1 elap:               0.1
 (Enter /sw/contrib/gaussian/g16/B01/g16/l103.exe)

 GradGradGradGradGradGradGradGradGradGradGradGradGradGradGradGradGradGrad
 Berny optimization.
 Search for a local minimum.
 Step number   1 out of a maximum of    2
 All quantities printed in internal units (Hartrees-Bohrs-Radians)
 Second derivative matrix not updated -- analytic derivatives used.
 The second derivative matrix:
                          r1        r2        r3        r4        a1
           r1           0.51230
           r2          -0.00961   0.28508
           r3           0.00356   0.00234   0.11771
           r4          -0.00355   0.00610   0.15291   0.81214
           a1           0.01129   0.07031   0.00334   0.00436   0.22168
           a2           0.00501   0.05922   0.04189   0.02137   0.03183
           a3          -0.00118   0.03792   0.03217   0.08514   0.02127
           d1           0.00000  -0.00000  -0.00000  -0.00000  -0.00000
           d2          -0.00000   0.00000   0.00000   0.00000   0.00000
                          a2        a3        d1        d2
           a2           0.28294
           a3           0.09597   0.48310
           d1          -0.00000  -0.00000  -0.00733
           d2          -0.00000  -0.00000  -0.00361   0.04101
 ITU=  0
     Eigenvalues ---   -0.00760   0.04128   0.07843   0.17532   0.22727
     Eigenvalues ---    0.33114   0.51281   0.51876   0.87122
 Eigenvalue     1 is  -7.60D-03 should be greater than     0.000000 Eigenvector:
                          d1        d2        a3        a2        r3
   1                    0.99725   0.07408   0.00000   0.00000  -0.00000
                          r4        a1        r2        r1
   1                    0.00000  -0.00000   0.00000  -0.00000
 Angle between quadratic step and forces=  20.19 degrees.
 Linear search not attempted -- first point.
 Variable       Old X    -DE/DX   Delta X   Delta X   Delta X     New X
                                 (Linear)    (Quad)   (Total)
    r1        1.83110   0.00030   0.00000  -0.00004  -0.00004   1.83106
    r2        2.74940   0.00172   0.00000  -0.00104  -0.00104   2.74836
    r3        2.75670  -0.00001   0.00000  -0.00210  -0.00210   2.75460
    r4        2.21236   0.00051   0.00000   0.00088   0.00088   2.21324
    a1        1.67436   0.00623   0.00000   0.02842   0.02842   1.70278
    a2        1.78543   0.00086   0.00000   0.00033   0.00033   1.78576
    a3        1.90362   0.00057   0.00000  -0.00008  -0.00008   1.90355
    d1        3.14159  -0.00000   0.00000  -0.00000   0.00000   3.14159
    d2        3.14159   0.00000   0.00000  -0.00000   0.00000   3.14159
         Item               Value     Threshold  Converged?
 Maximum Force            0.006233     0.000450     NO 
 RMS     Force            0.002192     0.000300     NO 
 Maximum Displacement     0.028423     0.001800     NO 
 RMS     Displacement     0.009512     0.001200     NO 
 Predicted change in Energy=-8.803850D-05
                       ----------------------------
                       ! Non-Optimized Parameters !
                       ! (Angstroms and Degrees)  !
 ----------------------                            ----------------------
 !      Name          Value   Derivative information (Atomic Units)     !
 ------------------------------------------------------------------------
 !       r1          0.969    -DE/DX =    0.0003                        !
 !       r2          1.4544   -DE/DX =    0.0017                        !
 !       r3          1.4577   -DE/DX =    0.0                           !
 !       r4          1.1712   -DE/DX =    0.0005                        !
 !       a1         97.5621   -DE/DX =    0.0062                        !
 !       a2        102.3164   -DE/DX =    0.0009                        !
 !       a3        109.0652   -DE/DX =    0.0006                        !
 !       d1        180.0      -DE/DX =    0.0                           !
 !       d2        180.0      -DE/DX =    0.0                           !
 ------------------------------------------------------------------------
 GradGradGradGradGradGradGradGradGradGradGradGradGradGradGradGradGradGrad

 Leave Link  103 at Mon Feb 21 20:41:40 2022, MaxMem= 16106127360 cpu:               1.2 elap:               0.1
 (Enter /sw/contrib/gaussian/g16/B01/g16/l9999.exe)

 ----------------------------------------------------------------------

 Electric dipole moment (input orientation):
 (Debye = 10**-18 statcoulomb cm , SI units = C m)
                  (au)            (Debye)         (10**-30 SI)
   Tot        0.565151D+00      0.143647D+01      0.479155D+01
   x         -0.148093D+00     -0.376416D+00     -0.125559D+01
   y          0.000000D+00      0.000000D+00      0.000000D+00
   z         -0.545403D+00     -0.138628D+01     -0.462412D+01

 Dipole polarizability, Alpha (input orientation).
 (esu units = cm**3 , SI units = C**2 m**2 J**-1)
 Alpha(0;0):
               (au)            (10**-24 esu)      (10**-40 SI)
   iso        0.273575D+02      0.405397D+01      0.451065D+01
   aniso      0.218366D+02      0.323586D+01      0.360038D+01
   xx         0.326160D+02      0.483319D+01      0.537765D+01
   yx         0.000000D+00      0.000000D+00      0.000000D+00
   yy         0.179125D+02      0.265436D+01      0.295337D+01
   zx         0.957877D+01      0.141943D+01      0.157933D+01
   zy         0.000000D+00      0.000000D+00      0.000000D+00
   zz         0.315441D+02      0.467435D+01      0.520092D+01

 ----------------------------------------------------------------------

 Dipole orientation:
     1          0.00000000          0.00000000         -0.00000000
     8         -0.47982509          0.00000000         -1.76711328
     8          2.08480763          0.00000000         -2.75799875
     7          1.66177394          0.00000000         -5.48204911
     8          3.61703608          0.00000000         -6.51716889

 Electric dipole moment (dipole orientation):
 (Debye = 10**-18 statcoulomb cm , SI units = C m)
                  (au)            (Debye)         (10**-30 SI)
   Tot        0.565151D+00      0.143647D+01      0.479155D+01
   x          0.000000D+00      0.000000D+00      0.000000D+00
   y          0.000000D+00      0.000000D+00      0.000000D+00
   z          0.565151D+00      0.143647D+01      0.479155D+01

 Dipole polarizability, Alpha (dipole orientation).
 (esu units = cm**3 , SI units = C**2 m**2 J**-1)
 Alpha(0;0):
               (au)            (10**-24 esu)      (10**-40 SI)
   iso        0.273575D+02      0.405397D+01      0.451065D+01
   aniso      0.218366D+02      0.323586D+01      0.360038D+01
   xx         0.276977D+02      0.410438D+01      0.456673D+01
   yx         0.000000D+00      0.000000D+00      0.000000D+00
   yy         0.179125D+02      0.265436D+01      0.295337D+01
   zx        -0.853436D+01     -0.126466D+01     -0.140713D+01
   zy         0.000000D+00      0.000000D+00      0.000000D+00
   zz         0.364624D+02      0.540316D+01      0.601183D+01

 ----------------------------------------------------------------------
 1\1\GINC-N2110\Freq\RMP2-FC\Aug-CC-pVTZ\H1N1O3\CGAVINH\21-Feb-2022\1\\
 #p freq mp2/aug-cc-pvtz density=current\\title\\0,1\H\O,1,r1\O,2,r2,1,
 a1\N,3,r3,2,a2,1,d1,0\O,4,r4,3,a3,2,d2,0\\r1=0.96897556\r2=1.45491931\
 r3=1.45878406\r4=1.17072885\a1=95.93353488\a2=102.29752444\a3=109.0695
 5123\d1=180.\d2=180.\\Version=ES64L-G16RevB.01\State=1-A'\HF=-279.5013
 587\MP2=-280.4466465\RMSD=3.774e-09\RMSF=1.432e-03\ZeroPoint=0.0218956
 \Thermal=0.0260189\Dipole=-0.1480934,0.,-0.5454027\DipoleDeriv=0.27287
 01,0.,0.054314,0.,0.3535734,0.,0.0789822,0.,0.2726777,-0.3396977,0.,-0
 .2084225,0.,-0.3107558,0.,-0.0986296,0.,-0.2087335,-0.0641783,0.,0.110
 9916,0.,-0.0881908,0.,-0.7932321,0.,-1.3379949,0.9476974,0.,0.9285824,
 0.,0.066162,0.,0.9406925,0.,1.6127219,-0.8166915,0.,-0.8854654,0.,-0.0
 207888,0.,-0.1278131,0.,-0.3386712\Polar=32.6159645,0.,17.9125061,9.57
 87714,0.,31.5440967\Quadrupole=-1.4461556,-0.695967,2.1421227,0.,2.123
 3719,0.\PG=CS [SG(H1N1O3)]\NImag=1\\0.06594961,0.,-0.00218341,0.008027
 20,0.,0.51230161,-0.03296483,0.,-0.01820120,0.27292775,0.,0.00150969,0
 .,0.,0.00443086,0.04602731,0.,-0.50739554,0.03281456,0.,0.58917174,-0.
 02232877,0.,0.01194994,-0.22157398,0.,-0.01881380,0.34677786,0.,0.0022
 6059,0.,0.,-0.00731570,0.,0.,0.00384990,-0.05340960,0.,-0.00152488,-0.
 01786471,0.,-0.07534330,0.03493874,0.,0.17890906,-0.00948749,0.,-0.005
 11817,-0.01789238,0.,-0.05159462,-0.07165637,0.,0.17445129,0.82720581,
 0.,-0.00253527,0.,0.,-0.00504917,0.,0.,0.00821201,0.,0.,0.00892567,0.0
 0500017,0.,-0.00468198,0.01341422,0.,0.01748357,0.06191449,0.,-0.08834
 447,-0.03555080,0.,0.18878647,-0.00116852,0.,0.00334223,-0.00049656,0.
 ,-0.00843345,-0.03121874,0.,-0.13811572,-0.72816957,0.,-0.04477808,0.7
 6105339,0.,0.00094839,0.,0.,0.00642432,0.,0.,-0.00700681,0.,0.,-0.0095
 5324,0.,0.,0.00918734,-0.00564509,0.,0.00130079,-0.01016288,0.,-0.0239
 1647,-0.08998936,0.,-0.01369641,-0.08218769,0.,-0.11324358,0.18798502,
 0.,0.14955567\\0.00340400,0.,0.00030327,-0.00196044,0.,0.00244050,-0.0
 0092965,0.,-0.00280960,-0.00006860,0.,0.00042950,-0.00044531,0.,-0.000
 36366\\\@


 HE THAT WALD REACHE THE SWEITE ROSE
 SULD NOW AND THEN BE SCRATCHED WT THE SCHARPE BREERES.
 -- PROVERBS AND REASONS OF THE YEAR 1585
           AS REPRINTED IN PAISLEY MAGAZINE 1828.
 Job cpu time:       0 days  2 hours  0 minutes 13.1 seconds.
 Elapsed time:       0 days  0 hours  4 minutes 20.9 seconds.
 File lengths (MBytes):  RWF=   7239 Int=      0 D2E=      0 Chk=      8 Scr=      1
 Normal termination of Gaussian 16 at Mon Feb 21 20:41:41 2022.
