 Entering Gaussian System, Link 0=g16
 Input=hoono_r1_0p955772.gjf
 Output=hoono_r1_0p955772.log
 Initial command:
 /sw/contrib/gaussian/g16/B01/g16/l1.exe "/scr/Gau-14651.inp" -scrdir="/scr/"
 Entering Link 1 = /sw/contrib/gaussian/g16/B01/g16/l1.exe PID=     14652.
  
 Copyright (c) 1988-2017, Gaussian, Inc.  All Rights Reserved.
  
 This is part of the Gaussian(R) 16 program.  It is based on
 the Gaussian(R) 09 system (copyright 2009, Gaussian, Inc.),
 the Gaussian(R) 03 system (copyright 2003, Gaussian, Inc.),
 the Gaussian(R) 98 system (copyright 1998, Gaussian, Inc.),
 the Gaussian(R) 94 system (copyright 1995, Gaussian, Inc.),
 the Gaussian 92(TM) system (copyright 1992, Gaussian, Inc.),
 the Gaussian 90(TM) system (copyright 1990, Gaussian, Inc.),
 the Gaussian 88(TM) system (copyright 1988, Gaussian, Inc.),
 the Gaussian 86(TM) system (copyright 1986, Carnegie Mellon
 University), and the Gaussian 82(TM) system (copyright 1983,
 Carnegie Mellon University). Gaussian is a federally registered
 trademark of Gaussian, Inc.
  
 This software contains proprietary and confidential information,
 including trade secrets, belonging to Gaussian, Inc.
  
 This software is provided under written license and may be
 used, copied, transmitted, or stored only in accord with that
 written license.
  
 The following legend is applicable only to US Government
 contracts under FAR:
  
                    RESTRICTED RIGHTS LEGEND
  
 Use, reproduction and disclosure by the US Government is
 subject to restrictions as set forth in subparagraphs (a)
 and (c) of the Commercial Computer Software - Restricted
 Rights clause in FAR 52.227-19.
  
 Gaussian, Inc.
 340 Quinnipiac St., Bldg. 40, Wallingford CT 06492
  
  
 ---------------------------------------------------------------
 Warning -- This program may not be used in any manner that
 competes with the business of Gaussian, Inc. or will provide
 assistance to any competitor of Gaussian, Inc.  The licensee
 of this program is prohibited from giving any competitor of
 Gaussian, Inc. access to this program.  By using this program,
 the user acknowledges that Gaussian, Inc. is engaged in the
 business of creating and licensing software in the field of
 computational chemistry and represents and warrants to the
 licensee that it is not a competitor of Gaussian, Inc. and that
 it will not use this program in any manner prohibited above.
 ---------------------------------------------------------------
  

 Cite this work as:
 Gaussian 16, Revision B.01,
 M. J. Frisch, G. W. Trucks, H. B. Schlegel, G. E. Scuseria, 
 M. A. Robb, J. R. Cheeseman, G. Scalmani, V. Barone, 
 G. A. Petersson, H. Nakatsuji, X. Li, M. Caricato, A. V. Marenich, 
 J. Bloino, B. G. Janesko, R. Gomperts, B. Mennucci, H. P. Hratchian, 
 J. V. Ortiz, A. F. Izmaylov, J. L. Sonnenberg, D. Williams-Young, 
 F. Ding, F. Lipparini, F. Egidi, J. Goings, B. Peng, A. Petrone, 
 T. Henderson, D. Ranasinghe, V. G. Zakrzewski, J. Gao, N. Rega, 
 G. Zheng, W. Liang, M. Hada, M. Ehara, K. Toyota, R. Fukuda, 
 J. Hasegawa, M. Ishida, T. Nakajima, Y. Honda, O. Kitao, H. Nakai, 
 T. Vreven, K. Throssell, J. A. Montgomery, Jr., J. E. Peralta, 
 F. Ogliaro, M. J. Bearpark, J. J. Heyd, E. N. Brothers, K. N. Kudin, 
 V. N. Staroverov, T. A. Keith, R. Kobayashi, J. Normand, 
 K. Raghavachari, A. P. Rendell, J. C. Burant, S. S. Iyengar, 
 J. Tomasi, M. Cossi, J. M. Millam, M. Klene, C. Adamo, R. Cammi, 
 J. W. Ochterski, R. L. Martin, K. Morokuma, O. Farkas, 
 J. B. Foresman, and D. J. Fox, Gaussian, Inc., Wallingford CT, 2016.
 
 ******************************************
 Gaussian 16:  ES64L-G16RevB.01 20-Dec-2017
                21-Feb-2022 
 ******************************************
 %nproc=28
 Will use up to   28 processors via shared memory.
 %mem=120GB
 %chk=hoono_r1_0p955772.chk
 ---------------------------------------
 #p freq mp2/aug-cc-pvtz density=current
 ---------------------------------------
 1/10=4,30=1,38=1/1,3;
 2/12=2,17=6,18=5,40=1/2;
 3/5=16,6=1,7=10,11=9,25=1,30=1,71=2,140=1/1,2,3;
 4//1;
 5/5=2,38=5,98=1/2;
 8/6=3,8=1,10=1,19=11,30=-1/1;
 9/15=3,16=-3/6;
 11/6=1,8=1,15=11,17=12,24=-1,27=1,28=-2,29=300,32=6,42=3/1,2,10;
 10/6=2,21=1/2;
 8/6=4,8=1,10=1,19=11,30=-1/11,4;
 10/5=1,20=4/2;
 11/12=2,14=11,16=1,17=2,28=-2,42=3,76=2/2,10,12;
 6/7=2,8=2,9=2,10=2,22=-1/1;
 7/8=1,10=1,12=2,25=1,44=2/1,2,3,16;
 1/10=4,30=1/3;
 99//99;
 Leave Link    1 at Mon Feb 21 20:02:49 2022, MaxMem= 16106127360 cpu:               1.6 elap:               0.1
 (Enter /sw/contrib/gaussian/g16/B01/g16/l101.exe)
 -----
 title
 -----
 Symbolic Z-matrix:
 Charge =  0 Multiplicity = 1
 H
 O                    1    r1
 O                    2    r2       1    a1
 N                    3    r3       2    a2       1    d1       0
 O                    4    r4       3    a3       2    d2       0
       Variables:
  r1                    0.95577                  
  r2                    1.45492                  
  r3                    1.45878                  
  r4                    1.17073                  
  a1                   97.59495                  
  a2                  102.29752                  
  a3                  109.06955                  
  d1                  180.                       
  d2                  180.                       
 
 ITRead=  0  0  0  0  0
 MicOpt= -1 -1 -1 -1 -1
 NAtoms=      5 NQM=        5 NQMF=       0 NMMI=      0 NMMIF=      0
                NMic=       0 NMicF=      0.
                    Isotopes and Nuclear Properties:
 (Nuclear quadrupole moments (NQMom) in fm**2, nuclear magnetic moments (NMagM)
  in nuclear magnetons)

  Atom         1           2           3           4           5
 IAtWgt=           1          16          16          14          16
 AtmWgt=   1.0078250  15.9949146  15.9949146  14.0030740  15.9949146
 NucSpn=           1           0           0           2           0
 AtZEff=  -0.0000000  -0.0000000  -0.0000000  -0.0000000  -0.0000000
 NQMom=    0.0000000   0.0000000   0.0000000   2.0440000   0.0000000
 NMagM=    2.7928460   0.0000000   0.0000000   0.4037610   0.0000000
 AtZNuc=   1.0000000   8.0000000   8.0000000   7.0000000   8.0000000
 Leave Link  101 at Mon Feb 21 20:02:49 2022, MaxMem= 16106127360 cpu:               3.7 elap:               0.2
 (Enter /sw/contrib/gaussian/g16/B01/g16/l103.exe)

 GradGradGradGradGradGradGradGradGradGradGradGradGradGradGradGradGradGrad
 Berny optimization.
 Initialization pass.
                       ----------------------------
                       !    Initial Parameters    !
                       ! (Angstroms and Degrees)  !
 ----------------------                            ----------------------
 !      Name          Value   Derivative information (Atomic Units)     !
 ------------------------------------------------------------------------
 !       r1          0.9558   calculate D2E/DX2 analytically            !
 !       r2          1.4549   calculate D2E/DX2 analytically            !
 !       r3          1.4588   calculate D2E/DX2 analytically            !
 !       r4          1.1707   calculate D2E/DX2 analytically            !
 !       a1         97.5949   calculate D2E/DX2 analytically            !
 !       a2        102.2975   calculate D2E/DX2 analytically            !
 !       a3        109.0696   calculate D2E/DX2 analytically            !
 !       d1        180.0      calculate D2E/DX2 analytically            !
 !       d2        180.0      calculate D2E/DX2 analytically            !
 ------------------------------------------------------------------------
 Trust Radius=3.00D-01 FncErr=1.00D-07 GrdErr=1.00D-07 EigMax=2.50D+02 EigMin=1.00D-04
 Number of steps in this run=      2 maximum allowed number of steps=      2.
 GradGradGradGradGradGradGradGradGradGradGradGradGradGradGradGradGradGrad

 Leave Link  103 at Mon Feb 21 20:02:49 2022, MaxMem= 16106127360 cpu:               1.2 elap:               0.1
 (Enter /sw/contrib/gaussian/g16/B01/g16/l202.exe)
                          Input orientation:                          
 ---------------------------------------------------------------------
 Center     Atomic      Atomic             Coordinates (Angstroms)
 Number     Number       Type             X           Y           Z
 ---------------------------------------------------------------------
      1          1           0        0.000000    0.000000    0.000000
      2          8           0        0.000000    0.000000    0.955773
      3          8           0        1.442156    0.000000    1.148068
      4          7           0        1.561752    0.000000    2.601941
      5          8           0        2.695867    0.000000    2.892436
 ---------------------------------------------------------------------
                    Distance matrix (angstroms):
                    1          2          3          4          5
     1  H    0.000000
     2  O    0.955773   0.000000
     3  O    1.843332   1.454919   0.000000
     4  N    3.034661   2.269127   1.458784   0.000000
     5  O    3.953971   3.319392   2.148165   1.170729   0.000000
 Stoichiometry    HNO3
 Framework group  CS[SG(HNO3)]
 Deg. of freedom     7
 Full point group                 CS      NOp   2
 Largest Abelian subgroup         CS      NOp   2
 Largest concise Abelian subgroup C1      NOp   1
                         Standard orientation:                         
 ---------------------------------------------------------------------
 Center     Atomic      Atomic             Coordinates (Angstroms)
 Number     Number       Type             X           Y           Z
 ---------------------------------------------------------------------
      1          1           0        1.547757    1.674580   -0.000000
      2          8           0        1.454060    0.723411   -0.000000
      3          8           0        0.000000    0.673420    0.000000
      4          7           0       -0.261546   -0.761727   -0.000000
      5          8           0       -1.418677   -0.939642    0.000000
 ---------------------------------------------------------------------
 Rotational constants (GHZ):          55.0100404           5.0131240           4.5944287
 Leave Link  202 at Mon Feb 21 20:02:49 2022, MaxMem= 16106127360 cpu:               0.4 elap:               0.0
 (Enter /sw/contrib/gaussian/g16/B01/g16/l301.exe)
 Standard basis: Aug-CC-pVTZ (5D, 7F)
 Ernie: Thresh=  0.10000D-02 Tol=  0.10000D-05 Strict=F.
 Ernie:  12 primitive shells out of 131 were deleted.
 There are   166 symmetry adapted cartesian basis functions of A'  symmetry.
 There are    79 symmetry adapted cartesian basis functions of A"  symmetry.
 There are   136 symmetry adapted basis functions of A'  symmetry.
 There are    71 symmetry adapted basis functions of A"  symmetry.
   207 basis functions,   315 primitive gaussians,   245 cartesian basis functions
    16 alpha electrons       16 beta electrons
       nuclear repulsion energy       116.9497501623 Hartrees.
 IExCor=    0 DFT=F Ex=HF Corr=None ExCW=0 ScaHFX=  1.000000
 ScaDFX=  1.000000  1.000000  1.000000  1.000000 ScalE2=  1.000000  1.000000
 IRadAn=      5 IRanWt=     -1 IRanGd=            0 ICorTp=0 IEmpDi=  4
 NAtoms=    5 NActive=    5 NUniq=    5 SFac= 1.00D+00 NAtFMM=   60 NAOKFM=F Big=F
 Integral buffers will be    131072 words long.
 Raffenetti 1 integral format.
 Two-electron integral symmetry is turned on.
 Leave Link  301 at Mon Feb 21 20:02:49 2022, MaxMem= 16106127360 cpu:               1.6 elap:               0.1
 (Enter /sw/contrib/gaussian/g16/B01/g16/l302.exe)
 NPDir=0 NMtPBC=     1 NCelOv=     1 NCel=       1 NClECP=     1 NCelD=      1
         NCelK=      1 NCelE2=     1 NClLst=     1 CellRange=     0.0.
 One-electron integrals computed using PRISM.
 One-electron integral symmetry used in STVInt
 NBasis=   207 RedAO= T EigKep=  1.80D-04  NBF=   136    71
 NBsUse=   207 1.00D-06 EigRej= -1.00D+00 NBFU=   136    71
 Leave Link  302 at Mon Feb 21 20:02:49 2022, MaxMem= 16106127360 cpu:               4.7 elap:               0.2
 (Enter /sw/contrib/gaussian/g16/B01/g16/l303.exe)
 DipDrv:  MaxL=1.
 Leave Link  303 at Mon Feb 21 20:02:50 2022, MaxMem= 16106127360 cpu:               0.9 elap:               0.1
 (Enter /sw/contrib/gaussian/g16/B01/g16/l401.exe)
 ExpMin= 2.53D-02 ExpMax= 1.53D+04 ExpMxC= 5.22D+02 IAcc=3 IRadAn=         5 AccDes= 0.00D+00
 Harris functional with IExCor=  205 and IRadAn=       5 diagonalized for initial guess.
 HarFok:  IExCor=  205 AccDes= 0.00D+00 IRadAn=         5 IDoV= 1 UseB2=F ITyADJ=14
 ICtDFT=  3500011 ScaDFX=  1.000000  1.000000  1.000000  1.000000
 FoFCou: FMM=F IPFlag=           0 FMFlag=      100000 FMFlg1=           0
         NFxFlg=           0 DoJE=T BraDBF=F KetDBF=T FulRan=T
         wScrn=  0.000000 ICntrl=       500 IOpCl=  0 I1Cent=   200000004 NGrid=           0
         NMat0=    1 NMatS0=      1 NMatT0=    0 NMatD0=    1 NMtDS0=    0 NMtDT0=    0
 Petite list used in FoFCou.
 Harris En= -279.628721901710    
 JPrj=0 DoOrth=F DoCkMO=F.
 Initial guess orbital symmetries:
       Occupied  (A') (A') (A') (A') (A') (A') (A') (A') (A') (A')
                 (A") (A') (A') (A") (A") (A')
       Virtual   (A") (A') (A') (A') (A') (A') (A") (A') (A') (A')
                 (A") (A') (A") (A') (A') (A") (A') (A") (A') (A')
                 (A') (A') (A') (A') (A') (A") (A') (A") (A') (A')
                 (A") (A') (A") (A') (A') (A") (A') (A") (A') (A')
                 (A") (A') (A") (A') (A") (A') (A') (A') (A") (A")
                 (A') (A') (A') (A') (A") (A') (A") (A') (A") (A')
                 (A') (A') (A") (A') (A') (A") (A') (A") (A') (A')
                 (A") (A') (A') (A") (A") (A') (A') (A") (A') (A')
                 (A') (A") (A') (A") (A') (A") (A') (A") (A') (A')
                 (A') (A") (A') (A") (A') (A") (A") (A') (A') (A")
                 (A') (A') (A") (A') (A') (A') (A') (A") (A") (A')
                 (A") (A') (A') (A') (A") (A') (A') (A') (A") (A')
                 (A") (A') (A') (A") (A") (A') (A") (A') (A") (A')
                 (A') (A') (A') (A") (A") (A') (A") (A') (A') (A')
                 (A') (A") (A") (A') (A') (A") (A') (A') (A') (A')
                 (A") (A') (A') (A") (A') (A") (A') (A") (A') (A")
                 (A') (A") (A') (A") (A') (A") (A") (A") (A') (A')
                 (A") (A') (A") (A') (A") (A') (A") (A") (A') (A')
                 (A') (A') (A') (A') (A') (A') (A') (A') (A') (A')
                 (A')
 The electronic state of the initial guess is 1-A'.
 Leave Link  401 at Mon Feb 21 20:02:50 2022, MaxMem= 16106127360 cpu:               7.2 elap:               0.3
 (Enter /sw/contrib/gaussian/g16/B01/g16/l502.exe)
 Keep R1 ints in memory in symmetry-blocked form, NReq=348887737.
 FoFCou: FMM=F IPFlag=           0 FMFlag=           0 FMFlg1=           0
         NFxFlg=           0 DoJE=F BraDBF=F KetDBF=F FulRan=T
         wScrn=  0.000000 ICntrl=       600 IOpCl=  0 I1Cent=           0 NGrid=           0
         NMat0=    1 NMatS0=  21528 NMatT0=    0 NMatD0=    1 NMtDS0=    0 NMtDT0=    0
 Petite list used in FoFCou.
 Closed shell SCF:
 Using DIIS extrapolation, IDIIS=  1040.
 NGot= 16106127360 LenX= 15988850015 LenY= 15988789549
 Requested convergence on RMS density matrix=1.00D-08 within 128 cycles.
 Requested convergence on MAX density matrix=1.00D-06.
 Requested convergence on             energy=1.00D-06.
 No special actions if energy rises.

 Cycle   1  Pass 1  IDiag  1:
 E= -279.370062886253    
 DIIS: error= 2.55D-02 at cycle   1 NSaved=   1.
 NSaved= 1 IEnMin= 1 EnMin= -279.370062886253     IErMin= 1 ErrMin= 2.55D-02
 ErrMax= 2.55D-02  0.00D+00 EMaxC= 1.00D-01 BMatC= 4.40D-01 BMatP= 4.40D-01
 IDIUse=3 WtCom= 7.45D-01 WtEn= 2.55D-01
 Coeff-Com:  0.100D+01
 Coeff-En:   0.100D+01
 Coeff:      0.100D+01
 Gap=     0.513 Goal=   None    Shift=    0.000
 GapD=    0.513 DampG=2.000 DampE=0.500 DampFc=1.0000 IDamp=-1.
 RMSDP=1.63D-03 MaxDP=9.91D-02              OVMax= 1.14D-01

 Cycle   2  Pass 1  IDiag  1:
 E= -279.452221729942     Delta-E=       -0.082158843689 Rises=F Damp=F
 DIIS: error= 1.82D-02 at cycle   2 NSaved=   2.
 NSaved= 2 IEnMin= 2 EnMin= -279.452221729942     IErMin= 2 ErrMin= 1.82D-02
 ErrMax= 1.82D-02  0.00D+00 EMaxC= 1.00D-01 BMatC= 7.29D-02 BMatP= 4.40D-01
 IDIUse=3 WtCom= 8.18D-01 WtEn= 1.82D-01
 Coeff-Com:  0.197D+00 0.803D+00
 Coeff-En:   0.000D+00 0.100D+01
 Coeff:      0.161D+00 0.839D+00
 Gap=     0.530 Goal=   None    Shift=    0.000
 RMSDP=9.06D-04 MaxDP=3.73D-02 DE=-8.22D-02 OVMax= 6.92D-02

 Cycle   3  Pass 1  IDiag  1:
 E= -279.481855788635     Delta-E=       -0.029634058694 Rises=F Damp=F
 DIIS: error= 1.05D-02 at cycle   3 NSaved=   3.
 NSaved= 3 IEnMin= 3 EnMin= -279.481855788635     IErMin= 3 ErrMin= 1.05D-02
 ErrMax= 1.05D-02  0.00D+00 EMaxC= 1.00D-01 BMatC= 2.90D-02 BMatP= 7.29D-02
 IDIUse=3 WtCom= 8.95D-01 WtEn= 1.05D-01
 Coeff-Com: -0.329D-01 0.377D+00 0.656D+00
 Coeff-En:   0.000D+00 0.239D+00 0.761D+00
 Coeff:     -0.294D-01 0.363D+00 0.667D+00
 Gap=     0.511 Goal=   None    Shift=    0.000
 RMSDP=3.78D-04 MaxDP=1.54D-02 DE=-2.96D-02 OVMax= 3.84D-02

 Cycle   4  Pass 1  IDiag  1:
 E= -279.501071947501     Delta-E=       -0.019216158866 Rises=F Damp=F
 DIIS: error= 1.33D-03 at cycle   4 NSaved=   4.
 NSaved= 4 IEnMin= 4 EnMin= -279.501071947501     IErMin= 4 ErrMin= 1.33D-03
 ErrMax= 1.33D-03  0.00D+00 EMaxC= 1.00D-01 BMatC= 5.04D-04 BMatP= 2.90D-02
 IDIUse=3 WtCom= 9.87D-01 WtEn= 1.33D-02
 Coeff-Com: -0.118D-01 0.586D-01 0.161D+00 0.792D+00
 Coeff-En:   0.000D+00 0.000D+00 0.000D+00 0.100D+01
 Coeff:     -0.117D-01 0.578D-01 0.159D+00 0.795D+00
 Gap=     0.503 Goal=   None    Shift=    0.000
 RMSDP=9.03D-05 MaxDP=2.78D-03 DE=-1.92D-02 OVMax= 1.12D-02

 Cycle   5  Pass 1  IDiag  1:
 E= -279.501752967414     Delta-E=       -0.000681019913 Rises=F Damp=F
 DIIS: error= 7.33D-04 at cycle   5 NSaved=   5.
 NSaved= 5 IEnMin= 5 EnMin= -279.501752967414     IErMin= 5 ErrMin= 7.33D-04
 ErrMax= 7.33D-04  0.00D+00 EMaxC= 1.00D-01 BMatC= 8.69D-05 BMatP= 5.04D-04
 IDIUse=3 WtCom= 9.93D-01 WtEn= 7.33D-03
 Coeff-Com:  0.613D-02-0.720D-01-0.118D+00 0.134D-01 0.117D+01
 Coeff-En:   0.000D+00 0.000D+00 0.000D+00 0.000D+00 0.100D+01
 Coeff:      0.609D-02-0.715D-01-0.117D+00 0.133D-01 0.117D+01
 Gap=     0.503 Goal=   None    Shift=    0.000
 RMSDP=7.66D-05 MaxDP=2.11D-03 DE=-6.81D-04 OVMax= 1.11D-02

 Cycle   6  Pass 1  IDiag  1:
 E= -279.502069526131     Delta-E=       -0.000316558717 Rises=F Damp=F
 DIIS: error= 2.88D-04 at cycle   6 NSaved=   6.
 NSaved= 6 IEnMin= 6 EnMin= -279.502069526131     IErMin= 6 ErrMin= 2.88D-04
 ErrMax= 2.88D-04  0.00D+00 EMaxC= 1.00D-01 BMatC= 1.66D-05 BMatP= 8.69D-05
 IDIUse=3 WtCom= 9.97D-01 WtEn= 2.88D-03
 Coeff-Com:  0.563D-03 0.197D-02 0.515D-02-0.127D+00-0.241D+00 0.136D+01
 Coeff-En:   0.000D+00 0.000D+00 0.000D+00 0.000D+00 0.000D+00 0.100D+01
 Coeff:      0.561D-03 0.197D-02 0.514D-02-0.127D+00-0.241D+00 0.136D+01
 Gap=     0.503 Goal=   None    Shift=    0.000
 RMSDP=4.54D-05 MaxDP=1.25D-03 DE=-3.17D-04 OVMax= 5.55D-03

 Cycle   7  Pass 1  IDiag  1:
 E= -279.502142284311     Delta-E=       -0.000072758180 Rises=F Damp=F
 DIIS: error= 1.20D-04 at cycle   7 NSaved=   7.
 NSaved= 7 IEnMin= 7 EnMin= -279.502142284311     IErMin= 7 ErrMin= 1.20D-04
 ErrMax= 1.20D-04  0.00D+00 EMaxC= 1.00D-01 BMatC= 4.43D-06 BMatP= 1.66D-05
 IDIUse=3 WtCom= 9.99D-01 WtEn= 1.20D-03
 Coeff-Com: -0.943D-03 0.135D-01 0.265D-01-0.218D-01-0.288D+00 0.385D+00
 Coeff-Com:  0.885D+00
 Coeff-En:   0.000D+00 0.000D+00 0.000D+00 0.000D+00 0.000D+00 0.000D+00
 Coeff-En:   0.100D+01
 Coeff:     -0.942D-03 0.135D-01 0.265D-01-0.218D-01-0.288D+00 0.385D+00
 Coeff:      0.885D+00
 Gap=     0.503 Goal=   None    Shift=    0.000
 RMSDP=1.32D-05 MaxDP=3.79D-04 DE=-7.28D-05 OVMax= 1.54D-03

 Cycle   8  Pass 1  IDiag  1:
 E= -279.502151058544     Delta-E=       -0.000008774232 Rises=F Damp=F
 DIIS: error= 5.82D-05 at cycle   8 NSaved=   8.
 NSaved= 8 IEnMin= 8 EnMin= -279.502151058544     IErMin= 8 ErrMin= 5.82D-05
 ErrMax= 5.82D-05  0.00D+00 EMaxC= 1.00D-01 BMatC= 6.01D-07 BMatP= 4.43D-06
 IDIUse=1 WtCom= 1.00D+00 WtEn= 0.00D+00
 Coeff-Com: -0.446D-03 0.340D-02 0.754D-02 0.270D-01-0.398D-01-0.198D+00
 Coeff-Com:  0.178D+00 0.102D+01
 Coeff:     -0.446D-03 0.340D-02 0.754D-02 0.270D-01-0.398D-01-0.198D+00
 Coeff:      0.178D+00 0.102D+01
 Gap=     0.503 Goal=   None    Shift=    0.000
 RMSDP=6.84D-06 MaxDP=2.02D-04 DE=-8.77D-06 OVMax= 7.40D-04

 Cycle   9  Pass 1  IDiag  1:
 E= -279.502152806261     Delta-E=       -0.000001747718 Rises=F Damp=F
 DIIS: error= 1.59D-05 at cycle   9 NSaved=   9.
 NSaved= 9 IEnMin= 9 EnMin= -279.502152806261     IErMin= 9 ErrMin= 1.59D-05
 ErrMax= 1.59D-05  0.00D+00 EMaxC= 1.00D-01 BMatC= 6.95D-08 BMatP= 6.01D-07
 IDIUse=1 WtCom= 1.00D+00 WtEn= 0.00D+00
 Coeff-Com:  0.124D-03-0.172D-02-0.309D-02-0.221D-02 0.344D-01 0.151D-03
 Coeff-Com: -0.170D+00-0.998D-01 0.124D+01
 Coeff:      0.124D-03-0.172D-02-0.309D-02-0.221D-02 0.344D-01 0.151D-03
 Coeff:     -0.170D+00-0.998D-01 0.124D+01
 Gap=     0.503 Goal=   None    Shift=    0.000
 RMSDP=1.94D-06 MaxDP=6.65D-05 DE=-1.75D-06 OVMax= 1.75D-04

 Cycle  10  Pass 1  IDiag  1:
 E= -279.502152965884     Delta-E=       -0.000000159622 Rises=F Damp=F
 DIIS: error= 4.11D-06 at cycle  10 NSaved=  10.
 NSaved=10 IEnMin=10 EnMin= -279.502152965884     IErMin=10 ErrMin= 4.11D-06
 ErrMax= 4.11D-06  0.00D+00 EMaxC= 1.00D-01 BMatC= 5.48D-09 BMatP= 6.95D-08
 IDIUse=1 WtCom= 1.00D+00 WtEn= 0.00D+00
 Coeff-Com:  0.300D-04-0.230D-03-0.305D-03-0.264D-02 0.135D-02 0.196D-01
 Coeff-Com: -0.128D-01-0.725D-01-0.854D-01 0.115D+01
 Coeff:      0.300D-04-0.230D-03-0.305D-03-0.264D-02 0.135D-02 0.196D-01
 Coeff:     -0.128D-01-0.725D-01-0.854D-01 0.115D+01
 Gap=     0.503 Goal=   None    Shift=    0.000
 RMSDP=5.03D-07 MaxDP=2.10D-05 DE=-1.60D-07 OVMax= 4.18D-05

 Cycle  11  Pass 1  IDiag  1:
 E= -279.502152978313     Delta-E=       -0.000000012429 Rises=F Damp=F
 DIIS: error= 2.03D-06 at cycle  11 NSaved=  11.
 NSaved=11 IEnMin=11 EnMin= -279.502152978313     IErMin=11 ErrMin= 2.03D-06
 ErrMax= 2.03D-06  0.00D+00 EMaxC= 1.00D-01 BMatC= 6.55D-10 BMatP= 5.48D-09
 IDIUse=1 WtCom= 1.00D+00 WtEn= 0.00D+00
 Coeff-Com: -0.212D-04 0.242D-03 0.485D-03 0.535D-03-0.427D-02-0.354D-02
 Coeff-Com:  0.214D-01 0.303D-01-0.139D+00-0.177D+00 0.127D+01
 Coeff:     -0.212D-04 0.242D-03 0.485D-03 0.535D-03-0.427D-02-0.354D-02
 Coeff:      0.214D-01 0.303D-01-0.139D+00-0.177D+00 0.127D+01
 Gap=     0.503 Goal=   None    Shift=    0.000
 RMSDP=1.77D-07 MaxDP=6.50D-06 DE=-1.24D-08 OVMax= 1.72D-05

 Cycle  12  Pass 1  IDiag  1:
 E= -279.502152980110     Delta-E=       -0.000000001797 Rises=F Damp=F
 DIIS: error= 5.85D-07 at cycle  12 NSaved=  12.
 NSaved=12 IEnMin=12 EnMin= -279.502152980110     IErMin=12 ErrMin= 5.85D-07
 ErrMax= 5.85D-07  0.00D+00 EMaxC= 1.00D-01 BMatC= 7.15D-11 BMatP= 6.55D-10
 IDIUse=1 WtCom= 1.00D+00 WtEn= 0.00D+00
 Coeff-Com:  0.127D-05-0.293D-04-0.638D-04 0.175D-03 0.110D-02-0.232D-02
 Coeff-Com: -0.415D-02 0.554D-02 0.419D-01-0.116D+00-0.277D+00 0.135D+01
 Coeff:      0.127D-05-0.293D-04-0.638D-04 0.175D-03 0.110D-02-0.232D-02
 Coeff:     -0.415D-02 0.554D-02 0.419D-01-0.116D+00-0.277D+00 0.135D+01
 Gap=     0.503 Goal=   None    Shift=    0.000
 RMSDP=7.19D-08 MaxDP=2.83D-06 DE=-1.80D-09 OVMax= 6.66D-06

 Cycle  13  Pass 1  IDiag  1:
 E= -279.502152980337     Delta-E=       -0.000000000227 Rises=F Damp=F
 DIIS: error= 1.69D-07 at cycle  13 NSaved=  13.
 NSaved=13 IEnMin=13 EnMin= -279.502152980337     IErMin=13 ErrMin= 1.69D-07
 ErrMax= 1.69D-07  0.00D+00 EMaxC= 1.00D-01 BMatC= 4.01D-12 BMatP= 7.15D-11
 IDIUse=1 WtCom= 1.00D+00 WtEn= 0.00D+00
 Coeff-Com:  0.127D-05-0.138D-04-0.223D-04-0.882D-04 0.117D-03 0.763D-03
 Coeff-Com: -0.866D-03-0.323D-02 0.526D-03 0.415D-01-0.368D-01-0.325D+00
 Coeff-Com:  0.132D+01
 Coeff:      0.127D-05-0.138D-04-0.223D-04-0.882D-04 0.117D-03 0.763D-03
 Coeff:     -0.866D-03-0.323D-02 0.526D-03 0.415D-01-0.368D-01-0.325D+00
 Coeff:      0.132D+01
 Gap=     0.503 Goal=   None    Shift=    0.000
 RMSDP=1.92D-08 MaxDP=5.59D-07 DE=-2.27D-10 OVMax= 1.57D-06

 Cycle  14  Pass 1  IDiag  1:
 E= -279.502152980351     Delta-E=       -0.000000000014 Rises=F Damp=F
 DIIS: error= 2.43D-08 at cycle  14 NSaved=  14.
 NSaved=14 IEnMin=14 EnMin= -279.502152980351     IErMin=14 ErrMin= 2.43D-08
 ErrMax= 2.43D-08  0.00D+00 EMaxC= 1.00D-01 BMatC= 1.95D-13 BMatP= 4.01D-12
 IDIUse=1 WtCom= 1.00D+00 WtEn= 0.00D+00
 Coeff-Com: -0.189D-06 0.309D-05 0.556D-05 0.469D-05-0.825D-04 0.459D-04
 Coeff-Com:  0.284D-03 0.218D-03-0.244D-02 0.150D-02 0.169D-01-0.255D-01
 Coeff-Com: -0.200D+00 0.121D+01
 Coeff:     -0.189D-06 0.309D-05 0.556D-05 0.469D-05-0.825D-04 0.459D-04
 Coeff:      0.284D-03 0.218D-03-0.244D-02 0.150D-02 0.169D-01-0.255D-01
 Coeff:     -0.200D+00 0.121D+01
 Gap=     0.503 Goal=   None    Shift=    0.000
 RMSDP=3.79D-09 MaxDP=9.14D-08 DE=-1.38D-11 OVMax= 3.41D-07

 SCF Done:  E(RHF) =  -279.502152980     A.U. after   14 cycles
            NFock= 14  Conv=0.38D-08     -V/T= 2.0023
 KE= 2.788707061150D+02 PE=-8.952303393231D+02 EE= 2.199077300654D+02
 Leave Link  502 at Mon Feb 21 20:02:54 2022, MaxMem= 16106127360 cpu:              55.2 elap:               3.6
 (Enter /sw/contrib/gaussian/g16/B01/g16/l801.exe)
 ExpMin= 2.53D-02 ExpMax= 1.53D+04 ExpMxC= 5.22D+02 IAcc=3 IRadAn=         5 AccDes= 0.00D+00
 HarFok:  IExCor=  205 AccDes= 0.00D+00 IRadAn=         5 IDoV=-2 UseB2=F ITyADJ=14
 ICtDFT= 12500011 ScaDFX=  1.000000  1.000000  1.000000  1.000000
 Largest valence mixing into a core orbital is  2.08D-04
 Largest core mixing into a valence orbital is  3.63D-05
 Range of M.O.s used for correlation:     5   207
 NBasis=   207 NAE=    16 NBE=    16 NFC=     4 NFV=     0
 NROrb=    203 NOA=    12 NOB=    12 NVA=   191 NVB=   191

 **** Warning!!: The largest alpha MO coefficient is  0.17918286D+02

 Leave Link  801 at Mon Feb 21 20:02:54 2022, MaxMem= 16106127360 cpu:               2.1 elap:               0.1
 (Enter /sw/contrib/gaussian/g16/B01/g16/l906.exe)
 Frozen-core derivative calculation, NFC=   4 NFV=   0.
 FulOut=F Deriv=T AODrv=T NAtomX=     5
   MMem=           0  MDisk=          12 MDiskD=          12
  W3Min=      811440 MinDsk=     2425030 NBas6D=         245
 NBas2D=       30762    NTT=       30135    LW2=     7400000
    MDV= 16105574283 MDiskM=      328644 NBas2p=       30702
 Disk-based method using ON**2 memory for 12 occupieds at a time.
 Permanent disk used for amplitudes=    11516536 words.
 Estimated scratch disk usage=   321251614 words.
 IMap=   1   2   3   4   5   6   7   8   9  10  11  12  13  14  15  16
 Actual    scratch disk usage=   310331678 words.
 JobTyp=1 Pass  1:  I=   5 to  16 NPSUse= 28 ParTrn=T ParDer=T DoDerP=T.
 (rs|ai) integrals will be sorted in core.
 Spin components of T(2) and E(2):
     alpha-alpha T2 =       0.3396135931D-01 E2=     -0.1223219110D+00
     alpha-beta  T2 =       0.1864676001D+00 E2=     -0.6997736244D+00
     beta-beta   T2 =       0.3396135931D-01 E2=     -0.1223219110D+00
 The integrals were generated   1 times.
 ANorm=    0.1119995678D+01
 E2 =    -0.9444174464D+00 EUMP2 =    -0.28044657042675D+03
 Leave Link  906 at Mon Feb 21 20:04:31 2022, MaxMem= 16106127360 cpu:            2709.3 elap:              96.9
 (Enter /sw/contrib/gaussian/g16/B01/g16/l1101.exe)
 Using compressed Sx but separate Hx and Fx, NAtomX=     5.
 Will process      6 centers per pass.
 Leave Link 1101 at Mon Feb 21 20:04:31 2022, MaxMem= 16106127360 cpu:               6.4 elap:               0.3
 (Enter /sw/contrib/gaussian/g16/B01/g16/l1102.exe)
 Leave Link 1102 at Mon Feb 21 20:04:31 2022, MaxMem= 16106127360 cpu:               0.5 elap:               0.0
 (Enter /sw/contrib/gaussian/g16/B01/g16/l1110.exe)
 Forming Gx(P) for the SCF density, NAtomX=     5.
 Integral derivatives from FoFJK, PRISM(SPDF).
 Do as many integral derivatives as possible in FoFJK.
 G2DrvN: MDV=   16106126844.
 G2DrvN: will do     6 centers at a time, making    1 passes.
 Calling FoFCou, ICntrl=  3107 FMM=F I1Cent=   0 AccDes= 0.00D+00.
 FoFJK:  IHMeth= 1 ICntrl=    3107 DoSepK=F KAlg= 0 I1Cent=           0 FoldK=F
 IRaf=         0 NMat=       1 IRICut=       1 DoRegI=T DoRafI=F ISym2E= 1 IDoP0=0 IntGTp=1.
 FoFCou: FMM=F IPFlag=           0 FMFlag=      100000 FMFlg1=           0
         NFxFlg=           0 DoJE=F BraDBF=F KetDBF=F FulRan=T
         wScrn=  0.000000 ICntrl=      3107 IOpCl=  0 I1Cent=           0 NGrid=           0
         NMat0=    1 NMatS0=      1 NMatT0=    0 NMatD0=    1 NMtDS0=    0 NMtDT0=    0
 Petite list used in FoFCou.
 End of G2Drv F.D. properties file   721 does not exist.
 End of G2Drv F.D. properties file   722 does not exist.
 End of G2Drv F.D. properties file   788 does not exist.
 Leave Link 1110 at Mon Feb 21 20:04:34 2022, MaxMem= 16106127360 cpu:              83.4 elap:               3.0
 (Enter /sw/contrib/gaussian/g16/B01/g16/l1002.exe)
 Minotr:  Closed shell wavefunction.
          IDoAtm=11111
          Frozen-core window.
          Direct CPHF calculation.
          Differentiating once with respect to electric field.
                with respect to dipole field.
          Differentiating once with respect to nuclear coordinates.
          Requested convergence is 1.0D-08 RMS, and 1.0D-07 maximum.
          Secondary convergence is 1.0D-12 RMS, and 1.0D-12 maximum.
          NewPWx=T KeepS1=T KeepF1=T KeepIn=T MapXYZ=F SortEE=F KeepMc=T.
 Keep R1 ints in memory in symmetry-blocked form, NReq=348888983.
 FoFCou: FMM=F IPFlag=           0 FMFlag=           0 FMFlg1=           0
         NFxFlg=           0 DoJE=F BraDBF=F KetDBF=F FulRan=T
         wScrn=  0.000000 ICntrl=       600 IOpCl=  0 I1Cent=           0 NGrid=           0
         NMat0=    1 NMatS0=  21528 NMatT0=    0 NMatD0=    1 NMtDS0=    0 NMtDT0=    0
 Petite list used in FoFCou.
          MDV=   16106127360 using IRadAn=       1.
          Solving linear equations simultaneously, MaxMat=       0.
          There are    18 degrees of freedom in the 1st order CPHF.  IDoFFX=6 NUNeed=    18.
     15 vectors produced by pass  0 Test12= 1.70D-14 5.56D-09 XBig12= 8.27D+00 1.06D+00.
 AX will form    15 AO Fock derivatives at one time.
     15 vectors produced by pass  1 Test12= 1.70D-14 5.56D-09 XBig12= 1.34D+00 2.64D-01.
     15 vectors produced by pass  2 Test12= 1.70D-14 5.56D-09 XBig12= 1.42D-01 9.82D-02.
     15 vectors produced by pass  3 Test12= 1.70D-14 5.56D-09 XBig12= 5.02D-03 1.13D-02.
     15 vectors produced by pass  4 Test12= 1.70D-14 5.56D-09 XBig12= 1.01D-04 1.96D-03.
     15 vectors produced by pass  5 Test12= 1.70D-14 5.56D-09 XBig12= 1.43D-06 1.81D-04.
     15 vectors produced by pass  6 Test12= 1.70D-14 5.56D-09 XBig12= 1.12D-08 1.41D-05.
     13 vectors produced by pass  7 Test12= 1.70D-14 5.56D-09 XBig12= 8.32D-11 1.30D-06.
      3 vectors produced by pass  8 Test12= 1.70D-14 5.56D-09 XBig12= 5.75D-13 1.24D-07.
      2 vectors produced by pass  9 Test12= 1.70D-14 5.56D-09 XBig12= 3.72D-15 9.86D-09.
 InvSVY:  IOpt=1 It=  1 EMax= 6.66D-16
 Solved reduced A of dimension   123 with    15 vectors.
 FullF1:  Do perturbations      1 to      18.
 Saving first derivative matrices.
 End of Minotr F.D. properties file   721 does not exist.
 End of Minotr F.D. properties file   722 does not exist.
 End of Minotr F.D. properties file   788 does not exist.
 Leave Link 1002 at Mon Feb 21 20:04:37 2022, MaxMem= 16106127360 cpu:              83.0 elap:               3.0
 (Enter /sw/contrib/gaussian/g16/B01/g16/l811.exe)
 MDV= 16106127360.
 Form MO integral derivatives with frozen-active canonical formalism.
 MOERI=1 MOERIx=1 NAtoms=     5 NAtomX=     5.
 Discarding MO integrals.
 MO basis two electron integral derivatives will not be stored on disk.
 IAlg= 3 DoFC=T DoPWx=T Debug=F.
 Frozen-core window:  NFC=   4 NFV=   0.
 Reordered first order wavefunction length =     18678272
 In DefCFB: NBatch=  1 ICI= 16 ICA=191 LFMax= 96
            Large arrays: LIAPS=   619940160 LIARS=   288257200 words.
 In StABat: MaxSiz= 55 MinSiz= 25 NAtomB=  5
 DoIAMN: NPSUse= 28.
 Leave Link  811 at Mon Feb 21 20:06:01 2022, MaxMem= 16106127360 cpu:            2331.6 elap:              83.5
 (Enter /sw/contrib/gaussian/g16/B01/g16/l804.exe)
 Frozen-core window:  NFC=   4 NFV=   0.
 Closed-shell transformation, MDV= 16106127360 ITran=4 ISComp=1.
 Semi-Direct transformation.
 ModeAB=           2 MOrb=            16 LenV=   16104923037
 LASXX=     67341636 LTotXX=    67341636 LenRXX=    67341636
 LTotAB=    68301760 MaxLAS=    99807120 LenRXY=    99807120
 NonZer=   134683272 LenScr=   202817536 LnRSAI=           0
 LnScr1=           0 LExtra=           0 Total=    369966292
 MaxDsk=          -1 SrtSym=           F ITran=            4
 DoSDTr:  NPSUse= 28
 JobTyp=0 Pass  1:  I=   1 to  16.
 (rs|ai) integrals will be sorted in core.
 Complete sort for first half transformation.
 First half transformation complete.
 Begin second half transformation for I=  10.
 Begin second half transformation for I=  10.
 Complete sort for second half transformation.
 Second half transformation complete.
 Spin components of T(2) and E(2):
     alpha-alpha T2 =       0.3396135931D-01 E2=     -0.1223219110D+00
     alpha-beta  T2 =       0.1864676001D+00 E2=     -0.6997736244D+00
     beta-beta   T2 =       0.3396135931D-01 E2=     -0.1223219110D+00
 ANorm=    0.1583913078D+01
 E2 =    -0.9444174464D+00 EUMP2 =    -0.28044657042675D+03
 Leave Link  804 at Mon Feb 21 20:06:16 2022, MaxMem= 16106127360 cpu:             438.8 elap:              15.7
 (Enter /sw/contrib/gaussian/g16/B01/g16/l1002.exe)
 Minotr:  Closed shell wavefunction.
          Computing MP2/KS-MP2 derivatives.
          Using Z-Vector for PSCF gradient.
          Skipping F1 and S1 gradient terms here.
          IDoAtm=11111
          Frozen-core window.
          Using MO integrals in the linear equations.
          Forming densities via direct SCF.
          Differentiating once with respect to electric field.
                with respect to dipole field.
          Differentiating once with respect to nuclear coordinates.
          Using symmetry in CPHF.
          Requested convergence is 1.0D-10 RMS, and 1.0D-09 maximum.
          NewPWx=F KeepS1=T KeepF1=T KeepIn=T MapXYZ=F SortEE=F KeepMc=T.
          MDV=   16106127360 using IRadAn=       5.
          Solving linear equations separately, MaxMat=       0.
          There are     1 degrees of freedom in the 1st order CPHF.  IDoFFX=0 NUNeed=     1.
 FoFJK:  IHMeth= 1 ICntrl=       0 DoSepK=F KAlg= 0 I1Cent=           0 FoldK=F
 IRaf=         0 NMat=       1 IRICut=       1 DoRegI=T DoRafI=F ISym2E= 0 IDoP0=0 IntGTp=1.
 FoFCou: FMM=F IPFlag=           0 FMFlag=      100000 FMFlg1=           0
         NFxFlg=           0 DoJE=F BraDBF=F KetDBF=F FulRan=T
         wScrn=  0.000000 ICntrl=         0 IOpCl=  0 I1Cent=           0 NGrid=           0
         NMat0=    1 NMatS0=      1 NMatT0=    0 NMatD0=    1 NMtDS0=    0 NMtDT0=    0
 Symmetry not used in FoFCou.
 LinEq1:  Iter=  0 NonCon=     1 RMS=5.95D-03 Max=1.32D-01 NDo=     1
 LinEq1:  Iter=  1 NonCon=     1 RMS=1.90D-03 Max=3.83D-02 NDo=     1
 LinEq1:  Iter=  2 NonCon=     1 RMS=8.66D-04 Max=1.42D-02 NDo=     1
 LinEq1:  Iter=  3 NonCon=     1 RMS=3.87D-04 Max=7.82D-03 NDo=     1
 LinEq1:  Iter=  4 NonCon=     1 RMS=1.19D-04 Max=1.90D-03 NDo=     1
 LinEq1:  Iter=  5 NonCon=     1 RMS=4.57D-05 Max=7.27D-04 NDo=     1
 LinEq1:  Iter=  6 NonCon=     1 RMS=2.04D-05 Max=2.31D-04 NDo=     1
 LinEq1:  Iter=  7 NonCon=     1 RMS=8.17D-06 Max=1.60D-04 NDo=     1
 LinEq1:  Iter=  8 NonCon=     1 RMS=3.45D-06 Max=3.42D-05 NDo=     1
 LinEq1:  Iter=  9 NonCon=     1 RMS=9.36D-07 Max=1.30D-05 NDo=     1
 LinEq1:  Iter= 10 NonCon=     1 RMS=1.84D-07 Max=2.00D-06 NDo=     1
 LinEq1:  Iter= 11 NonCon=     1 RMS=3.41D-08 Max=3.53D-07 NDo=     1
 LinEq1:  Iter= 12 NonCon=     1 RMS=8.23D-09 Max=1.27D-07 NDo=     1
 LinEq1:  Iter= 13 NonCon=     1 RMS=1.49D-09 Max=2.54D-08 NDo=     1
 LinEq1:  Iter= 14 NonCon=     1 RMS=2.70D-10 Max=3.80D-09 NDo=     1
 LinEq1:  Iter= 15 NonCon=     0 RMS=4.86D-11 Max=5.47D-10 NDo=     1
 Linear equations converged to 1.000D-10 1.000D-09 after    15 iterations.
 End of Minotr F.D. properties file   721 does not exist.
 End of Minotr F.D. properties file   722 does not exist.
 End of Minotr F.D. properties file   788 does not exist.
 Leave Link 1002 at Mon Feb 21 20:06:19 2022, MaxMem= 16106127360 cpu:              64.5 elap:               2.4
 (Enter /sw/contrib/gaussian/g16/B01/g16/l1102.exe)
 Use density number 2.
 Symmetrizing basis deriv contribution to polar:
 IMax=3 JMax=2 DiffMx= 0.00D+00
 Leave Link 1102 at Mon Feb 21 20:06:19 2022, MaxMem= 16106127360 cpu:               1.3 elap:               0.1
 (Enter /sw/contrib/gaussian/g16/B01/g16/l1110.exe)
 Forming Gx(P) for generalized density number  2 NAtomX=     5.
 Integral derivatives from FoFJK, PRISM(SPDF).
 Do as many integral derivatives as possible in FoFJK.
 G2DrvN: MDV=   16106126844.
 G2DrvN: will do     6 centers at a time, making    1 passes.
 Calling FoFCou, ICntrl=  3107 FMM=F I1Cent=   0 AccDes= 0.00D+00.
 FoFJK:  IHMeth= 1 ICntrl=    3107 DoSepK=F KAlg= 0 I1Cent=           0 FoldK=F
 IRaf=         0 NMat=       1 IRICut=       1 DoRegI=T DoRafI=F ISym2E= 1 IDoP0=0 IntGTp=1.
 FoFCou: FMM=F IPFlag=           0 FMFlag=      100000 FMFlg1=           0
         NFxFlg=           0 DoJE=F BraDBF=F KetDBF=F FulRan=T
         wScrn=  0.000000 ICntrl=      3107 IOpCl=  0 I1Cent=           0 NGrid=           0
         NMat0=    1 NMatS0=      1 NMatT0=    0 NMatD0=    1 NMtDS0=    0 NMtDT0=    0
 Petite list used in FoFCou.
 End of G2Drv F.D. properties file   721 does not exist.
 End of G2Drv F.D. properties file   722 does not exist.
 End of G2Drv F.D. properties file   788 does not exist.
 Leave Link 1110 at Mon Feb 21 20:06:22 2022, MaxMem= 16106127360 cpu:              83.2 elap:               3.0
 (Enter /sw/contrib/gaussian/g16/B01/g16/l1112.exe)
 MP22nd: MDV=   16106127360
 This link is doing NAtomX=     5 total of    18 degrees of freedom.
 Using ON3 I/O method in MakUI.
 Frozen-core window:  NFC=   4 NFV=   0.
 Using Ix for Sx.
 Use MO integrals over full window.
 Using OV2 memory method for fx*t*t/D, MaxI=    16 DoOO2=F NP=  28.
 R2 and R3 integrals will be kept in memory, NReq=   915591705.
 FoFCou: FMM=F IPFlag=           0 FMFlag=           0 FMFlg1=           0
         NFxFlg=           0 DoJE=F BraDBF=F KetDBF=F FulRan=T
         wScrn=  0.000000 ICntrl=       600 IOpCl=  0 I1Cent=           0 NGrid=           0
         NMat0=    1 NMatS0=      1 NMatT0=    0 NMatD0=    1 NMtDS0=    0 NMtDT0=    0
 Symmetry not used in FoFCou.
 DD1Dir will call FoFMem   1 times, MxPair=       272
 NAB=   136 NAA=     0 NBB=     0.
 Symmetry is being used.
 FoFJK:  IHMeth= 1 ICntrl=       0 DoSepK=F KAlg= 0 I1Cent=           0 FoldK=F
 IRaf=         0 NMat=      18 IRICut=      45 DoRegI=T DoRafI=T ISym2E= 2 IDoP0=3 IntGTp=3.
 Discarding MO integrals.
 Leave Link 1112 at Mon Feb 21 20:06:57 2022, MaxMem= 16106127360 cpu:             971.0 elap:              35.1
 (Enter /sw/contrib/gaussian/g16/B01/g16/l601.exe)
 Copying SCF densities to generalized density rwf, IOpCl= 0 IROHF=0.

 **********************************************************************

            Population analysis using the MP2 Density.

 **********************************************************************

 Orbital symmetries:
       Occupied  (A') (A') (A') (A') (A') (A') (A') (A') (A') (A')
                 (A") (A') (A") (A') (A") (A')
       Virtual   (A') (A") (A') (A') (A") (A') (A') (A') (A") (A')
                 (A") (A') (A') (A') (A") (A') (A') (A") (A') (A')
                 (A') (A') (A') (A') (A") (A') (A') (A") (A') (A')
                 (A") (A') (A") (A') (A') (A") (A') (A') (A") (A')
                 (A") (A') (A") (A') (A') (A") (A') (A') (A") (A')
                 (A") (A') (A') (A') (A") (A') (A") (A') (A") (A')
                 (A') (A') (A") (A') (A') (A") (A') (A") (A') (A')
                 (A") (A') (A') (A") (A") (A') (A') (A") (A') (A')
                 (A') (A") (A') (A") (A') (A") (A') (A") (A') (A')
                 (A") (A') (A') (A") (A') (A") (A') (A") (A') (A')
                 (A") (A') (A") (A') (A') (A") (A') (A') (A") (A')
                 (A") (A') (A') (A') (A") (A') (A') (A') (A") (A')
                 (A") (A') (A") (A') (A') (A") (A") (A') (A") (A')
                 (A') (A') (A') (A") (A") (A") (A') (A') (A') (A')
                 (A") (A') (A') (A") (A') (A") (A') (A') (A') (A')
                 (A") (A') (A') (A") (A') (A") (A') (A") (A') (A")
                 (A') (A") (A') (A") (A') (A") (A") (A') (A") (A')
                 (A") (A') (A") (A') (A") (A') (A") (A") (A') (A')
                 (A') (A') (A') (A') (A') (A') (A') (A') (A') (A')
                 (A')
 The electronic state is 1-A'.
 Alpha  occ. eigenvalues --  -20.69124 -20.68455 -20.65894 -15.81311  -1.62434
 Alpha  occ. eigenvalues --   -1.49741  -1.25703  -0.94838  -0.77393  -0.76023
 Alpha  occ. eigenvalues --   -0.71211  -0.68137  -0.62085  -0.59006  -0.48568
 Alpha  occ. eigenvalues --   -0.47286
 Alpha virt. eigenvalues --    0.02987   0.07147   0.08589   0.10168   0.13386
 Alpha virt. eigenvalues --    0.13392   0.14460   0.15504   0.17806   0.19414
 Alpha virt. eigenvalues --    0.19976   0.20637   0.22077   0.23505   0.23726
 Alpha virt. eigenvalues --    0.26636   0.29367   0.30449   0.31097   0.34332
 Alpha virt. eigenvalues --    0.34901   0.38738   0.42348   0.43357   0.52723
 Alpha virt. eigenvalues --    0.52907   0.55846   0.58144   0.62579   0.63826
 Alpha virt. eigenvalues --    0.67429   0.68567   0.70634   0.71164   0.72522
 Alpha virt. eigenvalues --    0.72947   0.74494   0.79119   0.79223   0.81052
 Alpha virt. eigenvalues --    0.81257   0.83077   0.86804   0.90800   0.92262
 Alpha virt. eigenvalues --    0.92651   0.95768   0.97593   0.98641   1.01924
 Alpha virt. eigenvalues --    1.05137   1.05488   1.08355   1.11972   1.14276
 Alpha virt. eigenvalues --    1.18904   1.22158   1.23522   1.33845   1.34976
 Alpha virt. eigenvalues --    1.38602   1.45719   1.49144   1.51124   1.53766
 Alpha virt. eigenvalues --    1.56698   1.57892   1.61484   1.66295   1.66901
 Alpha virt. eigenvalues --    1.70339   1.79350   1.83172   1.83441   1.87786
 Alpha virt. eigenvalues --    1.91140   1.96296   1.99264   2.00842   2.07785
 Alpha virt. eigenvalues --    2.12250   2.13185   2.14987   2.22514   2.26315
 Alpha virt. eigenvalues --    2.26552   2.28960   2.31570   2.34474   2.38880
 Alpha virt. eigenvalues --    2.42453   2.42993   2.45408   2.46305   2.47738
 Alpha virt. eigenvalues --    2.50223   2.58448   2.59711   2.62035   2.62636
 Alpha virt. eigenvalues --    2.63416   2.66567   2.75748   2.82063   2.85622
 Alpha virt. eigenvalues --    2.88489   2.89362   2.92542   2.95769   3.02731
 Alpha virt. eigenvalues --    3.06902   3.11989   3.20428   3.22773   3.31851
 Alpha virt. eigenvalues --    3.34300   3.51649   3.64848   3.83861   3.85904
 Alpha virt. eigenvalues --    4.16063   4.16756   4.18687   4.25892   4.36312
 Alpha virt. eigenvalues --    4.39603   4.46771   4.52407   4.66320   4.71569
 Alpha virt. eigenvalues --    4.80651   4.82416   4.85116   4.89600   5.02319
 Alpha virt. eigenvalues --    5.07755   5.11462   5.15244   5.18645   5.26239
 Alpha virt. eigenvalues --    5.27566   5.31138   5.35880   5.36230   5.61345
 Alpha virt. eigenvalues --    5.67362   5.77319   5.83636   5.95890   6.16580
 Alpha virt. eigenvalues --    6.30905   6.33632   6.39781   6.49359   6.50541
 Alpha virt. eigenvalues --    6.61589   6.66674   6.69975   6.75706   6.76309
 Alpha virt. eigenvalues --    6.83301   6.89821   7.02114   7.05753   7.05903
 Alpha virt. eigenvalues --    7.09142   7.12698   7.15260   7.18154   7.22840
 Alpha virt. eigenvalues --    7.26558   7.32033   7.32583   7.35209   7.39880
 Alpha virt. eigenvalues --    7.43385   7.48444   7.60892   7.62073   7.62957
 Alpha virt. eigenvalues --    7.67018   7.80510   7.88737   8.09849   8.31841
 Alpha virt. eigenvalues --    8.42617   8.54907  13.39458  14.40572  15.35975
 Alpha virt. eigenvalues --   16.15239
          Condensed to atoms (all electrons):
               1          2          3          4          5
     1  H    0.604278   0.123217   0.021572   0.012753  -0.000693
     2  O    0.123217   8.318042  -0.175215  -0.091463   0.015651
     3  O    0.021572  -0.175215   8.470573  -0.130264  -0.038658
     4  N    0.012753  -0.091463  -0.130264   6.972082  -0.055743
     5  O   -0.000693   0.015651  -0.038658  -0.055743   8.272712
 Mulliken charges:
               1
     1  H    0.238873
     2  O   -0.190233
     3  O   -0.148007
     4  N    0.292636
     5  O   -0.193269
 Sum of Mulliken charges =  -0.00000
 Mulliken charges with hydrogens summed into heavy atoms:
               1
     2  O    0.048641
     3  O   -0.148007
     4  N    0.292636
     5  O   -0.193269
 APT charges:
               1
     1  H    0.299829
     2  O   -0.290316
     3  O   -0.494880
     4  N    0.876744
     5  O   -0.391376
 Sum of APT charges =  -0.00000
 APT charges with hydrogens summed into heavy atoms:
               1
     2  O    0.009512
     3  O   -0.494880
     4  N    0.876744
     5  O   -0.391376
 Electronic spatial extent (au):  <R**2>=            252.7443
 Charge=             -0.0000 electrons
 Dipole moment (field-independent basis, Debye):
    X=              0.5012    Y=              1.3439    Z=              0.0000  Tot=              1.4343
 Quadrupole moment (field-independent basis, Debye-Ang):
   XX=            -22.4631   YY=            -18.6668   ZZ=            -21.9936
   XY=              3.2298   XZ=              0.0000   YZ=             -0.0000
 Traceless Quadrupole moment (field-independent basis, Debye-Ang):
   XX=             -1.4220   YY=              2.3744   ZZ=             -0.9525
   XY=              3.2298   XZ=              0.0000   YZ=             -0.0000
 Octapole moment (field-independent basis, Debye-Ang**2):
  XXX=              2.8862  YYY=             11.1442  ZZZ=              0.0000  XYY=              7.8169
  XXY=              6.5460  XXZ=             -0.0000  XZZ=             -1.5560  YZZ=             -0.8365
  YYZ=             -0.0000  XYZ=             -0.0000
 Hexadecapole moment (field-independent basis, Debye-Ang**3):
 XXXX=           -158.2795 YYYY=            -89.9158 ZZZZ=            -18.2134 XXXY=            -36.6451
 XXXZ=              0.0000 YYYX=            -30.9317 YYYZ=              0.0000 ZZZX=              0.0000
 ZZZY=              0.0000 XXYY=            -34.0513 XXZZ=            -30.8218 YYZZ=            -20.6121
 XXYZ=              0.0000 YYXZ=              0.0000 ZZXY=            -15.0155
 N-N= 1.169497501623D+02 E-N=-8.960134407547D+02  KE= 2.802207091756D+02
 Symmetry A'   KE= 2.662482825733D+02
 Symmetry A"   KE= 1.397242660235D+01
  Exact polarizability:  33.940   9.410  30.071  -0.000   0.000  17.895
 Approx polarizability:  28.972   5.088  23.385  -0.000   0.000  15.501
 No NMR shielding tensors so no spin-rotation constants.
 Leave Link  601 at Mon Feb 21 20:06:57 2022, MaxMem= 16106127360 cpu:               4.4 elap:               0.2
 (Enter /sw/contrib/gaussian/g16/B01/g16/l701.exe)
 ... and contract with generalized density number  2.
 Compute integral second derivatives.
 Leave Link  701 at Mon Feb 21 20:06:58 2022, MaxMem= 16106127360 cpu:               6.2 elap:               0.2
 (Enter /sw/contrib/gaussian/g16/B01/g16/l702.exe)
 L702 exits ... SP integral derivatives will be done elsewhere.
 Leave Link  702 at Mon Feb 21 20:06:58 2022, MaxMem= 16106127360 cpu:               0.9 elap:               0.1
 (Enter /sw/contrib/gaussian/g16/B01/g16/l703.exe)
 Integral derivatives from FoFJK, PRISM(SPDF).
 Compute integral second derivatives, UseDBF=F ICtDFT=           0.
 Calling FoFJK, ICntrl=  10100127 FMM=F ISym2X=1 I1Cent= 0 IOpClX= 0 NMat=1 NMatS=1 NMatT=0.
 FoFJK:  IHMeth= 1 ICntrl=10100127 DoSepK=F KAlg= 0 I1Cent=           0 FoldK=F
 IRaf=         0 NMat=       1 IRICut=       1 DoRegI=T DoRafI=F ISym2E= 1 IDoP0=0 IntGTp=1.
 FoFCou: FMM=F IPFlag=           0 FMFlag=      100000 FMFlg1=         800
         NFxFlg=           0 DoJE=F BraDBF=F KetDBF=F FulRan=T
         wScrn=  0.000000 ICntrl=  10100127 IOpCl=  0 I1Cent=           0 NGrid=           0
         NMat0=    1 NMatS0=      1 NMatT0=    0 NMatD0=    1 NMtDS0=    0 NMtDT0=    0
 Petite list used in FoFCou.
 Leave Link  703 at Mon Feb 21 20:07:13 2022, MaxMem= 16106127360 cpu:             423.4 elap:              15.2
 (Enter /sw/contrib/gaussian/g16/B01/g16/l716.exe)
 Dipole        = 1.97188004D-01 5.28717018D-01 4.49082829D-32
 Polarizability= 3.39403035D+01 9.41044837D+00 3.00708727D+01
                -2.55755900D-30 8.99658617D-31 1.78951851D+01
 Full mass-weighted force constant matrix:
 Low frequencies --- -526.1631  -54.9293  -43.8978   -0.0014   -0.0010    0.0002
 Low frequencies ---    9.8561  228.3867  327.3052
 ******    1 imaginary frequencies (negative Signs) ****** 
 Diagonal vibrational polarizability:
       13.9956881      25.3788737      12.7730758
 Harmonic frequencies (cm**-1), IR intensities (KM/Mole), Raman scattering
 activities (A**4/AMU), depolarization ratios for plane and unpolarized
 incident light, reduced masses (AMU), force constants (mDyne/A),
 and normal coordinates:
                      1                      2                      3
                     A"                     A"                     A'
 Frequencies --   -518.0329               228.2328               327.0738
 Red. masses --      1.1203                12.2540                 7.9964
 Frc consts  --      0.1771                 0.3761                 0.5040
 IR Inten    --    126.8633                 0.0989                 5.7059
  Atom  AN      X      Y      Z        X      Y      Z        X      Y      Z
     1   1    -0.00   0.00   1.00    -0.00   0.00  -0.45     0.59  -0.43  -0.00
     2   8    -0.00  -0.00  -0.06     0.00   0.00  -0.34    -0.09  -0.36  -0.00
     3   8    -0.00   0.00  -0.05     0.00  -0.00   0.35    -0.14   0.42   0.00
     4   7     0.00   0.00   0.05     0.00  -0.00   0.57     0.04   0.24   0.00
     5   8     0.00   0.00   0.00    -0.00   0.00  -0.48     0.16  -0.24  -0.00
                      4                      5                      6
                     A'                     A'                     A'
 Frequencies --    451.8762               779.9079               966.2960
 Red. masses --     12.3004                12.2141                15.6518
 Frc consts  --      1.4798                 4.3772                 8.6107
 IR Inten    --    198.8442               160.2473                26.0111
  Atom  AN      X      Y      Z        X      Y      Z        X      Y      Z
     1   1     0.41   0.20   0.00    -0.41   0.18   0.00    -0.11  -0.03  -0.00
     2   8     0.32   0.21  -0.00     0.42   0.07  -0.00    -0.52   0.04   0.00
     3   8     0.18   0.43   0.00    -0.07  -0.24   0.00     0.75  -0.03   0.00
     4   7    -0.35  -0.41   0.00    -0.14   0.60   0.00    -0.12   0.25  -0.00
     5   8    -0.22  -0.30  -0.00    -0.20  -0.36  -0.00    -0.12  -0.23  -0.00
                      7                      8                      9
                     A'                     A'                     A'
 Frequencies --   1325.6874              1677.0615              3952.9960
 Red. masses --      1.1471                13.4879                 1.0675
 Frc consts  --      1.1878                22.3507                 9.8283
 IR Inten    --    155.4863               142.9137                84.1464
  Atom  AN      X      Y      Z        X      Y      Z        X      Y      Z
     1   1     0.99  -0.05   0.00    -0.32   0.00  -0.00     0.10   0.99  -0.00
     2   8    -0.02   0.06   0.00    -0.01  -0.04  -0.00    -0.01  -0.06   0.00
     3   8    -0.02  -0.06  -0.00     0.00   0.15   0.00     0.00   0.00   0.00
     4   7     0.02   0.02  -0.00     0.71  -0.05   0.00    -0.00  -0.00  -0.00
     5   8    -0.03  -0.01   0.00    -0.60  -0.07  -0.00     0.00   0.00  -0.00

 -------------------
 - Thermochemistry -
 -------------------
 Temperature   298.150 Kelvin.  Pressure   1.00000 Atm.
 Atom     1 has atomic number  1 and mass   1.00783
 Atom     2 has atomic number  8 and mass  15.99491
 Atom     3 has atomic number  8 and mass  15.99491
 Atom     4 has atomic number  7 and mass  14.00307
 Atom     5 has atomic number  8 and mass  15.99491
 Molecular mass:    62.99564 amu.
 Principal axes and moments of inertia in atomic units:
                           1         2         3
     Eigenvalues --    32.80749 360.00331 392.81079
           X            0.81029  -0.58603   0.00000
           Y            0.58603   0.81029   0.00000
           Z           -0.00000   0.00000   1.00000
 This molecule is an asymmetric top.
 Rotational symmetry number  1.
 Rotational temperatures (Kelvin)      2.64007     0.24059     0.22050
 Rotational constants (GHZ):          55.01004     5.01312     4.59443
    1 imaginary frequencies ignored.
 Zero-point vibrational energy      58073.5 (Joules/Mol)
                                   13.87990 (Kcal/Mol)
 Warning -- explicit consideration of   3 degrees of freedom as
           vibrations may cause significant error
 Vibrational temperatures:    328.38   470.59   650.15  1122.11  1390.28
          (Kelvin)           1907.37  2412.92  5687.48
 
 Zero-point correction=                           0.022119 (Hartree/Particle)
 Thermal correction to Energy=                    0.026258
 Thermal correction to Enthalpy=                  0.027202
 Thermal correction to Gibbs Free Energy=        -0.004021
 Sum of electronic and zero-point Energies=           -280.424451
 Sum of electronic and thermal Energies=              -280.420313
 Sum of electronic and thermal Enthalpies=            -280.419368
 Sum of electronic and thermal Free Energies=         -280.450591
 
                     E (Thermal)             CV                S
                      KCal/Mol        Cal/Mol-Kelvin    Cal/Mol-Kelvin
 Total                   16.477             12.013             65.714
 Electronic               0.000              0.000              0.000
 Translational            0.889              2.981             38.341
 Rotational               0.889              2.981             23.055
 Vibrational             14.700              6.052              4.319
 Vibration     1          0.651              1.798              1.893
 Vibration     2          0.711              1.621              1.274
 Vibration     3          0.811              1.357              0.790
                       Q            Log10(Q)             Ln(Q)
 Total Bot       0.707187D+02          1.849534          4.258710
 Total V=0       0.105578D+13         12.023572         27.685299
 Vib (Bot)       0.147583D-09         -9.830962        -22.636628
 Vib (Bot)    1  0.863635D+00         -0.063670         -0.146605
 Vib (Bot)    2  0.572290D+00         -0.242384         -0.558109
 Vib (Bot)    3  0.378922D+00         -0.421451         -0.970426
 Vib (V=0)       0.220331D+01          0.343076          0.789961
 Vib (V=0)    1  0.149793D+01          0.175492          0.404085
 Vib (V=0)    2  0.125994D+01          0.100351          0.231068
 Vib (V=0)    3  0.112736D+01          0.052063          0.119879
 Electronic      0.100000D+01          0.000000          0.000000
 Translational   0.196526D+08          7.293420         16.793719
 Rotational      0.243824D+05          4.387077         10.101618
 
                                                                title
                                                             IR Spectrum
 
     3                                                                         1          1                                          
     9                                                                         6          3          9     7          4   3  2       
     5                                                                         7          2          6     8          5   2  2       
     3                                                                         7          6          6     0          2   7  8       
 
     X                                                                         X          X          X     X          X   X  X       
     X                                                                         X          X          X     X          X              
     X                                                                         X          X          X     X          X              
     X                                                                         X          X                X          X              
     X                                                                         X          X                X          X              
     X                                                                         X          X                X          X              
     X                                                                         X          X                X          X              
     X                                                                         X          X                X          X              
                                                                               X          X                X          X              
                                                                               X          X                X          X              
                                                                               X          X                X          X              
                                                                               X          X                X          X              
                                                                               X          X                X          X              
                                                                               X          X                X          X              
                                                                                          X                X          X              
                                                                                          X                X          X              
                                                                                                                      X              
                                                                                                                      X              
                                                                                                                      X              
                                                                                                                      X              
 
 ***** Axes restored to original set *****
 -------------------------------------------------------------------
 Center     Atomic                   Forces (Hartrees/Bohr)
 Number     Number              X              Y              Z
 -------------------------------------------------------------------
      1        1          -0.000066479   -0.000000000   -0.013376048
      2        8           0.000580607    0.000000000    0.013378352
      3        8          -0.000506991    0.000000000   -0.000000592
      4        7          -0.000298548    0.000000000   -0.000039175
      5        8           0.000291412   -0.000000000    0.000037463
 -------------------------------------------------------------------
 Cartesian Forces:  Max     0.013378352 RMS     0.004889952
 -----------------------------------------------------------------------------------------------
                       Internal Coordinate Forces (Hartree/Bohr or radian)
  Cent   Atom   N1       Length/X         N2         Alpha/Y        N3         Beta/Z          J
 -----------------------------------------------------------------------------------------------
      1  H 
      2  O        1   0.013376(     1)
      3  O        2  -0.000510(     2)      1   0.000120(     5)
      4  N        3  -0.000002(     3)      2   0.000060(     6)      1   0.000000(     8)     0
      5  O        4   0.000292(     4)      3  -0.000080(     7)      2  -0.000000(     9)     0
 -----------------------------------------------------------------------------------------------
 Internal  Forces:  Max     0.013376048 RMS     0.004463284
 Force constants in Cartesian coordinates: 
                1             2             3             4             5 
      1  0.594177D-01
      2  0.000000D+00 -0.982720D-02
      3  0.542975D-02  0.000000D+00  0.560708D+00
      4 -0.298564D-01  0.000000D+00 -0.167476D-01  0.266384D+00
      5  0.000000D+00  0.104787D-01  0.000000D+00  0.000000D+00 -0.516582D-02
      6  0.492238D-01  0.000000D+00 -0.556931D+00  0.331579D-01  0.000000D+00
      7 -0.188545D-01  0.000000D+00  0.128441D-01 -0.219927D+00  0.000000D+00
      8  0.000000D+00  0.106193D-02  0.000000D+00  0.000000D+00 -0.676990D-02
      9 -0.542235D-01  0.000000D+00 -0.344820D-03 -0.188035D-01  0.000000D+00
     10 -0.943554D-02  0.000000D+00 -0.488273D-02 -0.170623D-01  0.000000D+00
     11  0.000000D+00 -0.275380D-02  0.000000D+00  0.000000D+00 -0.487444D-02
     12  0.540525D-02  0.000000D+00 -0.487488D-02  0.116426D-01  0.000000D+00
     13 -0.127124D-02  0.000000D+00  0.335644D-02  0.461039D-03  0.000000D+00
     14  0.000000D+00  0.104035D-02  0.000000D+00  0.000000D+00  0.633143D-02
     15 -0.583530D-02  0.000000D+00  0.144242D-02 -0.924944D-02  0.000000D+00
                6             7             8             9            10 
      6  0.643587D+00
      7 -0.216303D-01  0.341779D+00
      8  0.000000D+00  0.000000D+00  0.433284D-02
      9 -0.791112D-01  0.362678D-01  0.000000D+00  0.181589D+00
     10 -0.526125D-01 -0.780559D-01  0.000000D+00  0.175021D+00  0.828479D+00
     11  0.000000D+00  0.000000D+00  0.854197D-02  0.000000D+00  0.000000D+00
     12  0.171532D-01  0.628441D-01  0.000000D+00 -0.818902D-01 -0.178381D-01
     13 -0.813888D-02 -0.249425D-01  0.000000D+00 -0.138262D+00 -0.723925D+00
     14  0.000000D+00  0.000000D+00 -0.716683D-02  0.000000D+00  0.000000D+00
     15 -0.246982D-01 -0.903257D-01  0.000000D+00 -0.202431D-01 -0.996874D-01
               11            12            13            14            15 
     11  0.855063D-02
     12  0.000000D+00  0.186958D+00
     13  0.000000D+00 -0.620538D-01  0.749678D+00
     14 -0.946437D-02  0.000000D+00  0.000000D+00  0.925942D-02
     15  0.000000D+00 -0.117346D+00  0.205098D+00  0.000000D+00  0.160845D+00
 Force constants in internal coordinates: 
                1             2             3             4             5 
      1  0.560708D+00
      2 -0.107193D-01  0.281641D+00
      3  0.354604D-02  0.240065D-02  0.117397D+00
      4 -0.360938D-02  0.586315D-02  0.153051D+00  0.812024D+00
      5  0.974049D-02  0.659704D-01  0.235963D-02  0.483939D-02  0.217991D+00
      6  0.466641D-02  0.592499D-01  0.412683D-01  0.218673D-01  0.316260D-01
      7 -0.124880D-02  0.378451D-01  0.320132D-01  0.847773D-01  0.213286D-01
      8  0.000000D+00  0.000000D+00  0.000000D+00  0.000000D+00  0.000000D+00
      9  0.000000D+00  0.000000D+00  0.000000D+00  0.000000D+00  0.000000D+00
                6             7             8             9 
      6  0.283402D+00
      7  0.957611D-01  0.482753D+00
      8  0.000000D+00  0.000000D+00 -0.777595D-02
      9  0.000000D+00  0.000000D+00 -0.389376D-02  0.410837D-01
 Leave Link  716 at Mon Feb 21 20:07:13 2022, MaxMem= 16106127360 cpu:               2.0 elap:               0.1
 (Enter /sw/contrib/gaussian/g16/B01/g16/l103.exe)

 GradGradGradGradGradGradGradGradGradGradGradGradGradGradGradGradGradGrad
 Berny optimization.
 Search for a local minimum.
 Step number   1 out of a maximum of    2
 All quantities printed in internal units (Hartrees-Bohrs-Radians)
 Second derivative matrix not updated -- analytic derivatives used.
 The second derivative matrix:
                          r1        r2        r3        r4        a1
           r1           0.56071
           r2          -0.01072   0.28164
           r3           0.00355   0.00240   0.11740
           r4          -0.00361   0.00586   0.15305   0.81202
           a1           0.00974   0.06597   0.00236   0.00484   0.21799
           a2           0.00467   0.05925   0.04127   0.02187   0.03163
           a3          -0.00125   0.03785   0.03201   0.08478   0.02133
           d1           0.00000   0.00000  -0.00000  -0.00000   0.00000
           d2           0.00000   0.00000  -0.00000  -0.00000   0.00000
                          a2        a3        d1        d2
           a2           0.28340
           a3           0.09576   0.48275
           d1           0.00000   0.00000  -0.00778
           d2           0.00000   0.00000  -0.00389   0.04108
 ITU=  0
     Eigenvalues ---   -0.00808   0.04139   0.07835   0.17578   0.22594
     Eigenvalues ---    0.32602   0.51748   0.56135   0.87099
 Eigenvalue     1 is  -8.08D-03 should be greater than     0.000000 Eigenvector:
                          d1        d2        r3        a2        a3
   1                    0.99688   0.07895   0.00000  -0.00000  -0.00000
                          a1        r4        r2        r1
   1                    0.00000  -0.00000  -0.00000  -0.00000
 Angle between quadratic step and forces=   4.69 degrees.
 Linear search not attempted -- first point.
 Variable       Old X    -DE/DX   Delta X   Delta X   Delta X     New X
                                 (Linear)    (Quad)   (Total)
    r1        1.80615   0.01338   0.00000   0.02386   0.02386   1.83001
    r2        2.74940  -0.00051   0.00000  -0.00088  -0.00088   2.74851
    r3        2.75670  -0.00000   0.00000  -0.00187  -0.00187   2.75484
    r4        2.21236   0.00029   0.00000   0.00083   0.00083   2.21318
    a1        1.70335   0.00012   0.00000  -0.00028  -0.00028   1.70308
    a2        1.78543   0.00006   0.00000   0.00028   0.00028   1.78571
    a3        1.90362  -0.00008   0.00000  -0.00010  -0.00010   1.90352
    d1        3.14159   0.00000   0.00000  -0.00000   0.00000   3.14159
    d2        3.14159  -0.00000   0.00000  -0.00000   0.00000   3.14159
         Item               Value     Threshold  Converged?
 Maximum Force            0.013376     0.000450     NO 
 RMS     Force            0.004463     0.000300     NO 
 Maximum Displacement     0.023858     0.001800     NO 
 RMS     Displacement     0.007988     0.001200     NO 
 Predicted change in Energy=-1.599078D-04
                       ----------------------------
                       ! Non-Optimized Parameters !
                       ! (Angstroms and Degrees)  !
 ----------------------                            ----------------------
 !      Name          Value   Derivative information (Atomic Units)     !
 ------------------------------------------------------------------------
 !       r1          0.9684   -DE/DX =    0.0134                        !
 !       r2          1.4545   -DE/DX =   -0.0005                        !
 !       r3          1.4578   -DE/DX =    0.0                           !
 !       r4          1.1712   -DE/DX =    0.0003                        !
 !       a1         97.5791   -DE/DX =    0.0001                        !
 !       a2        102.3134   -DE/DX =    0.0001                        !
 !       a3        109.0639   -DE/DX =   -0.0001                        !
 !       d1        180.0      -DE/DX =    0.0                           !
 !       d2        180.0      -DE/DX =    0.0                           !
 ------------------------------------------------------------------------
 GradGradGradGradGradGradGradGradGradGradGradGradGradGradGradGradGradGrad

 Leave Link  103 at Mon Feb 21 20:07:13 2022, MaxMem= 16106127360 cpu:               1.1 elap:               0.1
 (Enter /sw/contrib/gaussian/g16/B01/g16/l9999.exe)

 ----------------------------------------------------------------------

 Electric dipole moment (input orientation):
 (Debye = 10**-18 statcoulomb cm , SI units = C m)
                  (au)            (Debye)         (10**-30 SI)
   Tot        0.564291D+00      0.143429D+01      0.478426D+01
   x         -0.144407D+00     -0.367046D+00     -0.122433D+01
   y          0.000000D+00      0.000000D+00      0.000000D+00
   z         -0.545501D+00     -0.138653D+01     -0.462495D+01

 Dipole polarizability, Alpha (input orientation).
 (esu units = cm**3 , SI units = C**2 m**2 J**-1)
 Alpha(0;0):
               (au)            (10**-24 esu)      (10**-40 SI)
   iso        0.273021D+02      0.404576D+01      0.450151D+01
   aniso      0.218175D+02      0.323302D+01      0.359722D+01
   xx         0.320670D+02      0.475183D+01      0.528713D+01
   yx         0.000000D+00      0.000000D+00      0.000000D+00
   yy         0.178952D+02      0.265179D+01      0.295052D+01
   zx         0.960708D+01      0.142362D+01      0.158399D+01
   zy         0.000000D+00      0.000000D+00      0.000000D+00
   zz         0.319442D+02      0.473365D+01      0.526689D+01

 ----------------------------------------------------------------------

 Dipole orientation:
     1          0.00000000          0.00000000         -0.00000000
     8         -0.46220885         -0.00000000         -1.74600560
     8          2.07932774          0.00000000         -2.79471279
     7          1.59471672          0.00000000         -5.50848508
     8          3.52603731          0.00000000         -6.58761611

 Electric dipole moment (dipole orientation):
 (Debye = 10**-18 statcoulomb cm , SI units = C m)
                  (au)            (Debye)         (10**-30 SI)
   Tot        0.564291D+00      0.143429D+01      0.478426D+01
   x          0.000000D+00      0.000000D+00      0.000000D+00
   y          0.000000D+00      0.000000D+00      0.000000D+00
   z          0.564291D+00      0.143429D+01      0.478426D+01

 Dipole polarizability, Alpha (dipole orientation).
 (esu units = cm**3 , SI units = C**2 m**2 J**-1)
 Alpha(0;0):
               (au)            (10**-24 esu)      (10**-40 SI)
   iso        0.273021D+02      0.404576D+01      0.450151D+01
   aniso      0.218175D+02      0.323302D+01      0.359722D+01
   xx         0.273056D+02      0.404627D+01      0.450208D+01
   yx         0.000000D+00      0.000000D+00      0.000000D+00
   yy         0.178952D+02      0.265179D+01      0.295052D+01
   zx        -0.837912D+01     -0.124166D+01     -0.138153D+01
   zy         0.000000D+00      0.000000D+00      0.000000D+00
   zz         0.367056D+02      0.543921D+01      0.605193D+01

 ----------------------------------------------------------------------
 1\1\GINC-N2127\Freq\RMP2-FC\Aug-CC-pVTZ\H1N1O3\CGAVINH\21-Feb-2022\1\\
 #p freq mp2/aug-cc-pvtz density=current\\title\\0,1\H\O,1,r1\O,2,r2,1,
 a1\N,3,r3,2,a2,1,d1,0\O,4,r4,3,a3,2,d2,0\\r1=0.95577265\r2=1.45491931\
 r3=1.45878406\r4=1.17072885\a1=97.59494903\a2=102.29752444\a3=109.0695
 5123\d1=180.\d2=180.\\Version=ES64L-G16RevB.01\State=1-A'\HF=-279.5021
 53\MP2=-280.4465704\RMSD=3.788e-09\RMSF=4.890e-03\ZeroPoint=0.022119\T
 hermal=0.0262578\Dipole=-0.144407,0.,-0.5455011\DipoleDeriv=0.2647166,
 0.,0.0486477,0.,0.3574091,0.,0.0847379,0.,0.2773603,-0.3280927,0.,-0.2
 053112,0.,-0.3167103,0.,-0.116237,0.,-0.2261457,-0.0464339,0.,0.144095
 3,0.,-0.0865805,0.,-0.7497563,0.,-1.3516246,0.8958668,0.,0.9101032,0.,
 0.0663471,0.,0.9220805,0.,1.6680167,-0.7860569,0.,-0.8975351,0.,-0.020
 4654,0.,-0.1408251,0.,-0.3676067\Polar=32.0669535,0.,17.8951851,9.6070
 753,0.,31.9442227\Quadrupole=-1.4986115,-0.7081263,2.2067378,0.,2.0797
 796,0.\PG=CS [SG(H1N1O3)]\NImag=1\\0.05941766,0.,-0.00982720,0.0054297
 5,0.,0.56070780,-0.02985636,0.,-0.01674760,0.26638424,0.,0.01047872,0.
 ,0.,-0.00516582,0.04922375,0.,-0.55693051,0.03315795,0.,0.64358671,-0.
 01885452,0.,0.01284413,-0.21992659,0.,-0.02163029,0.34177948,0.,0.0010
 6193,0.,0.,-0.00676990,0.,0.,0.00433284,-0.05422346,0.,-0.00034482,-0.
 01880349,0.,-0.07911119,0.03626779,0.,0.18158938,-0.00943554,0.,-0.004
 88273,-0.01706233,0.,-0.05261253,-0.07805590,0.,0.17502078,0.82847927,
 0.,-0.00275380,0.,0.,-0.00487444,0.,0.,0.00854197,0.,0.,0.00855063,0.0
 0540525,0.,-0.00487488,0.01164259,0.,0.01715318,0.06284411,0.,-0.08189
 025,-0.01783810,0.,0.18695783,-0.00127124,0.,0.00335644,0.00046104,0.,
 -0.00813888,-0.02494248,0.,-0.13826160,-0.72392549,0.,-0.06205385,0.74
 967817,0.,0.00104035,0.,0.,0.00633143,0.,0.,-0.00716683,0.,0.,-0.00946
 437,0.,0.,0.00925942,-0.00583530,0.,0.00144242,-0.00924944,0.,-0.02469
 819,-0.09032574,0.,-0.02024312,-0.09968743,0.,-0.11734589,0.20509790,0
 .,0.16084479\\0.00006648,0.,0.01337605,-0.00058061,0.,-0.01337835,0.00
 050699,0.,0.00000059,0.00029855,0.,0.00003917,-0.00029141,0.,-0.000037
 46\\\@


 WOE UNTO THEM THAT CALL EVIL GOOD, AND GOOD EVIL      
 Job cpu time:       0 days  2 hours  1 minutes 31.1 seconds.
 Elapsed time:       0 days  0 hours  4 minutes 23.7 seconds.
 File lengths (MBytes):  RWF=   7239 Int=      0 D2E=      0 Chk=      8 Scr=      1
 Normal termination of Gaussian 16 at Mon Feb 21 20:07:14 2022.
