title                                                                   
Freq      RMP2-FC                                                     Aug-CC-pVTZ         
Number of atoms                            I                5
Info1-9                                    I   N=           9
          33          24           0           0           0         100
           6           2           1
Full Title                                 C   N=           1
title       
Route                                      C   N=           4
#p freq mp2/aug-cc-pvtz density=current         
Charge                                     I                0
Multiplicity                               I                1
Number of electrons                        I               32
Number of alpha electrons                  I               16
Number of beta electrons                   I               16
Number of basis functions                  I              207
Number of independent functions            I              207
Number of point charges in /Mol/           I                0
Number of translation vectors              I                0
Atomic numbers                             I   N=           5
           1           8           8           7           8
Nuclear charges                            R   N=           5
  1.00000000E+00  8.00000000E+00  8.00000000E+00  7.00000000E+00  8.00000000E+00
Current cartesian coordinates              R   N=          15
  2.93138075E+00  3.19817587E+00 -2.13566347E-31  2.74797158E+00  1.37628604E+00
 -1.46814957E-31  9.91547296E-17  1.28770156E+00  1.74745192E-32 -5.00058356E-01
 -1.42326680E+00 -4.02727169E-32 -2.67684311E+00 -1.81840114E+00  1.12477761E-31
Number of symbols in /Mol/                 I                0
Force Field                                I                0
Atom Types                                 C   N=           5
                                                            
Int Atom Types                             I   N=           5
           0           0           0           0           0
MM charges                                 R   N=           5
  0.00000000E+00  0.00000000E+00  0.00000000E+00  0.00000000E+00  0.00000000E+00
Integer atomic weights                     I   N=           5
           1          16          16          14          16
Real atomic weights                        R   N=           5
  1.00782504E+00  1.59949146E+01  1.59949146E+01  1.40030740E+01  1.59949146E+01
Atom fragment info                         I   N=           5
           0           0           0           0           0
Atom residue num                           I   N=           5
           0           0           0           0           0
Nuclear spins                              I   N=           5
           1           0           0           2           0
Nuclear ZEff                               R   N=           5
 -1.00000000E+00 -5.60000000E+00 -5.60000000E+00 -4.55000000E+00 -5.60000000E+00
Nuclear ZNuc                               R   N=           5
  1.00000000E+00  8.00000000E+00  8.00000000E+00  7.00000000E+00  8.00000000E+00
Nuclear QMom                               R   N=           5
  0.00000000E+00  0.00000000E+00  0.00000000E+00  2.04400000E+00  0.00000000E+00
Nuclear GFac                               R   N=           5
  2.79284600E+00  0.00000000E+00  0.00000000E+00  4.03761000E-01  0.00000000E+00
MicOpt                                     I   N=           5
          -1          -1          -1          -1          -1
Number of residues                         I                0
Number of secondary structures             I                0
SymInf integers                            I   N=          26
           1           2           1           1           1           1
           1          -1           0           0           0           0
           0           0           0           0           0           0
           0           0           0           0           0           0
           0           0
RotTr to input orientation                 R   N=          12
 -9.94970995E-01 -9.79836867E-17 -1.00163465E-01  1.00163465E-01 -7.34628816E-17
 -9.94970995E-01  9.01326294E-17 -1.00000000E+00  8.29078219E-17  2.59629844E+00
  0.00000000E+00  3.47570948E+00
Number of contracted shells                I               65
Number of primitive shells                 I              119
Pure/Cartesian d shells                    I                0
Pure/Cartesian f shells                    I                0
Highest angular momentum                   I                3
Largest degree of contraction              I                7
Shell types                                I   N=          65
           0           0           0           0           1           1
           1          -2          -2           0           0           0
           0           0           1           1           1           1
          -2          -2          -2          -3          -3           0
           0           0           0           0           1           1
           1           1          -2          -2          -2          -3
          -3           0           0           0           0           0
           1           1           1           1          -2          -2
          -2          -3          -3           0           0           0
           0           0           1           1           1           1
          -2          -2          -2          -3          -3
Number of primitives per shell             I   N=          65
           3           1           1           1           1           1
           1           1           1           7           6           1
           1           1           3           1           1           1
           1           1           1           1           1           7
           6           1           1           1           3           1
           1           1           1           1           1           1
           1           7           6           1           1           1
           3           1           1           1           1           1
           1           1           1           7           6           1
           1           1           3           1           1           1
           1           1           1           1           1
Shell to atom map                          I   N=          65
           1           1           1           1           1           1
           1           1           1           2           2           2
           2           2           2           2           2           2
           2           2           2           2           2           3
           3           3           3           3           3           3
           3           3           3           3           3           3
           3           4           4           4           4           4
           4           4           4           4           4           4
           4           4           4           5           5           5
           5           5           5           5           5           5
           5           5           5           5           5
Primitive exponents                        R   N=         119
  3.38700000E+01  5.09500000E+00  1.15900000E+00  3.25800000E-01  1.02700000E-01
  2.52600000E-02  1.40700000E+00  3.88000000E-01  1.02000000E-01  1.05700000E+00
  2.47000000E-01  1.53300000E+04  2.29900000E+03  5.22400000E+02  1.47300000E+02
  4.75500000E+01  1.67600000E+01  6.20700000E+00  5.22400000E+02  1.47300000E+02
  4.75500000E+01  1.67600000E+01  6.20700000E+00  6.88200000E-01  1.75200000E+00
  2.38400000E-01  7.37600000E-02  3.44600000E+01  7.74900000E+00  2.28000000E+00
  7.15600000E-01  2.14000000E-01  5.97400000E-02  2.31400000E+00  6.45000000E-01
  2.14000000E-01  1.42800000E+00  5.00000000E-01  1.53300000E+04  2.29900000E+03
  5.22400000E+02  1.47300000E+02  4.75500000E+01  1.67600000E+01  6.20700000E+00
  5.22400000E+02  1.47300000E+02  4.75500000E+01  1.67600000E+01  6.20700000E+00
  6.88200000E-01  1.75200000E+00  2.38400000E-01  7.37600000E-02  3.44600000E+01
  7.74900000E+00  2.28000000E+00  7.15600000E-01  2.14000000E-01  5.97400000E-02
  2.31400000E+00  6.45000000E-01  2.14000000E-01  1.42800000E+00  5.00000000E-01
  1.14200000E+04  1.71200000E+03  3.89300000E+02  1.10000000E+02  3.55700000E+01
  1.25400000E+01  4.64400000E+00  3.89300000E+02  1.10000000E+02  3.55700000E+01
  1.25400000E+01  4.64400000E+00  5.11800000E-01  1.29300000E+00  1.78700000E-01
  5.76000000E-02  2.66300000E+01  5.94800000E+00  1.74200000E+00  5.55000000E-01
  1.72500000E-01  4.91000000E-02  1.65400000E+00  4.69000000E-01  1.51000000E-01
  1.09300000E+00  3.64000000E-01  1.53300000E+04  2.29900000E+03  5.22400000E+02
  1.47300000E+02  4.75500000E+01  1.67600000E+01  6.20700000E+00  5.22400000E+02
  1.47300000E+02  4.75500000E+01  1.67600000E+01  6.20700000E+00  6.88200000E-01
  1.75200000E+00  2.38400000E-01  7.37600000E-02  3.44600000E+01  7.74900000E+00
  2.28000000E+00  7.15600000E-01  2.14000000E-01  5.97400000E-02  2.31400000E+00
  6.45000000E-01  2.14000000E-01  1.42800000E+00  5.00000000E-01
Contraction coefficients                   R   N=         119
  2.54948632E-02  1.90362766E-01  8.52162022E-01  1.00000000E+00  1.00000000E+00
  1.00000000E+00  1.00000000E+00  1.00000000E+00  1.00000000E+00  1.00000000E+00
  1.00000000E+00  5.19808943E-04  4.02025621E-03  2.07128267E-02  8.10105536E-02
  2.35962985E-01  4.42653446E-01  3.57064423E-01 -4.42115008E-05 -1.22591041E-03
 -1.05517725E-02 -6.74452633E-02 -1.71198607E-01  1.07329856E+00  1.00000000E+00
  1.00000000E+00  1.00000000E+00  4.11634896E-02  2.57762836E-01  8.02419274E-01
  1.00000000E+00  1.00000000E+00  1.00000000E+00  1.00000000E+00  1.00000000E+00
  1.00000000E+00  1.00000000E+00  1.00000000E+00  5.19808943E-04  4.02025621E-03
  2.07128267E-02  8.10105536E-02  2.35962985E-01  4.42653446E-01  3.57064423E-01
 -4.42115008E-05 -1.22591041E-03 -1.05517725E-02 -6.74452633E-02 -1.71198607E-01
  1.07329856E+00  1.00000000E+00  1.00000000E+00  1.00000000E+00  4.11634896E-02
  2.57762836E-01  8.02419274E-01  1.00000000E+00  1.00000000E+00  1.00000000E+00
  1.00000000E+00  1.00000000E+00  1.00000000E+00  1.00000000E+00  1.00000000E+00
  5.34563860E-04  4.13435660E-03  2.12335358E-02  8.25006224E-02  2.38138871E-01
  4.42551547E-01  3.53757422E-01 -4.89867350E-05 -1.19527323E-03 -1.03490714E-02
 -6.48680190E-02 -1.71552477E-01  1.07289568E+00  1.00000000E+00  1.00000000E+00
  1.00000000E+00  3.98072123E-02  2.49002660E-01  8.10479727E-01  1.00000000E+00
  1.00000000E+00  1.00000000E+00  1.00000000E+00  1.00000000E+00  1.00000000E+00
  1.00000000E+00  1.00000000E+00  5.19808943E-04  4.02025621E-03  2.07128267E-02
  8.10105536E-02  2.35962985E-01  4.42653446E-01  3.57064423E-01 -4.42115008E-05
 -1.22591041E-03 -1.05517725E-02 -6.74452633E-02 -1.71198607E-01  1.07329856E+00
  1.00000000E+00  1.00000000E+00  1.00000000E+00  4.11634896E-02  2.57762836E-01
  8.02419274E-01  1.00000000E+00  1.00000000E+00  1.00000000E+00  1.00000000E+00
  1.00000000E+00  1.00000000E+00  1.00000000E+00  1.00000000E+00
Coordinates of each shell                  R   N=         195
  2.93138075E+00  3.19817587E+00 -5.25538341E-32  2.93138075E+00  3.19817587E+00
 -5.25538341E-32  2.93138075E+00  3.19817587E+00 -5.25538341E-32  2.93138075E+00
  3.19817587E+00 -5.25538341E-32  2.93138075E+00  3.19817587E+00 -5.25538341E-32
  2.93138075E+00  3.19817587E+00 -5.25538341E-32  2.93138075E+00  3.19817587E+00
 -5.25538341E-32  2.93138075E+00  3.19817587E+00 -5.25538341E-32  2.93138075E+00
  3.19817587E+00 -5.25538341E-32  2.74797158E+00  1.37628604E+00 -5.92607121E-32
  2.74797158E+00  1.37628604E+00 -5.92607121E-32  2.74797158E+00  1.37628604E+00
 -5.92607121E-32  2.74797158E+00  1.37628604E+00 -5.92607121E-32  2.74797158E+00
  1.37628604E+00 -5.92607121E-32  2.74797158E+00  1.37628604E+00 -5.92607121E-32
  2.74797158E+00  1.37628604E+00 -5.92607121E-32  2.74797158E+00  1.37628604E+00
 -5.92607121E-32  2.74797158E+00  1.37628604E+00 -5.92607121E-32  2.74797158E+00
  1.37628604E+00 -5.92607121E-32  2.74797158E+00  1.37628604E+00 -5.92607121E-32
  2.74797158E+00  1.37628604E+00 -5.92607121E-32  2.74797158E+00  1.37628604E+00
 -5.92607121E-32  2.74797158E+00  1.37628604E+00 -5.92607121E-32  1.07617224E-17
  1.28770156E+00  7.93607360E-33  1.07617224E-17  1.28770156E+00  7.93607360E-33
  1.07617224E-17  1.28770156E+00  7.93607360E-33  1.07617224E-17  1.28770156E+00
  7.93607360E-33  1.07617224E-17  1.28770156E+00  7.93607360E-33  1.07617224E-17
  1.28770156E+00  7.93607360E-33  1.07617224E-17  1.28770156E+00  7.93607360E-33
  1.07617224E-17  1.28770156E+00  7.93607360E-33  1.07617224E-17  1.28770156E+00
  7.93607360E-33  1.07617224E-17  1.28770156E+00  7.93607360E-33  1.07617224E-17
  1.28770156E+00  7.93607360E-33  1.07617224E-17  1.28770156E+00  7.93607360E-33
  1.07617224E-17  1.28770156E+00  7.93607360E-33  1.07617224E-17  1.28770156E+00
  7.93607360E-33 -5.00058356E-01 -1.42326680E+00  3.55583134E-33 -5.00058356E-01
 -1.42326680E+00  3.55583134E-33 -5.00058356E-01 -1.42326680E+00  3.55583134E-33
 -5.00058356E-01 -1.42326680E+00  3.55583134E-33 -5.00058356E-01 -1.42326680E+00
  3.55583134E-33 -5.00058356E-01 -1.42326680E+00  3.55583134E-33 -5.00058356E-01
 -1.42326680E+00  3.55583134E-33 -5.00058356E-01 -1.42326680E+00  3.55583134E-33
 -5.00058356E-01 -1.42326680E+00  3.55583134E-33 -5.00058356E-01 -1.42326680E+00
  3.55583134E-33 -5.00058356E-01 -1.42326680E+00  3.55583134E-33 -5.00058356E-01
 -1.42326680E+00  3.55583134E-33 -5.00058356E-01 -1.42326680E+00  3.55583134E-33
 -5.00058356E-01 -1.42326680E+00  3.55583134E-33 -2.67684311E+00 -1.81840114E+00
  5.47825153E-32 -2.67684311E+00 -1.81840114E+00  5.47825153E-32 -2.67684311E+00
 -1.81840114E+00  5.47825153E-32 -2.67684311E+00 -1.81840114E+00  5.47825153E-32
 -2.67684311E+00 -1.81840114E+00  5.47825153E-32 -2.67684311E+00 -1.81840114E+00
  5.47825153E-32 -2.67684311E+00 -1.81840114E+00  5.47825153E-32 -2.67684311E+00
 -1.81840114E+00  5.47825153E-32 -2.67684311E+00 -1.81840114E+00  5.47825153E-32
 -2.67684311E+00 -1.81840114E+00  5.47825153E-32 -2.67684311E+00 -1.81840114E+00
  5.47825153E-32 -2.67684311E+00 -1.81840114E+00  5.47825153E-32 -2.67684311E+00
 -1.81840114E+00  5.47825153E-32 -2.67684311E+00 -1.81840114E+00  5.47825153E-32
Num ILSW                                   I              100
ILSW                                       I   N=         100
           0           0           0           0           2           0
           0           0           0           0           0          -1
           5           0           0           0           2           0
           0           0           0           0           1           0
           1           0           0           0           0           0
           0           0      100000           0          -1           0
           0           0           0           0           0           0
           0           0           0           1           1           0
           0 -2000000000           1           0           0           0
           0           0           4          52           0           0
           0           0           0           0           0           0
           0           0           0           5           4           1
           0           0           0           0           0           0
           0           0           0           0           0           0
           0           0           0           0           0           0
           0           0           0           0           0           0
           0           0           0           0
Num RLSW                                   I               52
RLSW                                       R   N=          52
  1.00000000E+00  1.00000000E+00  1.00000000E+00  1.00000000E+00  1.00000000E+00
  0.00000000E+00  0.00000000E+00  1.00000000E+00  0.00000000E+00  0.00000000E+00
  0.00000000E+00  0.00000000E+00  1.00000000E+00  0.00000000E+00  0.00000000E+00
  0.00000000E+00  0.00000000E+00  1.00000000E+00  0.00000000E+00  0.00000000E+00
  0.00000000E+00  0.00000000E+00  1.00000000E+00  0.00000000E+00  0.00000000E+00
  0.00000000E+00  0.00000000E+00  1.00000000E+00  0.00000000E+00  0.00000000E+00
  0.00000000E+00  0.00000000E+00  1.00000000E+00  0.00000000E+00  0.00000000E+00
  0.00000000E+00  0.00000000E+00  0.00000000E+00  1.00000000E+00  1.00000000E+00
  0.00000000E+00  1.00000000E+00  0.00000000E+00  0.00000000E+00  0.00000000E+00
  0.00000000E+00  0.00000000E+00  0.00000000E+00  0.00000000E+00  0.00000000E+00
  0.00000000E+00  0.00000000E+00
MxBond                                     I                2
NBond                                      I   N=           5
           1           2           2           2           1
IBond                                      I   N=          10
           2           0           1           3           2           4
           3           5           4           0
RBond                                      R   N=          10
  1.00000000E+00  0.00000000E+00  1.00000000E+00  1.00000000E+00  1.00000000E+00
  1.00000000E+00  1.00000000E+00  2.00000000E+00  2.00000000E+00  0.00000000E+00
Virial Ratio                               R      2.002391211212085E+00
SCF Energy                                 R     -2.795013520846824E+02
MP2 Energy                                 R     -2.804465314459807E+02
Total Energy                               R     -2.804465314459807E+02
Post-SCF wavefunction norm                 R      1.584347029091124E+00
RMS Force                                  R      3.101197355433607E-03
RMS Density                                R      3.874340123899992E-09
NImag                                      I                1
Job Status                                 I                1
Nuclear derivative order                   I                2
External E-field                           R   N=          35
  0.00000000E+00  0.00000000E+00  0.00000000E+00  0.00000000E+00  0.00000000E+00
  0.00000000E+00  0.00000000E+00  0.00000000E+00  0.00000000E+00  0.00000000E+00
  0.00000000E+00  0.00000000E+00  0.00000000E+00  0.00000000E+00  0.00000000E+00
  0.00000000E+00  0.00000000E+00  0.00000000E+00  0.00000000E+00  0.00000000E+00
  0.00000000E+00  0.00000000E+00  0.00000000E+00  0.00000000E+00  0.00000000E+00
  0.00000000E+00  0.00000000E+00  0.00000000E+00  0.00000000E+00  0.00000000E+00
  0.00000000E+00  0.00000000E+00  0.00000000E+00  0.00000000E+00  0.00000000E+00
IOpCl                                      I                0
IROHF                                      I                0
Alpha Orbital Energies                     R   N=         207
 -2.06915815E+01 -2.06848726E+01 -2.06610142E+01 -1.58122390E+01 -1.62267688E+00
 -1.49694678E+00 -1.25572799E+00 -9.47646694E-01 -7.73656402E-01 -7.58634955E-01
 -7.11488607E-01 -6.79794738E-01 -6.21093183E-01 -5.90839015E-01 -4.85996072E-01
 -4.70410604E-01  2.95009363E-02  7.23741477E-02  8.56128072E-02  1.01733777E-01
  1.34048593E-01  1.34051996E-01  1.44020669E-01  1.54638761E-01  1.78082858E-01
  1.94236621E-01  1.99747652E-01  2.06024091E-01  2.20805892E-01  2.33788893E-01
  2.37160273E-01  2.64873645E-01  2.94653294E-01  3.04418096E-01  3.10755331E-01
  3.42872903E-01  3.49988307E-01  3.86632028E-01  4.21294972E-01  4.31097632E-01
  5.25778241E-01  5.30571968E-01  5.59199816E-01  5.83315616E-01  6.26930443E-01
  6.34644176E-01  6.73987777E-01  6.84137287E-01  7.08938815E-01  7.10633811E-01
  7.24639194E-01  7.29845140E-01  7.46352217E-01  7.88884895E-01  7.91229748E-01
  8.09464381E-01  8.12092269E-01  8.29909417E-01  8.68301362E-01  9.07157923E-01
  9.21557164E-01  9.22804963E-01  9.56789872E-01  9.80564907E-01  9.84278536E-01
  1.01581237E+00  1.05221876E+00  1.05459186E+00  1.08148003E+00  1.11845616E+00
  1.14018937E+00  1.18858211E+00  1.22420434E+00  1.23188875E+00  1.33804225E+00
  1.34827636E+00  1.38324530E+00  1.45096404E+00  1.48810585E+00  1.51064673E+00
  1.53928982E+00  1.56523172E+00  1.58017361E+00  1.61429960E+00  1.66326133E+00
  1.66741038E+00  1.70477863E+00  1.79352391E+00  1.83357377E+00  1.83371578E+00
  1.87543588E+00  1.91250654E+00  1.95536990E+00  1.99037272E+00  2.01046036E+00
  2.07343637E+00  2.11842587E+00  2.13390138E+00  2.14817448E+00  2.22239608E+00
  2.26026525E+00  2.26336992E+00  2.28992958E+00  2.31415171E+00  2.33948435E+00
  2.38600630E+00  2.42121632E+00  2.42857677E+00  2.45743658E+00  2.46783197E+00
  2.47582936E+00  2.50238421E+00  2.58980400E+00  2.59374953E+00  2.61564306E+00
  2.62775906E+00  2.63503116E+00  2.66361593E+00  2.76278657E+00  2.83525408E+00
  2.86521696E+00  2.87377343E+00  2.89468598E+00  2.90447842E+00  2.96585254E+00
  3.02226417E+00  3.07386363E+00  3.11534356E+00  3.20493452E+00  3.23111320E+00
  3.31341718E+00  3.34711510E+00  3.50513262E+00  3.65028300E+00  3.83860142E+00
  3.84489175E+00  4.14752951E+00  4.15704004E+00  4.18265384E+00  4.25720012E+00
  4.35630870E+00  4.39280105E+00  4.46332077E+00  4.51783437E+00  4.66908330E+00
  4.70882289E+00  4.80861004E+00  4.81839257E+00  4.82654825E+00  4.89466945E+00
  5.02120625E+00  5.07881429E+00  5.09822573E+00  5.14175047E+00  5.18611192E+00
  5.24014730E+00  5.26909724E+00  5.31274416E+00  5.32820091E+00  5.35951487E+00
  5.61039522E+00  5.67349811E+00  5.75028021E+00  5.82936686E+00  5.95819068E+00
  6.16726437E+00  6.30614882E+00  6.34041164E+00  6.39356940E+00  6.49030750E+00
  6.50088285E+00  6.61196068E+00  6.66749776E+00  6.69267347E+00  6.75652146E+00
  6.76104763E+00  6.82433462E+00  6.90441713E+00  7.01248785E+00  7.05444471E+00
  7.05685282E+00  7.08764857E+00  7.12646259E+00  7.14644702E+00  7.18043327E+00
  7.22404423E+00  7.24054136E+00  7.30682228E+00  7.32461173E+00  7.34851321E+00
  7.40042156E+00  7.43294406E+00  7.48682768E+00  7.60599474E+00  7.61427631E+00
  7.63122057E+00  7.65996195E+00  7.77892473E+00  7.89595458E+00  8.09149594E+00
  8.31395409E+00  8.40914108E+00  8.54546107E+00  1.33750751E+01  1.44134002E+01
  1.51521504E+01  1.61504898E+01
Alpha MO coefficients                      R   N=       42849
  9.15684484E-05 -6.61770483E-04 -7.25875374E-04 -5.51971404E-06 -2.11040983E-05
 -2.63015749E-05  0.00000000E+00 -4.37870444E-05  6.67403748E-05  0.00000000E+00
  8.69731727E-05  3.50983109E-05  0.00000000E+00  3.19696138E-05  0.00000000E+00
  0.00000000E+00 -4.88063186E-05  2.15539568E-05 -6.87554081E-06  0.00000000E+00
  0.00000000E+00 -1.35686759E-04  1.17400107E-04  4.63124036E-03 -2.83099273E-04
  1.72961435E-05  1.58617473E-03  1.82176301E-03  1.05567384E-04  7.15996813E-06
  0.00000000E+00 -6.15103468E-04 -3.27895376E-05  0.00000000E+00 -1.10243094E-03
  8.21885131E-04  0.00000000E+00 -4.02266318E-04  6.61602027E-05  0.00000000E+00
  2.86884963E-05  0.00000000E+00  0.00000000E+00 -5.37117602E-05  5.82196853E-06
 -3.77726639E-04  0.00000000E+00  0.00000000E+00  7.36086480E-04 -3.35426746E-05
 -4.47544491E-04  0.00000000E+00  0.00000000E+00  2.35553782E-04 -2.52348177E-05
  0.00000000E+00  7.97729336E-05  1.25197259E-05  0.00000000E+00  0.00000000E+00
 -1.09533266E-04 -3.00361760E-06  0.00000000E+00  2.53306033E-04 -2.85670441E-05
  0.00000000E+00  0.00000000E+00 -3.51471322E-04  5.16949827E-05  9.76911382E-01
 -9.21548876E-03  4.33181753E-02  2.05478289E-03 -9.39477008E-04  1.48456009E-03
 -1.37252890E-03  0.00000000E+00 -1.42539742E-03  1.40227649E-03  0.00000000E+00
  7.65968104E-05 -1.18520092E-03  0.00000000E+00 -1.34219856E-04 -9.04682843E-06
  0.00000000E+00  4.55897861E-05  0.00000000E+00  0.00000000E+00 -3.69295772E-05
  2.03673137E-05  7.45294051E-04  0.00000000E+00  0.00000000E+00 -2.26966468E-04
 -3.88132455E-04 -3.50488468E-04  0.00000000E+00  0.00000000E+00 -3.27792360E-04
 -3.95017609E-04  0.00000000E+00  4.77151723E-05 -4.95526227E-05  0.00000000E+00
  0.00000000E+00 -3.83730280E-05 -1.69911557E-05  0.00000000E+00  2.12213636E-05
  2.13577042E-05  0.00000000E+00  0.00000000E+00 -3.08048949E-04 -1.37112793E-04
  3.93383034E-05  4.66613457E-05 -2.66840020E-04 -6.73625197E-04 -1.10580193E-04
 -2.80880385E-05 -9.87476572E-05  0.00000000E+00  2.67364260E-04  7.20013981E-04
  0.00000000E+00 -8.71462705E-04 -5.08335932E-04  0.00000000E+00 -1.26460633E-04
 -2.17320931E-05  0.00000000E+00 -1.79093147E-05  0.00000000E+00  0.00000000E+00
 -2.91392798E-05  1.32628650E-05 -3.31271297E-04  0.00000000E+00  0.00000000E+00
 -8.34646272E-04  1.34707770E-04 -3.67208756E-05  0.00000000E+00  0.00000000E+00
  1.05331727E-04 -1.06746006E-04  0.00000000E+00 -2.12108784E-05 -1.20718263E-04
  0.00000000E+00  0.00000000E+00 -6.31635340E-05 -1.38690210E-04  0.00000000E+00
  4.19584801E-07 -1.51708038E-04  0.00000000E+00  0.00000000E+00  4.43004892E-05
 -4.26364149E-04 -2.47279634E-03  1.08766593E-04 -1.23263415E-04 -2.74051876E-04
  1.09916139E-04 -8.32303281E-06 -3.09478802E-05  0.00000000E+00  6.22767413E-05
  1.78188511E-04  0.00000000E+00  2.15890580E-04  2.17186141E-04  0.00000000E+00
  1.20816622E-04  2.17721368E-05  0.00000000E+00 -2.34530963E-06  0.00000000E+00
  0.00000000E+00 -1.71538060E-05 -1.23352289E-09 -7.16841969E-06  0.00000000E+00
  0.00000000E+00  6.61692788E-05  1.00442419E-04 -1.06400939E-04  0.00000000E+00
  0.00000000E+00  1.50613948E-04  1.67432641E-04  0.00000000E+00  1.48802577E-05
 -4.96893597E-06  0.00000000E+00  0.00000000E+00 -6.47027166E-06 -1.16996253E-05
  0.00000000E+00 -3.77710170E-05  4.69508014E-05  0.00000000E+00  0.00000000E+00
  7.39425204E-05  9.13296227E-05  3.84102511E-05 -1.00511666E-03 -4.99380554E-04
 -1.11287150E-05 -2.45902367E-05  1.76181539E-05  0.00000000E+00  6.03008546E-06
  2.87234764E-04  0.00000000E+00 -3.73971028E-05  1.37007945E-04  0.00000000E+00
  2.66307971E-05  0.00000000E+00  0.00000000E+00  1.43287397E-05  1.10434363E-05
 -2.40093201E-05  0.00000000E+00  0.00000000E+00  1.01635966E-05  3.41993355E-05
  1.11047737E-04  8.40597740E-05 -2.87874524E-05  7.86155604E-04  6.42180516E-04
  1.00054959E-05  2.43483148E-06  0.00000000E+00 -7.01222552E-05  2.06747727E-05
  0.00000000E+00  3.25707361E-04  8.82859640E-04  0.00000000E+00  7.22446481E-06
  7.73848555E-05  0.00000000E+00 -2.17941397E-06  0.00000000E+00  0.00000000E+00
  1.11292146E-08 -7.61160310E-06 -3.76369104E-05  0.00000000E+00  0.00000000E+00
 -2.46900616E-05  9.28782422E-05 -2.24119873E-05  0.00000000E+00  0.00000000E+00
 -2.61413891E-04 -1.48861202E-04  0.00000000E+00  9.58265824E-06  5.77879140E-06
  0.00000000E+00  0.00000000E+00  3.10811734E-06 -1.93541583E-05  0.00000000E+00
 -4.26626585E-05 -3.70112472E-05  0.00000000E+00  0.00000000E+00 -7.86223996E-05
  1.44864560E-05  2.50990593E-03  3.65131518E-05  8.02042162E-05 -3.97414827E-05
 -4.25969230E-04  9.79899804E-06  1.99408053E-05  0.00000000E+00 -7.02251053E-05
 -7.15807134E-05  0.00000000E+00  1.81709560E-04 -1.91734498E-04  0.00000000E+00
 -1.75012911E-04 -5.83922621E-05  0.00000000E+00 -8.03712075E-06  0.00000000E+00
  0.00000000E+00  2.24946163E-05  1.67282958E-05 -4.24605185E-06  0.00000000E+00
  0.00000000E+00 -1.21997188E-04 -2.53864626E-05 -1.45168434E-05  0.00000000E+00
  0.00000000E+00 -2.22224992E-04 -1.59850407E-04  0.00000000E+00  5.69346166E-06
  3.09294489E-06  0.00000000E+00  0.00000000E+00  5.21354863E-06 -1.63027178E-05
  0.00000000E+00 -4.83093254E-05 -3.13253405E-07  0.00000000E+00  0.00000000E+00
 -7.10440238E-05  1.97029547E-04  2.59679856E-04  1.47487310E-03 -7.43768032E-05
 -1.62175335E-03  3.74087621E-04 -1.43108522E-04 -5.72187352E-07  0.00000000E+00
 -2.09543036E-03 -4.65355454E-04  0.00000000E+00  1.09525450E-03  7.94111526E-04
  0.00000000E+00 -1.78414561E-04  4.00480936E-05  0.00000000E+00 -1.24612110E-04
  0.00000000E+00  0.00000000E+00  2.36741174E-04  1.05309349E-04 -4.35052303E-04
  0.00000000E+00  0.00000000E+00  9.17668266E-04 -2.66134474E-05  2.05020206E-05
  0.00000000E+00  0.00000000E+00 -3.36211638E-04 -1.28654169E-04  0.00000000E+00
  1.23611426E-07  1.64957312E-05  0.00000000E+00  0.00000000E+00  1.75943213E-05
  1.63842801E-05  0.00000000E+00  1.60078595E-04 -6.77346736E-05  0.00000000E+00
  0.00000000E+00 -2.50960731E-04  3.57657615E-05  9.76652285E-01 -9.84591058E-03
  4.35642279E-02  4.54411169E-03 -4.37246956E-04  2.13263203E-03  5.55485997E-04
  0.00000000E+00 -2.36802565E-03 -6.82512309E-04  0.00000000E+00  1.14579118E-03
 -1.90095685E-06  0.00000000E+00  6.73603177E-06 -3.75873860E-05  0.00000000E+00
 -2.31080396E-04  0.00000000E+00  0.00000000E+00  1.02334216E-04  3.61121057E-05
  3.92756449E-04  0.00000000E+00  0.00000000E+00 -8.10254428E-04 -4.76488151E-04
 -1.45973824E-04  0.00000000E+00  0.00000000E+00  2.63525044E-04  1.37941830E-05
  0.00000000E+00  5.17857994E-05  1.82105583E-05  0.00000000E+00  0.00000000E+00
 -2.21542068E-05 -1.58148705E-05  0.00000000E+00  1.38980192E-04  1.72586194E-05
  0.00000000E+00  0.00000000E+00 -1.74458331E-04 -1.58991166E-04  4.74545736E-04
  2.07064685E-03  1.25294697E-04  1.51197205E-05 -4.16806190E-05 -2.46651314E-04
  0.00000000E+00  1.07715909E-04 -1.27902640E-03  0.00000000E+00  3.01854293E-04
 -3.43385222E-04  0.00000000E+00 -2.83929584E-06  0.00000000E+00  0.00000000E+00
  7.57224120E-05  1.53083501E-05 -1.60757618E-04  0.00000000E+00  0.00000000E+00
 -5.36957608E-04 -1.91796881E-05  9.76830878E-01 -9.16312437E-03  4.34483688E-02
  1.55814912E-04 -1.11869210E-03 -1.56304455E-03  1.44583045E-03  0.00000000E+00
  1.57464792E-03 -1.28892367E-03  0.00000000E+00 -5.75769070E-04 -8.74181733E-04
  0.00000000E+00  5.39598724E-05 -2.37776384E-05  0.00000000E+00  2.98746195E-05
  0.00000000E+00  0.00000000E+00 -1.18472153E-04 -2.90745363E-06  7.58411920E-04
  0.00000000E+00  0.00000000E+00 -2.03593746E-04 -2.35466567E-04 -2.65314031E-04
  0.00000000E+00  0.00000000E+00  1.72976026E-04  1.27810052E-04  0.00000000E+00
 -6.41513521E-05  1.39898690E-06  0.00000000E+00  0.00000000E+00  1.90533065E-05