title                                                                   
Freq      RMP2-FC                                                     Aug-CC-pVTZ         
Number of atoms                            I                5
Info1-9                                    I   N=           9
          33          24           0           0           0         100
           6           2           1
Full Title                                 C   N=           1
title       
Route                                      C   N=           4
#p freq mp2/aug-cc-pvtz density=current         
Charge                                     I                0
Multiplicity                               I                1
Number of electrons                        I               32
Number of alpha electrons                  I               16
Number of beta electrons                   I               16
Number of basis functions                  I              207
Number of independent functions            I              207
Number of point charges in /Mol/           I                0
Number of translation vectors              I                0
Atomic numbers                             I   N=           5
           1           8           8           7           8
Nuclear charges                            R   N=           5
  1.00000000E+00  8.00000000E+00  8.00000000E+00  7.00000000E+00  8.00000000E+00
Current cartesian coordinates              R   N=          15
  2.92003929E+00  3.22685322E+00 -1.19044677E-31  2.74740009E+00  1.40391132E+00
 -1.62807514E-31  6.43479873E-17  1.29908879E+00 -4.22795558E-32 -4.94414257E-01
 -1.47301768E+00  7.40992996E-32 -2.67979253E+00 -1.81746628E+00  7.04981519E-32
Number of symbols in /Mol/                 I                0
Force Field                                I                0
Atom Types                                 C   N=           5
                                                            
Int Atom Types                             I   N=           5
           0           0           0           0           0
MM charges                                 R   N=           5
  0.00000000E+00  0.00000000E+00  0.00000000E+00  0.00000000E+00  0.00000000E+00
Integer atomic weights                     I   N=           5
           1          16          16          14          16
Real atomic weights                        R   N=           5
  1.00782504E+00  1.59949146E+01  1.59949146E+01  1.40030740E+01  1.59949146E+01
Atom fragment info                         I   N=           5
           0           0           0           0           0
Atom residue num                           I   N=           5
           0           0           0           0           0
Nuclear spins                              I   N=           5
           1           0           0           2           0
Nuclear ZEff                               R   N=           5
 -1.00000000E+00 -5.60000000E+00 -5.60000000E+00 -4.55000000E+00 -5.60000000E+00
Nuclear ZNuc                               R   N=           5
  1.00000000E+00  8.00000000E+00  8.00000000E+00  7.00000000E+00  8.00000000E+00
Nuclear QMom                               R   N=           5
  0.00000000E+00  0.00000000E+00  0.00000000E+00  2.04400000E+00  0.00000000E+00
Nuclear GFac                               R   N=           5
  2.79284600E+00  0.00000000E+00  0.00000000E+00  4.03761000E-01  0.00000000E+00
MicOpt                                     I   N=           5
          -1          -1          -1          -1          -1
Number of residues                         I                0
Number of secondary structures             I                0
SymInf integers                            I   N=          26
           1           2           1           1           1           1
           1          -1           0           0           0           0
           0           0           0           0           0           0
           0           0           0           0           0           0
           0           0
RotTr to input orientation                 R   N=          12
 -9.95545553E-01 -9.74818950E-17 -9.42817670E-02  9.42817670E-02 -7.41274442E-17
 -9.95545553E-01  9.00588006E-17 -1.00000000E+00  8.29880127E-17  2.60279870E+00
  0.00000000E+00  3.48778584E+00
Number of contracted shells                I               65
Number of primitive shells                 I              119
Pure/Cartesian d shells                    I                0
Pure/Cartesian f shells                    I                0
Highest angular momentum                   I                3
Largest degree of contraction              I                7
Shell types                                I   N=          65
           0           0           0           0           1           1
           1          -2          -2           0           0           0
           0           0           1           1           1           1
          -2          -2          -2          -3          -3           0
           0           0           0           0           1           1
           1           1          -2          -2          -2          -3
          -3           0           0           0           0           0
           1           1           1           1          -2          -2
          -2          -3          -3           0           0           0
           0           0           1           1           1           1
          -2          -2          -2          -3          -3
Number of primitives per shell             I   N=          65
           3           1           1           1           1           1
           1           1           1           7           6           1
           1           1           3           1           1           1
           1           1           1           1           1           7
           6           1           1           1           3           1
           1           1           1           1           1           1
           1           7           6           1           1           1
           3           1           1           1           1           1
           1           1           1           7           6           1
           1           1           3           1           1           1
           1           1           1           1           1
Shell to atom map                          I   N=          65
           1           1           1           1           1           1
           1           1           1           2           2           2
           2           2           2           2           2           2
           2           2           2           2           2           3
           3           3           3           3           3           3
           3           3           3           3           3           3
           3           4           4           4           4           4
           4           4           4           4           4           4
           4           4           4           5           5           5
           5           5           5           5           5           5
           5           5           5           5           5
Primitive exponents                        R   N=         119
  3.38700000E+01  5.09500000E+00  1.15900000E+00  3.25800000E-01  1.02700000E-01
  2.52600000E-02  1.40700000E+00  3.88000000E-01  1.02000000E-01  1.05700000E+00
  2.47000000E-01  1.53300000E+04  2.29900000E+03  5.22400000E+02  1.47300000E+02
  4.75500000E+01  1.67600000E+01  6.20700000E+00  5.22400000E+02  1.47300000E+02
  4.75500000E+01  1.67600000E+01  6.20700000E+00  6.88200000E-01  1.75200000E+00
  2.38400000E-01  7.37600000E-02  3.44600000E+01  7.74900000E+00  2.28000000E+00
  7.15600000E-01  2.14000000E-01  5.97400000E-02  2.31400000E+00  6.45000000E-01
  2.14000000E-01  1.42800000E+00  5.00000000E-01  1.53300000E+04  2.29900000E+03
  5.22400000E+02  1.47300000E+02  4.75500000E+01  1.67600000E+01  6.20700000E+00
  5.22400000E+02  1.47300000E+02  4.75500000E+01  1.67600000E+01  6.20700000E+00
  6.88200000E-01  1.75200000E+00  2.38400000E-01  7.37600000E-02  3.44600000E+01
  7.74900000E+00  2.28000000E+00  7.15600000E-01  2.14000000E-01  5.97400000E-02
  2.31400000E+00  6.45000000E-01  2.14000000E-01  1.42800000E+00  5.00000000E-01
  1.14200000E+04  1.71200000E+03  3.89300000E+02  1.10000000E+02  3.55700000E+01
  1.25400000E+01  4.64400000E+00  3.89300000E+02  1.10000000E+02  3.55700000E+01
  1.25400000E+01  4.64400000E+00  5.11800000E-01  1.29300000E+00  1.78700000E-01
  5.76000000E-02  2.66300000E+01  5.94800000E+00  1.74200000E+00  5.55000000E-01
  1.72500000E-01  4.91000000E-02  1.65400000E+00  4.69000000E-01  1.51000000E-01
  1.09300000E+00  3.64000000E-01  1.53300000E+04  2.29900000E+03  5.22400000E+02
  1.47300000E+02  4.75500000E+01  1.67600000E+01  6.20700000E+00  5.22400000E+02
  1.47300000E+02  4.75500000E+01  1.67600000E+01  6.20700000E+00  6.88200000E-01
  1.75200000E+00  2.38400000E-01  7.37600000E-02  3.44600000E+01  7.74900000E+00
  2.28000000E+00  7.15600000E-01  2.14000000E-01  5.97400000E-02  2.31400000E+00
  6.45000000E-01  2.14000000E-01  1.42800000E+00  5.00000000E-01
Contraction coefficients                   R   N=         119
  2.54948632E-02  1.90362766E-01  8.52162022E-01  1.00000000E+00  1.00000000E+00
  1.00000000E+00  1.00000000E+00  1.00000000E+00  1.00000000E+00  1.00000000E+00
  1.00000000E+00  5.19808943E-04  4.02025621E-03  2.07128267E-02  8.10105536E-02
  2.35962985E-01  4.42653446E-01  3.57064423E-01 -4.42115008E-05 -1.22591041E-03
 -1.05517725E-02 -6.74452633E-02 -1.71198607E-01  1.07329856E+00  1.00000000E+00
  1.00000000E+00  1.00000000E+00  4.11634896E-02  2.57762836E-01  8.02419274E-01
  1.00000000E+00  1.00000000E+00  1.00000000E+00  1.00000000E+00  1.00000000E+00
  1.00000000E+00  1.00000000E+00  1.00000000E+00  5.19808943E-04  4.02025621E-03
  2.07128267E-02  8.10105536E-02  2.35962985E-01  4.42653446E-01  3.57064423E-01
 -4.42115008E-05 -1.22591041E-03 -1.05517725E-02 -6.74452633E-02 -1.71198607E-01
  1.07329856E+00  1.00000000E+00  1.00000000E+00  1.00000000E+00  4.11634896E-02
  2.57762836E-01  8.02419274E-01  1.00000000E+00  1.00000000E+00  1.00000000E+00
  1.00000000E+00  1.00000000E+00  1.00000000E+00  1.00000000E+00  1.00000000E+00
  5.34563860E-04  4.13435660E-03  2.12335358E-02  8.25006224E-02  2.38138871E-01
  4.42551547E-01  3.53757422E-01 -4.89867350E-05 -1.19527323E-03 -1.03490714E-02
 -6.48680190E-02 -1.71552477E-01  1.07289568E+00  1.00000000E+00  1.00000000E+00
  1.00000000E+00  3.98072123E-02  2.49002660E-01  8.10479727E-01  1.00000000E+00
  1.00000000E+00  1.00000000E+00  1.00000000E+00  1.00000000E+00  1.00000000E+00
  1.00000000E+00  1.00000000E+00  5.19808943E-04  4.02025621E-03  2.07128267E-02
  8.10105536E-02  2.35962985E-01  4.42653446E-01  3.57064423E-01 -4.42115008E-05
 -1.22591041E-03 -1.05517725E-02 -6.74452633E-02 -1.71198607E-01  1.07329856E+00
  1.00000000E+00  1.00000000E+00  1.00000000E+00  4.11634896E-02  2.57762836E-01
  8.02419274E-01  1.00000000E+00  1.00000000E+00  1.00000000E+00  1.00000000E+00
  1.00000000E+00  1.00000000E+00  1.00000000E+00  1.00000000E+00
Coordinates of each shell                  R   N=         195
  2.92003929E+00  3.22685322E+00 -1.14974806E-31  2.92003929E+00  3.22685322E+00
 -1.14974806E-31  2.92003929E+00  3.22685322E+00 -1.14974806E-31  2.92003929E+00
  3.22685322E+00 -1.14974806E-31  2.92003929E+00  3.22685322E+00 -1.14974806E-31
  2.92003929E+00  3.22685322E+00 -1.14974806E-31  2.92003929E+00  3.22685322E+00
 -1.14974806E-31  2.92003929E+00  3.22685322E+00 -1.14974806E-31  2.92003929E+00
  3.22685322E+00 -1.14974806E-31  2.74740009E+00  1.40391132E+00 -8.81488902E-32
  2.74740009E+00  1.40391132E+00 -8.81488902E-32  2.74740009E+00  1.40391132E+00
 -8.81488902E-32  2.74740009E+00  1.40391132E+00 -8.81488902E-32  2.74740009E+00
  1.40391132E+00 -8.81488902E-32  2.74740009E+00  1.40391132E+00 -8.81488902E-32
  2.74740009E+00  1.40391132E+00 -8.81488902E-32  2.74740009E+00  1.40391132E+00
 -8.81488902E-32  2.74740009E+00  1.40391132E+00 -8.81488902E-32  2.74740009E+00
  1.40391132E+00 -8.81488902E-32  2.74740009E+00  1.40391132E+00 -8.81488902E-32
  2.74740009E+00  1.40391132E+00 -8.81488902E-32  2.74740009E+00  1.40391132E+00
 -8.81488902E-32  2.74740009E+00  1.40391132E+00 -8.81488902E-32 -1.33468897E-17
  1.29908879E+00 -1.59411787E-32 -1.33468897E-17  1.29908879E+00 -1.59411787E-32
 -1.33468897E-17  1.29908879E+00 -1.59411787E-32 -1.33468897E-17  1.29908879E+00
 -1.59411787E-32 -1.33468897E-17  1.29908879E+00 -1.59411787E-32 -1.33468897E-17
  1.29908879E+00 -1.59411787E-32 -1.33468897E-17  1.29908879E+00 -1.59411787E-32
 -1.33468897E-17  1.29908879E+00 -1.59411787E-32 -1.33468897E-17  1.29908879E+00
 -1.59411787E-32 -1.33468897E-17  1.29908879E+00 -1.59411787E-32 -1.33468897E-17
  1.29908879E+00 -1.59411787E-32 -1.33468897E-17  1.29908879E+00 -1.59411787E-32
 -1.33468897E-17  1.29908879E+00 -1.59411787E-32 -1.33468897E-17  1.29908879E+00
 -1.59411787E-32 -4.94414257E-01 -1.47301768E+00  3.08382857E-32 -4.94414257E-01
 -1.47301768E+00  3.08382857E-32 -4.94414257E-01 -1.47301768E+00  3.08382857E-32
 -4.94414257E-01 -1.47301768E+00  3.08382857E-32 -4.94414257E-01 -1.47301768E+00
  3.08382857E-32 -4.94414257E-01 -1.47301768E+00  3.08382857E-32 -4.94414257E-01
 -1.47301768E+00  3.08382857E-32 -4.94414257E-01 -1.47301768E+00  3.08382857E-32
 -4.94414257E-01 -1.47301768E+00  3.08382857E-32 -4.94414257E-01 -1.47301768E+00
  3.08382857E-32 -4.94414257E-01 -1.47301768E+00  3.08382857E-32 -4.94414257E-01
 -1.47301768E+00  3.08382857E-32 -4.94414257E-01 -1.47301768E+00  3.08382857E-32
 -4.94414257E-01 -1.47301768E+00  3.08382857E-32 -2.67979253E+00 -1.81746628E+00
  9.14784196E-32 -2.67979253E+00 -1.81746628E+00  9.14784196E-32 -2.67979253E+00
 -1.81746628E+00  9.14784196E-32 -2.67979253E+00 -1.81746628E+00  9.14784196E-32
 -2.67979253E+00 -1.81746628E+00  9.14784196E-32 -2.67979253E+00 -1.81746628E+00
  9.14784196E-32 -2.67979253E+00 -1.81746628E+00  9.14784196E-32 -2.67979253E+00
 -1.81746628E+00  9.14784196E-32 -2.67979253E+00 -1.81746628E+00  9.14784196E-32
 -2.67979253E+00 -1.81746628E+00  9.14784196E-32 -2.67979253E+00 -1.81746628E+00
  9.14784196E-32 -2.67979253E+00 -1.81746628E+00  9.14784196E-32 -2.67979253E+00
 -1.81746628E+00  9.14784196E-32 -2.67979253E+00 -1.81746628E+00  9.14784196E-32
Num ILSW                                   I              100
ILSW                                       I   N=         100
           0           0           0           0           2           0
           0           0           0           0           0          -1
           5           0           0           0           2           0
           0           0           0           0           1           0
           1           0           0           0           0           0
           0           0      100000           0          -1           0
           0           0           0           0           0           0
           0           0           0           1           1           0
           0 -2000000000           1           0           0           0
           0           0           4          52           0           0
           0           0           0           0           0           0
           0           0           0           5           4           1
           0           0           0           0           0           0
           0           0           0           0           0           0
           0           0           0           0           0           0
           0           0           0           0           0           0
           0           0           0           0
Num RLSW                                   I               52
RLSW                                       R   N=          52
  1.00000000E+00  1.00000000E+00  1.00000000E+00  1.00000000E+00  1.00000000E+00
  0.00000000E+00  0.00000000E+00  1.00000000E+00  0.00000000E+00  0.00000000E+00
  0.00000000E+00  0.00000000E+00  1.00000000E+00  0.00000000E+00  0.00000000E+00
  0.00000000E+00  0.00000000E+00  1.00000000E+00  0.00000000E+00  0.00000000E+00
  0.00000000E+00  0.00000000E+00  1.00000000E+00  0.00000000E+00  0.00000000E+00
  0.00000000E+00  0.00000000E+00  1.00000000E+00  0.00000000E+00  0.00000000E+00
  0.00000000E+00  0.00000000E+00  1.00000000E+00  0.00000000E+00  0.00000000E+00
  0.00000000E+00  0.00000000E+00  0.00000000E+00  1.00000000E+00  1.00000000E+00
  0.00000000E+00  1.00000000E+00  0.00000000E+00  0.00000000E+00  0.00000000E+00
  0.00000000E+00  0.00000000E+00  0.00000000E+00  0.00000000E+00  0.00000000E+00
  0.00000000E+00  0.00000000E+00
MxBond                                     I                2
NBond                                      I   N=           5
           1           2           2           2           1
IBond                                      I   N=          10
           2           0           1           3           2           4
           3           5           4           0
RBond                                      R   N=          10
  1.00000000E+00  0.00000000E+00  1.00000000E+00  1.00000000E+00  1.00000000E+00
  1.00000000E+00  1.00000000E+00  2.00000000E+00  2.00000000E+00  0.00000000E+00
Virial Ratio                               R      2.002516272663158E+00
SCF Energy                                 R     -2.794984338591190E+02
MP2 Energy                                 R     -2.804465398236160E+02
Total Energy                               R     -2.804465398236160E+02
Post-SCF wavefunction norm                 R      1.586125223591666E+00
RMS Force                                  R      3.161877596785389E-03
RMS Density                                R      4.267438907324502E-09
NImag                                      I                1
Job Status                                 I                1
Nuclear derivative order                   I                2
External E-field                           R   N=          35
  0.00000000E+00  0.00000000E+00  0.00000000E+00  0.00000000E+00  0.00000000E+00
  0.00000000E+00  0.00000000E+00  0.00000000E+00  0.00000000E+00  0.00000000E+00
  0.00000000E+00  0.00000000E+00  0.00000000E+00  0.00000000E+00  0.00000000E+00
  0.00000000E+00  0.00000000E+00  0.00000000E+00  0.00000000E+00  0.00000000E+00
  0.00000000E+00  0.00000000E+00  0.00000000E+00  0.00000000E+00  0.00000000E+00
  0.00000000E+00  0.00000000E+00  0.00000000E+00  0.00000000E+00  0.00000000E+00
  0.00000000E+00  0.00000000E+00  0.00000000E+00  0.00000000E+00  0.00000000E+00
IOpCl                                      I                0
IROHF                                      I                0
Alpha Orbital Energies                     R   N=         207
 -2.06916702E+01 -2.06855934E+01 -2.06561445E+01 -1.58178974E+01 -1.62312970E+00
 -1.49110636E+00 -1.24509921E+00 -9.50632531E-01 -7.70352947E-01 -7.55771810E-01
 -7.06891716E-01 -6.80934101E-01 -6.21917146E-01 -5.87698936E-01 -4.81846072E-01
 -4.70893027E-01  3.04868267E-02  6.76515238E-02  8.53315132E-02  1.01338899E-01
  1.33765603E-01  1.34152411E-01  1.44735288E-01  1.55149070E-01  1.78941147E-01
  1.93962580E-01  1.99653121E-01  2.01559666E-01  2.21599750E-01  2.36734444E-01
  2.37033364E-01  2.64941522E-01  2.81805932E-01  3.04570181E-01  3.09698580E-01
  3.41125175E-01  3.48707704E-01  3.86944124E-01  4.23120729E-01  4.32743434E-01
  5.25768234E-01  5.27854435E-01  5.55152331E-01  5.79915317E-01  6.23646069E-01
  6.36496777E-01  6.73272263E-01  6.84496037E-01  7.07390717E-01  7.11780983E-01
  7.24487381E-01  7.31610533E-01  7.45870110E-01  7.89620665E-01  7.93181428E-01
  8.09090907E-01  8.14971339E-01  8.29215683E-01  8.65831785E-01  9.08159863E-01
  9.23124150E-01  9.24026186E-01  9.59540896E-01  9.73154351E-01  9.85921440E-01
  1.01914710E+00  1.05074794E+00  1.05315514E+00  1.07959877E+00  1.11524638E+00
  1.13819744E+00  1.18788447E+00  1.21977934E+00  1.23191964E+00  1.33538112E+00
  1.34455036E+00  1.38942852E+00  1.44857762E+00  1.48755653E+00  1.51001094E+00
  1.53592748E+00  1.56308519E+00  1.57407888E+00  1.61167936E+00  1.66147760E+00
  1.66969003E+00  1.70021359E+00  1.79286042E+00  1.82940862E+00  1.82960101E+00
  1.87920003E+00  1.90626434E+00  1.95564370E+00  1.98595379E+00  2.00159263E+00
  2.06823742E+00  2.11722952E+00  2.12770132E+00  2.15370940E+00  2.21835605E+00
  2.26106997E+00  2.26719056E+00  2.28684646E+00  2.31349134E+00  2.33643205E+00
  2.38598325E+00  2.41961190E+00  2.42152627E+00  2.45125697E+00  2.45966460E+00
  2.47124879E+00  2.49665192E+00  2.59232766E+00  2.59432976E+00  2.61344384E+00
  2.62192048E+00  2.63711223E+00  2.66462114E+00  2.75233265E+00  2.80920785E+00
  2.84168174E+00  2.87280954E+00  2.89600599E+00  2.89812807E+00  2.95633487E+00
  3.01406738E+00  3.05501666E+00  3.11345591E+00  3.20573387E+00  3.22415874E+00
  3.31132301E+00  3.33342173E+00  3.51175663E+00  3.63198022E+00  3.82352150E+00
  3.83786817E+00  4.14825210E+00  4.17139846E+00  4.18029813E+00  4.24445951E+00
  4.35195525E+00  4.39279848E+00  4.46557561E+00  4.51506619E+00  4.65070123E+00
  4.70530252E+00  4.79530080E+00  4.80704289E+00  4.83292213E+00  4.89225581E+00
  5.01268981E+00  5.06838681E+00  5.08949847E+00  5.14597665E+00  5.16975196E+00
  5.23510031E+00  5.26072730E+00  5.30192127E+00  5.32807401E+00  5.34224306E+00
  5.59581552E+00  5.66787910E+00  5.74986089E+00  5.83123960E+00  5.94154484E+00
  6.15493315E+00  6.30846436E+00  6.32597117E+00  6.39044895E+00  6.48604299E+00
  6.49887164E+00  6.61257870E+00  6.66922121E+00  6.69080305E+00  6.76247299E+00
  6.76349364E+00  6.82295601E+00  6.88885490E+00  7.00651029E+00  7.05221677E+00
  7.05995235E+00  7.09051428E+00  7.11508915E+00  7.14136324E+00  7.18044673E+00
  7.20909223E+00  7.24349763E+00  7.31323196E+00  7.32018737E+00  7.33772734E+00
  7.38979802E+00  7.41574796E+00  7.47634277E+00  7.59511995E+00  7.60292497E+00
  7.61148511E+00  7.65170890E+00  7.77672064E+00  7.87989190E+00  8.05770538E+00
  8.29999357E+00  8.40846417E+00  8.52990981E+00  1.33328273E+01  1.42331249E+01
  1.51373018E+01  1.60952497E+01
Alpha MO coefficients                      R   N=       42849
  3.70938787E-05 -9.70674127E-04 -4.82976833E-04 -1.33182710E-05 -2.28144461E-05
  1.69575102E-05  0.00000000E+00  5.28902551E-06  2.75372958E-04  0.00000000E+00
 -3.96210190E-05  1.33753856E-04  0.00000000E+00  2.55130625E-05  0.00000000E+00
  0.00000000E+00  1.38050228E-05  9.99767341E-06 -2.38451622E-05  0.00000000E+00
  0.00000000E+00  8.67627678E-06  2.93049137E-05  5.67781599E-05  8.60370651E-05
 -2.87506292E-05  6.99609908E-04  6.20994917E-04  8.88979521E-06  2.20850621E-06
  0.00000000E+00 -6.33027710E-05  2.04867082E-05  0.00000000E+00  3.45277924E-04
  8.52531726E-04  0.00000000E+00  9.51545203E-06  7.64403604E-05  0.00000000E+00
 -2.40087251E-06  0.00000000E+00  0.00000000E+00  4.60974309E-07 -7.10042099E-06
 -3.29024913E-05  0.00000000E+00  0.00000000E+00 -3.00500994E-05  8.71820603E-05
 -1.98785957E-05  0.00000000E+00  0.00000000E+00 -2.65936203E-04 -1.42267972E-04
  0.00000000E+00  8.42480829E-06  5.45360719E-06  0.00000000E+00  0.00000000E+00
  3.97357387E-06 -1.83103883E-05  0.00000000E+00 -4.18033291E-05 -3.55453153E-05
  0.00000000E+00  0.00000000E+00 -7.09589491E-05  1.17843718E-05 -2.69147999E-03
  8.96072526E-05 -1.45132069E-04 -1.09940697E-04 -4.90157810E-04  1.42845347E-06
  2.30937191E-05  0.00000000E+00 -5.88237739E-05 -5.76723916E-05  0.00000000E+00
  2.59808210E-04 -6.61114440E-05  0.00000000E+00 -1.73237618E-04 -4.41625078E-05
  0.00000000E+00 -8.27111486E-06  0.00000000E+00  0.00000000E+00  1.98717069E-05
  1.71513213E-05 -6.74657506E-07  0.00000000E+00  0.00000000E+00 -9.54388894E-05
 -3.00996690E-05  3.48801998E-06  0.00000000E+00  0.00000000E+00 -1.72785356E-04
 -1.83293294E-04  0.00000000E+00  5.72081033E-06  1.66994062E-06  0.00000000E+00
  0.00000000E+00  5.84641999E-06 -1.81951854E-05  0.00000000E+00 -4.95727655E-05
 -3.14356711E-06  0.00000000E+00  0.00000000E+00 -7.44337604E-05  1.83776602E-04
  2.60534323E-04  1.46879266E-03 -8.25991174E-05 -1.42924748E-03  4.42230680E-04
 -1.46576831E-04 -1.29162523E-06  0.00000000E+00 -2.05908478E-03 -3.93670592E-04
  0.00000000E+00  1.01508583E-03  7.83649407E-04  0.00000000E+00 -1.73680163E-04
  5.93087417E-05  0.00000000E+00 -1.23451986E-04  0.00000000E+00  0.00000000E+00
  2.40061171E-04  9.41151610E-05 -4.45833291E-04  0.00000000E+00  0.00000000E+00
  8.96455580E-04 -3.04276770E-05  4.06881529E-06  0.00000000E+00  0.00000000E+00
 -3.32883567E-04 -1.10024537E-04  0.00000000E+00 -2.80443401E-06  1.51021528E-05
  0.00000000E+00  0.00000000E+00  1.70327533E-05  1.38035019E-05  0.00000000E+00
  1.69788710E-04 -6.57478912E-05  0.00000000E+00  0.00000000E+00 -2.52484907E-04
  2.70894659E-05  9.76656211E-01 -9.85470573E-03  4.35508272E-02  4.46317032E-03
 -4.57976009E-04  2.14120025E-03  4.82841973E-04  0.00000000E+00 -2.38058303E-03
 -6.02659048E-04  0.00000000E+00  1.14257032E-03  1.02820744E-05  0.00000000E+00
  2.78848116E-06 -3.91508504E-05  0.00000000E+00 -2.31723707E-04  0.00000000E+00
  0.00000000E+00  1.04798945E-04  3.09909523E-05  3.85535629E-04  0.00000000E+00
  0.00000000E+00 -8.25565355E-04 -4.16231962E-04 -1.57705496E-04  0.00000000E+00
  0.00000000E+00  2.63997943E-04  2.55793187E-05  0.00000000E+00  5.17112670E-05
  1.76193223E-05  0.00000000E+00  0.00000000E+00 -2.26206563E-05 -1.35804827E-05
  0.00000000E+00  1.34833484E-04  9.21876635E-06  0.00000000E+00  0.00000000E+00
 -1.86623151E-04 -1.38162923E-04  9.40288590E-05 -6.89985036E-04 -7.80203210E-04
 -5.21601244E-06 -2.34502115E-05 -2.68022326E-05  0.00000000E+00 -5.19974776E-05
  7.62925221E-05  0.00000000E+00  8.85804138E-05  5.30649747E-05  0.00000000E+00
  3.29478825E-05  0.00000000E+00  0.00000000E+00 -4.82431519E-05  2.25937946E-05
 -4.20284069E-06  0.00000000E+00  0.00000000E+00 -1.41060111E-04  1.17154211E-04
  4.81125586E-03 -2.77981210E-04  2.29924907E-05  1.53680830E-03  1.83341535E-03
  1.06290371E-04  8.37664415E-06  0.00000000E+00 -6.14659941E-04 -3.61702310E-05
  0.00000000E+00 -1.04220684E-03  8.20375525E-04  0.00000000E+00 -3.96825527E-04
  6.71145692E-05  0.00000000E+00  2.87021159E-05  0.00000000E+00  0.00000000E+00
 -5.48712436E-05  4.16059848E-06 -3.79104457E-04  0.00000000E+00  0.00000000E+00
  7.40673932E-04 -1.68468690E-05 -4.48737722E-04  0.00000000E+00  0.00000000E+00
  2.19829355E-04 -3.80972868E-07  0.00000000E+00  8.05192087E-05  1.31878655E-05
  0.00000000E+00  0.00000000E+00 -1.09888240E-04 -4.69144968E-06  0.00000000E+00
  2.54472309E-04 -2.68014102E-05  0.00000000E+00  0.00000000E+00 -3.61801019E-04
  4.02561707E-05  9.76927802E-01 -9.19997167E-03  4.32786491E-02  2.28665790E-03
 -8.08501507E-04  1.51486728E-03 -1.28281650E-03  0.00000000E+00 -1.47337472E-03
  1.27737765E-03  0.00000000E+00  1.22745045E-04 -1.24250812E-03  0.00000000E+00
 -1.38119966E-04 -3.13244836E-05  0.00000000E+00  5.43843055E-05  0.00000000E+00
  0.00000000E+00 -2.70705341E-05  1.86474541E-05  7.19442974E-04  0.00000000E+00
  0.00000000E+00 -2.78947478E-04 -3.68721712E-04 -3.82568157E-04  0.00000000E+00
  0.00000000E+00 -3.12330813E-04 -3.62541426E-04  0.00000000E+00  5.02845181E-05
 -4.55617213E-05  0.00000000E+00  0.00000000E+00 -3.72592848E-05 -1.45434197E-05
  0.00000000E+00  1.86738808E-05  3.48853410E-05  0.00000000E+00  0.00000000E+00
 -2.96643882E-04 -1.19353194E-04  2.95474033E-05 -1.16485476E-05 -2.35374112E-04
 -8.02346943E-04 -1.74621462E-04 -2.74231207E-05 -8.98296507E-05  0.00000000E+00
  2.37366503E-04  5.62395059E-04  0.00000000E+00 -8.58394823E-04 -6.36939487E-04
  0.00000000E+00 -1.28158231E-04 -4.28372436E-05  0.00000000E+00 -7.02384173E-06
  0.00000000E+00  0.00000000E+00 -6.33769392E-06  9.33561094E-06 -2.96998254E-04
  0.00000000E+00  0.00000000E+00 -7.65323593E-04  1.16116104E-04 -2.23191412E-05
  0.00000000E+00  0.00000000E+00  1.13595157E-04 -1.03335088E-04  0.00000000E+00
 -1.94551945E-05 -1.13942050E-04  0.00000000E+00  0.00000000E+00 -5.48475033E-05
 -1.34027410E-04  0.00000000E+00  1.28483039E-05 -1.40165870E-04  0.00000000E+00
  0.00000000E+00  7.03098033E-05 -4.26430995E-04  2.73076631E-03  7.66987797E-05
  1.11027090E-04 -2.61576790E-04  9.10545826E-05  4.50643570E-06 -2.85430383E-05
  0.00000000E+00  5.20403979E-05  1.75530554E-04  0.00000000E+00  2.02549859E-04
  2.46790101E-04  0.00000000E+00  1.13675740E-04  2.23180218E-05  0.00000000E+00
 -5.84055297E-06  0.00000000E+00  0.00000000E+00 -1.65029048E-05  3.98583309E-07
  6.94241988E-06  0.00000000E+00  0.00000000E+00  6.62678111E-05  1.01029635E-04
 -9.41125627E-05  0.00000000E+00  0.00000000E+00  1.57223099E-04  1.78803284E-04
  0.00000000E+00  1.49711940E-05 -5.69166303E-06  0.00000000E+00  0.00000000E+00
 -8.27628495E-06 -9.76266351E-06  0.00000000E+00 -2.71779743E-05  4.82111174E-05
  0.00000000E+00  0.00000000E+00  8.19277936E-05  9.45547593E-05  4.75386661E-04
  2.01198988E-03  7.78097508E-05  1.31324669E-05 -4.11177409E-05 -2.45549289E-04
  0.00000000E+00  1.19165559E-04 -1.25773709E-03  0.00000000E+00  3.08847357E-04
 -3.23314174E-04  0.00000000E+00 -1.35789122E-06  0.00000000E+00  0.00000000E+00
  7.68423549E-05  1.57211193E-05 -1.59338438E-04  0.00000000E+00  0.00000000E+00
 -5.36779636E-04 -2.77606873E-05  9.76829266E-01 -9.15758313E-03  4.34485617E-02
  1.98417311E-04 -1.09153895E-03 -1.56300166E-03  1.43215777E-03  0.00000000E+00
  1.57312529E-03 -1.27168126E-03  0.00000000E+00 -5.57458758E-04 -8.25229272E-04
  0.00000000E+00  5.42647034E-05 -2.11692579E-05  0.00000000E+00  2.92929942E-05
  0.00000000E+00  0.00000000E+00 -1.17047594E-04 -4.42545316E-06  7.53074376E-04
  0.00000000E+00  0.00000000E+00 -1.98659410E-04 -2.35602830E-04 -2.72251199E-04
  0.00000000E+00  0.00000000E+00  1.64586693E-04  1.27022922E-04  0.00000000E+00
 -6.41000870E-05  1.01433492E-06  0.00000000E+00  0.00000000E+00  1.89508396E-05