 Entering Gaussian System, Link 0=g16
 Input=hoono_d1_186p2054.gjf
 Output=hoono_d1_186p2054.log
 Initial command:
 /sw/contrib/gaussian/g16/B01/g16/l1.exe "/scr/Gau-2178.inp" -scrdir="/scr/"
 Entering Link 1 = /sw/contrib/gaussian/g16/B01/g16/l1.exe PID=      2179.
  
 Copyright (c) 1988-2017, Gaussian, Inc.  All Rights Reserved.
  
 This is part of the Gaussian(R) 16 program.  It is based on
 the Gaussian(R) 09 system (copyright 2009, Gaussian, Inc.),
 the Gaussian(R) 03 system (copyright 2003, Gaussian, Inc.),
 the Gaussian(R) 98 system (copyright 1998, Gaussian, Inc.),
 the Gaussian(R) 94 system (copyright 1995, Gaussian, Inc.),
 the Gaussian 92(TM) system (copyright 1992, Gaussian, Inc.),
 the Gaussian 90(TM) system (copyright 1990, Gaussian, Inc.),
 the Gaussian 88(TM) system (copyright 1988, Gaussian, Inc.),
 the Gaussian 86(TM) system (copyright 1986, Carnegie Mellon
 University), and the Gaussian 82(TM) system (copyright 1983,
 Carnegie Mellon University). Gaussian is a federally registered
 trademark of Gaussian, Inc.
  
 This software contains proprietary and confidential information,
 including trade secrets, belonging to Gaussian, Inc.
  
 This software is provided under written license and may be
 used, copied, transmitted, or stored only in accord with that
 written license.
  
 The following legend is applicable only to US Government
 contracts under FAR:
  
                    RESTRICTED RIGHTS LEGEND
  
 Use, reproduction and disclosure by the US Government is
 subject to restrictions as set forth in subparagraphs (a)
 and (c) of the Commercial Computer Software - Restricted
 Rights clause in FAR 52.227-19.
  
 Gaussian, Inc.
 340 Quinnipiac St., Bldg. 40, Wallingford CT 06492
  
  
 ---------------------------------------------------------------
 Warning -- This program may not be used in any manner that
 competes with the business of Gaussian, Inc. or will provide
 assistance to any competitor of Gaussian, Inc.  The licensee
 of this program is prohibited from giving any competitor of
 Gaussian, Inc. access to this program.  By using this program,
 the user acknowledges that Gaussian, Inc. is engaged in the
 business of creating and licensing software in the field of
 computational chemistry and represents and warrants to the
 licensee that it is not a competitor of Gaussian, Inc. and that
 it will not use this program in any manner prohibited above.
 ---------------------------------------------------------------
  

 Cite this work as:
 Gaussian 16, Revision B.01,
 M. J. Frisch, G. W. Trucks, H. B. Schlegel, G. E. Scuseria, 
 M. A. Robb, J. R. Cheeseman, G. Scalmani, V. Barone, 
 G. A. Petersson, H. Nakatsuji, X. Li, M. Caricato, A. V. Marenich, 
 J. Bloino, B. G. Janesko, R. Gomperts, B. Mennucci, H. P. Hratchian, 
 J. V. Ortiz, A. F. Izmaylov, J. L. Sonnenberg, D. Williams-Young, 
 F. Ding, F. Lipparini, F. Egidi, J. Goings, B. Peng, A. Petrone, 
 T. Henderson, D. Ranasinghe, V. G. Zakrzewski, J. Gao, N. Rega, 
 G. Zheng, W. Liang, M. Hada, M. Ehara, K. Toyota, R. Fukuda, 
 J. Hasegawa, M. Ishida, T. Nakajima, Y. Honda, O. Kitao, H. Nakai, 
 T. Vreven, K. Throssell, J. A. Montgomery, Jr., J. E. Peralta, 
 F. Ogliaro, M. J. Bearpark, J. J. Heyd, E. N. Brothers, K. N. Kudin, 
 V. N. Staroverov, T. A. Keith, R. Kobayashi, J. Normand, 
 K. Raghavachari, A. P. Rendell, J. C. Burant, S. S. Iyengar, 
 J. Tomasi, M. Cossi, J. M. Millam, M. Klene, C. Adamo, R. Cammi, 
 J. W. Ochterski, R. L. Martin, K. Morokuma, O. Farkas, 
 J. B. Foresman, and D. J. Fox, Gaussian, Inc., Wallingford CT, 2016.
 
 ******************************************
 Gaussian 16:  ES64L-G16RevB.01 20-Dec-2017
                21-Feb-2022 
 ******************************************
 %nproc=28
 Will use up to   28 processors via shared memory.
 %mem=120GB
 %chk=hoono_d1_186p2054.chk
 ---------------------------------------
 #p freq mp2/aug-cc-pvtz density=current
 ---------------------------------------
 1/10=4,30=1,38=1/1,3;
 2/12=2,17=6,18=5,40=1/2;
 3/5=16,6=1,7=10,11=9,25=1,30=1,71=2,140=1/1,2,3;
 4//1;
 5/5=2,38=5,98=1/2;
 8/6=3,8=1,10=1,19=11,30=-1/1;
 9/15=3,16=-3/6;
 11/6=1,8=1,15=11,17=12,24=-1,27=1,28=-2,29=300,32=6,42=3/1,2,10;
 10/6=2,21=1/2;
 8/6=4,8=1,10=1,19=11,30=-1/11,4;
 10/5=1,20=4/2;
 11/12=2,14=11,16=1,17=2,28=-2,42=3,76=2/2,10,12;
 6/7=2,8=2,9=2,10=2,22=-1/1;
 7/8=1,10=1,12=2,25=1,44=2/1,2,3,16;
 1/10=4,30=1/3;
 99//99;
 Leave Link    1 at Mon Feb 21 20:55:46 2022, MaxMem= 16106127360 cpu:               2.8 elap:               0.1
 (Enter /sw/contrib/gaussian/g16/B01/g16/l101.exe)
 -----
 title
 -----
 Symbolic Z-matrix:
 Charge =  0 Multiplicity = 1
 H
 O                    1    r1
 O                    2    r2       1    a1
 N                    3    r3       2    a2       1    d1       0
 O                    4    r4       3    a3       2    d2       0
       Variables:
  r1                    0.96898                  
  r2                    1.45492                  
  r3                    1.45878                  
  r4                    1.17073                  
  a1                   97.59495                  
  a2                  102.29752                  
  a3                  109.06955                  
  d1                  186.20541                  
  d2                  180.                       
 
 ITRead=  0  0  0  0  0
 MicOpt= -1 -1 -1 -1 -1
 NAtoms=      5 NQM=        5 NQMF=       0 NMMI=      0 NMMIF=      0
                NMic=       0 NMicF=      0.
                    Isotopes and Nuclear Properties:
 (Nuclear quadrupole moments (NQMom) in fm**2, nuclear magnetic moments (NMagM)
  in nuclear magnetons)

  Atom         1           2           3           4           5
 IAtWgt=           1          16          16          14          16
 AtmWgt=   1.0078250  15.9949146  15.9949146  14.0030740  15.9949146
 NucSpn=           1           0           0           2           0
 AtZEff=  -0.0000000  -0.0000000  -0.0000000  -0.0000000  -0.0000000
 NQMom=    0.0000000   0.0000000   0.0000000   2.0440000   0.0000000
 NMagM=    2.7928460   0.0000000   0.0000000   0.4037610   0.0000000
 AtZNuc=   1.0000000   8.0000000   8.0000000   7.0000000   8.0000000
 Leave Link  101 at Mon Feb 21 20:55:47 2022, MaxMem= 16106127360 cpu:               2.9 elap:               0.2
 (Enter /sw/contrib/gaussian/g16/B01/g16/l103.exe)

 GradGradGradGradGradGradGradGradGradGradGradGradGradGradGradGradGradGrad
 Berny optimization.
 Initialization pass.
                       ----------------------------
                       !    Initial Parameters    !
                       ! (Angstroms and Degrees)  !
 ----------------------                            ----------------------
 !      Name          Value   Derivative information (Atomic Units)     !
 ------------------------------------------------------------------------
 !       r1          0.969    calculate D2E/DX2 analytically            !
 !       r2          1.4549   calculate D2E/DX2 analytically            !
 !       r3          1.4588   calculate D2E/DX2 analytically            !
 !       r4          1.1707   calculate D2E/DX2 analytically            !
 !       a1         97.5949   calculate D2E/DX2 analytically            !
 !       a2        102.2975   calculate D2E/DX2 analytically            !
 !       a3        109.0696   calculate D2E/DX2 analytically            !
 !       d1        186.2054   calculate D2E/DX2 analytically            !
 !       d2        180.0      calculate D2E/DX2 analytically            !
 ------------------------------------------------------------------------
 Trust Radius=3.00D-01 FncErr=1.00D-07 GrdErr=1.00D-07 EigMax=2.50D+02 EigMin=1.00D-04
 Number of steps in this run=      2 maximum allowed number of steps=      2.
 GradGradGradGradGradGradGradGradGradGradGradGradGradGradGradGradGradGrad

 Leave Link  103 at Mon Feb 21 20:55:47 2022, MaxMem= 16106127360 cpu:               0.5 elap:               0.0
 (Enter /sw/contrib/gaussian/g16/B01/g16/l202.exe)
                          Input orientation:                          
 ---------------------------------------------------------------------
 Center     Atomic      Atomic             Coordinates (Angstroms)
 Number     Number       Type             X           Y           Z
 ---------------------------------------------------------------------
      1          1           0        0.000000    0.000000    0.000000
      2          8           0        0.000000    0.000000    0.968976
      3          8           0        1.442156    0.000000    1.161271
      4          7           0        1.562855   -0.154067    2.606866
      5          8           0        2.697078   -0.168989    2.896559
 ---------------------------------------------------------------------
                    Distance matrix (angstroms):
                    1          2          3          4          5
     1  H    0.000000
     2  O    0.968976   0.000000
     3  O    1.851584   1.454919   0.000000
     4  N    3.043354   2.269127   1.458784   0.000000
     5  O    3.961419   3.319392   2.148165   1.170729   0.000000
 Stoichiometry    HNO3
 Framework group  C1[X(HNO3)]
 Deg. of freedom     9
 Full point group                 C1      NOp   1
 Largest Abelian subgroup         C1      NOp   1
 Largest concise Abelian subgroup C1      NOp   1
                         Standard orientation:                         
 ---------------------------------------------------------------------
 Center     Atomic      Atomic             Coordinates (Angstroms)
 Number     Number       Type             X           Y           Z
 ---------------------------------------------------------------------
      1          1           0        2.246110    0.431601    0.086574
      2          8           0        1.598986   -0.283437   -0.007579
      3          8           0        0.400303    0.541149   -0.010171
      4          7           0       -0.663466   -0.456971    0.004037
      5          8           0       -1.699520    0.088188    0.003396
 ---------------------------------------------------------------------
 Rotational constants (GHZ):          54.9206237           5.0113273           4.5931194
 Leave Link  202 at Mon Feb 21 20:55:47 2022, MaxMem= 16106127360 cpu:               1.4 elap:               0.1
 (Enter /sw/contrib/gaussian/g16/B01/g16/l301.exe)
 Standard basis: Aug-CC-pVTZ (5D, 7F)
 Ernie: Thresh=  0.10000D-02 Tol=  0.10000D-05 Strict=F.
 Ernie:  12 primitive shells out of 131 were deleted.
 There are   245 symmetry adapted cartesian basis functions of A   symmetry.
 There are   207 symmetry adapted basis functions of A   symmetry.
   207 basis functions,   315 primitive gaussians,   245 cartesian basis functions
    16 alpha electrons       16 beta electrons
       nuclear repulsion energy       116.8736628952 Hartrees.
 IExCor=    0 DFT=F Ex=HF Corr=None ExCW=0 ScaHFX=  1.000000
 ScaDFX=  1.000000  1.000000  1.000000  1.000000 ScalE2=  1.000000  1.000000
 IRadAn=      5 IRanWt=     -1 IRanGd=            0 ICorTp=0 IEmpDi=  4
 NAtoms=    5 NActive=    5 NUniq=    5 SFac= 1.00D+00 NAtFMM=   60 NAOKFM=F Big=F
 Integral buffers will be    131072 words long.
 Raffenetti 1 integral format.
 Two-electron integral symmetry is turned on.
 Leave Link  301 at Mon Feb 21 20:55:47 2022, MaxMem= 16106127360 cpu:               1.7 elap:               0.1
 (Enter /sw/contrib/gaussian/g16/B01/g16/l302.exe)
 NPDir=0 NMtPBC=     1 NCelOv=     1 NCel=       1 NClECP=     1 NCelD=      1
         NCelK=      1 NCelE2=     1 NClLst=     1 CellRange=     0.0.
 One-electron integrals computed using PRISM.
 One-electron integral symmetry used in STVInt
 NBasis=   207 RedAO= T EigKep=  1.82D-04  NBF=   207
 NBsUse=   207 1.00D-06 EigRej= -1.00D+00 NBFU=   207
 Leave Link  302 at Mon Feb 21 20:55:47 2022, MaxMem= 16106127360 cpu:               4.8 elap:               0.2
 (Enter /sw/contrib/gaussian/g16/B01/g16/l303.exe)
 DipDrv:  MaxL=1.
 Leave Link  303 at Mon Feb 21 20:55:47 2022, MaxMem= 16106127360 cpu:               0.8 elap:               0.1
 (Enter /sw/contrib/gaussian/g16/B01/g16/l401.exe)
 ExpMin= 2.53D-02 ExpMax= 1.53D+04 ExpMxC= 5.22D+02 IAcc=3 IRadAn=         5 AccDes= 0.00D+00
 Harris functional with IExCor=  205 and IRadAn=       5 diagonalized for initial guess.
 HarFok:  IExCor=  205 AccDes= 0.00D+00 IRadAn=         5 IDoV= 1 UseB2=F ITyADJ=14
 ICtDFT=  3500011 ScaDFX=  1.000000  1.000000  1.000000  1.000000
 FoFCou: FMM=F IPFlag=           0 FMFlag=      100000 FMFlg1=           0
         NFxFlg=           0 DoJE=T BraDBF=F KetDBF=T FulRan=T
         wScrn=  0.000000 ICntrl=       500 IOpCl=  0 I1Cent=   200000004 NGrid=           0
         NMat0=    1 NMatS0=      1 NMatT0=    0 NMatD0=    1 NMtDS0=    0 NMtDT0=    0
 Petite list used in FoFCou.
 Harris En= -279.628723477147    
 JPrj=0 DoOrth=F DoCkMO=F.
 Leave Link  401 at Mon Feb 21 20:55:47 2022, MaxMem= 16106127360 cpu:               6.1 elap:               0.3
 (Enter /sw/contrib/gaussian/g16/B01/g16/l502.exe)
 Keep R1 ints in memory in canonical form, NReq=245616937.
 FoFCou: FMM=F IPFlag=           0 FMFlag=           0 FMFlg1=           0
         NFxFlg=           0 DoJE=F BraDBF=F KetDBF=F FulRan=T
         wScrn=  0.000000 ICntrl=       600 IOpCl=  0 I1Cent=           0 NGrid=           0
         NMat0=    1 NMatS0=  21528 NMatT0=    0 NMatD0=    1 NMtDS0=    0 NMtDT0=    0
 Symmetry not used in FoFCou.
 Two-electron integral symmetry not used.
 Closed shell SCF:
 Using DIIS extrapolation, IDIIS=  1040.
 NGot= 16106127360 LenX= 15874260251 LenY= 15874199785
 Requested convergence on RMS density matrix=1.00D-08 within 128 cycles.
 Requested convergence on MAX density matrix=1.00D-06.
 Requested convergence on             energy=1.00D-06.
 No special actions if energy rises.

 Cycle   1  Pass 1  IDiag  1:
 E= -279.370513550592    
 DIIS: error= 2.55D-02 at cycle   1 NSaved=   1.
 NSaved= 1 IEnMin= 1 EnMin= -279.370513550592     IErMin= 1 ErrMin= 2.55D-02
 ErrMax= 2.55D-02  0.00D+00 EMaxC= 1.00D-01 BMatC= 4.38D-01 BMatP= 4.38D-01
 IDIUse=3 WtCom= 7.45D-01 WtEn= 2.55D-01
 Coeff-Com:  0.100D+01
 Coeff-En:   0.100D+01
 Coeff:      0.100D+01
 Gap=     0.518 Goal=   None    Shift=    0.000
 GapD=    0.518 DampG=2.000 DampE=0.500 DampFc=1.0000 IDamp=-1.
 RMSDP=1.62D-03 MaxDP=9.92D-02              OVMax= 1.13D-01

 Cycle   2  Pass 1  IDiag  1:
 E= -279.452447371913     Delta-E=       -0.081933821321 Rises=F Damp=F
 DIIS: error= 1.76D-02 at cycle   2 NSaved=   2.
 NSaved= 2 IEnMin= 2 EnMin= -279.452447371913     IErMin= 2 ErrMin= 1.76D-02
 ErrMax= 1.76D-02  0.00D+00 EMaxC= 1.00D-01 BMatC= 7.18D-02 BMatP= 4.38D-01
 IDIUse=3 WtCom= 8.24D-01 WtEn= 1.76D-01
 Coeff-Com:  0.195D+00 0.805D+00
 Coeff-En:   0.000D+00 0.100D+01
 Coeff:      0.161D+00 0.839D+00
 Gap=     0.533 Goal=   None    Shift=    0.000
 RMSDP=9.00D-04 MaxDP=3.73D-02 DE=-8.19D-02 OVMax= 6.85D-02

 Cycle   3  Pass 1  IDiag  1:
 E= -279.481622221555     Delta-E=       -0.029174849642 Rises=F Damp=F
 DIIS: error= 1.02D-02 at cycle   3 NSaved=   3.
 NSaved= 3 IEnMin= 3 EnMin= -279.481622221555     IErMin= 3 ErrMin= 1.02D-02
 ErrMax= 1.02D-02  0.00D+00 EMaxC= 1.00D-01 BMatC= 2.87D-02 BMatP= 7.18D-02
 IDIUse=3 WtCom= 8.98D-01 WtEn= 1.02D-01
 Coeff-Com: -0.330D-01 0.378D+00 0.655D+00
 Coeff-En:   0.000D+00 0.240D+00 0.760D+00
 Coeff:     -0.296D-01 0.364D+00 0.666D+00
 Gap=     0.510 Goal=   None    Shift=    0.000
 RMSDP=3.76D-04 MaxDP=1.54D-02 DE=-2.92D-02 OVMax= 3.80D-02

 Cycle   4  Pass 1  IDiag  1:
 E= -279.500648600153     Delta-E=       -0.019026378598 Rises=F Damp=F
 DIIS: error= 1.27D-03 at cycle   4 NSaved=   4.
 NSaved= 4 IEnMin= 4 EnMin= -279.500648600153     IErMin= 4 ErrMin= 1.27D-03
 ErrMax= 1.27D-03  0.00D+00 EMaxC= 1.00D-01 BMatC= 4.91D-04 BMatP= 2.87D-02
 IDIUse=3 WtCom= 9.87D-01 WtEn= 1.27D-02
 Coeff-Com: -0.117D-01 0.575D-01 0.158D+00 0.796D+00
 Coeff-En:   0.000D+00 0.000D+00 0.000D+00 0.100D+01
 Coeff:     -0.115D-01 0.568D-01 0.156D+00 0.798D+00
 Gap=     0.502 Goal=   None    Shift=    0.000
 RMSDP=9.02D-05 MaxDP=2.18D-03 DE=-1.90D-02 OVMax= 1.10D-02

 Cycle   5  Pass 1  IDiag  1:
 E= -279.501322839374     Delta-E=       -0.000674239221 Rises=F Damp=F
 DIIS: error= 7.26D-04 at cycle   5 NSaved=   5.
 NSaved= 5 IEnMin= 5 EnMin= -279.501322839374     IErMin= 5 ErrMin= 7.26D-04
 ErrMax= 7.26D-04  0.00D+00 EMaxC= 1.00D-01 BMatC= 8.71D-05 BMatP= 4.91D-04
 IDIUse=3 WtCom= 9.93D-01 WtEn= 7.26D-03
 Coeff-Com:  0.613D-02-0.723D-01-0.118D+00 0.202D-01 0.116D+01
 Coeff-En:   0.000D+00 0.000D+00 0.000D+00 0.000D+00 0.100D+01
 Coeff:      0.608D-02-0.718D-01-0.117D+00 0.201D-01 0.116D+01
 Gap=     0.502 Goal=   None    Shift=    0.000
 RMSDP=7.62D-05 MaxDP=2.10D-03 DE=-6.74D-04 OVMax= 1.10D-02

 Cycle   6  Pass 1  IDiag  1:
 E= -279.501637767103     Delta-E=       -0.000314927729 Rises=F Damp=F
 DIIS: error= 2.84D-04 at cycle   6 NSaved=   6.
 NSaved= 6 IEnMin= 6 EnMin= -279.501637767103     IErMin= 6 ErrMin= 2.84D-04
 ErrMax= 2.84D-04  0.00D+00 EMaxC= 1.00D-01 BMatC= 1.67D-05 BMatP= 8.71D-05
 IDIUse=3 WtCom= 9.97D-01 WtEn= 2.84D-03
 Coeff-Com:  0.596D-03 0.158D-02 0.452D-02-0.130D+00-0.231D+00 0.135D+01
 Coeff-En:   0.000D+00 0.000D+00 0.000D+00 0.000D+00 0.000D+00 0.100D+01
 Coeff:      0.595D-03 0.157D-02 0.451D-02-0.129D+00-0.230D+00 0.135D+01
 Gap=     0.502 Goal=   None    Shift=    0.000
 RMSDP=4.53D-05 MaxDP=1.06D-03 DE=-3.15D-04 OVMax= 5.54D-03

 Cycle   7  Pass 1  IDiag  1:
 E= -279.501710442047     Delta-E=       -0.000072674944 Rises=F Damp=F
 DIIS: error= 1.01D-04 at cycle   7 NSaved=   7.
 NSaved= 7 IEnMin= 7 EnMin= -279.501710442047     IErMin= 7 ErrMin= 1.01D-04
 ErrMax= 1.01D-04  0.00D+00 EMaxC= 1.00D-01 BMatC= 4.52D-06 BMatP= 1.67D-05
 IDIUse=3 WtCom= 9.99D-01 WtEn= 1.01D-03
 Coeff-Com: -0.938D-03 0.135D-01 0.265D-01-0.243D-01-0.287D+00 0.391D+00
 Coeff-Com:  0.881D+00
 Coeff-En:   0.000D+00 0.000D+00 0.000D+00 0.000D+00 0.000D+00 0.000D+00
 Coeff-En:   0.100D+01
 Coeff:     -0.937D-03 0.135D-01 0.265D-01-0.243D-01-0.287D+00 0.391D+00
 Coeff:      0.881D+00
 Gap=     0.502 Goal=   None    Shift=    0.000
 RMSDP=1.33D-05 MaxDP=3.78D-04 DE=-7.27D-05 OVMax= 1.55D-03

 Cycle   8  Pass 1  IDiag  1:
 E= -279.501719343323     Delta-E=       -0.000008901276 Rises=F Damp=F
 DIIS: error= 4.92D-05 at cycle   8 NSaved=   8.
 NSaved= 8 IEnMin= 8 EnMin= -279.501719343323     IErMin= 8 ErrMin= 4.92D-05
 ErrMax= 4.92D-05  0.00D+00 EMaxC= 1.00D-01 BMatC= 6.07D-07 BMatP= 4.52D-06
 IDIUse=1 WtCom= 1.00D+00 WtEn= 0.00D+00
 Coeff-Com: -0.449D-03 0.345D-02 0.760D-02 0.274D-01-0.409D-01-0.198D+00
 Coeff-Com:  0.171D+00 0.103D+01
 Coeff:     -0.449D-03 0.345D-02 0.760D-02 0.274D-01-0.409D-01-0.198D+00
 Coeff:      0.171D+00 0.103D+01
 Gap=     0.502 Goal=   None    Shift=    0.000
 RMSDP=6.91D-06 MaxDP=2.03D-04 DE=-8.90D-06 OVMax= 7.47D-04

 Cycle   9  Pass 1  IDiag  1:
 E= -279.501721121105     Delta-E=       -0.000001777783 Rises=F Damp=F
 DIIS: error= 1.57D-05 at cycle   9 NSaved=   9.
 NSaved= 9 IEnMin= 9 EnMin= -279.501721121105     IErMin= 9 ErrMin= 1.57D-05
 ErrMax= 1.57D-05  0.00D+00 EMaxC= 1.00D-01 BMatC= 6.92D-08 BMatP= 6.07D-07
 IDIUse=1 WtCom= 1.00D+00 WtEn= 0.00D+00
 Coeff-Com:  0.123D-03-0.172D-02-0.307D-02-0.205D-02 0.342D-01-0.447D-04
 Coeff-Com: -0.167D+00-0.103D+00 0.124D+01
 Coeff:      0.123D-03-0.172D-02-0.307D-02-0.205D-02 0.342D-01-0.447D-04
 Coeff:     -0.167D+00-0.103D+00 0.124D+01
 Gap=     0.502 Goal=   None    Shift=    0.000
 RMSDP=1.94D-06 MaxDP=5.18D-05 DE=-1.78D-06 OVMax= 1.74D-04

 Cycle  10  Pass 1  IDiag  1:
 E= -279.501721281410     Delta-E=       -0.000000160304 Rises=F Damp=F
 DIIS: error= 4.03D-06 at cycle  10 NSaved=  10.
 NSaved=10 IEnMin=10 EnMin= -279.501721281410     IErMin=10 ErrMin= 4.03D-06
 ErrMax= 4.03D-06  0.00D+00 EMaxC= 1.00D-01 BMatC= 5.55D-09 BMatP= 6.92D-08
 IDIUse=1 WtCom= 1.00D+00 WtEn= 0.00D+00
 Coeff-Com:  0.310D-04-0.243D-03-0.324D-03-0.270D-02 0.163D-02 0.196D-01
 Coeff-Com: -0.130D-01-0.743D-01-0.803D-01 0.115D+01
 Coeff:      0.310D-04-0.243D-03-0.324D-03-0.270D-02 0.163D-02 0.196D-01
 Coeff:     -0.130D-01-0.743D-01-0.803D-01 0.115D+01
 Gap=     0.502 Goal=   None    Shift=    0.000
 RMSDP=5.06D-07 MaxDP=2.10D-05 DE=-1.60D-07 OVMax= 4.14D-05

 Cycle  11  Pass 1  IDiag  1:
 E= -279.501721293996     Delta-E=       -0.000000012586 Rises=F Damp=F
 DIIS: error= 1.79D-06 at cycle  11 NSaved=  11.
 NSaved=11 IEnMin=11 EnMin= -279.501721293996     IErMin=11 ErrMin= 1.79D-06
 ErrMax= 1.79D-06  0.00D+00 EMaxC= 1.00D-01 BMatC= 6.65D-10 BMatP= 5.55D-09
 IDIUse=1 WtCom= 1.00D+00 WtEn= 0.00D+00
 Coeff-Com: -0.213D-04 0.244D-03 0.488D-03 0.534D-03-0.429D-02-0.357D-02
 Coeff-Com:  0.211D-01 0.311D-01-0.139D+00-0.179D+00 0.127D+01
 Coeff:     -0.213D-04 0.244D-03 0.488D-03 0.534D-03-0.429D-02-0.357D-02
 Coeff:      0.211D-01 0.311D-01-0.139D+00-0.179D+00 0.127D+01
 Gap=     0.502 Goal=   None    Shift=    0.000
 RMSDP=1.80D-07 MaxDP=6.52D-06 DE=-1.26D-08 OVMax= 1.72D-05

 Cycle  12  Pass 1  IDiag  1:
 E= -279.501721295837     Delta-E=       -0.000000001841 Rises=F Damp=F
 DIIS: error= 5.64D-07 at cycle  12 NSaved=  12.
 NSaved=12 IEnMin=12 EnMin= -279.501721295837     IErMin=12 ErrMin= 5.64D-07
 ErrMax= 5.64D-07  0.00D+00 EMaxC= 1.00D-01 BMatC= 7.38D-11 BMatP= 6.65D-10
 IDIUse=1 WtCom= 1.00D+00 WtEn= 0.00D+00
 Coeff-Com:  0.128D-05-0.296D-04-0.644D-04 0.183D-03 0.109D-02-0.231D-02
 Coeff-Com: -0.417D-02 0.544D-02 0.422D-01-0.114D+00-0.284D+00 0.136D+01
 Coeff:      0.128D-05-0.296D-04-0.644D-04 0.183D-03 0.109D-02-0.231D-02
 Coeff:     -0.417D-02 0.544D-02 0.422D-01-0.114D+00-0.284D+00 0.136D+01
 Gap=     0.502 Goal=   None    Shift=    0.000
 RMSDP=7.42D-08 MaxDP=2.83D-06 DE=-1.84D-09 OVMax= 6.64D-06

 Cycle  13  Pass 1  IDiag  1:
 E= -279.501721296081     Delta-E=       -0.000000000244 Rises=F Damp=F
 DIIS: error= 1.68D-07 at cycle  13 NSaved=  13.
 NSaved=13 IEnMin=13 EnMin= -279.501721296081     IErMin=13 ErrMin= 1.68D-07
 ErrMax= 1.68D-07  0.00D+00 EMaxC= 1.00D-01 BMatC= 4.84D-12 BMatP= 7.38D-11
 IDIUse=1 WtCom= 1.00D+00 WtEn= 0.00D+00
 Coeff-Com:  0.132D-05-0.142D-04-0.228D-04-0.937D-04 0.116D-03 0.809D-03
 Coeff-Com: -0.826D-03-0.344D-02 0.198D-03 0.437D-01-0.343D-01-0.348D+00
 Coeff-Com:  0.134D+01
 Coeff:      0.132D-05-0.142D-04-0.228D-04-0.937D-04 0.116D-03 0.809D-03
 Coeff:     -0.826D-03-0.344D-02 0.198D-03 0.437D-01-0.343D-01-0.348D+00
 Coeff:      0.134D+01
 Gap=     0.502 Goal=   None    Shift=    0.000
 RMSDP=2.21D-08 MaxDP=5.66D-07 DE=-2.44D-10 OVMax= 2.55D-06

 Cycle  14  Pass 1  IDiag  1:
 E= -279.501721296103     Delta-E=       -0.000000000022 Rises=F Damp=F
 DIIS: error= 6.13D-08 at cycle  14 NSaved=  14.
 NSaved=14 IEnMin=14 EnMin= -279.501721296103     IErMin=14 ErrMin= 6.13D-08
 ErrMax= 6.13D-08  0.00D+00 EMaxC= 1.00D-01 BMatC= 5.52D-13 BMatP= 4.84D-12
 IDIUse=1 WtCom= 1.00D+00 WtEn= 0.00D+00
 Coeff-Com: -0.317D-06 0.474D-05 0.827D-05 0.110D-04-0.108D-03 0.596D-05
 Coeff-Com:  0.406D-03 0.459D-03-0.300D-02-0.886D-03 0.233D-01-0.111D-01
 Coeff-Com: -0.317D+00 0.131D+01
 Coeff:     -0.317D-06 0.474D-05 0.827D-05 0.110D-04-0.108D-03 0.596D-05
 Coeff:      0.406D-03 0.459D-03-0.300D-02-0.886D-03 0.233D-01-0.111D-01
 Coeff:     -0.317D+00 0.131D+01
 Gap=     0.502 Goal=   None    Shift=    0.000
 RMSDP=7.53D-09 MaxDP=1.91D-07 DE=-2.17D-11 OVMax= 1.24D-06

 SCF Done:  E(RHF) =  -279.501721296     A.U. after   14 cycles
            NFock= 14  Conv=0.75D-08     -V/T= 2.0024
 KE= 2.788453981544D+02 PE=-8.950738750782D+02 EE= 2.198530927325D+02
 Leave Link  502 at Mon Feb 21 20:55:54 2022, MaxMem= 16106127360 cpu:              39.3 elap:               6.6
 (Enter /sw/contrib/gaussian/g16/B01/g16/l801.exe)
 ExpMin= 2.53D-02 ExpMax= 1.53D+04 ExpMxC= 5.22D+02 IAcc=3 IRadAn=         5 AccDes= 0.00D+00
 HarFok:  IExCor=  205 AccDes= 0.00D+00 IRadAn=         5 IDoV=-2 UseB2=F ITyADJ=14
 ICtDFT= 12500011 ScaDFX=  1.000000  1.000000  1.000000  1.000000
 Largest valence mixing into a core orbital is  2.08D-04
 Largest core mixing into a valence orbital is  3.63D-05
 Range of M.O.s used for correlation:     5   207
 NBasis=   207 NAE=    16 NBE=    16 NFC=     4 NFV=     0
 NROrb=    203 NOA=    12 NOB=    12 NVA=   191 NVB=   191

 **** Warning!!: The largest alpha MO coefficient is  0.17738084D+02

 Leave Link  801 at Mon Feb 21 20:55:54 2022, MaxMem= 16106127360 cpu:               2.0 elap:               0.1
 (Enter /sw/contrib/gaussian/g16/B01/g16/l906.exe)
 Frozen-core derivative calculation, NFC=   4 NFV=   0.
 FulOut=F Deriv=T AODrv=T NAtomX=     5
   MMem=           0  MDisk=          12 MDiskD=          12
  W3Min=      811440 MinDsk=     2425030 NBas6D=         245
 NBas2D=       30762    NTT=       30135    LW2=     7400000
    MDV= 16105638402 MDiskM=      328645 NBas2p=       30702
 Disk-based method using ON**2 memory for 12 occupieds at a time.
 Permanent disk used for amplitudes=    11516536 words.
 Estimated scratch disk usage=   321251614 words.
 IMap=   1   2   3   4   5   6   7   8   9  10  11  12  13  14  15  16
 Actual    scratch disk usage=   310331678 words.
 JobTyp=1 Pass  1:  I=   5 to  16 NPSUse= 28 ParTrn=T ParDer=T DoDerP=T.
 (rs|ai) integrals will be sorted in core.
 Spin components of T(2) and E(2):
     alpha-alpha T2 =       0.3402575011D-01 E2=     -0.1224071145D+00
     alpha-beta  T2 =       0.1868519597D+00 E2=     -0.7002445728D+00
     beta-beta   T2 =       0.3402575011D-01 E2=     -0.1224071145D+00
 The integrals were generated   1 times.
 ANorm=    0.1120224736D+01
 E2 =    -0.9450588017D+00 EUMP2 =    -0.28044678009776D+03
 Leave Link  906 at Mon Feb 21 20:57:32 2022, MaxMem= 16106127360 cpu:            2744.2 elap:              98.1
 (Enter /sw/contrib/gaussian/g16/B01/g16/l1101.exe)
 Using compressed Sx but separate Hx and Fx, NAtomX=     5.
 Will process      6 centers per pass.
 Leave Link 1101 at Mon Feb 21 20:57:32 2022, MaxMem= 16106127360 cpu:               6.0 elap:               0.2
 (Enter /sw/contrib/gaussian/g16/B01/g16/l1102.exe)
 Leave Link 1102 at Mon Feb 21 20:57:32 2022, MaxMem= 16106127360 cpu:               0.6 elap:               0.0
 (Enter /sw/contrib/gaussian/g16/B01/g16/l1110.exe)
 Forming Gx(P) for the SCF density, NAtomX=     5.
 Integral derivatives from FoFJK, PRISM(SPDF).
 Do as many integral derivatives as possible in FoFJK.
 G2DrvN: MDV=   16106126844.
 G2DrvN: will do     6 centers at a time, making    1 passes.
 Calling FoFCou, ICntrl=  3107 FMM=F I1Cent=   0 AccDes= 0.00D+00.
 FoFJK:  IHMeth= 1 ICntrl=    3107 DoSepK=F KAlg= 0 I1Cent=           0 FoldK=F
 IRaf=         0 NMat=       1 IRICut=       1 DoRegI=T DoRafI=F ISym2E= 0 IDoP0=0 IntGTp=1.
 FoFCou: FMM=F IPFlag=           0 FMFlag=      100000 FMFlg1=           0
         NFxFlg=           0 DoJE=F BraDBF=F KetDBF=F FulRan=T
         wScrn=  0.000000 ICntrl=      3107 IOpCl=  0 I1Cent=           0 NGrid=           0
         NMat0=    1 NMatS0=      1 NMatT0=    0 NMatD0=    1 NMtDS0=    0 NMtDT0=    0
 Symmetry not used in FoFCou.
 End of G2Drv F.D. properties file   721 does not exist.
 End of G2Drv F.D. properties file   722 does not exist.
 End of G2Drv F.D. properties file   788 does not exist.
 Leave Link 1110 at Mon Feb 21 20:57:35 2022, MaxMem= 16106127360 cpu:              83.7 elap:               3.0
 (Enter /sw/contrib/gaussian/g16/B01/g16/l1002.exe)
 Minotr:  Closed shell wavefunction.
          IDoAtm=11111
          Frozen-core window.
          Direct CPHF calculation.
          Differentiating once with respect to electric field.
                with respect to dipole field.
          Differentiating once with respect to nuclear coordinates.
          Requested convergence is 1.0D-08 RMS, and 1.0D-07 maximum.
          Secondary convergence is 1.0D-12 RMS, and 1.0D-12 maximum.
          NewPWx=T KeepS1=T KeepF1=T KeepIn=T MapXYZ=F SortEE=F KeepMc=T.
 Keep R1 ints in memory in canonical form, NReq=245618178.
 FoFCou: FMM=F IPFlag=           0 FMFlag=           0 FMFlg1=           0
         NFxFlg=           0 DoJE=F BraDBF=F KetDBF=F FulRan=T
         wScrn=  0.000000 ICntrl=       600 IOpCl=  0 I1Cent=           0 NGrid=           0
         NMat0=    1 NMatS0=  21528 NMatT0=    0 NMatD0=    1 NMtDS0=    0 NMtDT0=    0
 Symmetry not used in FoFCou.
 Two-electron integral symmetry not used.
          MDV=   16106127360 using IRadAn=       1.
          Solving linear equations simultaneously, MaxMat=       0.
          There are    18 degrees of freedom in the 1st order CPHF.  IDoFFX=6 NUNeed=    18.
     15 vectors produced by pass  0 Test12= 1.70D-14 5.56D-09 XBig12= 9.51D+00 1.10D+00.
 AX will form    15 AO Fock derivatives at one time.
     15 vectors produced by pass  1 Test12= 1.70D-14 5.56D-09 XBig12= 1.17D+00 2.25D-01.
     15 vectors produced by pass  2 Test12= 1.70D-14 5.56D-09 XBig12= 1.24D-01 9.36D-02.
     15 vectors produced by pass  3 Test12= 1.70D-14 5.56D-09 XBig12= 4.10D-03 1.02D-02.
     15 vectors produced by pass  4 Test12= 1.70D-14 5.56D-09 XBig12= 7.50D-05 1.57D-03.
     15 vectors produced by pass  5 Test12= 1.70D-14 5.56D-09 XBig12= 1.01D-06 1.41D-04.
     15 vectors produced by pass  6 Test12= 1.70D-14 5.56D-09 XBig12= 9.27D-09 1.26D-05.
     12 vectors produced by pass  7 Test12= 1.70D-14 5.56D-09 XBig12= 7.22D-11 1.03D-06.
      3 vectors produced by pass  8 Test12= 1.70D-14 5.56D-09 XBig12= 6.79D-13 1.23D-07.
      2 vectors produced by pass  9 Test12= 1.70D-14 5.56D-09 XBig12= 4.99D-15 9.84D-09.
 InvSVY:  IOpt=1 It=  1 EMax= 9.99D-16
 Solved reduced A of dimension   122 with    15 vectors.
 FullF1:  Do perturbations      1 to      18.
 Saving first derivative matrices.
 End of Minotr F.D. properties file   721 does not exist.
 End of Minotr F.D. properties file   722 does not exist.
 End of Minotr F.D. properties file   788 does not exist.
 Leave Link 1002 at Mon Feb 21 20:57:39 2022, MaxMem= 16106127360 cpu:              98.7 elap:               3.6
 (Enter /sw/contrib/gaussian/g16/B01/g16/l811.exe)
 MDV= 16106127360.
 Form MO integral derivatives with frozen-active canonical formalism.
 MOERI=1 MOERIx=1 NAtoms=     5 NAtomX=     5.
 Discarding MO integrals.
 MO basis two electron integral derivatives will not be stored on disk.
 IAlg= 3 DoFC=T DoPWx=T Debug=F.
 Frozen-core window:  NFC=   4 NFV=   0.
 Reordered first order wavefunction length =     18678272
 In DefCFB: NBatch=  1 ICI= 16 ICA=191 LFMax= 96
            Large arrays: LIAPS=   619940160 LIARS=   288257200 words.
 In StABat: MaxSiz= 55 MinSiz= 25 NAtomB=  5
 DoIAMN: NPSUse= 28.
 Leave Link  811 at Mon Feb 21 20:59:12 2022, MaxMem= 16106127360 cpu:            2602.2 elap:              93.1
 (Enter /sw/contrib/gaussian/g16/B01/g16/l804.exe)
 Frozen-core window:  NFC=   4 NFV=   0.
 Closed-shell transformation, MDV= 16106127360 ITran=4 ISComp=1.
 Semi-Direct transformation.
 ModeAB=           2 MOrb=            16 LenV=   16104925835
 LASXX=     67341636 LTotXX=    67341636 LenRXX=    67341636
 LTotAB=    68301760 MaxLAS=    99807120 LenRXY=    99807120
 NonZer=   134683272 LenScr=   202817536 LnRSAI=           0
 LnScr1=           0 LExtra=           0 Total=    369966292
 MaxDsk=          -1 SrtSym=           F ITran=            4
 DoSDTr:  NPSUse= 28
 JobTyp=0 Pass  1:  I=   1 to  16.
 (rs|ai) integrals will be sorted in core.
 Complete sort for first half transformation.
 First half transformation complete.
 Begin second half transformation for I=  10.
 Begin second half transformation for I=  10.
 Complete sort for second half transformation.
 Second half transformation complete.
 SymMOI:  orbitals are not symmetric.
 Spin components of T(2) and E(2):
     alpha-alpha T2 =       0.3402575011D-01 E2=     -0.1224071145D+00
     alpha-beta  T2 =       0.1868519597D+00 E2=     -0.7002445728D+00
     beta-beta   T2 =       0.3402575011D-01 E2=     -0.1224071145D+00
 ANorm=    0.1584237015D+01
 E2 =    -0.9450588017D+00 EUMP2 =    -0.28044678009776D+03
 Leave Link  804 at Mon Feb 21 20:59:26 2022, MaxMem= 16106127360 cpu:             386.9 elap:              13.9
 (Enter /sw/contrib/gaussian/g16/B01/g16/l1002.exe)
 Minotr:  Closed shell wavefunction.
          Computing MP2/KS-MP2 derivatives.
          Using Z-Vector for PSCF gradient.
          Skipping F1 and S1 gradient terms here.
          IDoAtm=11111
          Frozen-core window.
          Using MO integrals in the linear equations.
          Forming densities via direct SCF.
          Differentiating once with respect to electric field.
                with respect to dipole field.
          Differentiating once with respect to nuclear coordinates.
          Requested convergence is 1.0D-10 RMS, and 1.0D-09 maximum.
          NewPWx=F KeepS1=T KeepF1=T KeepIn=T MapXYZ=F SortEE=F KeepMc=T.
          MDV=   16106127360 using IRadAn=       5.
          Solving linear equations separately, MaxMat=       0.
          There are     1 degrees of freedom in the 1st order CPHF.  IDoFFX=0 NUNeed=     1.
 FoFJK:  IHMeth= 1 ICntrl=       0 DoSepK=F KAlg= 0 I1Cent=           0 FoldK=F
 IRaf=         0 NMat=       1 IRICut=       1 DoRegI=T DoRafI=F ISym2E= 0 IDoP0=0 IntGTp=1.
 FoFCou: FMM=F IPFlag=           0 FMFlag=      100000 FMFlg1=           0
         NFxFlg=           0 DoJE=F BraDBF=F KetDBF=F FulRan=T
         wScrn=  0.000000 ICntrl=         0 IOpCl=  0 I1Cent=           0 NGrid=           0
         NMat0=    1 NMatS0=      1 NMatT0=    0 NMatD0=    1 NMtDS0=    0 NMtDT0=    0
 Symmetry not used in FoFCou.
 LinEq1:  Iter=  0 NonCon=     1 RMS=5.96D-03 Max=1.31D-01 NDo=     1
 LinEq1:  Iter=  1 NonCon=     1 RMS=1.90D-03 Max=3.80D-02 NDo=     1
 LinEq1:  Iter=  2 NonCon=     1 RMS=8.68D-04 Max=1.37D-02 NDo=     1
 LinEq1:  Iter=  3 NonCon=     1 RMS=3.86D-04 Max=7.74D-03 NDo=     1
 LinEq1:  Iter=  4 NonCon=     1 RMS=1.19D-04 Max=1.85D-03 NDo=     1
 LinEq1:  Iter=  5 NonCon=     1 RMS=4.55D-05 Max=7.19D-04 NDo=     1
 LinEq1:  Iter=  6 NonCon=     1 RMS=2.03D-05 Max=2.36D-04 NDo=     1
 LinEq1:  Iter=  7 NonCon=     1 RMS=8.18D-06 Max=1.59D-04 NDo=     1
 LinEq1:  Iter=  8 NonCon=     1 RMS=3.52D-06 Max=3.29D-05 NDo=     1
 LinEq1:  Iter=  9 NonCon=     1 RMS=9.91D-07 Max=1.43D-05 NDo=     1
 LinEq1:  Iter= 10 NonCon=     1 RMS=2.28D-07 Max=5.85D-06 NDo=     1
 LinEq1:  Iter= 11 NonCon=     1 RMS=6.52D-08 Max=1.99D-06 NDo=     1
 LinEq1:  Iter= 12 NonCon=     1 RMS=1.92D-08 Max=3.39D-07 NDo=     1
 LinEq1:  Iter= 13 NonCon=     1 RMS=3.81D-09 Max=4.18D-08 NDo=     1
 LinEq1:  Iter= 14 NonCon=     1 RMS=6.15D-10 Max=9.83D-09 NDo=     1
 LinEq1:  Iter= 15 NonCon=     1 RMS=1.26D-10 Max=2.10D-09 NDo=     1
 LinEq1:  Iter= 16 NonCon=     0 RMS=3.09D-11 Max=3.44D-10 NDo=     1
 Linear equations converged to 1.000D-10 1.000D-09 after    16 iterations.
 End of Minotr F.D. properties file   721 does not exist.
 End of Minotr F.D. properties file   722 does not exist.
 End of Minotr F.D. properties file   788 does not exist.
 Leave Link 1002 at Mon Feb 21 20:59:29 2022, MaxMem= 16106127360 cpu:              64.2 elap:               2.3
 (Enter /sw/contrib/gaussian/g16/B01/g16/l1102.exe)
 Use density number 2.
 Symmetrizing basis deriv contribution to polar:
 IMax=3 JMax=2 DiffMx= 0.00D+00
 Leave Link 1102 at Mon Feb 21 20:59:29 2022, MaxMem= 16106127360 cpu:               0.6 elap:               0.0
 (Enter /sw/contrib/gaussian/g16/B01/g16/l1110.exe)
 Forming Gx(P) for generalized density number  2 NAtomX=     5.
 Integral derivatives from FoFJK, PRISM(SPDF).
 Do as many integral derivatives as possible in FoFJK.
 G2DrvN: MDV=   16106126844.
 G2DrvN: will do     6 centers at a time, making    1 passes.
 Calling FoFCou, ICntrl=  3107 FMM=F I1Cent=   0 AccDes= 0.00D+00.
 FoFJK:  IHMeth= 1 ICntrl=    3107 DoSepK=F KAlg= 0 I1Cent=           0 FoldK=F
 IRaf=         0 NMat=       1 IRICut=       1 DoRegI=T DoRafI=F ISym2E= 0 IDoP0=0 IntGTp=1.
 FoFCou: FMM=F IPFlag=           0 FMFlag=      100000 FMFlg1=           0
         NFxFlg=           0 DoJE=F BraDBF=F KetDBF=F FulRan=T
         wScrn=  0.000000 ICntrl=      3107 IOpCl=  0 I1Cent=           0 NGrid=           0
         NMat0=    1 NMatS0=      1 NMatT0=    0 NMatD0=    1 NMtDS0=    0 NMtDT0=    0
 Symmetry not used in FoFCou.
 End of G2Drv F.D. properties file   721 does not exist.
 End of G2Drv F.D. properties file   722 does not exist.
 End of G2Drv F.D. properties file   788 does not exist.
 Leave Link 1110 at Mon Feb 21 20:59:32 2022, MaxMem= 16106127360 cpu:              84.1 elap:               3.0
 (Enter /sw/contrib/gaussian/g16/B01/g16/l1112.exe)
 MP22nd: MDV=   16106127360
 This link is doing NAtomX=     5 total of    18 degrees of freedom.
 Using ON3 I/O method in MakUI.
 Frozen-core window:  NFC=   4 NFV=   0.
 Using Ix for Sx.
 Use MO integrals over full window.
 Using OV2 memory method for fx*t*t/D, MaxI=    16 DoOO2=F NP=  28.
 R2 and R3 integrals will be kept in memory, NReq=   915591705.
 FoFCou: FMM=F IPFlag=           0 FMFlag=           0 FMFlg1=           0
         NFxFlg=           0 DoJE=F BraDBF=F KetDBF=F FulRan=T
         wScrn=  0.000000 ICntrl=       600 IOpCl=  0 I1Cent=           0 NGrid=           0
         NMat0=    1 NMatS0=      1 NMatT0=    0 NMatD0=    1 NMtDS0=    0 NMtDT0=    0
 Symmetry not used in FoFCou.
 DD1Dir will call FoFMem   1 times, MxPair=       272
 NAB=   136 NAA=     0 NBB=     0.
 Symmetry is being used.
 FoFJK:  IHMeth= 1 ICntrl=       0 DoSepK=F KAlg= 0 I1Cent=           0 FoldK=F
 IRaf=         0 NMat=      18 IRICut=      45 DoRegI=T DoRafI=T ISym2E= 2 IDoP0=3 IntGTp=3.
 Discarding MO integrals.
 Leave Link 1112 at Mon Feb 21 21:00:01 2022, MaxMem= 16106127360 cpu:             827.1 elap:              29.7
 (Enter /sw/contrib/gaussian/g16/B01/g16/l601.exe)
 Copying SCF densities to generalized density rwf, IOpCl= 0 IROHF=0.

 **********************************************************************

            Population analysis using the MP2 Density.

 **********************************************************************

 Orbital symmetries:
       Occupied  (A) (A) (A) (A) (A) (A) (A) (A) (A) (A) (A) (A)
                 (A) (A) (A) (A)
       Virtual   (A) (A) (A) (A) (A) (A) (A) (A) (A) (A) (A) (A)
                 (A) (A) (A) (A) (A) (A) (A) (A) (A) (A) (A) (A)
                 (A) (A) (A) (A) (A) (A) (A) (A) (A) (A) (A) (A)
                 (A) (A) (A) (A) (A) (A) (A) (A) (A) (A) (A) (A)
                 (A) (A) (A) (A) (A) (A) (A) (A) (A) (A) (A) (A)
                 (A) (A) (A) (A) (A) (A) (A) (A) (A) (A) (A) (A)
                 (A) (A) (A) (A) (A) (A) (A) (A) (A) (A) (A) (A)
                 (A) (A) (A) (A) (A) (A) (A) (A) (A) (A) (A) (A)
                 (A) (A) (A) (A) (A) (A) (A) (A) (A) (A) (A) (A)
                 (A) (A) (A) (A) (A) (A) (A) (A) (A) (A) (A) (A)
                 (A) (A) (A) (A) (A) (A) (A) (A) (A) (A) (A) (A)
                 (A) (A) (A) (A) (A) (A) (A) (A) (A) (A) (A) (A)
                 (A) (A) (A) (A) (A) (A) (A) (A) (A) (A) (A) (A)
                 (A) (A) (A) (A) (A) (A) (A) (A) (A) (A) (A) (A)
                 (A) (A) (A) (A) (A) (A) (A) (A) (A) (A) (A) (A)
                 (A) (A) (A) (A) (A) (A) (A) (A) (A) (A) (A)
 The electronic state is 1-A.
 Alpha  occ. eigenvalues --  -20.69093 -20.68429 -20.66002 -15.81280  -1.62403
 Alpha  occ. eigenvalues --   -1.49577  -1.25442  -0.94807  -0.77271  -0.75926
 Alpha  occ. eigenvalues --   -0.71210  -0.67921  -0.62029  -0.58926  -0.48573
 Alpha  occ. eigenvalues --   -0.47226
 Alpha virt. eigenvalues --    0.02961   0.07167   0.08594   0.10173   0.13321
 Alpha virt. eigenvalues --    0.13456   0.14403   0.15450   0.17822   0.19416
 Alpha virt. eigenvalues --    0.19964   0.20644   0.22081   0.23541   0.23734
 Alpha virt. eigenvalues --    0.26631   0.29319   0.30244   0.31109   0.34346
 Alpha virt. eigenvalues --    0.35102   0.38732   0.42057   0.43067   0.52725
 Alpha virt. eigenvalues --    0.52986   0.55853   0.58146   0.62596   0.63823
 Alpha virt. eigenvalues --    0.67425   0.68414   0.70656   0.71176   0.72203
 Alpha virt. eigenvalues --    0.73086   0.74567   0.78863   0.79386   0.81030
 Alpha virt. eigenvalues --    0.81313   0.83173   0.86805   0.90832   0.91925
 Alpha virt. eigenvalues --    0.92943   0.95629   0.97447   0.98668   1.01613
 Alpha virt. eigenvalues --    1.05439   1.05468   1.08274   1.11661   1.13649
 Alpha virt. eigenvalues --    1.19324   1.22019   1.23311   1.33826   1.35054
 Alpha virt. eigenvalues --    1.38700   1.45411   1.48930   1.50874   1.53775
 Alpha virt. eigenvalues --    1.56705   1.58003   1.61009   1.66490   1.66824
 Alpha virt. eigenvalues --    1.70410   1.79178   1.83071   1.83562   1.87912
 Alpha virt. eigenvalues --    1.90852   1.95615   1.98708   2.01426   2.07768
 Alpha virt. eigenvalues --    2.11920   2.13031   2.15200   2.22339   2.26113
 Alpha virt. eigenvalues --    2.26843   2.28889   2.31338   2.34390   2.38673
 Alpha virt. eigenvalues --    2.41361   2.44021   2.45402   2.46412   2.47608
 Alpha virt. eigenvalues --    2.50317   2.58957   2.59734   2.62007   2.62504
 Alpha virt. eigenvalues --    2.63576   2.66693   2.75523   2.82613   2.85244
 Alpha virt. eigenvalues --    2.88701   2.89465   2.92198   2.95881   3.02332
 Alpha virt. eigenvalues --    3.07106   3.12108   3.20465   3.22755   3.31637
 Alpha virt. eigenvalues --    3.34134   3.51603   3.64482   3.83802   3.84599
 Alpha virt. eigenvalues --    4.14338   4.16320   4.19126   4.25647   4.34757
 Alpha virt. eigenvalues --    4.39367   4.46740   4.52070   4.65844   4.71085
 Alpha virt. eigenvalues --    4.80483   4.82423   4.82793   4.89614   5.02302
 Alpha virt. eigenvalues --    5.07571   5.10283   5.14494   5.18056   5.24480
 Alpha virt. eigenvalues --    5.27194   5.30694   5.32972   5.35410   5.60450
 Alpha virt. eigenvalues --    5.67361   5.76701   5.83008   5.95642   6.16889
 Alpha virt. eigenvalues --    6.30984   6.33918   6.39371   6.49384   6.50530
 Alpha virt. eigenvalues --    6.61634   6.66338   6.70212   6.75315   6.76670
 Alpha virt. eigenvalues --    6.83342   6.89834   7.01292   7.05554   7.05729
 Alpha virt. eigenvalues --    7.09152   7.12524   7.14843   7.18418   7.22493
 Alpha virt. eigenvalues --    7.24064   7.30624   7.32395   7.35058   7.39713
 Alpha virt. eigenvalues --    7.43033   7.48515   7.60740   7.61821   7.62887
 Alpha virt. eigenvalues --    7.66838   7.78794   7.88599   8.09245   8.31385
 Alpha virt. eigenvalues --    8.40603   8.54332  13.38915  14.39554  15.16139
 Alpha virt. eigenvalues --   16.15171
          Condensed to atoms (all electrons):
               1          2          3          4          5
     1  H    0.589799   0.128400   0.020102   0.012144  -0.000634
     2  O    0.128400   8.321306  -0.173236  -0.090246   0.015376
     3  O    0.020102  -0.173236   8.468788  -0.129769  -0.038761
     4  N    0.012144  -0.090246  -0.129769   6.971393  -0.055339
     5  O   -0.000634   0.015376  -0.038761  -0.055339   8.272644
 Mulliken charges:
               1
     1  H    0.250189
     2  O   -0.201599
     3  O   -0.147123
     4  N    0.291818
     5  O   -0.193285
 Sum of Mulliken charges =  -0.00000
 Mulliken charges with hydrogens summed into heavy atoms:
               1
     2  O    0.048590
     3  O   -0.147123
     4  N    0.291818
     5  O   -0.193285
 APT charges:
               1
     1  H    0.298805
     2  O   -0.287900
     3  O   -0.495098
     4  N    0.876260
     5  O   -0.392066
 Sum of APT charges =  -0.00000
 APT charges with hydrogens summed into heavy atoms:
               1
     2  O    0.010905
     3  O   -0.495098
     4  N    0.876260
     5  O   -0.392066
 Electronic spatial extent (au):  <R**2>=            252.8778
 Charge=             -0.0000 electrons
 Dipole moment (field-independent basis, Debye):
    X=              1.2136    Y=              0.7855    Z=              0.1644  Tot=              1.4549
 Quadrupole moment (field-independent basis, Debye-Ang):
   XX=            -18.0193   YY=            -23.1014   ZZ=            -21.9889
   XY=              2.7739   XZ=              0.4341   YZ=              0.1339
 Traceless Quadrupole moment (field-independent basis, Debye-Ang):
   XX=              3.0173   YY=             -2.0649   ZZ=             -0.9524
   XY=              2.7739   XZ=              0.4341   YZ=              0.1339
 Octapole moment (field-independent basis, Debye-Ang**2):
  XXX=             18.1021  YYY=              1.7566  ZZZ=              0.0523  XYY=              1.0737
  XXY=              6.1486  XXZ=              1.0415  XZZ=             -1.7307  YZZ=              0.2576
  YYZ=              0.0220  XYZ=              0.2290
 Hexadecapole moment (field-independent basis, Debye-Ang**3):
 XXXX=           -190.3995 YYYY=            -41.0870 ZZZZ=            -18.2564 XXXY=             11.9980
 XXXZ=              2.6433 YYYX=              0.9931 YYYZ=              0.1239 ZZZX=              0.1572
 ZZZY=              0.0880 XXYY=            -42.4910 XXZZ=            -41.5584 YYZZ=             -9.8747
 XXYZ=              0.5443 YYXZ=              0.1164 ZZXY=              0.4897
 N-N= 1.168736628952D+02 E-N=-8.958578115441D+02  KE= 2.801975383764D+02
  Exact polarizability:  41.720   0.969  22.517   0.085   0.017  17.939
 Approx polarizability:  31.942  -1.138  20.571   0.075   0.062  15.537
 No NMR shielding tensors so no spin-rotation constants.
 Leave Link  601 at Mon Feb 21 21:00:02 2022, MaxMem= 16106127360 cpu:               5.6 elap:               0.2
 (Enter /sw/contrib/gaussian/g16/B01/g16/l701.exe)
 ... and contract with generalized density number  2.
 Compute integral second derivatives.
 Leave Link  701 at Mon Feb 21 21:00:02 2022, MaxMem= 16106127360 cpu:               5.4 elap:               0.2
 (Enter /sw/contrib/gaussian/g16/B01/g16/l702.exe)
 L702 exits ... SP integral derivatives will be done elsewhere.
 Leave Link  702 at Mon Feb 21 21:00:02 2022, MaxMem= 16106127360 cpu:               0.4 elap:               0.0
 (Enter /sw/contrib/gaussian/g16/B01/g16/l703.exe)
 Integral derivatives from FoFJK, PRISM(SPDF).
 Compute integral second derivatives, UseDBF=F ICtDFT=           0.
 Calling FoFJK, ICntrl=  10100127 FMM=F ISym2X=0 I1Cent= 0 IOpClX= 0 NMat=1 NMatS=1 NMatT=0.
 FoFJK:  IHMeth= 1 ICntrl=10100127 DoSepK=F KAlg= 0 I1Cent=           0 FoldK=F
 IRaf=         0 NMat=       1 IRICut=       1 DoRegI=T DoRafI=F ISym2E= 0 IDoP0=0 IntGTp=1.
 FoFCou: FMM=F IPFlag=           0 FMFlag=      100000 FMFlg1=         800
         NFxFlg=           0 DoJE=F BraDBF=F KetDBF=F FulRan=T
         wScrn=  0.000000 ICntrl=  10100127 IOpCl=  0 I1Cent=           0 NGrid=           0
         NMat0=    1 NMatS0=      1 NMatT0=    0 NMatD0=    1 NMtDS0=    0 NMtDT0=    0
 Symmetry not used in FoFCou.
 Leave Link  703 at Mon Feb 21 21:00:17 2022, MaxMem= 16106127360 cpu:             425.3 elap:              15.2
 (Enter /sw/contrib/gaussian/g16/B01/g16/l716.exe)
 Dipole        = 4.77449347D-01 3.09025863D-01 6.46909447D-02
 Polarizability= 4.17204798D+01 9.68874549D-01 2.25165573D+01
                 8.54022474D-02 1.66185756D-02 1.79388512D+01
 Full mass-weighted force constant matrix:
 Low frequencies --- -266.1352   -3.8248   -0.0004    0.0002    0.0006    2.5231
 Low frequencies ---    8.6975  228.7546  341.8754
 ******    1 imaginary frequencies (negative Signs) ****** 
 Diagonal vibrational polarizability:
       34.8444582       4.8346844      47.2485699
 Harmonic frequencies (cm**-1), IR intensities (KM/Mole), Raman scattering
 activities (A**4/AMU), depolarization ratios for plane and unpolarized
 incident light, reduced masses (AMU), force constants (mDyne/A),
 and normal coordinates:
                      1                      2                      3
                      A                      A                      A
 Frequencies --   -266.1352               228.7453               341.8742
 Red. masses --      1.1397                10.5502                 8.6234
 Frc consts  --      0.0476                 0.3252                 0.5938
 IR Inten    --    124.9990                 0.8021                 4.7020
  Atom  AN      X      Y      Z        X      Y      Z        X      Y      Z
     1   1    -0.05  -0.08   0.99     0.05  -0.02  -0.57     0.17  -0.67   0.03
     2   8     0.00   0.01  -0.06    -0.01  -0.00  -0.31    -0.30  -0.25   0.01
     3   8     0.00  -0.00  -0.04     0.00   0.01   0.33     0.14   0.43  -0.01
     4   7    -0.00  -0.00   0.06     0.00   0.01   0.53     0.19   0.18  -0.00
     5   8    -0.00   0.00  -0.01    -0.00  -0.01  -0.44    -0.02  -0.30   0.01
                      4                      5                      6
                      A                      A                      A
 Frequencies --    452.0410               785.5975               966.9347
 Red. masses --     12.2679                12.9284                15.3757
 Frc consts  --      1.4770                 4.7011                 8.4699
 IR Inten    --    198.6951               170.3823                23.0774
  Atom  AN      X      Y      Z        X      Y      Z        X      Y      Z
     1   1    -0.45   0.08   0.06    -0.16   0.35   0.05    -0.15   0.07  -0.05
     2   8    -0.38   0.03  -0.00     0.39  -0.18  -0.01    -0.40   0.33   0.00
     3   8    -0.40  -0.25   0.00    -0.21  -0.18   0.00     0.59  -0.46   0.00
     4   7     0.52   0.12  -0.00     0.26   0.58  -0.00     0.05   0.27  -0.01
     5   8     0.35   0.11  -0.00    -0.39  -0.17   0.00    -0.22  -0.11   0.00
                      7                      8                      9
                      A                      A                      A
 Frequencies --   1371.4206              1677.3073              3778.5236
 Red. masses --      1.1328                13.2253                 1.0676
 Frc consts  --      1.2553                21.9220                 8.9802
 IR Inten    --    152.1474               140.6651                82.2676
  Atom  AN      X      Y      Z        X      Y      Z        X      Y      Z
     1   1     0.77  -0.63  -0.01     0.27  -0.21  -0.01     0.67   0.73   0.10
     2   8     0.01   0.06   0.01     0.03   0.03   0.00    -0.04  -0.05  -0.01
     3   8    -0.05  -0.03  -0.00    -0.09  -0.12   0.00     0.00  -0.00  -0.00
     4   7     0.02  -0.00  -0.00    -0.54   0.46  -0.00    -0.00  -0.00   0.00
     5   8    -0.03   0.01   0.00     0.52  -0.30   0.00     0.00  -0.00  -0.00

 -------------------
 - Thermochemistry -
 -------------------
 Temperature   298.150 Kelvin.  Pressure   1.00000 Atm.
 Atom     1 has atomic number  1 and mass   1.00783
 Atom     2 has atomic number  8 and mass  15.99491
 Atom     3 has atomic number  8 and mass  15.99491
 Atom     4 has atomic number  7 and mass  14.00307
 Atom     5 has atomic number  8 and mass  15.99491
 Molecular mass:    62.99564 amu.
 Principal axes and moments of inertia in atomic units:
                           1         2         3
     Eigenvalues --    32.86090 360.13238 392.92277
           X            0.99994   0.01062   0.00198
           Y           -0.01063   0.99993   0.00431
           Z           -0.00194  -0.00433   0.99999
 This molecule is an asymmetric top.
 Rotational symmetry number  1.
 Rotational temperatures (Kelvin)      2.63577     0.24051     0.22043
 Rotational constants (GHZ):          54.92062     5.01133     4.59312
    1 imaginary frequencies ignored.
 Zero-point vibrational energy      57435.4 (Joules/Mol)
                                   13.72738 (Kcal/Mol)
 Warning -- explicit consideration of   3 degrees of freedom as
           vibrations may cause significant error
 Vibrational temperatures:    329.11   491.88   650.39  1130.30  1391.20
          (Kelvin)           1973.17  2413.27  5436.45
 
 Zero-point correction=                           0.021876 (Hartree/Particle)
 Thermal correction to Energy=                    0.025993
 Thermal correction to Enthalpy=                  0.026937
 Thermal correction to Gibbs Free Energy=        -0.004246
 Sum of electronic and zero-point Energies=           -280.424904
 Sum of electronic and thermal Energies=              -280.420787
 Sum of electronic and thermal Enthalpies=            -280.419843
 Sum of electronic and thermal Free Energies=         -280.451026
 
                     E (Thermal)             CV                S
                      KCal/Mol        Cal/Mol-Kelvin    Cal/Mol-Kelvin
 Total                   16.311             11.953             65.631
 Electronic               0.000              0.000              0.000
 Translational            0.889              2.981             38.341
 Rotational               0.889              2.981             23.057
 Vibrational             14.534              5.991              4.234
 Vibration     1          0.651              1.797              1.889
 Vibration     2          0.721              1.592              1.203
 Vibration     3          0.811              1.356              0.790
                       Q            Log10(Q)             Ln(Q)
 Total Bot       0.897629D+02          1.953097          4.497172
 Total V=0       0.103595D+13         12.015339         27.666341
 Vib (Bot)       0.187114D-09         -9.727893        -22.399301
 Vib (Bot)    1  0.861508D+00         -0.064741         -0.149071
 Vib (Bot)    2  0.542493D+00         -0.265606         -0.611580
 Vib (Bot)    3  0.378733D+00         -0.421667         -0.970925
 Vib (V=0)       0.215948D+01          0.334349          0.769868
 Vib (V=0)    1  0.149609D+01          0.174958          0.402855
 Vib (V=0)    2  0.123777D+01          0.092639          0.213308
 Vib (V=0)    3  0.112725D+01          0.052019          0.119778
 Electronic      0.100000D+01          0.000000          0.000000
 Translational   0.196526D+08          7.293420         16.793719
 Rotational      0.244101D+05          4.387570         10.102753
 
                                                                title
                                                             IR Spectrum
 
      3                                                                     1         1                                              
      7                                                                     6         3             9     7          4   3   2       
      7                                                                     7         7             6     8          5   4   2       
      9                                                                     7         1             7     6          2   2   9       
 
      X                                                                     X         X             X     X          X   X   X       
      X                                                                     X         X             X     X          X               
      X                                                                     X         X                   X          X               
      X                                                                     X         X                   X          X               
      X                                                                     X         X                   X          X               
      X                                                                     X         X                   X          X               
      X                                                                     X         X                   X          X               
      X                                                                     X         X                   X          X               
                                                                            X         X                   X          X               
                                                                            X         X                   X          X               
                                                                            X         X                   X          X               
                                                                            X         X                   X          X               
                                                                            X         X                   X          X               
                                                                            X         X                   X          X               
                                                                                      X                   X          X               
                                                                                                          X          X               
                                                                                                          X          X               
                                                                                                                     X               
                                                                                                                     X               
                                                                                                                     X               
 
 ***** Axes restored to original set *****
 -------------------------------------------------------------------
 Center     Atomic                   Forces (Hartrees/Bohr)
 Number     Number              X              Y              Z
 -------------------------------------------------------------------
      1        1           0.000020062   -0.000458947    0.000002971
      2        8           0.000303617    0.000593220    0.000027506
      3        8          -0.000353640    0.000191874    0.000005685
      4        7          -0.000358328   -0.000522214   -0.000144083
      5        8           0.000388288    0.000196067    0.000107922
 -------------------------------------------------------------------
 Cartesian Forces:  Max     0.000593220 RMS     0.000309895
 -----------------------------------------------------------------------------------------------
                       Internal Coordinate Forces (Hartree/Bohr or radian)
  Cent   Atom   N1       Length/X         N2         Alpha/Y        N3         Beta/Z          J
 -----------------------------------------------------------------------------------------------
      1  H 
      2  O        1  -0.000003(     1)
      3  O        2  -0.000325(     2)      1  -0.000037(     5)
      4  N        3   0.000001(     3)      2   0.000099(     6)      1   0.000832(     8)     0
      5  O        4   0.000400(     4)      3  -0.000029(     7)      2   0.000420(     9)     0
 -----------------------------------------------------------------------------------------------
 Internal  Forces:  Max     0.000832482 RMS     0.000357050
 Force constants in Cartesian coordinates: 
                1             2             3             4             5 
      1  0.646707D-01
      2 -0.514350D-03 -0.228688D-02
      3  0.525697D-02  0.259169D-03  0.512306D+00
      4 -0.357482D-01  0.141425D-02 -0.162197D-01  0.272519D+00
      5  0.210937D-03  0.300966D-02 -0.407288D-03 -0.317291D-02  0.254405D-02
      6  0.482795D-01 -0.100646D-02 -0.508553D+00  0.334596D-01 -0.288526D-02
      7 -0.184844D-01 -0.163995D-02  0.124750D-01 -0.219843D+00 -0.199498D-02
      8  0.761550D-03  0.988696D-03 -0.189530D-03  0.123534D-02 -0.700197D-02
      9 -0.531089D-01  0.637051D-04 -0.435113D-03 -0.194120D-01  0.280308D-02
     10 -0.918967D-02  0.589558D-03 -0.484368D-02 -0.173017D-01  0.481639D-02
     11 -0.134121D-02 -0.270077D-02  0.400359D-03  0.243760D-03 -0.464230D-02
     12  0.522936D-02  0.437893D-03 -0.472404D-02  0.115517D-01 -0.194776D-02
     13 -0.124850D-02  0.150491D-03  0.333145D-02  0.373657D-03  0.140564D-03
     14  0.883071D-03  0.989294D-03 -0.627098D-04  0.279562D-03  0.609056D-02
     15 -0.565685D-02  0.245693D-03  0.140638D-02 -0.937964D-02  0.243722D-02
                6             7             8             9            10 
      6  0.594380D+00
      7 -0.213794D-01  0.341263D+00
      8  0.449688D-02  0.333501D-02  0.584346D-02
      9 -0.782756D-01  0.361992D-01 -0.144734D-01  0.179664D+00
     10 -0.522295D-01 -0.778878D-01 -0.198942D-01  0.173716D+00  0.828377D+00
     11 -0.402719D-02 -0.944758D-02  0.713596D-02  0.123227D-01  0.140529D-01
     12  0.167704D-01  0.625144D-01  0.983694D-02 -0.806492D-01 -0.168794D-01
     13 -0.813015D-02 -0.250478D-01  0.145623D-01 -0.137394D+00 -0.723998D+00
     14  0.342203D-02  0.974749D-02 -0.696615D-02 -0.716151D-03  0.435396D-03
     15 -0.243210D-01 -0.898091D-01  0.329088D-03 -0.203044D-01 -0.997635D-01
               11            12            13            14            15 
     11  0.107849D-01
     12 -0.188860D-01  0.184738D+00
     13 -0.350788D-02 -0.624161D-01  0.749921D+00
     14 -0.105778D-01  0.105590D-01 -0.113455D-01  0.104641D-01
     15  0.101901D-01 -0.116135D+00  0.204609D+00 -0.132021D-01  0.159354D+00
 Force constants in internal coordinates: 
                1             2             3             4             5 
      1  0.512306D+00
      2 -0.103705D-01  0.281162D+00
      3  0.344845D-02  0.263389D-02  0.117272D+00
      4 -0.357637D-02  0.591245D-02  0.152979D+00  0.812106D+00
      5  0.964604D-02  0.654521D-01  0.226888D-02  0.479849D-02  0.216833D+00
      6  0.458205D-02  0.592788D-01  0.410387D-01  0.219072D-01  0.311807D-01
      7 -0.118790D-02  0.377625D-01  0.320896D-01  0.847167D-01  0.212027D-01
      8  0.154933D-04  0.143972D-02 -0.166901D-02 -0.352158D-03 -0.159934D-02
      9 -0.852037D-04  0.654306D-03 -0.658495D-05 -0.447159D-04 -0.110977D-02
                6             7             8             9 
      6  0.283321D+00
      7  0.958874D-01  0.482631D+00
      8 -0.284149D-02 -0.374907D-03 -0.753413D-02
      9 -0.251821D-04  0.252441D-03 -0.382381D-02  0.410566D-01
 Leave Link  716 at Mon Feb 21 21:00:17 2022, MaxMem= 16106127360 cpu:               1.4 elap:               0.1
 (Enter /sw/contrib/gaussian/g16/B01/g16/l103.exe)

 GradGradGradGradGradGradGradGradGradGradGradGradGradGradGradGradGradGrad
 Berny optimization.
 Search for a local minimum.
 Step number   1 out of a maximum of    2
 All quantities printed in internal units (Hartrees-Bohrs-Radians)
 Second derivative matrix not updated -- analytic derivatives used.
 The second derivative matrix:
                          r1        r2        r3        r4        a1
           r1           0.51231
           r2          -0.01037   0.28116
           r3           0.00345   0.00263   0.11727
           r4          -0.00358   0.00591   0.15298   0.81211
           a1           0.00965   0.06545   0.00227   0.00480   0.21683
           a2           0.00458   0.05928   0.04104   0.02191   0.03118
           a3          -0.00119   0.03776   0.03209   0.08472   0.02120
           d1           0.00002   0.00144  -0.00167  -0.00035  -0.00160
           d2          -0.00009   0.00065  -0.00001  -0.00004  -0.00111
                          a2        a3        d1        d2
           a2           0.28332
           a3           0.09589   0.48263
           d1          -0.00284  -0.00037  -0.00753
           d2          -0.00003   0.00025  -0.00382   0.04106
 ITU=  0
     Eigenvalues ---   -0.00791   0.04135   0.07838   0.17524   0.22564
     Eigenvalues ---    0.32517   0.51294   0.51735   0.87100
 Eigenvalue     1 is  -7.91D-03 should be greater than     0.000000 Eigenvector:
                          d1        d2        r3        a2        r2
   1                    0.99673   0.07817   0.01322   0.00935  -0.00899
                          a1        r4        a3        r1
   1                    0.00886  -0.00214  -0.00129  -0.00055
 Angle between quadratic step and forces=  33.09 degrees.
 Linear search not attempted -- first point.
 Variable       Old X    -DE/DX   Delta X   Delta X   Delta X     New X
                                 (Linear)    (Quad)   (Total)
    r1        1.83110  -0.00000   0.00000  -0.00009  -0.00009   1.83101
    r2        2.74940  -0.00032   0.00000  -0.00230  -0.00230   2.74710
    r3        2.75670   0.00000   0.00000   0.00020   0.00020   2.75690
    r4        2.21236   0.00040   0.00000   0.00050   0.00050   2.21286
    a1        1.70335  -0.00004   0.00000   0.00111   0.00111   1.70446
    a2        1.78543   0.00010   0.00000   0.00178   0.00178   1.78721
    a3        1.90362  -0.00003   0.00000  -0.00030  -0.00030   1.90332
    d1        3.24990   0.00083   0.00000   0.10838   0.10838   3.35828
    d2        3.14159   0.00042   0.00000   0.01710   0.01710   3.15869
         Item               Value     Threshold  Converged?
 Maximum Force            0.000832     0.000450     NO 
 RMS     Force            0.000357     0.000300     NO 
 Maximum Displacement     0.108381     0.001800     NO 
 RMS     Displacement     0.036589     0.001200     NO 
 Predicted change in Energy=-1.439275D-04
                       ----------------------------
                       ! Non-Optimized Parameters !
                       ! (Angstroms and Degrees)  !
 ----------------------                            ----------------------
 !      Name          Value   Derivative information (Atomic Units)     !
 ------------------------------------------------------------------------
 !       r1          0.9689   -DE/DX =    0.0                           !
 !       r2          1.4537   -DE/DX =   -0.0003                        !
 !       r3          1.4589   -DE/DX =    0.0                           !
 !       r4          1.171    -DE/DX =    0.0004                        !
 !       a1         97.6583   -DE/DX =    0.0                           !
 !       a2        102.3993   -DE/DX =    0.0001                        !
 !       a3        109.0522   -DE/DX =    0.0                           !
 !       d1        192.4152   -DE/DX =    0.0008                        !
 !       d2        180.9799   -DE/DX =    0.0004                        !
 ------------------------------------------------------------------------
 GradGradGradGradGradGradGradGradGradGradGradGradGradGradGradGradGradGrad

 Leave Link  103 at Mon Feb 21 21:00:17 2022, MaxMem= 16106127360 cpu:               0.5 elap:               0.0
 (Enter /sw/contrib/gaussian/g16/B01/g16/l9999.exe)

 ----------------------------------------------------------------------

 Electric dipole moment (input orientation):
 (Debye = 10**-18 statcoulomb cm , SI units = C m)
                  (au)            (Debye)         (10**-30 SI)
   Tot        0.572398D+00      0.145489D+01      0.485299D+01
   x         -0.146506D+00     -0.372381D+00     -0.124213D+01
   y         -0.126341D-01     -0.321126D-01     -0.107116D+00
   z         -0.553187D+00     -0.140606D+01     -0.469012D+01

 Dipole polarizability, Alpha (input orientation).
 (esu units = cm**3 , SI units = C**2 m**2 J**-1)
 Alpha(0;0):
               (au)            (10**-24 esu)      (10**-40 SI)
   iso        0.273920D+02      0.405907D+01      0.451632D+01
   aniso      0.219202D+02      0.324824D+01      0.361415D+01
   xx         0.321276D+02      0.476083D+01      0.529713D+01
   yx        -0.728075D+00     -0.107890D+00     -0.120043D+00
   yy         0.180413D+02      0.267344D+01      0.297460D+01
   zx         0.962413D+01      0.142615D+01      0.158680D+01
   zy        -0.119602D+01     -0.177232D+00     -0.197197D+00
   zz         0.320070D+02      0.474295D+01      0.527724D+01

 ----------------------------------------------------------------------

 Dipole orientation:
     1          0.00000000          0.00000000          0.00000000
     8         -0.46867174          0.04041631         -1.76964256
     8          2.07280701          0.05626649         -2.81837015
     7          1.59493211          0.40828972         -5.51041827
     8          3.52686012          0.45472294         -6.58746105

 Electric dipole moment (dipole orientation):
 (Debye = 10**-18 statcoulomb cm , SI units = C m)
                  (au)            (Debye)         (10**-30 SI)
   Tot        0.572398D+00      0.145489D+01      0.485299D+01
   x          0.000000D+00      0.000000D+00      0.000000D+00
   y          0.000000D+00      0.000000D+00      0.000000D+00
   z          0.572398D+00      0.145489D+01      0.485299D+01

 Dipole polarizability, Alpha (dipole orientation).
 (esu units = cm**3 , SI units = C**2 m**2 J**-1)
 Alpha(0;0):
               (au)            (10**-24 esu)      (10**-40 SI)
   iso        0.273920D+02      0.405907D+01      0.451632D+01
   aniso      0.219202D+02      0.324824D+01      0.361415D+01
   xx         0.273594D+02      0.405425D+01      0.451096D+01
   yx         0.556176D+00      0.824167D-01      0.917010D-01
   yy         0.181064D+02      0.268309D+01      0.298534D+01
   zx        -0.838659D+01     -0.124276D+01     -0.138276D+01
   zy        -0.173063D+01     -0.256452D+00     -0.285342D+00
   zz         0.367101D+02      0.543988D+01      0.605268D+01

 ----------------------------------------------------------------------
 1\1\GINC-N2228\Freq\RMP2-FC\Aug-CC-pVTZ\H1N1O3\CGAVINH\21-Feb-2022\1\\
 #p freq mp2/aug-cc-pvtz density=current\\title\\0,1\H\O,1,r1\O,2,r2,1,
 a1\N,3,r3,2,a2,1,d1,0\O,4,r4,3,a3,2,d2,0\\r1=0.96897556\r2=1.45491931\
 r3=1.45878406\r4=1.17072885\a1=97.59494903\a2=102.29752444\a3=109.0695
 5123\d1=186.20541358\d2=180.\\Version=ES64L-G16RevB.01\State=1-A\HF=-2
 79.5017213\MP2=-280.4467801\RMSD=7.527e-09\RMSF=3.099e-04\ZeroPoint=0.
 021876\Thermal=0.0259932\Dipole=-0.146506,-0.0126341,-0.5531873\Dipole
 Deriv=0.2661505,0.0009395,0.0481992,0.0010918,0.3551544,0.0010861,0.08
 19379,-0.0046882,0.27511,-0.327901,0.0095058,-0.206341,-0.0072484,-0.3
 137505,-0.0029031,-0.1115574,0.007549,-0.2220491,-0.0469007,-0.0093666
 ,0.1468278,0.0881095,-0.0994226,0.1343893,-0.747767,0.1165442,-1.33897
 2,0.8959588,-0.0833323,0.9055552,-0.0843397,0.0808369,-0.154598,0.9191
 95,-0.1528093,1.6519847,-0.7873076,0.0822536,-0.8942413,0.0023867,-0.0
 228181,0.0220257,-0.1418086,0.0334043,-0.3660736\Polar=32.1276428,-0.7
 280754,18.0412523,9.6241314,-1.1960176,32.0069931\Quadrupole=-1.509341
 6,-0.7374133,2.246755,-0.0395682,2.0917266,0.0253263\PG=C01 [X(H1N1O3)
 ]\NImag=1\\0.06467074,-0.00051435,-0.00228688,0.00525697,0.00025917,0.
 51230624,-0.03574821,0.00141425,-0.01621969,0.27251932,0.00021094,0.00
 300966,-0.00040729,-0.00317291,0.00254405,0.04827945,-0.00100646,-0.50
 855347,0.03345960,-0.00288526,0.59437958,-0.01848436,-0.00163995,0.012
 47496,-0.21984310,-0.00199498,-0.02137942,0.34126307,0.00076155,0.0009
 8870,-0.00018953,0.00123534,-0.00700197,0.00449688,0.00333501,0.005843
 46,-0.05310894,0.00006371,-0.00043511,-0.01941202,0.00280308,-0.078275
 55,0.03619918,-0.01447338,0.17966426,-0.00918967,0.00058956,-0.0048436
 8,-0.01730166,0.00481639,-0.05222949,-0.07788781,-0.01989425,0.1737161
 1,0.82837740,-0.00134121,-0.00270077,0.00040036,0.00024376,-0.00464230
 ,-0.00402719,-0.00944758,0.00713596,0.01232274,0.01405290,0.01078488,0
 .00522936,0.00043789,-0.00472404,0.01155175,-0.00194776,0.01677043,0.0
 6251439,0.00983694,-0.08064918,-0.01687945,-0.01888604,0.18473786,-0.0
 0124850,0.00015049,0.00333145,0.00037366,0.00014056,-0.00813015,-0.025
 04780,0.01456234,-0.13739434,-0.72399825,-0.00350788,-0.06241605,0.749
 92090,0.00088307,0.00098929,-0.00006271,0.00027956,0.00609056,0.003422
 03,0.00974749,-0.00696615,-0.00071615,0.00043540,-0.01057778,0.0105589
 6,-0.01134552,0.01046407,-0.00565685,0.00024569,0.00140638,-0.00937964
 ,0.00243722,-0.02432099,-0.08980911,0.00032909,-0.02030441,-0.09976349
 ,0.01019013,-0.11613507,0.20460909,-0.01320214,0.15935409\\-0.00002006
 ,0.00045895,-0.00000297,-0.00030362,-0.00059322,-0.00002751,0.00035364
 ,-0.00019187,-0.00000568,0.00035833,0.00052221,0.00014408,-0.00038829,
 -0.00019607,-0.00010792\\\@


 LOVE IS BLIND, THAT'S WHY ALL THE WORLD LOVES A LOUVER.
 Job cpu time:       0 days  2 hours  3 minutes 20.6 seconds.
 Elapsed time:       0 days  0 hours  4 minutes 30.8 seconds.
 File lengths (MBytes):  RWF=   7239 Int=      0 D2E=      0 Chk=      8 Scr=      1
 Normal termination of Gaussian 16 at Mon Feb 21 21:00:18 2022.
