 Entering Gaussian System, Link 0=g16
 Input=hoono_r2_1p443254.gjf
 Output=hoono_r2_1p443254.log
 Initial command:
 /sw/contrib/gaussian/g16/B01/g16/l1.exe "/scr/Gau-15262.inp" -scrdir="/scr/"
 Entering Link 1 = /sw/contrib/gaussian/g16/B01/g16/l1.exe PID=     15263.
  
 Copyright (c) 1988-2017, Gaussian, Inc.  All Rights Reserved.
  
 This is part of the Gaussian(R) 16 program.  It is based on
 the Gaussian(R) 09 system (copyright 2009, Gaussian, Inc.),
 the Gaussian(R) 03 system (copyright 2003, Gaussian, Inc.),
 the Gaussian(R) 98 system (copyright 1998, Gaussian, Inc.),
 the Gaussian(R) 94 system (copyright 1995, Gaussian, Inc.),
 the Gaussian 92(TM) system (copyright 1992, Gaussian, Inc.),
 the Gaussian 90(TM) system (copyright 1990, Gaussian, Inc.),
 the Gaussian 88(TM) system (copyright 1988, Gaussian, Inc.),
 the Gaussian 86(TM) system (copyright 1986, Carnegie Mellon
 University), and the Gaussian 82(TM) system (copyright 1983,
 Carnegie Mellon University). Gaussian is a federally registered
 trademark of Gaussian, Inc.
  
 This software contains proprietary and confidential information,
 including trade secrets, belonging to Gaussian, Inc.
  
 This software is provided under written license and may be
 used, copied, transmitted, or stored only in accord with that
 written license.
  
 The following legend is applicable only to US Government
 contracts under FAR:
  
                    RESTRICTED RIGHTS LEGEND
  
 Use, reproduction and disclosure by the US Government is
 subject to restrictions as set forth in subparagraphs (a)
 and (c) of the Commercial Computer Software - Restricted
 Rights clause in FAR 52.227-19.
  
 Gaussian, Inc.
 340 Quinnipiac St., Bldg. 40, Wallingford CT 06492
  
  
 ---------------------------------------------------------------
 Warning -- This program may not be used in any manner that
 competes with the business of Gaussian, Inc. or will provide
 assistance to any competitor of Gaussian, Inc.  The licensee
 of this program is prohibited from giving any competitor of
 Gaussian, Inc. access to this program.  By using this program,
 the user acknowledges that Gaussian, Inc. is engaged in the
 business of creating and licensing software in the field of
 computational chemistry and represents and warrants to the
 licensee that it is not a competitor of Gaussian, Inc. and that
 it will not use this program in any manner prohibited above.
 ---------------------------------------------------------------
  

 Cite this work as:
 Gaussian 16, Revision B.01,
 M. J. Frisch, G. W. Trucks, H. B. Schlegel, G. E. Scuseria, 
 M. A. Robb, J. R. Cheeseman, G. Scalmani, V. Barone, 
 G. A. Petersson, H. Nakatsuji, X. Li, M. Caricato, A. V. Marenich, 
 J. Bloino, B. G. Janesko, R. Gomperts, B. Mennucci, H. P. Hratchian, 
 J. V. Ortiz, A. F. Izmaylov, J. L. Sonnenberg, D. Williams-Young, 
 F. Ding, F. Lipparini, F. Egidi, J. Goings, B. Peng, A. Petrone, 
 T. Henderson, D. Ranasinghe, V. G. Zakrzewski, J. Gao, N. Rega, 
 G. Zheng, W. Liang, M. Hada, M. Ehara, K. Toyota, R. Fukuda, 
 J. Hasegawa, M. Ishida, T. Nakajima, Y. Honda, O. Kitao, H. Nakai, 
 T. Vreven, K. Throssell, J. A. Montgomery, Jr., J. E. Peralta, 
 F. Ogliaro, M. J. Bearpark, J. J. Heyd, E. N. Brothers, K. N. Kudin, 
 V. N. Staroverov, T. A. Keith, R. Kobayashi, J. Normand, 
 K. Raghavachari, A. P. Rendell, J. C. Burant, S. S. Iyengar, 
 J. Tomasi, M. Cossi, J. M. Millam, M. Klene, C. Adamo, R. Cammi, 
 J. W. Ochterski, R. L. Martin, K. Morokuma, O. Farkas, 
 J. B. Foresman, and D. J. Fox, Gaussian, Inc., Wallingford CT, 2016.
 
 ******************************************
 Gaussian 16:  ES64L-G16RevB.01 20-Dec-2017
                21-Feb-2022 
 ******************************************
 %nproc=28
 Will use up to   28 processors via shared memory.
 %mem=120GB
 %chk=hoono_r2_1p443254.chk
 ---------------------------------------
 #p freq mp2/aug-cc-pvtz density=current
 ---------------------------------------
 1/10=4,30=1,38=1/1,3;
 2/12=2,17=6,18=5,40=1/2;
 3/5=16,6=1,7=10,11=9,25=1,30=1,71=2,140=1/1,2,3;
 4//1;
 5/5=2,38=5,98=1/2;
 8/6=3,8=1,10=1,19=11,30=-1/1;
 9/15=3,16=-3/6;
 11/6=1,8=1,15=11,17=12,24=-1,27=1,28=-2,29=300,32=6,42=3/1,2,10;
 10/6=2,21=1/2;
 8/6=4,8=1,10=1,19=11,30=-1/11,4;
 10/5=1,20=4/2;
 11/12=2,14=11,16=1,17=2,28=-2,42=3,76=2/2,10,12;
 6/7=2,8=2,9=2,10=2,22=-1/1;
 7/8=1,10=1,12=2,25=1,44=2/1,2,3,16;
 1/10=4,30=1/3;
 99//99;
 Leave Link    1 at Mon Feb 21 20:10:38 2022, MaxMem= 16106127360 cpu:               2.4 elap:               0.1
 (Enter /sw/contrib/gaussian/g16/B01/g16/l101.exe)
 -----
 title
 -----
 Symbolic Z-matrix:
 Charge =  0 Multiplicity = 1
 H
 O                    1    r1
 O                    2    r2       1    a1
 N                    3    r3       2    a2       1    d1       0
 O                    4    r4       3    a3       2    d2       0
       Variables:
  r1                    0.96898                  
  r2                    1.44325                  
  r3                    1.45878                  
  r4                    1.17073                  
  a1                   97.59495                  
  a2                  102.29752                  
  a3                  109.06955                  
  d1                  180.                       
  d2                  180.                       
 
 ITRead=  0  0  0  0  0
 MicOpt= -1 -1 -1 -1 -1
 NAtoms=      5 NQM=        5 NQMF=       0 NMMI=      0 NMMIF=      0
                NMic=       0 NMicF=      0.
                    Isotopes and Nuclear Properties:
 (Nuclear quadrupole moments (NQMom) in fm**2, nuclear magnetic moments (NMagM)
  in nuclear magnetons)

  Atom         1           2           3           4           5
 IAtWgt=           1          16          16          14          16
 AtmWgt=   1.0078250  15.9949146  15.9949146  14.0030740  15.9949146
 NucSpn=           1           0           0           2           0
 AtZEff=  -0.0000000  -0.0000000  -0.0000000  -0.0000000  -0.0000000
 NQMom=    0.0000000   0.0000000   0.0000000   2.0440000   0.0000000
 NMagM=    2.7928460   0.0000000   0.0000000   0.4037610   0.0000000
 AtZNuc=   1.0000000   8.0000000   8.0000000   7.0000000   8.0000000
 Leave Link  101 at Mon Feb 21 20:10:38 2022, MaxMem= 16106127360 cpu:               2.5 elap:               0.1
 (Enter /sw/contrib/gaussian/g16/B01/g16/l103.exe)

 GradGradGradGradGradGradGradGradGradGradGradGradGradGradGradGradGradGrad
 Berny optimization.
 Initialization pass.
                       ----------------------------
                       !    Initial Parameters    !
                       ! (Angstroms and Degrees)  !
 ----------------------                            ----------------------
 !      Name          Value   Derivative information (Atomic Units)     !
 ------------------------------------------------------------------------
 !       r1          0.969    calculate D2E/DX2 analytically            !
 !       r2          1.4433   calculate D2E/DX2 analytically            !
 !       r3          1.4588   calculate D2E/DX2 analytically            !
 !       r4          1.1707   calculate D2E/DX2 analytically            !
 !       a1         97.5949   calculate D2E/DX2 analytically            !
 !       a2        102.2975   calculate D2E/DX2 analytically            !
 !       a3        109.0696   calculate D2E/DX2 analytically            !
 !       d1        180.0      calculate D2E/DX2 analytically            !
 !       d2        180.0      calculate D2E/DX2 analytically            !
 ------------------------------------------------------------------------
 Trust Radius=3.00D-01 FncErr=1.00D-07 GrdErr=1.00D-07 EigMax=2.50D+02 EigMin=1.00D-04
 Number of steps in this run=      2 maximum allowed number of steps=      2.
 GradGradGradGradGradGradGradGradGradGradGradGradGradGradGradGradGradGrad

 Leave Link  103 at Mon Feb 21 20:10:38 2022, MaxMem= 16106127360 cpu:               1.5 elap:               0.1
 (Enter /sw/contrib/gaussian/g16/B01/g16/l202.exe)
                          Input orientation:                          
 ---------------------------------------------------------------------
 Center     Atomic      Atomic             Coordinates (Angstroms)
 Number     Number       Type             X           Y           Z
 ---------------------------------------------------------------------
      1          1           0        0.000000    0.000000    0.000000
      2          8           0        0.000000    0.000000    0.968976
      3          8           0        1.430594    0.000000    1.159729
      4          7           0        1.550189    0.000000    2.613602
      5          8           0        2.684305    0.000000    2.904097
 ---------------------------------------------------------------------
                    Distance matrix (angstroms):
                    1          2          3          4          5
     1  H    0.000000
     2  O    0.968976   0.000000
     3  O    1.841621   1.443255   0.000000
     4  N    3.038751   2.260063   1.458784   0.000000
     5  O    3.954652   3.309107   2.148165   1.170729   0.000000
 Stoichiometry    HNO3
 Framework group  CS[SG(HNO3)]
 Deg. of freedom     7
 Full point group                 CS      NOp   2
 Largest Abelian subgroup         CS      NOp   2
 Largest concise Abelian subgroup C1      NOp   1
                         Standard orientation:                         
 ---------------------------------------------------------------------
 Center     Atomic      Atomic             Coordinates (Angstroms)
 Number     Number       Type             X           Y           Z
 ---------------------------------------------------------------------
      1          1           0        1.532498    1.694413   -0.000000
      2          8           0        1.442147    0.729659   -0.000000
      3          8           0       -0.000000    0.673129    0.000000
      4          7           0       -0.254639   -0.763258    0.000000
      5          8           0       -1.410901   -0.946739    0.000000
 ---------------------------------------------------------------------
 Rotational constants (GHZ):          55.2428803           5.0385926           4.6174447
 Leave Link  202 at Mon Feb 21 20:10:38 2022, MaxMem= 16106127360 cpu:               0.3 elap:               0.0
 (Enter /sw/contrib/gaussian/g16/B01/g16/l301.exe)
 Standard basis: Aug-CC-pVTZ (5D, 7F)
 Ernie: Thresh=  0.10000D-02 Tol=  0.10000D-05 Strict=F.
 Ernie:  12 primitive shells out of 131 were deleted.
 There are   166 symmetry adapted cartesian basis functions of A'  symmetry.
 There are    79 symmetry adapted cartesian basis functions of A"  symmetry.
 There are   136 symmetry adapted basis functions of A'  symmetry.
 There are    71 symmetry adapted basis functions of A"  symmetry.
   207 basis functions,   315 primitive gaussians,   245 cartesian basis functions
    16 alpha electrons       16 beta electrons
       nuclear repulsion energy       117.1619242777 Hartrees.
 IExCor=    0 DFT=F Ex=HF Corr=None ExCW=0 ScaHFX=  1.000000
 ScaDFX=  1.000000  1.000000  1.000000  1.000000 ScalE2=  1.000000  1.000000
 IRadAn=      5 IRanWt=     -1 IRanGd=            0 ICorTp=0 IEmpDi=  4
 NAtoms=    5 NActive=    5 NUniq=    5 SFac= 1.00D+00 NAtFMM=   60 NAOKFM=F Big=F
 Integral buffers will be    131072 words long.
 Raffenetti 1 integral format.
 Two-electron integral symmetry is turned on.
 Leave Link  301 at Mon Feb 21 20:10:38 2022, MaxMem= 16106127360 cpu:               1.7 elap:               0.1
 (Enter /sw/contrib/gaussian/g16/B01/g16/l302.exe)
 NPDir=0 NMtPBC=     1 NCelOv=     1 NCel=       1 NClECP=     1 NCelD=      1
         NCelK=      1 NCelE2=     1 NClLst=     1 CellRange=     0.0.
 One-electron integrals computed using PRISM.
 One-electron integral symmetry used in STVInt
 NBasis=   207 RedAO= T EigKep=  1.80D-04  NBF=   136    71
 NBsUse=   207 1.00D-06 EigRej= -1.00D+00 NBFU=   136    71
 Leave Link  302 at Mon Feb 21 20:10:38 2022, MaxMem= 16106127360 cpu:               5.0 elap:               0.2
 (Enter /sw/contrib/gaussian/g16/B01/g16/l303.exe)
 DipDrv:  MaxL=1.
 Leave Link  303 at Mon Feb 21 20:10:38 2022, MaxMem= 16106127360 cpu:               0.8 elap:               0.1
 (Enter /sw/contrib/gaussian/g16/B01/g16/l401.exe)
 ExpMin= 2.53D-02 ExpMax= 1.53D+04 ExpMxC= 5.22D+02 IAcc=3 IRadAn=         5 AccDes= 0.00D+00
 Harris functional with IExCor=  205 and IRadAn=       5 diagonalized for initial guess.
 HarFok:  IExCor=  205 AccDes= 0.00D+00 IRadAn=         5 IDoV= 1 UseB2=F ITyADJ=14
 ICtDFT=  3500011 ScaDFX=  1.000000  1.000000  1.000000  1.000000
 FoFCou: FMM=F IPFlag=           0 FMFlag=      100000 FMFlg1=           0
         NFxFlg=           0 DoJE=T BraDBF=F KetDBF=T FulRan=T
         wScrn=  0.000000 ICntrl=       500 IOpCl=  0 I1Cent=   200000004 NGrid=           0
         NMat0=    1 NMatS0=      1 NMatT0=    0 NMatD0=    1 NMtDS0=    0 NMtDT0=    0
 Petite list used in FoFCou.
 Harris En= -279.629131452443    
 JPrj=0 DoOrth=F DoCkMO=F.
 Initial guess orbital symmetries:
       Occupied  (A') (A') (A') (A') (A') (A') (A') (A') (A') (A')
                 (A") (A') (A') (A") (A") (A')
       Virtual   (A") (A') (A') (A') (A') (A') (A") (A') (A') (A')
                 (A") (A') (A") (A') (A') (A") (A') (A") (A') (A')
                 (A') (A') (A') (A') (A') (A") (A') (A") (A') (A')
                 (A") (A') (A") (A') (A') (A") (A') (A") (A') (A')
                 (A") (A') (A") (A') (A") (A') (A') (A') (A") (A")
                 (A') (A') (A') (A') (A") (A') (A") (A') (A") (A')
                 (A') (A') (A") (A') (A') (A") (A') (A") (A') (A')
                 (A") (A') (A') (A") (A") (A') (A') (A") (A') (A')
                 (A') (A") (A') (A") (A") (A') (A') (A") (A') (A')
                 (A') (A") (A') (A") (A') (A") (A") (A') (A') (A")
                 (A') (A') (A") (A') (A') (A') (A') (A") (A") (A')
                 (A") (A') (A') (A') (A") (A') (A') (A') (A") (A')
                 (A") (A') (A') (A") (A") (A') (A') (A") (A") (A')
                 (A') (A') (A') (A") (A") (A') (A") (A') (A') (A')
                 (A') (A") (A") (A') (A') (A") (A') (A') (A') (A')
                 (A") (A') (A') (A") (A') (A") (A') (A") (A') (A")
                 (A') (A") (A') (A") (A') (A") (A") (A") (A') (A')
                 (A") (A') (A") (A') (A") (A') (A") (A") (A') (A')
                 (A') (A') (A') (A') (A') (A') (A') (A') (A') (A')
                 (A')
 The electronic state of the initial guess is 1-A'.
 Leave Link  401 at Mon Feb 21 20:10:39 2022, MaxMem= 16106127360 cpu:               6.7 elap:               0.3
 (Enter /sw/contrib/gaussian/g16/B01/g16/l502.exe)
 Keep R1 ints in memory in symmetry-blocked form, NReq=348887737.
 FoFCou: FMM=F IPFlag=           0 FMFlag=           0 FMFlg1=           0
         NFxFlg=           0 DoJE=F BraDBF=F KetDBF=F FulRan=T
         wScrn=  0.000000 ICntrl=       600 IOpCl=  0 I1Cent=           0 NGrid=           0
         NMat0=    1 NMatS0=  21528 NMatT0=    0 NMatD0=    1 NMtDS0=    0 NMtDT0=    0
 Petite list used in FoFCou.
 Closed shell SCF:
 Using DIIS extrapolation, IDIIS=  1040.
 NGot= 16106127360 LenX= 15988850015 LenY= 15988789549
 Requested convergence on RMS density matrix=1.00D-08 within 128 cycles.
 Requested convergence on MAX density matrix=1.00D-06.
 Requested convergence on             energy=1.00D-06.
 No special actions if energy rises.

 Cycle   1  Pass 1  IDiag  1:
 E= -279.371644411728    
 DIIS: error= 2.46D-02 at cycle   1 NSaved=   1.
 NSaved= 1 IEnMin= 1 EnMin= -279.371644411728     IErMin= 1 ErrMin= 2.46D-02
 ErrMax= 2.46D-02  0.00D+00 EMaxC= 1.00D-01 BMatC= 4.38D-01 BMatP= 4.38D-01
 IDIUse=3 WtCom= 7.54D-01 WtEn= 2.46D-01
 Coeff-Com:  0.100D+01
 Coeff-En:   0.100D+01
 Coeff:      0.100D+01
 Gap=     0.511 Goal=   None    Shift=    0.000
 GapD=    0.511 DampG=2.000 DampE=0.500 DampFc=1.0000 IDamp=-1.
 RMSDP=1.62D-03 MaxDP=9.92D-02              OVMax= 1.12D-01

 Cycle   2  Pass 1  IDiag  1:
 E= -279.453931744382     Delta-E=       -0.082287332654 Rises=F Damp=F
 DIIS: error= 1.77D-02 at cycle   2 NSaved=   2.
 NSaved= 2 IEnMin= 2 EnMin= -279.453931744382     IErMin= 2 ErrMin= 1.77D-02
 ErrMax= 1.77D-02  0.00D+00 EMaxC= 1.00D-01 BMatC= 7.09D-02 BMatP= 4.38D-01
 IDIUse=3 WtCom= 8.23D-01 WtEn= 1.77D-01
 Coeff-Com:  0.193D+00 0.807D+00
 Coeff-En:   0.000D+00 0.100D+01
 Coeff:      0.159D+00 0.841D+00
 Gap=     0.530 Goal=   None    Shift=    0.000
 RMSDP=8.96D-04 MaxDP=3.74D-02 DE=-8.23D-02 OVMax= 6.87D-02

 Cycle   3  Pass 1  IDiag  1:
 E= -279.482726092892     Delta-E=       -0.028794348511 Rises=F Damp=F
 DIIS: error= 1.03D-02 at cycle   3 NSaved=   3.
 NSaved= 3 IEnMin= 3 EnMin= -279.482726092892     IErMin= 3 ErrMin= 1.03D-02
 ErrMax= 1.03D-02  0.00D+00 EMaxC= 1.00D-01 BMatC= 2.83D-02 BMatP= 7.09D-02
 IDIUse=3 WtCom= 8.97D-01 WtEn= 1.03D-01
 Coeff-Com: -0.328D-01 0.378D+00 0.655D+00
 Coeff-En:   0.000D+00 0.239D+00 0.761D+00
 Coeff:     -0.295D-01 0.364D+00 0.666D+00
 Gap=     0.510 Goal=   None    Shift=    0.000
 RMSDP=3.74D-04 MaxDP=1.56D-02 DE=-2.88D-02 OVMax= 3.79D-02

 Cycle   4  Pass 1  IDiag  1:
 E= -279.501492881844     Delta-E=       -0.018766788952 Rises=F Damp=F
 DIIS: error= 1.28D-03 at cycle   4 NSaved=   4.
 NSaved= 4 IEnMin= 4 EnMin= -279.501492881844     IErMin= 4 ErrMin= 1.28D-03
 ErrMax= 1.28D-03  0.00D+00 EMaxC= 1.00D-01 BMatC= 4.87D-04 BMatP= 2.83D-02
 IDIUse=3 WtCom= 9.87D-01 WtEn= 1.28D-02
 Coeff-Com: -0.115D-01 0.566D-01 0.157D+00 0.798D+00
 Coeff-En:   0.000D+00 0.000D+00 0.000D+00 0.100D+01
 Coeff:     -0.114D-01 0.559D-01 0.155D+00 0.800D+00
 Gap=     0.502 Goal=   None    Shift=    0.000
 RMSDP=9.03D-05 MaxDP=2.73D-03 DE=-1.88D-02 OVMax= 1.11D-02

 Cycle   5  Pass 1  IDiag  1:
 E= -279.502169464555     Delta-E=       -0.000676582711 Rises=F Damp=F
 DIIS: error= 7.31D-04 at cycle   5 NSaved=   5.
 NSaved= 5 IEnMin= 5 EnMin= -279.502169464555     IErMin= 5 ErrMin= 7.31D-04
 ErrMax= 7.31D-04  0.00D+00 EMaxC= 1.00D-01 BMatC= 8.69D-05 BMatP= 4.87D-04
 IDIUse=3 WtCom= 9.93D-01 WtEn= 7.31D-03
 Coeff-Com:  0.614D-02-0.726D-01-0.119D+00 0.167D-01 0.117D+01
 Coeff-En:   0.000D+00 0.000D+00 0.000D+00 0.000D+00 0.100D+01
 Coeff:      0.610D-02-0.721D-01-0.118D+00 0.165D-01 0.117D+01
 Gap=     0.502 Goal=   None    Shift=    0.000
 RMSDP=7.71D-05 MaxDP=2.13D-03 DE=-6.77D-04 OVMax= 1.13D-02

 Cycle   6  Pass 1  IDiag  1:
 E= -279.502487915434     Delta-E=       -0.000318450879 Rises=F Damp=F
 DIIS: error= 2.77D-04 at cycle   6 NSaved=   6.
 NSaved= 6 IEnMin= 6 EnMin= -279.502487915434     IErMin= 6 ErrMin= 2.77D-04
 ErrMax= 2.77D-04  0.00D+00 EMaxC= 1.00D-01 BMatC= 1.66D-05 BMatP= 8.69D-05
 IDIUse=3 WtCom= 9.97D-01 WtEn= 2.77D-03
 Coeff-Com:  0.472D-03 0.321D-02 0.729D-02-0.133D+00-0.252D+00 0.137D+01
 Coeff-En:   0.000D+00 0.000D+00 0.000D+00 0.000D+00 0.000D+00 0.100D+01
 Coeff:      0.471D-03 0.320D-02 0.727D-02-0.133D+00-0.252D+00 0.137D+01
 Gap=     0.502 Goal=   None    Shift=    0.000
 RMSDP=4.61D-05 MaxDP=1.26D-03 DE=-3.18D-04 OVMax= 5.68D-03

 Cycle   7  Pass 1  IDiag  1:
 E= -279.502561661936     Delta-E=       -0.000073746502 Rises=F Damp=F
 DIIS: error= 1.17D-04 at cycle   7 NSaved=   7.
 NSaved= 7 IEnMin= 7 EnMin= -279.502561661936     IErMin= 7 ErrMin= 1.17D-04
 ErrMax= 1.17D-04  0.00D+00 EMaxC= 1.00D-01 BMatC= 4.01D-06 BMatP= 1.66D-05
 IDIUse=3 WtCom= 9.99D-01 WtEn= 1.17D-03
 Coeff-Com: -0.941D-03 0.132D-01 0.260D-01-0.179D-01-0.271D+00 0.325D+00
 Coeff-Com:  0.925D+00
 Coeff-En:   0.000D+00 0.000D+00 0.000D+00 0.000D+00 0.000D+00 0.000D+00
 Coeff-En:   0.100D+01
 Coeff:     -0.940D-03 0.132D-01 0.260D-01-0.178D-01-0.270D+00 0.325D+00
 Coeff:      0.925D+00
 Gap=     0.502 Goal=   None    Shift=    0.000
 RMSDP=1.32D-05 MaxDP=3.79D-04 DE=-7.37D-05 OVMax= 1.55D-03

 Cycle   8  Pass 1  IDiag  1:
 E= -279.502570054485     Delta-E=       -0.000008392549 Rises=F Damp=F
 DIIS: error= 5.95D-05 at cycle   8 NSaved=   8.
 NSaved= 8 IEnMin= 8 EnMin= -279.502570054485     IErMin= 8 ErrMin= 5.95D-05
 ErrMax= 5.95D-05  0.00D+00 EMaxC= 1.00D-01 BMatC= 6.06D-07 BMatP= 4.01D-06
 IDIUse=1 WtCom= 1.00D+00 WtEn= 0.00D+00
 Coeff-Com: -0.448D-03 0.344D-02 0.762D-02 0.273D-01-0.405D-01-0.200D+00
 Coeff-Com:  0.228D+00 0.975D+00
 Coeff:     -0.448D-03 0.344D-02 0.762D-02 0.273D-01-0.405D-01-0.200D+00
 Coeff:      0.228D+00 0.975D+00
 Gap=     0.502 Goal=   None    Shift=    0.000
 RMSDP=6.49D-06 MaxDP=1.93D-04 DE=-8.39D-06 OVMax= 7.02D-04

 Cycle   9  Pass 1  IDiag  1:
 E= -279.502571688986     Delta-E=       -0.000001634501 Rises=F Damp=F
 DIIS: error= 1.58D-05 at cycle   9 NSaved=   9.
 NSaved= 9 IEnMin= 9 EnMin= -279.502571688986     IErMin= 9 ErrMin= 1.58D-05
 ErrMax= 1.58D-05  0.00D+00 EMaxC= 1.00D-01 BMatC= 7.17D-08 BMatP= 6.06D-07
 IDIUse=1 WtCom= 1.00D+00 WtEn= 0.00D+00
 Coeff-Com:  0.123D-03-0.172D-02-0.309D-02-0.215D-02 0.341D-01-0.157D-03
 Coeff-Com: -0.183D+00-0.715D-01 0.123D+01
 Coeff:      0.123D-03-0.172D-02-0.309D-02-0.215D-02 0.341D-01-0.157D-03
 Coeff:     -0.183D+00-0.715D-01 0.123D+01
 Gap=     0.502 Goal=   None    Shift=    0.000
 RMSDP=1.94D-06 MaxDP=6.65D-05 DE=-1.63D-06 OVMax= 1.77D-04

 Cycle  10  Pass 1  IDiag  1:
 E= -279.502571849541     Delta-E=       -0.000000160555 Rises=F Damp=F
 DIIS: error= 4.18D-06 at cycle  10 NSaved=  10.
 NSaved=10 IEnMin=10 EnMin= -279.502571849541     IErMin=10 ErrMin= 4.18D-06
 ErrMax= 4.18D-06  0.00D+00 EMaxC= 1.00D-01 BMatC= 5.56D-09 BMatP= 7.17D-08
 IDIUse=1 WtCom= 1.00D+00 WtEn= 0.00D+00
 Coeff-Com:  0.318D-04-0.253D-03-0.342D-03-0.273D-02 0.184D-02 0.199D-01
 Coeff-Com: -0.176D-01-0.715D-01-0.753D-01 0.115D+01
 Coeff:      0.318D-04-0.253D-03-0.342D-03-0.273D-02 0.184D-02 0.199D-01
 Coeff:     -0.176D-01-0.715D-01-0.753D-01 0.115D+01
 Gap=     0.502 Goal=   None    Shift=    0.000
 RMSDP=5.02D-07 MaxDP=2.10D-05 DE=-1.61D-07 OVMax= 4.22D-05

 Cycle  11  Pass 1  IDiag  1:
 E= -279.502571862035     Delta-E=       -0.000000012494 Rises=F Damp=F
 DIIS: error= 2.04D-06 at cycle  11 NSaved=  11.
 NSaved=11 IEnMin=11 EnMin= -279.502571862035     IErMin=11 ErrMin= 2.04D-06
 ErrMax= 2.04D-06  0.00D+00 EMaxC= 1.00D-01 BMatC= 6.69D-10 BMatP= 5.56D-09
 IDIUse=1 WtCom= 1.00D+00 WtEn= 0.00D+00
 Coeff-Com: -0.213D-04 0.244D-03 0.492D-03 0.549D-03-0.429D-02-0.372D-02
 Coeff-Com:  0.243D-01 0.266D-01-0.139D+00-0.178D+00 0.127D+01
 Coeff:     -0.213D-04 0.244D-03 0.492D-03 0.549D-03-0.429D-02-0.372D-02
 Coeff:      0.243D-01 0.266D-01-0.139D+00-0.178D+00 0.127D+01
 Gap=     0.502 Goal=   None    Shift=    0.000
 RMSDP=1.79D-07 MaxDP=6.58D-06 DE=-1.25D-08 OVMax= 1.74D-05

 Cycle  12  Pass 1  IDiag  1:
 E= -279.502571863860     Delta-E=       -0.000000001825 Rises=F Damp=F
 DIIS: error= 5.93D-07 at cycle  12 NSaved=  12.
 NSaved=12 IEnMin=12 EnMin= -279.502571863860     IErMin=12 ErrMin= 5.93D-07
 ErrMax= 5.93D-07  0.00D+00 EMaxC= 1.00D-01 BMatC= 7.20D-11 BMatP= 6.69D-10
 IDIUse=1 WtCom= 1.00D+00 WtEn= 0.00D+00
 Coeff-Com:  0.124D-05-0.290D-04-0.633D-04 0.177D-03 0.107D-02-0.232D-02
 Coeff-Com: -0.414D-02 0.594D-02 0.413D-01-0.112D+00-0.284D+00 0.135D+01
 Coeff:      0.124D-05-0.290D-04-0.633D-04 0.177D-03 0.107D-02-0.232D-02
 Coeff:     -0.414D-02 0.594D-02 0.413D-01-0.112D+00-0.284D+00 0.135D+01
 Gap=     0.502 Goal=   None    Shift=    0.000
 RMSDP=7.19D-08 MaxDP=2.82D-06 DE=-1.82D-09 OVMax= 6.70D-06

 Cycle  13  Pass 1  IDiag  1:
 E= -279.502571864088     Delta-E=       -0.000000000228 Rises=F Damp=F
 DIIS: error= 1.64D-07 at cycle  13 NSaved=  13.
 NSaved=13 IEnMin=13 EnMin= -279.502571864088     IErMin=13 ErrMin= 1.64D-07
 ErrMax= 1.64D-07  0.00D+00 EMaxC= 1.00D-01 BMatC= 3.96D-12 BMatP= 7.20D-11
 IDIUse=1 WtCom= 1.00D+00 WtEn= 0.00D+00
 Coeff-Com:  0.127D-05-0.139D-04-0.223D-04-0.901D-04 0.122D-03 0.778D-03
 Coeff-Com: -0.105D-02-0.305D-02 0.568D-03 0.407D-01-0.334D-01-0.328D+00
 Coeff-Com:  0.132D+01
 Coeff:      0.127D-05-0.139D-04-0.223D-04-0.901D-04 0.122D-03 0.778D-03
 Coeff:     -0.105D-02-0.305D-02 0.568D-03 0.407D-01-0.334D-01-0.328D+00
 Coeff:      0.132D+01
 Gap=     0.502 Goal=   None    Shift=    0.000
 RMSDP=1.90D-08 MaxDP=5.60D-07 DE=-2.28D-10 OVMax= 1.54D-06

 Cycle  14  Pass 1  IDiag  1:
 E= -279.502571864101     Delta-E=       -0.000000000013 Rises=F Damp=F
 DIIS: error= 2.35D-08 at cycle  14 NSaved=  14.
 NSaved=14 IEnMin=14 EnMin= -279.502571864101     IErMin=14 ErrMin= 2.35D-08
 ErrMax= 2.35D-08  0.00D+00 EMaxC= 1.00D-01 BMatC= 1.84D-13 BMatP= 3.96D-12
 IDIUse=1 WtCom= 1.00D+00 WtEn= 0.00D+00
 Coeff-Com: -0.185D-06 0.303D-05 0.548D-05 0.461D-05-0.801D-04 0.431D-04
 Coeff-Com:  0.305D-03 0.177D-03-0.238D-02 0.139D-02 0.166D-01-0.251D-01
 Coeff-Com: -0.195D+00 0.120D+01
 Coeff:     -0.185D-06 0.303D-05 0.548D-05 0.461D-05-0.801D-04 0.431D-04
 Coeff:      0.305D-03 0.177D-03-0.238D-02 0.139D-02 0.166D-01-0.251D-01
 Coeff:     -0.195D+00 0.120D+01
 Gap=     0.502 Goal=   None    Shift=    0.000
 RMSDP=3.68D-09 MaxDP=9.05D-08 DE=-1.34D-11 OVMax= 3.25D-07

 SCF Done:  E(RHF) =  -279.502571864     A.U. after   14 cycles
            NFock= 14  Conv=0.37D-08     -V/T= 2.0023
 KE= 2.788658367633D+02 PE=-8.956635197036D+02 EE= 2.201331867986D+02
 Leave Link  502 at Mon Feb 21 20:10:43 2022, MaxMem= 16106127360 cpu:              63.6 elap:               3.9
 (Enter /sw/contrib/gaussian/g16/B01/g16/l801.exe)
 ExpMin= 2.53D-02 ExpMax= 1.53D+04 ExpMxC= 5.22D+02 IAcc=3 IRadAn=         5 AccDes= 0.00D+00
 HarFok:  IExCor=  205 AccDes= 0.00D+00 IRadAn=         5 IDoV=-2 UseB2=F ITyADJ=14
 ICtDFT= 12500011 ScaDFX=  1.000000  1.000000  1.000000  1.000000
 Largest valence mixing into a core orbital is  2.08D-04
 Largest core mixing into a valence orbital is  3.62D-05
 Range of M.O.s used for correlation:     5   207
 NBasis=   207 NAE=    16 NBE=    16 NFC=     4 NFV=     0
 NROrb=    203 NOA=    12 NOB=    12 NVA=   191 NVB=   191

 **** Warning!!: The largest alpha MO coefficient is  0.17722512D+02

 Leave Link  801 at Mon Feb 21 20:10:43 2022, MaxMem= 16106127360 cpu:               2.0 elap:               0.1
 (Enter /sw/contrib/gaussian/g16/B01/g16/l906.exe)
 Frozen-core derivative calculation, NFC=   4 NFV=   0.
 FulOut=F Deriv=T AODrv=T NAtomX=     5
   MMem=           0  MDisk=          12 MDiskD=          12
  W3Min=      811440 MinDsk=     2425030 NBas6D=         245
 NBas2D=       30762    NTT=       30135    LW2=     7400000
    MDV= 16105574227 MDiskM=      328644 NBas2p=       30702
 Disk-based method using ON**2 memory for 12 occupieds at a time.
 Permanent disk used for amplitudes=    11516536 words.
 Estimated scratch disk usage=   321251614 words.
 IMap=   1   2   3   4   5   6   7   8   9  10  11  12  13  14  15  16
 Actual    scratch disk usage=   310331678 words.
 JobTyp=1 Pass  1:  I=   5 to  16 NPSUse= 28 ParTrn=T ParDer=T DoDerP=T.
 (rs|ai) integrals will be sorted in core.
 Spin components of T(2) and E(2):
     alpha-alpha T2 =       0.3391619086D-01 E2=     -0.1223329686D+00
     alpha-beta  T2 =       0.1860151406D+00 E2=     -0.6994324746D+00
     beta-beta   T2 =       0.3391619086D-01 E2=     -0.1223329686D+00
 The integrals were generated   1 times.
 ANorm=    0.1119753331D+01
 E2 =    -0.9440984118D+00 EUMP2 =    -0.28044667027589D+03
 Leave Link  906 at Mon Feb 21 20:12:19 2022, MaxMem= 16106127360 cpu:            2700.7 elap:              96.6
 (Enter /sw/contrib/gaussian/g16/B01/g16/l1101.exe)
 Using compressed Sx but separate Hx and Fx, NAtomX=     5.
 Will process      6 centers per pass.
 Leave Link 1101 at Mon Feb 21 20:12:20 2022, MaxMem= 16106127360 cpu:               5.8 elap:               0.2
 (Enter /sw/contrib/gaussian/g16/B01/g16/l1102.exe)
 Leave Link 1102 at Mon Feb 21 20:12:20 2022, MaxMem= 16106127360 cpu:               0.6 elap:               0.0
 (Enter /sw/contrib/gaussian/g16/B01/g16/l1110.exe)
 Forming Gx(P) for the SCF density, NAtomX=     5.
 Integral derivatives from FoFJK, PRISM(SPDF).
 Do as many integral derivatives as possible in FoFJK.
 G2DrvN: MDV=   16106126844.
 G2DrvN: will do     6 centers at a time, making    1 passes.
 Calling FoFCou, ICntrl=  3107 FMM=F I1Cent=   0 AccDes= 0.00D+00.
 FoFJK:  IHMeth= 1 ICntrl=    3107 DoSepK=F KAlg= 0 I1Cent=           0 FoldK=F
 IRaf=         0 NMat=       1 IRICut=       1 DoRegI=T DoRafI=F ISym2E= 1 IDoP0=0 IntGTp=1.
 FoFCou: FMM=F IPFlag=           0 FMFlag=      100000 FMFlg1=           0
         NFxFlg=           0 DoJE=F BraDBF=F KetDBF=F FulRan=T
         wScrn=  0.000000 ICntrl=      3107 IOpCl=  0 I1Cent=           0 NGrid=           0
         NMat0=    1 NMatS0=      1 NMatT0=    0 NMatD0=    1 NMtDS0=    0 NMtDT0=    0
 Petite list used in FoFCou.
 End of G2Drv F.D. properties file   721 does not exist.
 End of G2Drv F.D. properties file   722 does not exist.
 End of G2Drv F.D. properties file   788 does not exist.
 Leave Link 1110 at Mon Feb 21 20:12:23 2022, MaxMem= 16106127360 cpu:              84.4 elap:               3.0
 (Enter /sw/contrib/gaussian/g16/B01/g16/l1002.exe)
 Minotr:  Closed shell wavefunction.
          IDoAtm=11111
          Frozen-core window.
          Direct CPHF calculation.
          Differentiating once with respect to electric field.
                with respect to dipole field.
          Differentiating once with respect to nuclear coordinates.
          Requested convergence is 1.0D-08 RMS, and 1.0D-07 maximum.
          Secondary convergence is 1.0D-12 RMS, and 1.0D-12 maximum.
          NewPWx=T KeepS1=T KeepF1=T KeepIn=T MapXYZ=F SortEE=F KeepMc=T.
 Keep R1 ints in memory in symmetry-blocked form, NReq=348888983.
 FoFCou: FMM=F IPFlag=           0 FMFlag=           0 FMFlg1=           0
         NFxFlg=           0 DoJE=F BraDBF=F KetDBF=F FulRan=T
         wScrn=  0.000000 ICntrl=       600 IOpCl=  0 I1Cent=           0 NGrid=           0
         NMat0=    1 NMatS0=  21528 NMatT0=    0 NMatD0=    1 NMtDS0=    0 NMtDT0=    0
 Petite list used in FoFCou.
          MDV=   16106127360 using IRadAn=       1.
          Solving linear equations simultaneously, MaxMat=       0.
          There are    18 degrees of freedom in the 1st order CPHF.  IDoFFX=6 NUNeed=    18.
     15 vectors produced by pass  0 Test12= 1.70D-14 5.56D-09 XBig12= 8.14D+00 1.12D+00.
 AX will form    15 AO Fock derivatives at one time.
     15 vectors produced by pass  1 Test12= 1.70D-14 5.56D-09 XBig12= 1.32D+00 2.59D-01.
     15 vectors produced by pass  2 Test12= 1.70D-14 5.56D-09 XBig12= 1.38D-01 9.94D-02.
     15 vectors produced by pass  3 Test12= 1.70D-14 5.56D-09 XBig12= 4.87D-03 1.11D-02.
     15 vectors produced by pass  4 Test12= 1.70D-14 5.56D-09 XBig12= 9.75D-05 1.94D-03.
     15 vectors produced by pass  5 Test12= 1.70D-14 5.56D-09 XBig12= 1.38D-06 1.76D-04.
     15 vectors produced by pass  6 Test12= 1.70D-14 5.56D-09 XBig12= 1.09D-08 1.48D-05.
     13 vectors produced by pass  7 Test12= 1.70D-14 5.56D-09 XBig12= 8.07D-11 1.33D-06.
      3 vectors produced by pass  8 Test12= 1.70D-14 5.56D-09 XBig12= 5.57D-13 1.18D-07.
      2 vectors produced by pass  9 Test12= 1.70D-14 5.56D-09 XBig12= 3.60D-15 9.74D-09.
 InvSVY:  IOpt=1 It=  1 EMax= 7.77D-16
 Solved reduced A of dimension   123 with    15 vectors.
 FullF1:  Do perturbations      1 to      18.
 Saving first derivative matrices.
 End of Minotr F.D. properties file   721 does not exist.
 End of Minotr F.D. properties file   722 does not exist.
 End of Minotr F.D. properties file   788 does not exist.
 Leave Link 1002 at Mon Feb 21 20:12:26 2022, MaxMem= 16106127360 cpu:              78.9 elap:               2.8
 (Enter /sw/contrib/gaussian/g16/B01/g16/l811.exe)
 MDV= 16106127360.
 Form MO integral derivatives with frozen-active canonical formalism.
 MOERI=1 MOERIx=1 NAtoms=     5 NAtomX=     5.
 Discarding MO integrals.
 MO basis two electron integral derivatives will not be stored on disk.
 IAlg= 3 DoFC=T DoPWx=T Debug=F.
 Frozen-core window:  NFC=   4 NFV=   0.
 Reordered first order wavefunction length =     18678272
 In DefCFB: NBatch=  1 ICI= 16 ICA=191 LFMax= 96
            Large arrays: LIAPS=   619940160 LIARS=   288257200 words.
 In StABat: MaxSiz= 55 MinSiz= 25 NAtomB=  5
 DoIAMN: NPSUse= 28.
 Leave Link  811 at Mon Feb 21 20:13:46 2022, MaxMem= 16106127360 cpu:            2235.7 elap:              80.0
 (Enter /sw/contrib/gaussian/g16/B01/g16/l804.exe)
 Frozen-core window:  NFC=   4 NFV=   0.
 Closed-shell transformation, MDV= 16106127360 ITran=4 ISComp=1.
 Semi-Direct transformation.
 ModeAB=           2 MOrb=            16 LenV=   16104923023
 LASXX=     67341636 LTotXX=    67341636 LenRXX=    67341636
 LTotAB=    68301760 MaxLAS=    99807120 LenRXY=    99807120
 NonZer=   134683272 LenScr=   202817536 LnRSAI=           0
 LnScr1=           0 LExtra=           0 Total=    369966292
 MaxDsk=          -1 SrtSym=           F ITran=            4
 DoSDTr:  NPSUse= 28
 JobTyp=0 Pass  1:  I=   1 to  16.
 (rs|ai) integrals will be sorted in core.
 Complete sort for first half transformation.
 First half transformation complete.
 Begin second half transformation for I=  10.
 Begin second half transformation for I=  10.
 Complete sort for second half transformation.
 Second half transformation complete.
 Spin components of T(2) and E(2):
     alpha-alpha T2 =       0.3391619086D-01 E2=     -0.1223329686D+00
     alpha-beta  T2 =       0.1860151406D+00 E2=     -0.6994324746D+00
     beta-beta   T2 =       0.3391619086D-01 E2=     -0.1223329686D+00
 ANorm=    0.1583570347D+01
 E2 =    -0.9440984118D+00 EUMP2 =    -0.28044667027589D+03
 Leave Link  804 at Mon Feb 21 20:14:01 2022, MaxMem= 16106127360 cpu:             433.1 elap:              15.5
 (Enter /sw/contrib/gaussian/g16/B01/g16/l1002.exe)
 Minotr:  Closed shell wavefunction.
          Computing MP2/KS-MP2 derivatives.
          Using Z-Vector for PSCF gradient.
          Skipping F1 and S1 gradient terms here.
          IDoAtm=11111
          Frozen-core window.
          Using MO integrals in the linear equations.
          Forming densities via direct SCF.
          Differentiating once with respect to electric field.
                with respect to dipole field.
          Differentiating once with respect to nuclear coordinates.
          Using symmetry in CPHF.
          Requested convergence is 1.0D-10 RMS, and 1.0D-09 maximum.
          NewPWx=F KeepS1=T KeepF1=T KeepIn=T MapXYZ=F SortEE=F KeepMc=T.
          MDV=   16106127360 using IRadAn=       5.
          Solving linear equations separately, MaxMat=       0.
          There are     1 degrees of freedom in the 1st order CPHF.  IDoFFX=0 NUNeed=     1.
 FoFJK:  IHMeth= 1 ICntrl=       0 DoSepK=F KAlg= 0 I1Cent=           0 FoldK=F
 IRaf=         0 NMat=       1 IRICut=       1 DoRegI=T DoRafI=F ISym2E= 0 IDoP0=0 IntGTp=1.
 FoFCou: FMM=F IPFlag=           0 FMFlag=      100000 FMFlg1=           0
         NFxFlg=           0 DoJE=F BraDBF=F KetDBF=F FulRan=T
         wScrn=  0.000000 ICntrl=         0 IOpCl=  0 I1Cent=           0 NGrid=           0
         NMat0=    1 NMatS0=      1 NMatT0=    0 NMatD0=    1 NMtDS0=    0 NMtDT0=    0
 Symmetry not used in FoFCou.
 LinEq1:  Iter=  0 NonCon=     1 RMS=5.94D-03 Max=1.32D-01 NDo=     1
 LinEq1:  Iter=  1 NonCon=     1 RMS=1.90D-03 Max=3.85D-02 NDo=     1
 LinEq1:  Iter=  2 NonCon=     1 RMS=8.66D-04 Max=1.39D-02 NDo=     1
 LinEq1:  Iter=  3 NonCon=     1 RMS=3.86D-04 Max=7.86D-03 NDo=     1
 LinEq1:  Iter=  4 NonCon=     1 RMS=1.20D-04 Max=1.92D-03 NDo=     1
 LinEq1:  Iter=  5 NonCon=     1 RMS=4.65D-05 Max=7.42D-04 NDo=     1
 LinEq1:  Iter=  6 NonCon=     1 RMS=2.05D-05 Max=2.57D-04 NDo=     1
 LinEq1:  Iter=  7 NonCon=     1 RMS=8.12D-06 Max=1.59D-04 NDo=     1
 LinEq1:  Iter=  8 NonCon=     1 RMS=3.45D-06 Max=3.44D-05 NDo=     1
 LinEq1:  Iter=  9 NonCon=     1 RMS=9.38D-07 Max=1.30D-05 NDo=     1
 LinEq1:  Iter= 10 NonCon=     1 RMS=1.84D-07 Max=1.97D-06 NDo=     1
 LinEq1:  Iter= 11 NonCon=     1 RMS=3.43D-08 Max=3.73D-07 NDo=     1
 LinEq1:  Iter= 12 NonCon=     1 RMS=8.20D-09 Max=1.35D-07 NDo=     1
 LinEq1:  Iter= 13 NonCon=     1 RMS=1.45D-09 Max=2.72D-08 NDo=     1
 LinEq1:  Iter= 14 NonCon=     1 RMS=2.62D-10 Max=3.67D-09 NDo=     1
 LinEq1:  Iter= 15 NonCon=     0 RMS=4.70D-11 Max=5.31D-10 NDo=     1
 Linear equations converged to 1.000D-10 1.000D-09 after    15 iterations.
 End of Minotr F.D. properties file   721 does not exist.
 End of Minotr F.D. properties file   722 does not exist.
 End of Minotr F.D. properties file   788 does not exist.
 Leave Link 1002 at Mon Feb 21 20:14:04 2022, MaxMem= 16106127360 cpu:              74.2 elap:               2.7
 (Enter /sw/contrib/gaussian/g16/B01/g16/l1102.exe)
 Use density number 2.
 Symmetrizing basis deriv contribution to polar:
 IMax=3 JMax=2 DiffMx= 0.00D+00
 Leave Link 1102 at Mon Feb 21 20:14:04 2022, MaxMem= 16106127360 cpu:               0.7 elap:               0.1
 (Enter /sw/contrib/gaussian/g16/B01/g16/l1110.exe)
 Forming Gx(P) for generalized density number  2 NAtomX=     5.
 Integral derivatives from FoFJK, PRISM(SPDF).
 Do as many integral derivatives as possible in FoFJK.
 G2DrvN: MDV=   16106126844.
 G2DrvN: will do     6 centers at a time, making    1 passes.
 Calling FoFCou, ICntrl=  3107 FMM=F I1Cent=   0 AccDes= 0.00D+00.
 FoFJK:  IHMeth= 1 ICntrl=    3107 DoSepK=F KAlg= 0 I1Cent=           0 FoldK=F
 IRaf=         0 NMat=       1 IRICut=       1 DoRegI=T DoRafI=F ISym2E= 1 IDoP0=0 IntGTp=1.
 FoFCou: FMM=F IPFlag=           0 FMFlag=      100000 FMFlg1=           0
         NFxFlg=           0 DoJE=F BraDBF=F KetDBF=F FulRan=T
         wScrn=  0.000000 ICntrl=      3107 IOpCl=  0 I1Cent=           0 NGrid=           0
         NMat0=    1 NMatS0=      1 NMatT0=    0 NMatD0=    1 NMtDS0=    0 NMtDT0=    0
 Petite list used in FoFCou.
 End of G2Drv F.D. properties file   721 does not exist.
 End of G2Drv F.D. properties file   722 does not exist.
 End of G2Drv F.D. properties file   788 does not exist.
 Leave Link 1110 at Mon Feb 21 20:14:07 2022, MaxMem= 16106127360 cpu:              83.4 elap:               3.0
 (Enter /sw/contrib/gaussian/g16/B01/g16/l1112.exe)
 MP22nd: MDV=   16106127360
 This link is doing NAtomX=     5 total of    18 degrees of freedom.
 Using ON3 I/O method in MakUI.
 Frozen-core window:  NFC=   4 NFV=   0.
 Using Ix for Sx.
 Use MO integrals over full window.
 Using OV2 memory method for fx*t*t/D, MaxI=    16 DoOO2=F NP=  28.
 R2 and R3 integrals will be kept in memory, NReq=   915591705.
 FoFCou: FMM=F IPFlag=           0 FMFlag=           0 FMFlg1=           0
         NFxFlg=           0 DoJE=F BraDBF=F KetDBF=F FulRan=T
         wScrn=  0.000000 ICntrl=       600 IOpCl=  0 I1Cent=           0 NGrid=           0
         NMat0=    1 NMatS0=      1 NMatT0=    0 NMatD0=    1 NMtDS0=    0 NMtDT0=    0
 Symmetry not used in FoFCou.
 DD1Dir will call FoFMem   1 times, MxPair=       272
 NAB=   136 NAA=     0 NBB=     0.
 Symmetry is being used.
 FoFJK:  IHMeth= 1 ICntrl=       0 DoSepK=F KAlg= 0 I1Cent=           0 FoldK=F
 IRaf=         0 NMat=      18 IRICut=      45 DoRegI=T DoRafI=T ISym2E= 2 IDoP0=3 IntGTp=3.
 Discarding MO integrals.
 Leave Link 1112 at Mon Feb 21 20:14:43 2022, MaxMem= 16106127360 cpu:             986.5 elap:              35.7
 (Enter /sw/contrib/gaussian/g16/B01/g16/l601.exe)
 Copying SCF densities to generalized density rwf, IOpCl= 0 IROHF=0.

 **********************************************************************

            Population analysis using the MP2 Density.

 **********************************************************************

 Orbital symmetries:
       Occupied  (A') (A') (A') (A') (A') (A') (A') (A') (A') (A')
                 (A") (A') (A") (A') (A") (A')
       Virtual   (A') (A") (A') (A') (A") (A') (A') (A') (A") (A')
                 (A") (A') (A') (A") (A') (A') (A') (A") (A') (A')
                 (A') (A') (A') (A') (A") (A') (A') (A") (A') (A')
                 (A") (A') (A") (A') (A') (A") (A') (A") (A') (A')
                 (A") (A') (A") (A') (A') (A") (A') (A') (A") (A')
                 (A") (A') (A') (A') (A") (A') (A") (A') (A") (A')
                 (A') (A') (A") (A') (A') (A") (A') (A") (A') (A')
                 (A") (A') (A') (A") (A") (A') (A') (A") (A') (A')
                 (A') (A") (A') (A") (A") (A') (A') (A") (A') (A')
                 (A") (A') (A') (A") (A') (A") (A') (A") (A') (A')
                 (A") (A') (A") (A') (A') (A") (A') (A') (A") (A')
                 (A") (A') (A') (A') (A") (A') (A') (A') (A") (A')
                 (A") (A') (A") (A') (A') (A") (A") (A') (A") (A')
                 (A') (A') (A') (A") (A") (A") (A') (A') (A') (A')
                 (A") (A') (A") (A') (A') (A") (A') (A') (A') (A')
                 (A") (A') (A') (A") (A') (A") (A') (A") (A') (A")
                 (A') (A") (A') (A') (A") (A") (A") (A') (A") (A')
                 (A") (A') (A") (A') (A") (A') (A") (A") (A') (A')
                 (A') (A') (A') (A') (A') (A') (A') (A') (A') (A')
                 (A')
 The electronic state is 1-A'.
 Alpha  occ. eigenvalues --  -20.69022 -20.68409 -20.65898 -15.81259  -1.62441
 Alpha  occ. eigenvalues --   -1.50044  -1.25232  -0.94823  -0.77405  -0.76014
 Alpha  occ. eigenvalues --   -0.71289  -0.67942  -0.62157  -0.59098  -0.48310
 Alpha  occ. eigenvalues --   -0.47222
 Alpha virt. eigenvalues --    0.02965   0.07169   0.08622   0.10176   0.13395
 Alpha virt. eigenvalues --    0.13447   0.14414   0.15458   0.17823   0.19407
 Alpha virt. eigenvalues --    0.19976   0.20647   0.22193   0.23748   0.24075
 Alpha virt. eigenvalues --    0.26615   0.29353   0.30398   0.31075   0.34420
 Alpha virt. eigenvalues --    0.35019   0.38744   0.42262   0.43184   0.52753
 Alpha virt. eigenvalues --    0.52949   0.55870   0.58197   0.62618   0.63821
 Alpha virt. eigenvalues --    0.67441   0.68431   0.70734   0.71080   0.72474
 Alpha virt. eigenvalues --    0.72911   0.74457   0.79216   0.79238   0.81031
 Alpha virt. eigenvalues --    0.81292   0.83143   0.86836   0.90947   0.92216
 Alpha virt. eigenvalues --    0.92731   0.95613   0.97813   0.98539   1.01652
 Alpha virt. eigenvalues --    1.05280   1.05456   1.08349   1.11893   1.14294
 Alpha virt. eigenvalues --    1.19030   1.22077   1.23352   1.33914   1.35115
 Alpha virt. eigenvalues --    1.38635   1.45385   1.48761   1.50814   1.53872
 Alpha virt. eigenvalues --    1.56786   1.58047   1.61397   1.66557   1.67095
 Alpha virt. eigenvalues --    1.70348   1.79454   1.83215   1.83496   1.87949
 Alpha virt. eigenvalues --    1.91113   1.95631   1.99361   2.00455   2.07834
 Alpha virt. eigenvalues --    2.12327   2.13222   2.15269   2.22502   2.26555
 Alpha virt. eigenvalues --    2.26703   2.29027   2.31565   2.34746   2.38477
 Alpha virt. eigenvalues --    2.42627   2.43062   2.45494   2.46268   2.47817
 Alpha virt. eigenvalues --    2.50263   2.59096   2.59799   2.62293   2.62758
 Alpha virt. eigenvalues --    2.63806   2.67212   2.75830   2.82552   2.85888
 Alpha virt. eigenvalues --    2.89007   2.89946   2.92796   2.96085   3.03239
 Alpha virt. eigenvalues --    3.06803   3.11919   3.21750   3.23320   3.32048
 Alpha virt. eigenvalues --    3.33733   3.52158   3.64546   3.83856   3.84730
 Alpha virt. eigenvalues --    4.15084   4.16715   4.18553   4.25908   4.35457
 Alpha virt. eigenvalues --    4.39586   4.47496   4.51753   4.66363   4.71679
 Alpha virt. eigenvalues --    4.80606   4.82357   4.82990   4.89678   5.02421
 Alpha virt. eigenvalues --    5.07795   5.10570   5.14435   5.17957   5.24413
 Alpha virt. eigenvalues --    5.27231   5.30863   5.33130   5.35811   5.61290
 Alpha virt. eigenvalues --    5.67384   5.77281   5.84806   5.96256   6.17137
 Alpha virt. eigenvalues --    6.29058   6.34009   6.39183   6.49280   6.50524
 Alpha virt. eigenvalues --    6.61058   6.66046   6.69813   6.75689   6.76890
 Alpha virt. eigenvalues --    6.83293   6.89944   7.02308   7.06431   7.07080
 Alpha virt. eigenvalues --    7.09979   7.12620   7.15865   7.18608   7.22812
 Alpha virt. eigenvalues --    7.24577   7.30879   7.32555   7.34770   7.40227
 Alpha virt. eigenvalues --    7.44620   7.48576   7.61642   7.62219   7.63228
 Alpha virt. eigenvalues --    7.66987   7.80140   7.88990   8.11190   8.32958
 Alpha virt. eigenvalues --    8.42088   8.54553  13.42657  14.40876  15.17745
 Alpha virt. eigenvalues --   16.15401
          Condensed to atoms (all electrons):
               1          2          3          4          5
     1  H    0.590310   0.128780   0.019349   0.012659  -0.000699
     2  O    0.128780   8.336549  -0.188550  -0.092433   0.015899
     3  O    0.019349  -0.188550   8.483633  -0.128707  -0.039288
     4  N    0.012659  -0.092433  -0.128707   6.973938  -0.056178
     5  O   -0.000699   0.015899  -0.039288  -0.056178   8.273907
 Mulliken charges:
               1
     1  H    0.249600
     2  O   -0.200244
     3  O   -0.146438
     4  N    0.290721
     5  O   -0.193640
 Sum of Mulliken charges =  -0.00000
 Mulliken charges with hydrogens summed into heavy atoms:
               1
     2  O    0.049356
     3  O   -0.146438
     4  N    0.290721
     5  O   -0.193640
 APT charges:
               1
     1  H    0.299955
     2  O   -0.287782
     3  O   -0.495318
     4  N    0.876248
     5  O   -0.393102
 Sum of APT charges =  -0.00000
 APT charges with hydrogens summed into heavy atoms:
               1
     2  O    0.012173
     3  O   -0.495318
     4  N    0.876248
     5  O   -0.393102
 Electronic spatial extent (au):  <R**2>=            251.7834
 Charge=             -0.0000 electrons
 Dipole moment (field-independent basis, Debye):
    X=              0.5061    Y=              1.3714    Z=             -0.0000  Tot=              1.4618
 Quadrupole moment (field-independent basis, Debye-Ang):
   XX=            -22.5330   YY=            -18.5733   ZZ=            -21.9940
   XY=              3.2185   XZ=              0.0000   YZ=             -0.0000
 Traceless Quadrupole moment (field-independent basis, Debye-Ang):
   XX=             -1.4996   YY=              2.4601   ZZ=             -0.9606
   XY=              3.2185   XZ=              0.0000   YZ=             -0.0000
 Octapole moment (field-independent basis, Debye-Ang**2):
  XXX=              2.6935  YYY=             11.4575  ZZZ=              0.0000  XYY=              7.8951
  XXY=              6.4635  XXZ=             -0.0000  XZZ=             -1.5552  YZZ=             -0.8457
  YYZ=             -0.0000  XYZ=             -0.0000
 Hexadecapole moment (field-independent basis, Debye-Ang**3):
 XXXX=           -156.7101 YYYY=            -90.2491 ZZZZ=            -18.2099 XXXY=            -36.9361
 XXXZ=              0.0000 YYYX=            -30.6709 YYYZ=              0.0000 ZZZX=              0.0000
 ZZZY=              0.0000 XXYY=            -33.9514 XXZZ=            -30.5033 YYZZ=            -20.7946
 XXYZ=              0.0000 YYXZ=              0.0000 ZZXY=            -15.0362
 N-N= 1.171619242777D+02 E-N=-8.964420375006D+02  KE= 2.802141463192D+02
 Symmetry A'   KE= 2.662360036150D+02
 Symmetry A"   KE= 1.397814270424D+01
  Exact polarizability:  33.714   9.451  30.299  -0.000  -0.000  17.889
 Approx polarizability:  28.672   5.113  23.547  -0.000  -0.000  15.503
 No NMR shielding tensors so no spin-rotation constants.
 Leave Link  601 at Mon Feb 21 20:14:43 2022, MaxMem= 16106127360 cpu:               4.2 elap:               0.2
 (Enter /sw/contrib/gaussian/g16/B01/g16/l701.exe)
 ... and contract with generalized density number  2.
 Compute integral second derivatives.
 Leave Link  701 at Mon Feb 21 20:14:43 2022, MaxMem= 16106127360 cpu:               6.2 elap:               0.2
 (Enter /sw/contrib/gaussian/g16/B01/g16/l702.exe)
 L702 exits ... SP integral derivatives will be done elsewhere.
 Leave Link  702 at Mon Feb 21 20:14:43 2022, MaxMem= 16106127360 cpu:               0.4 elap:               0.0
 (Enter /sw/contrib/gaussian/g16/B01/g16/l703.exe)
 Integral derivatives from FoFJK, PRISM(SPDF).
 Compute integral second derivatives, UseDBF=F ICtDFT=           0.
 Calling FoFJK, ICntrl=  10100127 FMM=F ISym2X=1 I1Cent= 0 IOpClX= 0 NMat=1 NMatS=1 NMatT=0.
 FoFJK:  IHMeth= 1 ICntrl=10100127 DoSepK=F KAlg= 0 I1Cent=           0 FoldK=F
 IRaf=         0 NMat=       1 IRICut=       1 DoRegI=T DoRafI=F ISym2E= 1 IDoP0=0 IntGTp=1.
 FoFCou: FMM=F IPFlag=           0 FMFlag=      100000 FMFlg1=         800
         NFxFlg=           0 DoJE=F BraDBF=F KetDBF=F FulRan=T
         wScrn=  0.000000 ICntrl=  10100127 IOpCl=  0 I1Cent=           0 NGrid=           0
         NMat0=    1 NMatS0=      1 NMatT0=    0 NMatD0=    1 NMtDS0=    0 NMtDT0=    0
 Petite list used in FoFCou.
 Leave Link  703 at Mon Feb 21 20:14:58 2022, MaxMem= 16106127360 cpu:             421.0 elap:              15.1
 (Enter /sw/contrib/gaussian/g16/B01/g16/l716.exe)
 Dipole        = 1.99098441D-01 5.39544738D-01-1.15869779D-32
 Polarizability= 3.37142096D+01 9.45085108D+00 3.02994862D+01
                -4.32968976D-31-3.07849362D-32 1.78889532D+01
 Full mass-weighted force constant matrix:
 Low frequencies --- -265.2630  -58.3580  -34.9204   -0.0017   -0.0014   -0.0010
 Low frequencies ---   23.3592  225.0137  339.0804
 ******    1 imaginary frequencies (negative Signs) ****** 
 Diagonal vibrational polarizability:
       13.6329178      25.4217066      48.2853027
 Harmonic frequencies (cm**-1), IR intensities (KM/Mole), Raman scattering
 activities (A**4/AMU), depolarization ratios for plane and unpolarized
 incident light, reduced masses (AMU), force constants (mDyne/A),
 and normal coordinates:
                      1                      2                      3
                     A"                     A"                     A'
 Frequencies --   -265.0849               224.5800               339.0266
 Red. masses --      1.1369                10.7063                 8.5462
 Frc consts  --      0.0471                 0.3181                 0.5787
 IR Inten    --    125.1550                 0.6651                 6.5777
  Atom  AN      X      Y      Z        X      Y      Z        X      Y      Z
     1   1     0.00   0.00   1.00     0.00   0.00  -0.56     0.55  -0.43   0.00
     2   8    -0.00   0.00  -0.06     0.00   0.00  -0.31    -0.08  -0.37  -0.00
     3   8     0.00   0.00  -0.04     0.00   0.00   0.33    -0.14   0.44  -0.00
     4   7    -0.00  -0.00   0.06    -0.00  -0.00   0.53     0.03   0.25   0.00
     5   8    -0.00  -0.00  -0.01    -0.00  -0.00  -0.44     0.16  -0.26  -0.00
                      4                      5                      6
                     A'                     A'                     A'
 Frequencies --    455.1808               791.8437               992.2671
 Red. masses --     12.4082                12.8118                15.6504
 Frc consts  --      1.5147                 4.7330                 9.0789
 IR Inten    --    199.4536               173.9087                17.7777
  Atom  AN      X      Y      Z        X      Y      Z        X      Y      Z
     1   1     0.39   0.21  -0.00    -0.35   0.19  -0.00    -0.11  -0.06   0.00
     2   8     0.32   0.22   0.00     0.39   0.09   0.00    -0.55   0.02   0.00
     3   8     0.18   0.43  -0.00    -0.02  -0.26  -0.00     0.76  -0.00  -0.00
     4   7    -0.35  -0.42  -0.00    -0.15   0.63  -0.00    -0.11   0.21  -0.00
     5   8    -0.22  -0.29   0.00    -0.22  -0.38   0.00    -0.10  -0.20   0.00
                      7                      8                      9
                     A'                     A'                     A'
 Frequencies --   1384.3635              1677.9565              3777.5573
 Red. masses --      1.1344                13.0668                 1.0675
 Frc consts  --      1.2810                21.6762                 8.9748
 IR Inten    --    154.3277               139.6109                83.0791
  Atom  AN      X      Y      Z        X      Y      Z        X      Y      Z
     1   1     0.99  -0.05  -0.00    -0.36   0.00  -0.00     0.10   0.99  -0.00
     2   8    -0.03   0.05   0.00    -0.00  -0.04  -0.00    -0.01  -0.06   0.00
     3   8    -0.02  -0.05  -0.00     0.00   0.15   0.00     0.00   0.00   0.00
     4   7     0.02   0.01  -0.00     0.70  -0.05   0.00    -0.00  -0.00  -0.00
     5   8    -0.03  -0.01   0.00    -0.59  -0.07  -0.00     0.00   0.00  -0.00

 -------------------
 - Thermochemistry -
 -------------------
 Temperature   298.150 Kelvin.  Pressure   1.00000 Atm.
 Atom     1 has atomic number  1 and mass   1.00783
 Atom     2 has atomic number  8 and mass  15.99491
 Atom     3 has atomic number  8 and mass  15.99491
 Atom     4 has atomic number  7 and mass  14.00307
 Atom     5 has atomic number  8 and mass  15.99491
 Molecular mass:    62.99564 amu.
 Principal axes and moments of inertia in atomic units:
                           1         2         3
     Eigenvalues --    32.66921 358.18359 390.85280
           X            0.80586  -0.59211   0.00000
           Y            0.59211   0.80586   0.00000
           Z           -0.00000   0.00000   1.00000
 This molecule is an asymmetric top.
 Rotational symmetry number  1.
 Rotational temperatures (Kelvin)      2.65124     0.24181     0.22160
 Rotational constants (GHZ):          55.24288     5.03859     4.61744
    1 imaginary frequencies ignored.
 Zero-point vibrational energy      57676.6 (Joules/Mol)
                                   13.78504 (Kcal/Mol)
 Warning -- explicit consideration of   3 degrees of freedom as
           vibrations may cause significant error
 Vibrational temperatures:    323.12   487.78   654.90  1139.29  1427.65
          (Kelvin)           1991.79  2414.21  5435.06
 
 Zero-point correction=                           0.021968 (Hartree/Particle)
 Thermal correction to Energy=                    0.026086
 Thermal correction to Enthalpy=                  0.027030
 Thermal correction to Gibbs Free Energy=        -0.004156
 Sum of electronic and zero-point Energies=           -280.424702
 Sum of electronic and thermal Energies=              -280.420585
 Sum of electronic and thermal Enthalpies=            -280.419640
 Sum of electronic and thermal Free Energies=         -280.450826
 
                     E (Thermal)             CV                S
                      KCal/Mol        Cal/Mol-Kelvin    Cal/Mol-Kelvin
 Total                   16.369             11.914             65.635
 Electronic               0.000              0.000              0.000
 Translational            0.889              2.981             38.341
 Rotational               0.889              2.981             23.041
 Vibrational             14.592              5.952              4.254
 Vibration     1          0.649              1.804              1.922
 Vibration     2          0.719              1.598              1.217
 Vibration     3          0.814              1.349              0.780
                       Q            Log10(Q)             Ln(Q)
 Total Bot       0.815509D+02          1.911429          4.401227
 Total V=0       0.103737D+13         12.015933         27.667709
 Vib (Bot)       0.171409D-09         -9.765965        -22.486966
 Vib (Bot)    1  0.879065D+00         -0.055979         -0.128897
 Vib (Bot)    2  0.548036D+00         -0.261191         -0.601414
 Vib (Bot)    3  0.375156D+00         -0.425788         -0.980412
 Vib (V=0)       0.218042D+01          0.338539          0.779516
 Vib (V=0)    1  0.151131D+01          0.179355          0.412979
 Vib (V=0)    2  0.124185D+01          0.094070          0.216603
 Vib (V=0)    3  0.112509D+01          0.051189          0.117866
 Electronic      0.100000D+01          0.000000          0.000000
 Translational   0.196526D+08          7.293420         16.793719
 Rotational      0.242089D+05          4.383974         10.094474
 
                                                                title
                                                             IR Spectrum
 
     3                                                                      1         1                                              
     7                                                                      6         3            9      7          4   3   2       
     7                                                                      7         8            9      9          5   3   2       
     8                                                                      8         4            2      2          5   9   5       
 
     X                                                                      X         X            X      X          X   X   X       
     X                                                                      X         X            X      X          X               
     X                                                                      X         X                   X          X               
     X                                                                      X         X                   X          X               
     X                                                                      X         X                   X          X               
     X                                                                      X         X                   X          X               
     X                                                                      X         X                   X          X               
     X                                                                      X         X                   X          X               
                                                                            X         X                   X          X               
                                                                            X         X                   X          X               
                                                                            X         X                   X          X               
                                                                            X         X                   X          X               
                                                                            X         X                   X          X               
                                                                            X         X                   X          X               
                                                                                      X                   X          X               
                                                                                                          X          X               
                                                                                                          X          X               
                                                                                                                     X               
                                                                                                                     X               
                                                                                                                     X               
 
 ***** Axes restored to original set *****
 -------------------------------------------------------------------
 Center     Atomic                   Forces (Hartrees/Bohr)
 Number     Number              X              Y              Z
 -------------------------------------------------------------------
      1        1          -0.000735890   -0.000000000    0.000228047
      2        8          -0.005252061   -0.000000000   -0.001998178
      3        8           0.005241707    0.000000000    0.001862251
      4        7           0.000332982   -0.000000000   -0.000567345
      5        8           0.000413262    0.000000000    0.000475225
 -------------------------------------------------------------------
 Cartesian Forces:  Max     0.005252061 RMS     0.002064675
 -----------------------------------------------------------------------------------------------
                       Internal Coordinate Forces (Hartree/Bohr or radian)
  Cent   Atom   N1       Length/X         N2         Alpha/Y        N3         Beta/Z          J
 -----------------------------------------------------------------------------------------------
      1  H 
      2  O        1  -0.000228(     1)
      3  O        2   0.006169(     2)      1   0.001347(     5)
      4  N        3  -0.000031(     3)      2   0.001279(     6)      1  -0.000000(     8)     0
      5  O        4   0.000518(     4)      3   0.000792(     7)      2   0.000000(     9)     0
 -----------------------------------------------------------------------------------------------
 Internal  Forces:  Max     0.006169376 RMS     0.002172099
 Force constants in Cartesian coordinates: 
                1             2             3             4             5 
      1  0.658893D-01
      2  0.000000D+00 -0.227244D-02
      3  0.606639D-02  0.000000D+00  0.512076D+00
      4 -0.356547D-01  0.000000D+00 -0.168043D-01  0.289857D+00
      5  0.000000D+00  0.269992D-02  0.000000D+00  0.000000D+00  0.568934D-03
      6  0.488423D-01  0.000000D+00 -0.507920D+00  0.379489D-01  0.000000D+00
      7 -0.197129D-01  0.000000D+00  0.123370D-01 -0.236304D+00  0.000000D+00
      8  0.000000D+00  0.132728D-02  0.000000D+00  0.000000D+00 -0.494636D-02
      9 -0.545880D-01  0.000000D+00 -0.892288D-03 -0.231054D-01  0.000000D+00
     10 -0.921134D-02  0.000000D+00 -0.498218D-02 -0.178368D-01  0.000000D+00
     11  0.000000D+00 -0.282255D-02  0.000000D+00  0.000000D+00 -0.471962D-02
     12  0.548069D-02  0.000000D+00 -0.463323D-02  0.116811D-01  0.000000D+00
     13 -0.131038D-02  0.000000D+00  0.338308D-02 -0.615336D-04  0.000000D+00
     14  0.000000D+00  0.106779D-02  0.000000D+00  0.000000D+00  0.639713D-02
     15 -0.580137D-02  0.000000D+00  0.136954D-02 -0.972021D-02  0.000000D+00
                6             7             8             9            10 
      6  0.594978D+00
      7 -0.246067D-01  0.359335D+00
      8  0.000000D+00  0.000000D+00  0.246212D-02
      9 -0.788863D-01  0.404347D-01  0.000000D+00  0.181943D+00
     10 -0.539917D-01 -0.789870D-01  0.000000D+00  0.175281D+00  0.829956D+00
     11  0.000000D+00  0.000000D+00  0.828998D-02  0.000000D+00  0.000000D+00
     12  0.168415D-01  0.622497D-01  0.000000D+00 -0.819758D-01 -0.168404D-01
     13 -0.819275D-02 -0.243309D-01  0.000000D+00 -0.138022D+00 -0.723921D+00
     14  0.000000D+00  0.000000D+00 -0.713301D-02  0.000000D+00  0.000000D+00
     15 -0.250139D-01 -0.904148D-01  0.000000D+00 -0.201890D-01 -0.994662D-01
               11            12            13            14            15 
     11  0.884234D-02
     12  0.000000D+00  0.187278D+00
     13  0.000000D+00 -0.625711D-01  0.749623D+00
     14 -0.959016D-02  0.000000D+00  0.000000D+00  0.925825D-02
     15  0.000000D+00 -0.117510D+00  0.205403D+00  0.000000D+00  0.161344D+00
 Force constants in internal coordinates: 
                1             2             3             4             5 
      1  0.512076D+00
      2 -0.100944D-01  0.300989D+00
      3  0.338380D-02  0.288677D-02  0.118057D+00
      4 -0.361711D-02  0.652619D-02  0.152935D+00  0.812149D+00
      5  0.103723D-01  0.681656D-01  0.216486D-02  0.496025D-02  0.220505D+00
      6  0.473380D-02  0.620085D-01  0.425338D-01  0.216291D-01  0.313496D-01
      7 -0.107800D-02  0.385756D-01  0.329385D-01  0.852691D-01  0.214507D-01
      8  0.000000D+00  0.000000D+00  0.000000D+00  0.000000D+00  0.000000D+00
      9  0.000000D+00  0.000000D+00  0.000000D+00  0.000000D+00  0.000000D+00
                6             7             8             9 
      6  0.288998D+00
      7  0.966848D-01  0.484812D+00
      8  0.000000D+00  0.000000D+00 -0.807232D-02
      9  0.000000D+00  0.000000D+00 -0.405175D-02  0.412574D-01
 Leave Link  716 at Mon Feb 21 20:14:58 2022, MaxMem= 16106127360 cpu:               0.7 elap:               0.0
 (Enter /sw/contrib/gaussian/g16/B01/g16/l103.exe)

 GradGradGradGradGradGradGradGradGradGradGradGradGradGradGradGradGradGrad
 Berny optimization.
 Search for a local minimum.
 Step number   1 out of a maximum of    2
 All quantities printed in internal units (Hartrees-Bohrs-Radians)
 Second derivative matrix not updated -- analytic derivatives used.
 The second derivative matrix:
                          r1        r2        r3        r4        a1
           r1           0.51208
           r2          -0.01009   0.30099
           r3           0.00338   0.00289   0.11806
           r4          -0.00362   0.00653   0.15294   0.81215
           a1           0.01037   0.06817   0.00216   0.00496   0.22051
           a2           0.00473   0.06201   0.04253   0.02163   0.03135
           a3          -0.00108   0.03858   0.03294   0.08527   0.02145
           d1           0.00000  -0.00000  -0.00000  -0.00000  -0.00000
           d2          -0.00000   0.00000   0.00000   0.00000   0.00000
                          a2        a3        d1        d2
           a2           0.28900
           a3           0.09668   0.48481
           d1          -0.00000  -0.00000  -0.00807
           d2          -0.00000  -0.00000  -0.00405   0.04126
 ITU=  0
     Eigenvalues ---   -0.00840   0.04159   0.07876   0.18080   0.23163
     Eigenvalues ---    0.33896   0.51277   0.52289   0.87178
 Eigenvalue     1 is  -8.40D-03 should be greater than     0.000000 Eigenvector:
                          d1        d2        a3        a2        r3
   1                    0.99669   0.08132   0.00000   0.00000  -0.00000
                          r4        a1        r2        r1
   1                    0.00000  -0.00000   0.00000  -0.00000
 Angle between quadratic step and forces=  19.06 degrees.
 Linear search not attempted -- first point.
 Variable       Old X    -DE/DX   Delta X   Delta X   Delta X     New X
                                 (Linear)    (Quad)   (Total)
    r1        1.83110  -0.00023   0.00000  -0.00002  -0.00002   1.83108
    r2        2.72736   0.00617   0.00000   0.02050   0.02050   2.74786
    r3        2.75670  -0.00003   0.00000  -0.00193  -0.00193   2.75477
    r4        2.21236   0.00052   0.00000   0.00084   0.00084   2.21319
    a1        1.70335   0.00135   0.00000  -0.00026  -0.00026   1.70309
    a2        1.78543   0.00128   0.00000   0.00030   0.00030   1.78573
    a3        1.90362   0.00079   0.00000  -0.00006  -0.00006   1.90356
    d1        3.14159  -0.00000   0.00000  -0.00000   0.00000   3.14159
    d2        3.14159   0.00000   0.00000  -0.00000   0.00000   3.14159
         Item               Value     Threshold  Converged?
 Maximum Force            0.006169     0.000450     NO 
 RMS     Force            0.002172     0.000300     NO 
 Maximum Displacement     0.020503     0.001800     NO 
 RMS     Displacement     0.006871     0.001200     NO 
 Predicted change in Energy=-6.348240D-05
                       ----------------------------
                       ! Non-Optimized Parameters !
                       ! (Angstroms and Degrees)  !
 ----------------------                            ----------------------
 !      Name          Value   Derivative information (Atomic Units)     !
 ------------------------------------------------------------------------
 !       r1          0.969    -DE/DX =   -0.0002                        !
 !       r2          1.4541   -DE/DX =    0.0062                        !
 !       r3          1.4578   -DE/DX =    0.0                           !
 !       r4          1.1712   -DE/DX =    0.0005                        !
 !       a1         97.5799   -DE/DX =    0.0013                        !
 !       a2        102.3147   -DE/DX =    0.0013                        !
 !       a3        109.066    -DE/DX =    0.0008                        !
 !       d1        180.0      -DE/DX =    0.0                           !
 !       d2        180.0      -DE/DX =    0.0                           !
 ------------------------------------------------------------------------
 GradGradGradGradGradGradGradGradGradGradGradGradGradGradGradGradGradGrad

 Leave Link  103 at Mon Feb 21 20:14:58 2022, MaxMem= 16106127360 cpu:               0.6 elap:               0.0
 (Enter /sw/contrib/gaussian/g16/B01/g16/l9999.exe)

 ----------------------------------------------------------------------

 Electric dipole moment (input orientation):
 (Debye = 10**-18 statcoulomb cm , SI units = C m)
                  (au)            (Debye)         (10**-30 SI)
   Tot        0.575108D+00      0.146178D+01      0.487597D+01
   x         -0.147922D+00     -0.375980D+00     -0.125414D+01
   y          0.000000D+00      0.000000D+00      0.000000D+00
   z         -0.555759D+00     -0.141260D+01     -0.471192D+01

 Dipole polarizability, Alpha (input orientation).
 (esu units = cm**3 , SI units = C**2 m**2 J**-1)
 Alpha(0;0):
               (au)            (10**-24 esu)      (10**-40 SI)
   iso        0.273009D+02      0.404557D+01      0.450131D+01
   aniso      0.218178D+02      0.323306D+01      0.359727D+01
   xx         0.319297D+02      0.473150D+01      0.526450D+01
   yx         0.000000D+00      0.000000D+00      0.000000D+00
   yy         0.178890D+02      0.265087D+01      0.294949D+01
   zx         0.960353D+01      0.142310D+01      0.158341D+01
   zy         0.000000D+00      0.000000D+00      0.000000D+00
   zz         0.320840D+02      0.475435D+01      0.528993D+01

 ----------------------------------------------------------------------

 Dipole orientation:
     1         -0.00000000          0.00000000          0.00000000
     8         -0.47097254          0.00000000         -1.76949324
     8          2.04878747          0.00000000         -2.81318047
     7          1.56052932          0.00000000         -5.52629893
     8          3.49039771          0.00000000         -6.60802488

 Electric dipole moment (dipole orientation):
 (Debye = 10**-18 statcoulomb cm , SI units = C m)
                  (au)            (Debye)         (10**-30 SI)
   Tot        0.575108D+00      0.146178D+01      0.487597D+01
   x          0.000000D+00      0.000000D+00      0.000000D+00
   y          0.000000D+00      0.000000D+00      0.000000D+00
   z          0.575108D+00      0.146178D+01      0.487597D+01

 Dipole polarizability, Alpha (dipole orientation).
 (esu units = cm**3 , SI units = C**2 m**2 J**-1)
 Alpha(0;0):
               (au)            (10**-24 esu)      (10**-40 SI)
   iso        0.273009D+02      0.404557D+01      0.450131D+01
   aniso      0.218178D+02      0.323306D+01      0.359727D+01
   xx         0.271659D+02      0.402558D+01      0.447906D+01
   yx         0.000000D+00      0.000000D+00      0.000000D+00
   yy         0.178890D+02      0.265087D+01      0.294949D+01
   zx        -0.829454D+01     -0.122912D+01     -0.136758D+01
   zy         0.000000D+00      0.000000D+00      0.000000D+00
   zz         0.368477D+02      0.546027D+01      0.607537D+01

 ----------------------------------------------------------------------
 1\1\GINC-N2109\Freq\RMP2-FC\Aug-CC-pVTZ\H1N1O3\CGAVINH\21-Feb-2022\1\\
 #p freq mp2/aug-cc-pvtz density=current\\title\\0,1\H\O,1,r1\O,2,r2,1,
 a1\N,3,r3,2,a2,1,d1,0\O,4,r4,3,a3,2,d2,0\\r1=0.96897556\r2=1.44325491\
 r3=1.45878406\r4=1.17072885\a1=97.59494903\a2=102.29752444\a3=109.0695
 5123\d1=180.\d2=180.\\Version=ES64L-G16RevB.01\State=1-A'\HF=-279.5025
 719\MP2=-280.4466703\RMSD=3.683e-09\RMSF=2.065e-03\ZeroPoint=0.0219679
 \Thermal=0.0260857\Dipole=-0.1479221,0.,-0.5557587\DipoleDeriv=0.26676
 47,0.,0.0489634,0.,0.3560576,0.,0.08033,0.,0.2770419,-0.3289912,0.,-0.
 2126157,0.,-0.3144433,0.,-0.1063144,0.,-0.2199116,-0.0428887,0.,0.1555
 98,0.,-0.0863398,0.,-0.7522792,0.,-1.3567265,0.8944502,0.,0.9088911,0.
 ,0.0659693,0.,0.9186785,0.,1.668323,-0.789335,0.,-0.9008368,0.,-0.0212
 437,0.,-0.1404149,0.,-0.3687268\Polar=31.929741,0.,17.8889532,9.603526
 7,0.,32.0839548\Quadrupole=-1.5335801,-0.7141739,2.247754,0.,2.0779252
 ,0.\PG=CS [SG(H1N1O3)]\NImag=1\\0.06588931,0.,-0.00227244,0.00606639,0
 .,0.51207551,-0.03565469,0.,-0.01680428,0.28985707,0.,0.00269992,0.,0.
 ,0.00056893,0.04884227,0.,-0.50791953,0.03794887,0.,0.59497824,-0.0197
 1289,0.,0.01233699,-0.23630403,0.,-0.02460668,0.35933484,0.,0.00132728
 ,0.,0.,-0.00494636,0.,0.,0.00246212,-0.05458798,0.,-0.00089229,-0.0231
 0543,0.,-0.07888633,0.04043473,0.,0.18194345,-0.00921134,0.,-0.0049821
 8,-0.01783681,0.,-0.05399171,-0.07898703,0.,0.17528054,0.82995571,0.,-
 0.00282255,0.,0.,-0.00471962,0.,0.,0.00828998,0.,0.,0.00884234,0.00548
 069,0.,-0.00463323,0.01168106,0.,0.01684151,0.06224973,0.,-0.08197583,
 -0.01684040,0.,0.18727795,-0.00131038,0.,0.00338308,-0.00006153,0.,-0.
 00819275,-0.02433088,0.,-0.13802186,-0.72392053,0.,-0.06257108,0.74962
 333,0.,0.00106779,0.,0.,0.00639713,0.,0.,-0.00713301,0.,0.,-0.00959016
 ,0.,0.,0.00925825,-0.00580137,0.,0.00136954,-0.00972021,0.,-0.02501388
 ,-0.09041477,0.,-0.02018900,-0.09946625,0.,-0.11751039,0.20540260,0.,0
 .16134373\\0.00073589,0.,-0.00022805,0.00525206,0.,0.00199818,-0.00524
 171,0.,-0.00186225,-0.00033298,0.,0.00056734,-0.00041326,0.,-0.0004752
 3\\\@


 Some scientists claim that hydrogen, because it is so
 plentiful, is the basic building block of the universe. 
 I dispute that. I say that stupidity is far more
 abundant than hydrogen, and THAT is the basic building 
 block of the universe.
                   --Frank Zappa
 Job cpu time:       0 days  2 hours  0 minutes  5.0 seconds.
 Elapsed time:       0 days  0 hours  4 minutes 20.4 seconds.
 File lengths (MBytes):  RWF=   7239 Int=      0 D2E=      0 Chk=      8 Scr=      1
 Normal termination of Gaussian 16 at Mon Feb 21 20:14:59 2022.
