 Entering Gaussian System, Link 0=g16
 Input=hoono_d2_185p7231.gjf
 Output=hoono_d2_185p7231.log
 Initial command:
 /sw/contrib/gaussian/g16/B01/g16/l1.exe "/scr/Gau-19291.inp" -scrdir="/scr/"
 Entering Link 1 = /sw/contrib/gaussian/g16/B01/g16/l1.exe PID=     19292.
  
 Copyright (c) 1988-2017, Gaussian, Inc.  All Rights Reserved.
  
 This is part of the Gaussian(R) 16 program.  It is based on
 the Gaussian(R) 09 system (copyright 2009, Gaussian, Inc.),
 the Gaussian(R) 03 system (copyright 2003, Gaussian, Inc.),
 the Gaussian(R) 98 system (copyright 1998, Gaussian, Inc.),
 the Gaussian(R) 94 system (copyright 1995, Gaussian, Inc.),
 the Gaussian 92(TM) system (copyright 1992, Gaussian, Inc.),
 the Gaussian 90(TM) system (copyright 1990, Gaussian, Inc.),
 the Gaussian 88(TM) system (copyright 1988, Gaussian, Inc.),
 the Gaussian 86(TM) system (copyright 1986, Carnegie Mellon
 University), and the Gaussian 82(TM) system (copyright 1983,
 Carnegie Mellon University). Gaussian is a federally registered
 trademark of Gaussian, Inc.
  
 This software contains proprietary and confidential information,
 including trade secrets, belonging to Gaussian, Inc.
  
 This software is provided under written license and may be
 used, copied, transmitted, or stored only in accord with that
 written license.
  
 The following legend is applicable only to US Government
 contracts under FAR:
  
                    RESTRICTED RIGHTS LEGEND
  
 Use, reproduction and disclosure by the US Government is
 subject to restrictions as set forth in subparagraphs (a)
 and (c) of the Commercial Computer Software - Restricted
 Rights clause in FAR 52.227-19.
  
 Gaussian, Inc.
 340 Quinnipiac St., Bldg. 40, Wallingford CT 06492
  
  
 ---------------------------------------------------------------
 Warning -- This program may not be used in any manner that
 competes with the business of Gaussian, Inc. or will provide
 assistance to any competitor of Gaussian, Inc.  The licensee
 of this program is prohibited from giving any competitor of
 Gaussian, Inc. access to this program.  By using this program,
 the user acknowledges that Gaussian, Inc. is engaged in the
 business of creating and licensing software in the field of
 computational chemistry and represents and warrants to the
 licensee that it is not a competitor of Gaussian, Inc. and that
 it will not use this program in any manner prohibited above.
 ---------------------------------------------------------------
  

 Cite this work as:
 Gaussian 16, Revision B.01,
 M. J. Frisch, G. W. Trucks, H. B. Schlegel, G. E. Scuseria, 
 M. A. Robb, J. R. Cheeseman, G. Scalmani, V. Barone, 
 G. A. Petersson, H. Nakatsuji, X. Li, M. Caricato, A. V. Marenich, 
 J. Bloino, B. G. Janesko, R. Gomperts, B. Mennucci, H. P. Hratchian, 
 J. V. Ortiz, A. F. Izmaylov, J. L. Sonnenberg, D. Williams-Young, 
 F. Ding, F. Lipparini, F. Egidi, J. Goings, B. Peng, A. Petrone, 
 T. Henderson, D. Ranasinghe, V. G. Zakrzewski, J. Gao, N. Rega, 
 G. Zheng, W. Liang, M. Hada, M. Ehara, K. Toyota, R. Fukuda, 
 J. Hasegawa, M. Ishida, T. Nakajima, Y. Honda, O. Kitao, H. Nakai, 
 T. Vreven, K. Throssell, J. A. Montgomery, Jr., J. E. Peralta, 
 F. Ogliaro, M. J. Bearpark, J. J. Heyd, E. N. Brothers, K. N. Kudin, 
 V. N. Staroverov, T. A. Keith, R. Kobayashi, J. Normand, 
 K. Raghavachari, A. P. Rendell, J. C. Burant, S. S. Iyengar, 
 J. Tomasi, M. Cossi, J. M. Millam, M. Klene, C. Adamo, R. Cammi, 
 J. W. Ochterski, R. L. Martin, K. Morokuma, O. Farkas, 
 J. B. Foresman, and D. J. Fox, Gaussian, Inc., Wallingford CT, 2016.
 
 ******************************************
 Gaussian 16:  ES64L-G16RevB.01 20-Dec-2017
                21-Feb-2022 
 ******************************************
 %nproc=28
 Will use up to   28 processors via shared memory.
 %mem=120GB
 %chk=hoono_d2_185p7231.chk
 ---------------------------------------
 #p freq mp2/aug-cc-pvtz density=current
 ---------------------------------------
 1/10=4,30=1,38=1/1,3;
 2/12=2,17=6,18=5,40=1/2;
 3/5=16,6=1,7=10,11=9,25=1,30=1,71=2,140=1/1,2,3;
 4//1;
 5/5=2,38=5,98=1/2;
 8/6=3,8=1,10=1,19=11,30=-1/1;
 9/15=3,16=-3/6;
 11/6=1,8=1,15=11,17=12,24=-1,27=1,28=-2,29=300,32=6,42=3/1,2,10;
 10/6=2,21=1/2;
 8/6=4,8=1,10=1,19=11,30=-1/11,4;
 10/5=1,20=4/2;
 11/12=2,14=11,16=1,17=2,28=-2,42=3,76=2/2,10,12;
 6/7=2,8=2,9=2,10=2,22=-1/1;
 7/8=1,10=1,12=2,25=1,44=2/1,2,3,16;
 1/10=4,30=1/3;
 99//99;
 Leave Link    1 at Mon Feb 21 21:10:02 2022, MaxMem= 16106127360 cpu:              11.6 elap:               0.4
 (Enter /sw/contrib/gaussian/g16/B01/g16/l101.exe)
 -----
 title
 -----
 Symbolic Z-matrix:
 Charge =  0 Multiplicity = 1
 H
 O                    1    r1
 O                    2    r2       1    a1
 N                    3    r3       2    a2       1    d1       0
 O                    4    r4       3    a3       2    d2       0
       Variables:
  r1                    0.96898                  
  r2                    1.45492                  
  r3                    1.45878                  
  r4                    1.17073                  
  a1                   97.59495                  
  a2                  102.29752                  
  a3                  109.06955                  
  d1                  180.                       
  d2                  185.72313                  
 
 ITRead=  0  0  0  0  0
 MicOpt= -1 -1 -1 -1 -1
 NAtoms=      5 NQM=        5 NQMF=       0 NMMI=      0 NMMIF=      0
                NMic=       0 NMicF=      0.
                    Isotopes and Nuclear Properties:
 (Nuclear quadrupole moments (NQMom) in fm**2, nuclear magnetic moments (NMagM)
  in nuclear magnetons)

  Atom         1           2           3           4           5
 IAtWgt=           1          16          16          14          16
 AtmWgt=   1.0078250  15.9949146  15.9949146  14.0030740  15.9949146
 NucSpn=           1           0           0           2           0
 AtZEff=  -0.0000000  -0.0000000  -0.0000000  -0.0000000  -0.0000000
 NQMom=    0.0000000   0.0000000   0.0000000   2.0440000   0.0000000
 NMagM=    2.7928460   0.0000000   0.0000000   0.4037610   0.0000000
 AtZNuc=   1.0000000   8.0000000   8.0000000   7.0000000   8.0000000
 Leave Link  101 at Mon Feb 21 21:10:03 2022, MaxMem= 16106127360 cpu:               3.1 elap:               0.1
 (Enter /sw/contrib/gaussian/g16/B01/g16/l103.exe)

 GradGradGradGradGradGradGradGradGradGradGradGradGradGradGradGradGradGrad
 Berny optimization.
 Initialization pass.
                       ----------------------------
                       !    Initial Parameters    !
                       ! (Angstroms and Degrees)  !
 ----------------------                            ----------------------
 !      Name          Value   Derivative information (Atomic Units)     !
 ------------------------------------------------------------------------
 !       r1          0.969    calculate D2E/DX2 analytically            !
 !       r2          1.4549   calculate D2E/DX2 analytically            !
 !       r3          1.4588   calculate D2E/DX2 analytically            !
 !       r4          1.1707   calculate D2E/DX2 analytically            !
 !       a1         97.5949   calculate D2E/DX2 analytically            !
 !       a2        102.2975   calculate D2E/DX2 analytically            !
 !       a3        109.0696   calculate D2E/DX2 analytically            !
 !       d1        180.0      calculate D2E/DX2 analytically            !
 !       d2        185.7231   calculate D2E/DX2 analytically            !
 ------------------------------------------------------------------------
 Trust Radius=3.00D-01 FncErr=1.00D-07 GrdErr=1.00D-07 EigMax=2.50D+02 EigMin=1.00D-04
 Number of steps in this run=      2 maximum allowed number of steps=      2.
 GradGradGradGradGradGradGradGradGradGradGradGradGradGradGradGradGradGrad

 Leave Link  103 at Mon Feb 21 21:10:03 2022, MaxMem= 16106127360 cpu:               0.5 elap:               0.0
 (Enter /sw/contrib/gaussian/g16/B01/g16/l202.exe)
                          Input orientation:                          
 ---------------------------------------------------------------------
 Center     Atomic      Atomic             Coordinates (Angstroms)
 Number     Number       Type             X           Y           Z
 ---------------------------------------------------------------------
      1          1           0        0.000000    0.000000    0.000000
      2          8           0        0.000000    0.000000    0.968976
      3          8           0        1.442156    0.000000    1.161271
      4          7           0        1.561752    0.000000    2.615144
      5          8           0        2.690371    0.110340    2.906091
 ---------------------------------------------------------------------
                    Distance matrix (angstroms):
                    1          2          3          4          5
     1  H    0.000000
     2  O    0.968976   0.000000
     3  O    1.851584   1.454919   0.000000
     4  N    3.045989   2.269127   1.458784   0.000000
     5  O    3.961772   3.317030   2.148165   1.170729   0.000000
 Stoichiometry    HNO3
 Framework group  C1[X(HNO3)]
 Deg. of freedom     9
 Full point group                 C1      NOp   1
 Largest Abelian subgroup         C1      NOp   1
 Largest concise Abelian subgroup C1      NOp   1
                         Standard orientation:                         
 ---------------------------------------------------------------------
 Center     Atomic      Atomic             Coordinates (Angstroms)
 Number     Number       Type             X           Y           Z
 ---------------------------------------------------------------------
      1          1           0        2.248315    0.433680   -0.028952
      2          8           0        1.597721   -0.284371   -0.022386
      3          8           0        0.400648    0.541187    0.025193
      4          7           0       -0.664084   -0.455914    0.038883
      5          8           0       -1.698335    0.087899   -0.033211
 ---------------------------------------------------------------------
 Rotational constants (GHZ):          54.6582449           5.0140951           4.5976010
 Leave Link  202 at Mon Feb 21 21:10:03 2022, MaxMem= 16106127360 cpu:               0.3 elap:               0.0
 (Enter /sw/contrib/gaussian/g16/B01/g16/l301.exe)
 Standard basis: Aug-CC-pVTZ (5D, 7F)
 Ernie: Thresh=  0.10000D-02 Tol=  0.10000D-05 Strict=F.
 Ernie:  12 primitive shells out of 131 were deleted.
 There are   245 symmetry adapted cartesian basis functions of A   symmetry.
 There are   207 symmetry adapted basis functions of A   symmetry.
   207 basis functions,   315 primitive gaussians,   245 cartesian basis functions
    16 alpha electrons       16 beta electrons
       nuclear repulsion energy       116.8797829054 Hartrees.
 IExCor=    0 DFT=F Ex=HF Corr=None ExCW=0 ScaHFX=  1.000000
 ScaDFX=  1.000000  1.000000  1.000000  1.000000 ScalE2=  1.000000  1.000000
 IRadAn=      5 IRanWt=     -1 IRanGd=            0 ICorTp=0 IEmpDi=  4
 NAtoms=    5 NActive=    5 NUniq=    5 SFac= 1.00D+00 NAtFMM=   60 NAOKFM=F Big=F
 Integral buffers will be    131072 words long.
 Raffenetti 1 integral format.
 Two-electron integral symmetry is turned on.
 Leave Link  301 at Mon Feb 21 21:10:03 2022, MaxMem= 16106127360 cpu:               2.6 elap:               0.1
 (Enter /sw/contrib/gaussian/g16/B01/g16/l302.exe)
 NPDir=0 NMtPBC=     1 NCelOv=     1 NCel=       1 NClECP=     1 NCelD=      1
         NCelK=      1 NCelE2=     1 NClLst=     1 CellRange=     0.0.
 One-electron integrals computed using PRISM.
 One-electron integral symmetry used in STVInt
 NBasis=   207 RedAO= T EigKep=  1.81D-04  NBF=   207
 NBsUse=   207 1.00D-06 EigRej= -1.00D+00 NBFU=   207
 Leave Link  302 at Mon Feb 21 21:10:03 2022, MaxMem= 16106127360 cpu:               4.9 elap:               0.2
 (Enter /sw/contrib/gaussian/g16/B01/g16/l303.exe)
 DipDrv:  MaxL=1.
 Leave Link  303 at Mon Feb 21 21:10:03 2022, MaxMem= 16106127360 cpu:               1.4 elap:               0.1
 (Enter /sw/contrib/gaussian/g16/B01/g16/l401.exe)
 ExpMin= 2.53D-02 ExpMax= 1.53D+04 ExpMxC= 5.22D+02 IAcc=3 IRadAn=         5 AccDes= 0.00D+00
 Harris functional with IExCor=  205 and IRadAn=       5 diagonalized for initial guess.
 HarFok:  IExCor=  205 AccDes= 0.00D+00 IRadAn=         5 IDoV= 1 UseB2=F ITyADJ=14
 ICtDFT=  3500011 ScaDFX=  1.000000  1.000000  1.000000  1.000000
 FoFCou: FMM=F IPFlag=           0 FMFlag=      100000 FMFlg1=           0
         NFxFlg=           0 DoJE=T BraDBF=F KetDBF=T FulRan=T
         wScrn=  0.000000 ICntrl=       500 IOpCl=  0 I1Cent=   200000004 NGrid=           0
         NMat0=    1 NMatS0=      1 NMatT0=    0 NMatD0=    1 NMtDS0=    0 NMtDT0=    0
 Petite list used in FoFCou.
 Harris En= -279.628495803693    
 JPrj=0 DoOrth=F DoCkMO=F.
 Leave Link  401 at Mon Feb 21 21:10:03 2022, MaxMem= 16106127360 cpu:               6.4 elap:               0.3
 (Enter /sw/contrib/gaussian/g16/B01/g16/l502.exe)
 Keep R1 ints in memory in canonical form, NReq=245616893.
 FoFCou: FMM=F IPFlag=           0 FMFlag=           0 FMFlg1=           0
         NFxFlg=           0 DoJE=F BraDBF=F KetDBF=F FulRan=T
         wScrn=  0.000000 ICntrl=       600 IOpCl=  0 I1Cent=           0 NGrid=           0
         NMat0=    1 NMatS0=  21528 NMatT0=    0 NMatD0=    1 NMtDS0=    0 NMtDT0=    0
 Symmetry not used in FoFCou.
 Two-electron integral symmetry not used.
 Closed shell SCF:
 Using DIIS extrapolation, IDIIS=  1040.
 NGot= 16106127360 LenX= 15874260251 LenY= 15874199785
 Requested convergence on RMS density matrix=1.00D-08 within 128 cycles.
 Requested convergence on MAX density matrix=1.00D-06.
 Requested convergence on             energy=1.00D-06.
 No special actions if energy rises.

 Cycle   1  Pass 1  IDiag  1:
 E= -279.370473914449    
 DIIS: error= 2.44D-02 at cycle   1 NSaved=   1.
 NSaved= 1 IEnMin= 1 EnMin= -279.370473914449     IErMin= 1 ErrMin= 2.44D-02
 ErrMax= 2.44D-02  0.00D+00 EMaxC= 1.00D-01 BMatC= 4.38D-01 BMatP= 4.38D-01
 IDIUse=3 WtCom= 7.56D-01 WtEn= 2.44D-01
 Coeff-Com:  0.100D+01
 Coeff-En:   0.100D+01
 Coeff:      0.100D+01
 Gap=     0.519 Goal=   None    Shift=    0.000
 GapD=    0.519 DampG=2.000 DampE=0.500 DampFc=1.0000 IDamp=-1.
 RMSDP=1.62D-03 MaxDP=9.93D-02              OVMax= 1.13D-01

 Cycle   2  Pass 1  IDiag  1:
 E= -279.452445324938     Delta-E=       -0.081971410489 Rises=F Damp=F
 DIIS: error= 1.76D-02 at cycle   2 NSaved=   2.
 NSaved= 2 IEnMin= 2 EnMin= -279.452445324938     IErMin= 2 ErrMin= 1.76D-02
 ErrMax= 1.76D-02  0.00D+00 EMaxC= 1.00D-01 BMatC= 7.16D-02 BMatP= 4.38D-01
 IDIUse=3 WtCom= 8.24D-01 WtEn= 1.76D-01
 Coeff-Com:  0.194D+00 0.806D+00
 Coeff-En:   0.000D+00 0.100D+01
 Coeff:      0.160D+00 0.840D+00
 Gap=     0.534 Goal=   None    Shift=    0.000
 RMSDP=8.98D-04 MaxDP=3.73D-02 DE=-8.20D-02 OVMax= 6.87D-02

 Cycle   3  Pass 1  IDiag  1:
 E= -279.481498861969     Delta-E=       -0.029053537031 Rises=F Damp=F
 DIIS: error= 1.02D-02 at cycle   3 NSaved=   3.
 NSaved= 3 IEnMin= 3 EnMin= -279.481498861969     IErMin= 3 ErrMin= 1.02D-02
 ErrMax= 1.02D-02  0.00D+00 EMaxC= 1.00D-01 BMatC= 2.86D-02 BMatP= 7.16D-02
 IDIUse=3 WtCom= 8.98D-01 WtEn= 1.02D-01
 Coeff-Com: -0.330D-01 0.378D+00 0.655D+00
 Coeff-En:   0.000D+00 0.240D+00 0.760D+00
 Coeff:     -0.296D-01 0.364D+00 0.666D+00
 Gap=     0.510 Goal=   None    Shift=    0.000
 RMSDP=3.76D-04 MaxDP=1.54D-02 DE=-2.91D-02 OVMax= 3.79D-02

 Cycle   4  Pass 1  IDiag  1:
 E= -279.500480425315     Delta-E=       -0.018981563346 Rises=F Damp=F
 DIIS: error= 1.28D-03 at cycle   4 NSaved=   4.
 NSaved= 4 IEnMin= 4 EnMin= -279.500480425315     IErMin= 4 ErrMin= 1.28D-03
 ErrMax= 1.28D-03  0.00D+00 EMaxC= 1.00D-01 BMatC= 4.91D-04 BMatP= 2.86D-02
 IDIUse=3 WtCom= 9.87D-01 WtEn= 1.28D-02
 Coeff-Com: -0.117D-01 0.575D-01 0.158D+00 0.796D+00
 Coeff-En:   0.000D+00 0.000D+00 0.000D+00 0.100D+01
 Coeff:     -0.115D-01 0.567D-01 0.156D+00 0.799D+00
 Gap=     0.502 Goal=   None    Shift=    0.000
 RMSDP=9.01D-05 MaxDP=2.16D-03 DE=-1.90D-02 OVMax= 1.11D-02

 Cycle   5  Pass 1  IDiag  1:
 E= -279.501154477701     Delta-E=       -0.000674052385 Rises=F Damp=F
 DIIS: error= 7.35D-04 at cycle   5 NSaved=   5.
 NSaved= 5 IEnMin= 5 EnMin= -279.501154477701     IErMin= 5 ErrMin= 7.35D-04
 ErrMax= 7.35D-04  0.00D+00 EMaxC= 1.00D-01 BMatC= 8.70D-05 BMatP= 4.91D-04
 IDIUse=3 WtCom= 9.93D-01 WtEn= 7.35D-03
 Coeff-Com:  0.613D-02-0.724D-01-0.118D+00 0.199D-01 0.116D+01
 Coeff-En:   0.000D+00 0.000D+00 0.000D+00 0.000D+00 0.100D+01
 Coeff:      0.609D-02-0.719D-01-0.117D+00 0.197D-01 0.116D+01
 Gap=     0.502 Goal=   None    Shift=    0.000
 RMSDP=7.62D-05 MaxDP=2.10D-03 DE=-6.74D-04 OVMax= 1.11D-02

 Cycle   6  Pass 1  IDiag  1:
 E= -279.501469311927     Delta-E=       -0.000314834227 Rises=F Damp=F
 DIIS: error= 2.84D-04 at cycle   6 NSaved=   6.
 NSaved= 6 IEnMin= 6 EnMin= -279.501469311927     IErMin= 6 ErrMin= 2.84D-04
 ErrMax= 2.84D-04  0.00D+00 EMaxC= 1.00D-01 BMatC= 1.66D-05 BMatP= 8.70D-05
 IDIUse=3 WtCom= 9.97D-01 WtEn= 2.84D-03
 Coeff-Com:  0.587D-03 0.169D-02 0.470D-02-0.130D+00-0.232D+00 0.135D+01
 Coeff-En:   0.000D+00 0.000D+00 0.000D+00 0.000D+00 0.000D+00 0.100D+01
 Coeff:      0.585D-03 0.169D-02 0.469D-02-0.129D+00-0.231D+00 0.135D+01
 Gap=     0.502 Goal=   None    Shift=    0.000
 RMSDP=4.53D-05 MaxDP=1.06D-03 DE=-3.15D-04 OVMax= 5.55D-03

 Cycle   7  Pass 1  IDiag  1:
 E= -279.501541901940     Delta-E=       -0.000072590012 Rises=F Damp=F
 DIIS: error= 1.21D-04 at cycle   7 NSaved=   7.
 NSaved= 7 IEnMin= 7 EnMin= -279.501541901940     IErMin= 7 ErrMin= 1.21D-04
 ErrMax= 1.21D-04  0.00D+00 EMaxC= 1.00D-01 BMatC= 4.47D-06 BMatP= 1.66D-05
 IDIUse=3 WtCom= 9.99D-01 WtEn= 1.21D-03
 Coeff-Com: -0.937D-03 0.135D-01 0.264D-01-0.239D-01-0.286D+00 0.387D+00
 Coeff-Com:  0.884D+00
 Coeff-En:   0.000D+00 0.000D+00 0.000D+00 0.000D+00 0.000D+00 0.000D+00
 Coeff-En:   0.100D+01
 Coeff:     -0.936D-03 0.135D-01 0.264D-01-0.239D-01-0.286D+00 0.387D+00
 Coeff:      0.884D+00
 Gap=     0.502 Goal=   None    Shift=    0.000
 RMSDP=1.33D-05 MaxDP=3.77D-04 DE=-7.26D-05 OVMax= 1.55D-03

 Cycle   8  Pass 1  IDiag  1:
 E= -279.501550756535     Delta-E=       -0.000008854596 Rises=F Damp=F
 DIIS: error= 5.58D-05 at cycle   8 NSaved=   8.
 NSaved= 8 IEnMin= 8 EnMin= -279.501550756535     IErMin= 8 ErrMin= 5.58D-05
 ErrMax= 5.58D-05  0.00D+00 EMaxC= 1.00D-01 BMatC= 6.07D-07 BMatP= 4.47D-06
 IDIUse=1 WtCom= 1.00D+00 WtEn= 0.00D+00
 Coeff-Com: -0.449D-03 0.345D-02 0.762D-02 0.274D-01-0.409D-01-0.198D+00
 Coeff-Com:  0.175D+00 0.103D+01
 Coeff:     -0.449D-03 0.345D-02 0.762D-02 0.274D-01-0.409D-01-0.198D+00
 Coeff:      0.175D+00 0.103D+01
 Gap=     0.502 Goal=   None    Shift=    0.000
 RMSDP=6.89D-06 MaxDP=2.00D-04 DE=-8.85D-06 OVMax= 7.43D-04

 Cycle   9  Pass 1  IDiag  1:
 E= -279.501552528781     Delta-E=       -0.000001772245 Rises=F Damp=F
 DIIS: error= 1.58D-05 at cycle   9 NSaved=   9.
 NSaved= 9 IEnMin= 9 EnMin= -279.501552528781     IErMin= 9 ErrMin= 1.58D-05
 ErrMax= 1.58D-05  0.00D+00 EMaxC= 1.00D-01 BMatC= 6.97D-08 BMatP= 6.07D-07
 IDIUse=1 WtCom= 1.00D+00 WtEn= 0.00D+00
 Coeff-Com:  0.124D-03-0.173D-02-0.309D-02-0.210D-02 0.343D-01 0.247D-03
 Coeff-Com: -0.168D+00-0.103D+00 0.124D+01
 Coeff:      0.124D-03-0.173D-02-0.309D-02-0.210D-02 0.343D-01 0.247D-03
 Coeff:     -0.168D+00-0.103D+00 0.124D+01
 Gap=     0.502 Goal=   None    Shift=    0.000
 RMSDP=1.95D-06 MaxDP=5.18D-05 DE=-1.77D-06 OVMax= 1.75D-04

 Cycle  10  Pass 1  IDiag  1:
 E= -279.501552691474     Delta-E=       -0.000000162693 Rises=F Damp=F
 DIIS: error= 4.00D-06 at cycle  10 NSaved=  10.
 NSaved=10 IEnMin=10 EnMin= -279.501552691474     IErMin=10 ErrMin= 4.00D-06
 ErrMax= 4.00D-06  0.00D+00 EMaxC= 1.00D-01 BMatC= 5.66D-09 BMatP= 6.97D-08
 IDIUse=1 WtCom= 1.00D+00 WtEn= 0.00D+00
 Coeff-Com:  0.310D-04-0.240D-03-0.320D-03-0.271D-02 0.156D-02 0.198D-01
 Coeff-Com: -0.128D-01-0.745D-01-0.836D-01 0.115D+01
 Coeff:      0.310D-04-0.240D-03-0.320D-03-0.271D-02 0.156D-02 0.198D-01
 Coeff:     -0.128D-01-0.745D-01-0.836D-01 0.115D+01
 Gap=     0.502 Goal=   None    Shift=    0.000
 RMSDP=5.17D-07 MaxDP=2.10D-05 DE=-1.63D-07 OVMax= 4.19D-05

 Cycle  11  Pass 1  IDiag  1:
 E= -279.501552704666     Delta-E=       -0.000000013193 Rises=F Damp=F
 DIIS: error= 1.98D-06 at cycle  11 NSaved=  11.
 NSaved=11 IEnMin=11 EnMin= -279.501552704666     IErMin=11 ErrMin= 1.98D-06
 ErrMax= 1.98D-06  0.00D+00 EMaxC= 1.00D-01 BMatC= 7.01D-10 BMatP= 5.66D-09
 IDIUse=1 WtCom= 1.00D+00 WtEn= 0.00D+00
 Coeff-Com: -0.219D-04 0.251D-03 0.499D-03 0.562D-03-0.438D-02-0.378D-02
 Coeff-Com:  0.218D-01 0.317D-01-0.141D+00-0.188D+00 0.128D+01
 Coeff:     -0.219D-04 0.251D-03 0.499D-03 0.562D-03-0.438D-02-0.378D-02
 Coeff:      0.218D-01 0.317D-01-0.141D+00-0.188D+00 0.128D+01
 Gap=     0.502 Goal=   None    Shift=    0.000
 RMSDP=1.93D-07 MaxDP=6.52D-06 DE=-1.32D-08 OVMax= 1.78D-05

 Cycle  12  Pass 1  IDiag  1:
 E= -279.501552706714     Delta-E=       -0.000000002048 Rises=F Damp=F
 DIIS: error= 5.51D-07 at cycle  12 NSaved=  12.
 NSaved=12 IEnMin=12 EnMin= -279.501552706714     IErMin=12 ErrMin= 5.51D-07
 ErrMax= 5.51D-07  0.00D+00 EMaxC= 1.00D-01 BMatC= 8.27D-11 BMatP= 7.01D-10
 IDIUse=1 WtCom= 1.00D+00 WtEn= 0.00D+00
 Coeff-Com:  0.159D-05-0.337D-04-0.736D-04 0.185D-03 0.119D-02-0.236D-02
 Coeff-Com: -0.457D-02 0.524D-02 0.457D-01-0.117D+00-0.301D+00 0.137D+01
 Coeff:      0.159D-05-0.337D-04-0.736D-04 0.185D-03 0.119D-02-0.236D-02
 Coeff:     -0.457D-02 0.524D-02 0.457D-01-0.117D+00-0.301D+00 0.137D+01
 Gap=     0.502 Goal=   None    Shift=    0.000
 RMSDP=8.55D-08 MaxDP=2.81D-06 DE=-2.05D-09 OVMax= 7.25D-06

 Cycle  13  Pass 1  IDiag  1:
 E= -279.501552707019     Delta-E=       -0.000000000304 Rises=F Damp=F
 DIIS: error= 1.81D-07 at cycle  13 NSaved=  13.
 NSaved=13 IEnMin=13 EnMin= -279.501552707019     IErMin=13 ErrMin= 1.81D-07
 ErrMax= 1.81D-07  0.00D+00 EMaxC= 1.00D-01 BMatC= 6.94D-12 BMatP= 8.27D-11
 IDIUse=1 WtCom= 1.00D+00 WtEn= 0.00D+00
 Coeff-Com:  0.148D-05-0.154D-04-0.252D-04-0.108D-03 0.110D-03 0.961D-03
 Coeff-Com: -0.866D-03-0.405D-02-0.286D-03 0.507D-01-0.346D-01-0.392D+00
 Coeff-Com:  0.138D+01
 Coeff:      0.148D-05-0.154D-04-0.252D-04-0.108D-03 0.110D-03 0.961D-03
 Coeff:     -0.866D-03-0.405D-02-0.286D-03 0.507D-01-0.346D-01-0.392D+00
 Coeff:      0.138D+01
 Gap=     0.502 Goal=   None    Shift=    0.000
 RMSDP=2.95D-08 MaxDP=5.80D-07 DE=-3.04D-10 OVMax= 3.23D-06

 Cycle  14  Pass 1  IDiag  1:
 E= -279.501552707051     Delta-E=       -0.000000000032 Rises=F Damp=F
 DIIS: error= 1.08D-07 at cycle  14 NSaved=  14.
 NSaved=14 IEnMin=14 EnMin= -279.501552707051     IErMin=14 ErrMin= 1.08D-07
 ErrMax= 1.08D-07  0.00D+00 EMaxC= 1.00D-01 BMatC= 1.18D-12 BMatP= 6.94D-12
 IDIUse=1 WtCom= 1.00D+00 WtEn= 0.00D+00
 Coeff-Com: -0.543D-06 0.766D-05 0.130D-04 0.231D-04-0.154D-03-0.671D-04
 Coeff-Com:  0.634D-03 0.875D-03-0.390D-02-0.538D-02 0.343D-01 0.158D-01
 Coeff-Com: -0.503D+00 0.146D+01
 Coeff:     -0.543D-06 0.766D-05 0.130D-04 0.231D-04-0.154D-03-0.671D-04
 Coeff:      0.634D-03 0.875D-03-0.390D-02-0.538D-02 0.343D-01 0.158D-01
 Coeff:     -0.503D+00 0.146D+01
 Gap=     0.502 Goal=   None    Shift=    0.000
 RMSDP=1.31D-08 MaxDP=2.98D-07 DE=-3.20D-11 OVMax= 1.87D-06

 Cycle  15  Pass 1  IDiag  1:
 E= -279.501552707057     Delta-E=       -0.000000000006 Rises=F Damp=F
 DIIS: error= 6.31D-08 at cycle  15 NSaved=  15.
 NSaved=15 IEnMin=15 EnMin= -279.501552707057     IErMin=15 ErrMin= 6.31D-08
 ErrMax= 6.31D-08  0.00D+00 EMaxC= 1.00D-01 BMatC= 3.40D-13 BMatP= 1.18D-12
 IDIUse=1 WtCom= 1.00D+00 WtEn= 0.00D+00
 Coeff-Com:  0.593D-07-0.163D-05-0.431D-05 0.967D-05 0.877D-04-0.177D-03
 Coeff-Com: -0.244D-03 0.235D-03 0.303D-02-0.806D-02-0.165D-01 0.887D-01
 Coeff-Com: -0.992D-02-0.969D+00 0.191D+01
 Coeff:      0.593D-07-0.163D-05-0.431D-05 0.967D-05 0.877D-04-0.177D-03
 Coeff:     -0.244D-03 0.235D-03 0.303D-02-0.806D-02-0.165D-01 0.887D-01
 Coeff:     -0.992D-02-0.969D+00 0.191D+01
 Gap=     0.502 Goal=   None    Shift=    0.000
 RMSDP=1.05D-08 MaxDP=2.67D-07 DE=-6.31D-12 OVMax= 1.68D-06

 Cycle  16  Pass 1  IDiag  1:
 E= -279.501552707059     Delta-E=       -0.000000000002 Rises=F Damp=F
 DIIS: error= 2.43D-08 at cycle  16 NSaved=  16.
 NSaved=16 IEnMin=16 EnMin= -279.501552707059     IErMin=16 ErrMin= 2.43D-08
 ErrMax= 2.43D-08  0.00D+00 EMaxC= 1.00D-01 BMatC= 4.74D-14 BMatP= 3.40D-13
 IDIUse=1 WtCom= 1.00D+00 WtEn= 0.00D+00
 Coeff-Com:  0.534D-07-0.650D-06-0.219D-06-0.833D-05-0.721D-05 0.734D-04
 Coeff-Com: -0.320D-05-0.236D-03-0.459D-03 0.362D-02 0.411D-03-0.365D-01
 Coeff-Com:  0.101D+00 0.999D-01-0.749D+00 0.158D+01
 Coeff:      0.534D-07-0.650D-06-0.219D-06-0.833D-05-0.721D-05 0.734D-04
 Coeff:     -0.320D-05-0.236D-03-0.459D-03 0.362D-02 0.411D-03-0.365D-01
 Coeff:      0.101D+00 0.999D-01-0.749D+00 0.158D+01
 Gap=     0.502 Goal=   None    Shift=    0.000
 RMSDP=4.05D-09 MaxDP=1.13D-07 DE=-2.27D-12 OVMax= 7.26D-07

 SCF Done:  E(RHF) =  -279.501552707     A.U. after   16 cycles
            NFock= 16  Conv=0.40D-08     -V/T= 2.0024
 KE= 2.788459292703D+02 PE=-8.950871081723D+02 EE= 2.198598432895D+02
 Leave Link  502 at Mon Feb 21 21:10:12 2022, MaxMem= 16106127360 cpu:              50.6 elap:               8.3
 (Enter /sw/contrib/gaussian/g16/B01/g16/l801.exe)
 ExpMin= 2.53D-02 ExpMax= 1.53D+04 ExpMxC= 5.22D+02 IAcc=3 IRadAn=         5 AccDes= 0.00D+00
 HarFok:  IExCor=  205 AccDes= 0.00D+00 IRadAn=         5 IDoV=-2 UseB2=F ITyADJ=14
 ICtDFT= 12500011 ScaDFX=  1.000000  1.000000  1.000000  1.000000
 Largest valence mixing into a core orbital is  2.08D-04
 Largest core mixing into a valence orbital is  3.63D-05
 Range of M.O.s used for correlation:     5   207
 NBasis=   207 NAE=    16 NBE=    16 NFC=     4 NFV=     0
 NROrb=    203 NOA=    12 NOB=    12 NVA=   191 NVB=   191

 **** Warning!!: The largest alpha MO coefficient is  0.17664450D+02

 Leave Link  801 at Mon Feb 21 21:10:12 2022, MaxMem= 16106127360 cpu:               4.3 elap:               0.2
 (Enter /sw/contrib/gaussian/g16/B01/g16/l906.exe)
 Frozen-core derivative calculation, NFC=   4 NFV=   0.
 FulOut=F Deriv=T AODrv=T NAtomX=     5
   MMem=           0  MDisk=          12 MDiskD=          12
  W3Min=      811440 MinDsk=     2425030 NBas6D=         245
 NBas2D=       30762    NTT=       30135    LW2=     7400000
    MDV= 16105638402 MDiskM=      328645 NBas2p=       30702
 Disk-based method using ON**2 memory for 12 occupieds at a time.
 Permanent disk used for amplitudes=    11516536 words.
 Estimated scratch disk usage=   321251614 words.
 IMap=   1   2   3   4   5   6   7   8   9  10  11  12  13  14  15  16
 Actual    scratch disk usage=   310331678 words.
 JobTyp=1 Pass  1:  I=   5 to  16 NPSUse= 28 ParTrn=T ParDer=T DoDerP=T.
 (rs|ai) integrals will be sorted in core.
 Spin components of T(2) and E(2):
     alpha-alpha T2 =       0.3401660130D-01 E2=     -0.1223908845D+00
     alpha-beta  T2 =       0.1868242945D+00 E2=     -0.7001957423D+00
     beta-beta   T2 =       0.3401660130D-01 E2=     -0.1223908845D+00
 The integrals were generated   1 times.
 ANorm=    0.1120204221D+01
 E2 =    -0.9449775113D+00 EUMP2 =    -0.28044653021832D+03
 Leave Link  906 at Mon Feb 21 21:11:49 2022, MaxMem= 16106127360 cpu:            2727.8 elap:              97.5
 (Enter /sw/contrib/gaussian/g16/B01/g16/l1101.exe)
 Using compressed Sx but separate Hx and Fx, NAtomX=     5.
 Will process      6 centers per pass.
 Leave Link 1101 at Mon Feb 21 21:11:50 2022, MaxMem= 16106127360 cpu:               5.7 elap:               0.2
 (Enter /sw/contrib/gaussian/g16/B01/g16/l1102.exe)
 Leave Link 1102 at Mon Feb 21 21:11:50 2022, MaxMem= 16106127360 cpu:               1.3 elap:               0.1
 (Enter /sw/contrib/gaussian/g16/B01/g16/l1110.exe)
 Forming Gx(P) for the SCF density, NAtomX=     5.
 Integral derivatives from FoFJK, PRISM(SPDF).
 Do as many integral derivatives as possible in FoFJK.
 G2DrvN: MDV=   16106126844.
 G2DrvN: will do     6 centers at a time, making    1 passes.
 Calling FoFCou, ICntrl=  3107 FMM=F I1Cent=   0 AccDes= 0.00D+00.
 FoFJK:  IHMeth= 1 ICntrl=    3107 DoSepK=F KAlg= 0 I1Cent=           0 FoldK=F
 IRaf=         0 NMat=       1 IRICut=       1 DoRegI=T DoRafI=F ISym2E= 0 IDoP0=0 IntGTp=1.
 FoFCou: FMM=F IPFlag=           0 FMFlag=      100000 FMFlg1=           0
         NFxFlg=           0 DoJE=F BraDBF=F KetDBF=F FulRan=T
         wScrn=  0.000000 ICntrl=      3107 IOpCl=  0 I1Cent=           0 NGrid=           0
         NMat0=    1 NMatS0=      1 NMatT0=    0 NMatD0=    1 NMtDS0=    0 NMtDT0=    0
 Symmetry not used in FoFCou.
 End of G2Drv F.D. properties file   721 does not exist.
 End of G2Drv F.D. properties file   722 does not exist.
 End of G2Drv F.D. properties file   788 does not exist.
 Leave Link 1110 at Mon Feb 21 21:11:53 2022, MaxMem= 16106127360 cpu:              84.2 elap:               3.0
 (Enter /sw/contrib/gaussian/g16/B01/g16/l1002.exe)
 Minotr:  Closed shell wavefunction.
          IDoAtm=11111
          Frozen-core window.
          Direct CPHF calculation.
          Differentiating once with respect to electric field.
                with respect to dipole field.
          Differentiating once with respect to nuclear coordinates.
          Requested convergence is 1.0D-08 RMS, and 1.0D-07 maximum.
          Secondary convergence is 1.0D-12 RMS, and 1.0D-12 maximum.
          NewPWx=T KeepS1=T KeepF1=T KeepIn=T MapXYZ=F SortEE=F KeepMc=T.
 Keep R1 ints in memory in canonical form, NReq=245618134.
 FoFCou: FMM=F IPFlag=           0 FMFlag=           0 FMFlg1=           0
         NFxFlg=           0 DoJE=F BraDBF=F KetDBF=F FulRan=T
         wScrn=  0.000000 ICntrl=       600 IOpCl=  0 I1Cent=           0 NGrid=           0
         NMat0=    1 NMatS0=  21528 NMatT0=    0 NMatD0=    1 NMtDS0=    0 NMtDT0=    0
 Symmetry not used in FoFCou.
 Two-electron integral symmetry not used.
          MDV=   16106127360 using IRadAn=       1.
          Solving linear equations simultaneously, MaxMat=       0.
          There are    18 degrees of freedom in the 1st order CPHF.  IDoFFX=6 NUNeed=    18.
     15 vectors produced by pass  0 Test12= 1.70D-14 5.56D-09 XBig12= 9.50D+00 1.10D+00.
 AX will form    15 AO Fock derivatives at one time.
     15 vectors produced by pass  1 Test12= 1.70D-14 5.56D-09 XBig12= 1.16D+00 2.25D-01.
     15 vectors produced by pass  2 Test12= 1.70D-14 5.56D-09 XBig12= 1.24D-01 9.41D-02.
     15 vectors produced by pass  3 Test12= 1.70D-14 5.56D-09 XBig12= 4.08D-03 1.01D-02.
     15 vectors produced by pass  4 Test12= 1.70D-14 5.56D-09 XBig12= 7.52D-05 1.58D-03.
     15 vectors produced by pass  5 Test12= 1.70D-14 5.56D-09 XBig12= 9.82D-07 1.27D-04.
     15 vectors produced by pass  6 Test12= 1.70D-14 5.56D-09 XBig12= 7.85D-09 1.01D-05.
     12 vectors produced by pass  7 Test12= 1.70D-14 5.56D-09 XBig12= 5.85D-11 9.33D-07.
      3 vectors produced by pass  8 Test12= 1.70D-14 5.56D-09 XBig12= 4.55D-13 9.43D-08.
      2 vectors produced by pass  9 Test12= 1.70D-14 5.56D-09 XBig12= 3.31D-15 9.25D-09.
 InvSVY:  IOpt=1 It=  1 EMax= 1.33D-15
 Solved reduced A of dimension   122 with    15 vectors.
 FullF1:  Do perturbations      1 to      18.
 Saving first derivative matrices.
 End of Minotr F.D. properties file   721 does not exist.
 End of Minotr F.D. properties file   722 does not exist.
 End of Minotr F.D. properties file   788 does not exist.
 Leave Link 1002 at Mon Feb 21 21:11:56 2022, MaxMem= 16106127360 cpu:             101.5 elap:               3.7
 (Enter /sw/contrib/gaussian/g16/B01/g16/l811.exe)
 MDV= 16106127360.
 Form MO integral derivatives with frozen-active canonical formalism.
 MOERI=1 MOERIx=1 NAtoms=     5 NAtomX=     5.
 Discarding MO integrals.
 MO basis two electron integral derivatives will not be stored on disk.
 IAlg= 3 DoFC=T DoPWx=T Debug=F.
 Frozen-core window:  NFC=   4 NFV=   0.
 Reordered first order wavefunction length =     18678272
 In DefCFB: NBatch=  1 ICI= 16 ICA=191 LFMax= 96
            Large arrays: LIAPS=   619940160 LIARS=   288257200 words.
 In StABat: MaxSiz= 55 MinSiz= 25 NAtomB=  5
 DoIAMN: NPSUse= 28.
 Leave Link  811 at Mon Feb 21 21:13:29 2022, MaxMem= 16106127360 cpu:            2597.0 elap:              92.9
 (Enter /sw/contrib/gaussian/g16/B01/g16/l804.exe)
 Frozen-core window:  NFC=   4 NFV=   0.
 Closed-shell transformation, MDV= 16106127360 ITran=4 ISComp=1.
 Semi-Direct transformation.
 ModeAB=           2 MOrb=            16 LenV=   16104925835
 LASXX=     67341636 LTotXX=    67341636 LenRXX=    67341636
 LTotAB=    68301760 MaxLAS=    99807120 LenRXY=    99807120
 NonZer=   134683272 LenScr=   202817536 LnRSAI=           0
 LnScr1=           0 LExtra=           0 Total=    369966292
 MaxDsk=          -1 SrtSym=           F ITran=            4
 DoSDTr:  NPSUse= 28
 JobTyp=0 Pass  1:  I=   1 to  16.
 (rs|ai) integrals will be sorted in core.
 Complete sort for first half transformation.
 First half transformation complete.
 Begin second half transformation for I=  10.
 Begin second half transformation for I=  10.
 Complete sort for second half transformation.
 Second half transformation complete.
 SymMOI:  orbitals are not symmetric.
 Spin components of T(2) and E(2):
     alpha-alpha T2 =       0.3401660130D-01 E2=     -0.1223908845D+00
     alpha-beta  T2 =       0.1868242945D+00 E2=     -0.7001957423D+00
     beta-beta   T2 =       0.3401660130D-01 E2=     -0.1223908845D+00
 ANorm=    0.1584208002D+01
 E2 =    -0.9449775113D+00 EUMP2 =    -0.28044653021832D+03
 Leave Link  804 at Mon Feb 21 21:13:43 2022, MaxMem= 16106127360 cpu:             386.7 elap:              13.9
 (Enter /sw/contrib/gaussian/g16/B01/g16/l1002.exe)
 Minotr:  Closed shell wavefunction.
          Computing MP2/KS-MP2 derivatives.
          Using Z-Vector for PSCF gradient.
          Skipping F1 and S1 gradient terms here.
          IDoAtm=11111
          Frozen-core window.
          Using MO integrals in the linear equations.
          Forming densities via direct SCF.
          Differentiating once with respect to electric field.
                with respect to dipole field.
          Differentiating once with respect to nuclear coordinates.
          Requested convergence is 1.0D-10 RMS, and 1.0D-09 maximum.
          NewPWx=F KeepS1=T KeepF1=T KeepIn=T MapXYZ=F SortEE=F KeepMc=T.
          MDV=   16106127360 using IRadAn=       5.
          Solving linear equations separately, MaxMat=       0.
          There are     1 degrees of freedom in the 1st order CPHF.  IDoFFX=0 NUNeed=     1.
 FoFJK:  IHMeth= 1 ICntrl=       0 DoSepK=F KAlg= 0 I1Cent=           0 FoldK=F
 IRaf=         0 NMat=       1 IRICut=       1 DoRegI=T DoRafI=F ISym2E= 0 IDoP0=0 IntGTp=1.
 FoFCou: FMM=F IPFlag=           0 FMFlag=      100000 FMFlg1=           0
         NFxFlg=           0 DoJE=F BraDBF=F KetDBF=F FulRan=T
         wScrn=  0.000000 ICntrl=         0 IOpCl=  0 I1Cent=           0 NGrid=           0
         NMat0=    1 NMatS0=      1 NMatT0=    0 NMatD0=    1 NMtDS0=    0 NMtDT0=    0
 Symmetry not used in FoFCou.
 LinEq1:  Iter=  0 NonCon=     1 RMS=5.95D-03 Max=1.31D-01 NDo=     1
 LinEq1:  Iter=  1 NonCon=     1 RMS=1.90D-03 Max=3.81D-02 NDo=     1
 LinEq1:  Iter=  2 NonCon=     1 RMS=8.67D-04 Max=1.37D-02 NDo=     1
 LinEq1:  Iter=  3 NonCon=     1 RMS=3.86D-04 Max=7.79D-03 NDo=     1
 LinEq1:  Iter=  4 NonCon=     1 RMS=1.19D-04 Max=1.85D-03 NDo=     1
 LinEq1:  Iter=  5 NonCon=     1 RMS=4.55D-05 Max=7.18D-04 NDo=     1
 LinEq1:  Iter=  6 NonCon=     1 RMS=2.04D-05 Max=2.13D-04 NDo=     1
 LinEq1:  Iter=  7 NonCon=     1 RMS=8.18D-06 Max=1.37D-04 NDo=     1
 LinEq1:  Iter=  8 NonCon=     1 RMS=3.52D-06 Max=3.31D-05 NDo=     1
 LinEq1:  Iter=  9 NonCon=     1 RMS=9.78D-07 Max=1.23D-05 NDo=     1
 LinEq1:  Iter= 10 NonCon=     1 RMS=2.11D-07 Max=3.79D-06 NDo=     1
 LinEq1:  Iter= 11 NonCon=     1 RMS=5.39D-08 Max=1.48D-06 NDo=     1
 LinEq1:  Iter= 12 NonCon=     1 RMS=1.73D-08 Max=4.03D-07 NDo=     1
 LinEq1:  Iter= 13 NonCon=     1 RMS=3.81D-09 Max=6.42D-08 NDo=     1
 LinEq1:  Iter= 14 NonCon=     1 RMS=7.76D-10 Max=1.23D-08 NDo=     1
 LinEq1:  Iter= 15 NonCon=     1 RMS=1.81D-10 Max=2.86D-09 NDo=     1
 LinEq1:  Iter= 16 NonCon=     0 RMS=4.69D-11 Max=6.31D-10 NDo=     1
 Linear equations converged to 1.000D-10 1.000D-09 after    16 iterations.
 End of Minotr F.D. properties file   721 does not exist.
 End of Minotr F.D. properties file   722 does not exist.
 End of Minotr F.D. properties file   788 does not exist.
 Leave Link 1002 at Mon Feb 21 21:13:46 2022, MaxMem= 16106127360 cpu:              66.0 elap:               2.4
 (Enter /sw/contrib/gaussian/g16/B01/g16/l1102.exe)
 Use density number 2.
 Symmetrizing basis deriv contribution to polar:
 IMax=3 JMax=2 DiffMx= 0.00D+00
 Leave Link 1102 at Mon Feb 21 21:13:46 2022, MaxMem= 16106127360 cpu:               0.6 elap:               0.1
 (Enter /sw/contrib/gaussian/g16/B01/g16/l1110.exe)
 Forming Gx(P) for generalized density number  2 NAtomX=     5.
 Integral derivatives from FoFJK, PRISM(SPDF).
 Do as many integral derivatives as possible in FoFJK.
 G2DrvN: MDV=   16106126844.
 G2DrvN: will do     6 centers at a time, making    1 passes.
 Calling FoFCou, ICntrl=  3107 FMM=F I1Cent=   0 AccDes= 0.00D+00.
 FoFJK:  IHMeth= 1 ICntrl=    3107 DoSepK=F KAlg= 0 I1Cent=           0 FoldK=F
 IRaf=         0 NMat=       1 IRICut=       1 DoRegI=T DoRafI=F ISym2E= 0 IDoP0=0 IntGTp=1.
 FoFCou: FMM=F IPFlag=           0 FMFlag=      100000 FMFlg1=           0
         NFxFlg=           0 DoJE=F BraDBF=F KetDBF=F FulRan=T
         wScrn=  0.000000 ICntrl=      3107 IOpCl=  0 I1Cent=           0 NGrid=           0
         NMat0=    1 NMatS0=      1 NMatT0=    0 NMatD0=    1 NMtDS0=    0 NMtDT0=    0
 Symmetry not used in FoFCou.
 End of G2Drv F.D. properties file   721 does not exist.
 End of G2Drv F.D. properties file   722 does not exist.
 End of G2Drv F.D. properties file   788 does not exist.
 Leave Link 1110 at Mon Feb 21 21:13:49 2022, MaxMem= 16106127360 cpu:              83.2 elap:               3.0
 (Enter /sw/contrib/gaussian/g16/B01/g16/l1112.exe)
 MP22nd: MDV=   16106127360
 This link is doing NAtomX=     5 total of    18 degrees of freedom.
 Using ON3 I/O method in MakUI.
 Frozen-core window:  NFC=   4 NFV=   0.
 Using Ix for Sx.
 Use MO integrals over full window.
 Using OV2 memory method for fx*t*t/D, MaxI=    16 DoOO2=F NP=  28.
 R2 and R3 integrals will be kept in memory, NReq=   915591705.
 FoFCou: FMM=F IPFlag=           0 FMFlag=           0 FMFlg1=           0
         NFxFlg=           0 DoJE=F BraDBF=F KetDBF=F FulRan=T
         wScrn=  0.000000 ICntrl=       600 IOpCl=  0 I1Cent=           0 NGrid=           0
         NMat0=    1 NMatS0=      1 NMatT0=    0 NMatD0=    1 NMtDS0=    0 NMtDT0=    0
 Symmetry not used in FoFCou.
 DD1Dir will call FoFMem   1 times, MxPair=       272
 NAB=   136 NAA=     0 NBB=     0.
 Symmetry is being used.
 FoFJK:  IHMeth= 1 ICntrl=       0 DoSepK=F KAlg= 0 I1Cent=           0 FoldK=F
 IRaf=         0 NMat=      18 IRICut=      45 DoRegI=T DoRafI=T ISym2E= 2 IDoP0=3 IntGTp=3.
 Discarding MO integrals.
 Leave Link 1112 at Mon Feb 21 21:14:25 2022, MaxMem= 16106127360 cpu:            1006.4 elap:              36.3
 (Enter /sw/contrib/gaussian/g16/B01/g16/l601.exe)
 Copying SCF densities to generalized density rwf, IOpCl= 0 IROHF=0.

 **********************************************************************

            Population analysis using the MP2 Density.

 **********************************************************************

 Orbital symmetries:
       Occupied  (A) (A) (A) (A) (A) (A) (A) (A) (A) (A) (A) (A)
                 (A) (A) (A) (A)
       Virtual   (A) (A) (A) (A) (A) (A) (A) (A) (A) (A) (A) (A)
                 (A) (A) (A) (A) (A) (A) (A) (A) (A) (A) (A) (A)
                 (A) (A) (A) (A) (A) (A) (A) (A) (A) (A) (A) (A)
                 (A) (A) (A) (A) (A) (A) (A) (A) (A) (A) (A) (A)
                 (A) (A) (A) (A) (A) (A) (A) (A) (A) (A) (A) (A)
                 (A) (A) (A) (A) (A) (A) (A) (A) (A) (A) (A) (A)
                 (A) (A) (A) (A) (A) (A) (A) (A) (A) (A) (A) (A)
                 (A) (A) (A) (A) (A) (A) (A) (A) (A) (A) (A) (A)
                 (A) (A) (A) (A) (A) (A) (A) (A) (A) (A) (A) (A)
                 (A) (A) (A) (A) (A) (A) (A) (A) (A) (A) (A) (A)
                 (A) (A) (A) (A) (A) (A) (A) (A) (A) (A) (A) (A)
                 (A) (A) (A) (A) (A) (A) (A) (A) (A) (A) (A) (A)
                 (A) (A) (A) (A) (A) (A) (A) (A) (A) (A) (A) (A)
                 (A) (A) (A) (A) (A) (A) (A) (A) (A) (A) (A) (A)
                 (A) (A) (A) (A) (A) (A) (A) (A) (A) (A) (A) (A)
                 (A) (A) (A) (A) (A) (A) (A) (A) (A) (A) (A)
 The electronic state is 1-A.
 Alpha  occ. eigenvalues --  -20.69072 -20.68440 -20.66000 -15.81276  -1.62405
 Alpha  occ. eigenvalues --   -1.49571  -1.25439  -0.94806  -0.77275  -0.75915
 Alpha  occ. eigenvalues --   -0.71213  -0.67901  -0.62057  -0.58935  -0.48522
 Alpha  occ. eigenvalues --   -0.47248
 Alpha virt. eigenvalues --    0.02963   0.07153   0.08603   0.10172   0.13218
 Alpha virt. eigenvalues --    0.13560   0.14410   0.15455   0.17804   0.19410
 Alpha virt. eigenvalues --    0.19949   0.20666   0.22093   0.23437   0.23867
 Alpha virt. eigenvalues --    0.26545   0.29343   0.30313   0.31169   0.34340
 Alpha virt. eigenvalues --    0.34991   0.38720   0.42118   0.43065   0.52533
 Alpha virt. eigenvalues --    0.53140   0.55831   0.58123   0.62603   0.63847
 Alpha virt. eigenvalues --    0.67184   0.68738   0.70650   0.71140   0.72515
 Alpha virt. eigenvalues --    0.72986   0.74477   0.78971   0.79438   0.80757
 Alpha virt. eigenvalues --    0.81565   0.83012   0.86806   0.90781   0.92191
 Alpha virt. eigenvalues --    0.92635   0.95609   0.97596   0.98547   1.01608
 Alpha virt. eigenvalues --    1.04945   1.05529   1.08546   1.11685   1.13975
 Alpha virt. eigenvalues --    1.19059   1.22177   1.23212   1.33828   1.35121
 Alpha virt. eigenvalues --    1.38810   1.45160   1.48747   1.50853   1.53808
 Alpha virt. eigenvalues --    1.56515   1.58181   1.61323   1.66294   1.66909
 Alpha virt. eigenvalues --    1.70400   1.79135   1.82843   1.83783   1.87999
 Alpha virt. eigenvalues --    1.91094   1.95596   1.99090   2.00791   2.07752
 Alpha virt. eigenvalues --    2.11983   2.13058   2.15142   2.22558   2.26389
 Alpha virt. eigenvalues --    2.26577   2.28999   2.31400   2.34510   2.38649
 Alpha virt. eigenvalues --    2.41841   2.43302   2.45394   2.46264   2.47761
 Alpha virt. eigenvalues --    2.50266   2.59047   2.59645   2.61856   2.62447
 Alpha virt. eigenvalues --    2.63547   2.66662   2.75486   2.82066   2.85424
 Alpha virt. eigenvalues --    2.88535   2.90079   2.92301   2.96189   3.02695
 Alpha virt. eigenvalues --    3.06914   3.12188   3.20513   3.22567   3.31514
 Alpha virt. eigenvalues --    3.34219   3.51499   3.64013   3.83682   3.84697
 Alpha virt. eigenvalues --    4.14892   4.16186   4.18407   4.25664   4.35183
 Alpha virt. eigenvalues --    4.39353   4.46433   4.51920   4.65847   4.70967
 Alpha virt. eigenvalues --    4.80577   4.82412   4.82721   4.89896   5.02267
 Alpha virt. eigenvalues --    5.07494   5.10457   5.14645   5.17910   5.24372
 Alpha virt. eigenvalues --    5.27288   5.30560   5.32913   5.35519   5.60592
 Alpha virt. eigenvalues --    5.67420   5.76880   5.82886   5.95804   6.16903
 Alpha virt. eigenvalues --    6.30974   6.33730   6.39415   6.49345   6.50539
 Alpha virt. eigenvalues --    6.61454   6.66733   6.69872   6.75671   6.76396
 Alpha virt. eigenvalues --    6.83238   6.89810   7.01451   7.05408   7.05853
 Alpha virt. eigenvalues --    7.09030   7.12504   7.15223   7.18158   7.22533
 Alpha virt. eigenvalues --    7.24195   7.30790   7.32620   7.34824   7.39930
 Alpha virt. eigenvalues --    7.43202   7.48353   7.59148   7.62557   7.63132
 Alpha virt. eigenvalues --    7.66901   7.78984   7.88638   8.09200   8.31310
 Alpha virt. eigenvalues --    8.40870   8.54340  13.39312  14.39044  15.16305
 Alpha virt. eigenvalues --   16.14966
          Condensed to atoms (all electrons):
               1          2          3          4          5
     1  H    0.589533   0.128409   0.019888   0.012434  -0.000638
     2  O    0.128409   8.321368  -0.173157  -0.090465   0.015391
     3  O    0.019888  -0.173157   8.470248  -0.130556  -0.038797
     4  N    0.012434  -0.090465  -0.130556   6.972684  -0.055714
     5  O   -0.000638   0.015391  -0.038797  -0.055714   8.272576
 Mulliken charges:
               1
     1  H    0.250373
     2  O   -0.201546
     3  O   -0.147626
     4  N    0.291617
     5  O   -0.192818
 Sum of Mulliken charges =  -0.00000
 Mulliken charges with hydrogens summed into heavy atoms:
               1
     2  O    0.048827
     3  O   -0.147626
     4  N    0.291617
     5  O   -0.192818
 APT charges:
               1
     1  H    0.299218
     2  O   -0.288053
     3  O   -0.495952
     4  N    0.875858
     5  O   -0.391071
 Sum of APT charges =  -0.00000
 APT charges with hydrogens summed into heavy atoms:
               1
     2  O    0.011165
     3  O   -0.495952
     4  N    0.875858
     5  O   -0.391071
 Electronic spatial extent (au):  <R**2>=            252.7682
 Charge=             -0.0000 electrons
 Dipole moment (field-independent basis, Debye):
    X=              1.2152    Y=              0.7903    Z=             -0.0106  Tot=              1.4497
 Quadrupole moment (field-independent basis, Debye-Ang):
   XX=            -17.9834   YY=            -23.0931   ZZ=            -22.0161
   XY=              2.7856   XZ=             -0.1559   YZ=              0.0608
 Traceless Quadrupole moment (field-independent basis, Debye-Ang):
   XX=              3.0474   YY=             -2.0622   ZZ=             -0.9852
   XY=              2.7856   XZ=             -0.1559   YZ=              0.0608
 Octapole moment (field-independent basis, Debye-Ang**2):
  XXX=             18.1850  YYY=              1.7515  ZZZ=             -0.0860  XYY=              1.0831
  XXY=              6.1999  XXZ=             -0.1927  XZZ=             -1.7689  YZZ=              0.2558
  YYZ=             -0.1140  XYZ=             -0.1375
 Hexadecapole moment (field-independent basis, Debye-Ang**3):
 XXXX=           -189.8870 YYYY=            -41.0586 ZZZZ=            -18.3752 XXXY=             12.1151
 XXXZ=             -0.8486 YYYX=              1.0004 YYYZ=              0.1954 ZZZX=              0.1309
 ZZZY=              0.0421 XXYY=            -42.4211 XXZZ=            -41.6284 YYZZ=             -9.9043
 XXYZ=              0.0013 YYXZ=             -0.0477 ZZXY=              0.4749
 N-N= 1.168797829054D+02 E-N=-8.958706239143D+02  KE= 2.801978536119D+02
  Exact polarizability:  41.690   0.974  22.515   0.092  -0.064  17.953
 Approx polarizability:  31.922  -1.128  20.573   0.187  -0.013  15.552
 No NMR shielding tensors so no spin-rotation constants.
 Leave Link  601 at Mon Feb 21 21:14:25 2022, MaxMem= 16106127360 cpu:               4.1 elap:               0.2
 (Enter /sw/contrib/gaussian/g16/B01/g16/l701.exe)
 ... and contract with generalized density number  2.
 Compute integral second derivatives.
 Leave Link  701 at Mon Feb 21 21:14:26 2022, MaxMem= 16106127360 cpu:               6.0 elap:               0.2
 (Enter /sw/contrib/gaussian/g16/B01/g16/l702.exe)
 L702 exits ... SP integral derivatives will be done elsewhere.
 Leave Link  702 at Mon Feb 21 21:14:26 2022, MaxMem= 16106127360 cpu:               0.8 elap:               0.1
 (Enter /sw/contrib/gaussian/g16/B01/g16/l703.exe)
 Integral derivatives from FoFJK, PRISM(SPDF).
 Compute integral second derivatives, UseDBF=F ICtDFT=           0.
 Calling FoFJK, ICntrl=  10100127 FMM=F ISym2X=0 I1Cent= 0 IOpClX= 0 NMat=1 NMatS=1 NMatT=0.
 FoFJK:  IHMeth= 1 ICntrl=10100127 DoSepK=F KAlg= 0 I1Cent=           0 FoldK=F
 IRaf=         0 NMat=       1 IRICut=       1 DoRegI=T DoRafI=F ISym2E= 0 IDoP0=0 IntGTp=1.
 FoFCou: FMM=F IPFlag=           0 FMFlag=      100000 FMFlg1=         800
         NFxFlg=           0 DoJE=F BraDBF=F KetDBF=F FulRan=T
         wScrn=  0.000000 ICntrl=  10100127 IOpCl=  0 I1Cent=           0 NGrid=           0
         NMat0=    1 NMatS0=      1 NMatT0=    0 NMatD0=    1 NMtDS0=    0 NMtDT0=    0
 Symmetry not used in FoFCou.
 Leave Link  703 at Mon Feb 21 21:14:41 2022, MaxMem= 16106127360 cpu:             421.3 elap:              15.1
 (Enter /sw/contrib/gaussian/g16/B01/g16/l716.exe)
 Dipole        = 4.78102446D-01 3.10946075D-01-4.17848690D-03
 Polarizability= 4.16900837D+01 9.73737080D-01 2.25151124D+01
                 9.24719963D-02-6.41030851D-02 1.79529634D+01
 Full mass-weighted force constant matrix:
 Low frequencies --- -269.8287  -17.8241   -8.1891   -0.0010   -0.0003    0.0006
 Low frequencies ---    2.0613  225.9757  342.1156
 ******    1 imaginary frequencies (negative Signs) ****** 
 Diagonal vibrational polarizability:
       34.9563121       4.5520041      46.4511081
 Harmonic frequencies (cm**-1), IR intensities (KM/Mole), Raman scattering
 activities (A**4/AMU), depolarization ratios for plane and unpolarized
 incident light, reduced masses (AMU), force constants (mDyne/A),
 and normal coordinates:
                      1                      2                      3
                      A                      A                      A
 Frequencies --   -269.8283               225.9732               341.9785
 Red. masses --      1.1384                10.5254                 8.6453
 Frc consts  --      0.0488                 0.3167                 0.5957
 IR Inten    --    124.7180                 1.7192                 4.1613
  Atom  AN      X      Y      Z        X      Y      Z        X      Y      Z
     1   1     0.03  -0.02   0.99     0.00  -0.06  -0.57     0.17  -0.67   0.04
     2   8    -0.00   0.00  -0.06    -0.04  -0.02  -0.31    -0.30  -0.25   0.02
     3   8     0.00   0.00  -0.04     0.03   0.05   0.33     0.14   0.43   0.01
     4   7    -0.00   0.00   0.06    -0.01   0.02   0.52     0.19   0.18  -0.08
     5   8     0.00  -0.00  -0.01     0.03  -0.04  -0.44    -0.02  -0.30   0.04
                      4                      5                      6
                      A                      A                      A
 Frequencies --    451.9166               785.7755               967.2189
 Red. masses --     12.3024                12.9096                15.3948
 Frc consts  --      1.4803                 4.6963                 8.4854
 IR Inten    --    199.1743               170.3230                22.4176
  Atom  AN      X      Y      Z        X      Y      Z        X      Y      Z
     1   1    -0.45   0.09  -0.00    -0.16   0.35   0.03    -0.16   0.07  -0.01
     2   8    -0.38   0.03  -0.00     0.39  -0.18  -0.02    -0.40   0.33   0.01
     3   8    -0.40  -0.25  -0.00    -0.21  -0.18   0.03     0.59  -0.46  -0.01
     4   7     0.52   0.12   0.01     0.26   0.58  -0.00     0.05   0.27  -0.00
     5   8     0.35   0.11  -0.01    -0.39  -0.17  -0.01    -0.22  -0.11  -0.01
                      7                      8                      9
                      A                      A                      A
 Frequencies --   1371.1066              1676.9829              3778.6874
 Red. masses --      1.1334                13.2094                 1.0675
 Frc consts  --      1.2554                21.8872                 8.9809
 IR Inten    --    152.6840               140.2719                82.6165
  Atom  AN      X      Y      Z        X      Y      Z        X      Y      Z
     1   1     0.77  -0.63  -0.04     0.27  -0.21  -0.01     0.67   0.74  -0.01
     2   8     0.01   0.06   0.00     0.03   0.03  -0.00    -0.04  -0.05   0.00
     3   8    -0.05  -0.03   0.00    -0.09  -0.12   0.00     0.00  -0.00  -0.00
     4   7     0.02  -0.00   0.00    -0.53   0.46  -0.04    -0.00  -0.00  -0.00
     5   8    -0.03   0.01  -0.00     0.52  -0.30   0.04     0.00  -0.00   0.00

 -------------------
 - Thermochemistry -
 -------------------
 Temperature   298.150 Kelvin.  Pressure   1.00000 Atm.
 Atom     1 has atomic number  1 and mass   1.00783
 Atom     2 has atomic number  8 and mass  15.99491
 Atom     3 has atomic number  8 and mass  15.99491
 Atom     4 has atomic number  7 and mass  14.00307
 Atom     5 has atomic number  8 and mass  15.99491
 Molecular mass:    62.99564 amu.
 Principal axes and moments of inertia in atomic units:
                           1         2         3
     Eigenvalues --    33.01865 359.93358 392.53977
           X            0.99994   0.01070  -0.00066
           Y           -0.01070   0.99994  -0.00144
           Z            0.00065   0.00145   1.00000
 This molecule is an asymmetric top.
 Rotational symmetry number  1.
 Rotational temperatures (Kelvin)      2.62318     0.24064     0.22065
 Rotational constants (GHZ):          54.65824     5.01410     4.59760
    1 imaginary frequencies ignored.
 Zero-point vibrational energy      57418.6 (Joules/Mol)
                                   13.72337 (Kcal/Mol)
 Warning -- explicit consideration of   3 degrees of freedom as
           vibrations may cause significant error
 Vibrational temperatures:    325.13   492.03   650.21  1130.56  1391.61
          (Kelvin)           1972.72  2412.80  5436.69
 
 Zero-point correction=                           0.021870 (Hartree/Particle)
 Thermal correction to Energy=                    0.025991
 Thermal correction to Enthalpy=                  0.026935
 Thermal correction to Gibbs Free Energy=        -0.004260
 Sum of electronic and zero-point Energies=           -280.424661
 Sum of electronic and thermal Energies=              -280.420539
 Sum of electronic and thermal Enthalpies=            -280.419595
 Sum of electronic and thermal Free Energies=         -280.450791
 
                     E (Thermal)             CV                S
                      KCal/Mol        Cal/Mol-Kelvin    Cal/Mol-Kelvin
 Total                   16.309             11.957             65.656
 Electronic               0.000              0.000              0.000
 Translational            0.889              2.981             38.341
 Rotational               0.889              2.981             23.060
 Vibrational             14.532              5.995              4.255
 Vibration     1          0.650              1.801              1.911
 Vibration     2          0.721              1.592              1.203
 Vibration     3          0.811              1.357              0.790
                       Q            Log10(Q)             Ln(Q)
 Total Bot       0.911220D+02          1.959623          4.512199
 Total V=0       0.104454D+13         12.018927         27.674601
 Vib (Bot)       0.189638D-09         -9.722075        -22.385904
 Vib (Bot)    1  0.873123D+00         -0.058924         -0.135678
 Vib (Bot)    2  0.542292D+00         -0.265767         -0.611951
 Vib (Bot)    3  0.378875D+00         -0.421504         -0.970548
 Vib (V=0)       0.217385D+01          0.337229          0.776498
 Vib (V=0)    1  0.150615D+01          0.177869          0.409559
 Vib (V=0)    2  0.123762D+01          0.092587          0.213189
 Vib (V=0)    3  0.112733D+01          0.052052          0.119855
 Electronic      0.100000D+01          0.000000          0.000000
 Translational   0.196526D+08          7.293420         16.793719
 Rotational      0.244500D+05          4.388278         10.104384
 
                                                                title
                                                             IR Spectrum
 
     3                                                                      1         1                                              
     7                                                                      6         3             9     7          4   3   2       
     7                                                                      7         7             6     8          5   4   2       
     9                                                                      7         1             7     6          2   2   6       
 
     X                                                                      X         X             X     X          X   X   X       
     X                                                                      X         X             X     X          X               
     X                                                                      X         X                   X          X               
     X                                                                      X         X                   X          X               
     X                                                                      X         X                   X          X               
     X                                                                      X         X                   X          X               
     X                                                                      X         X                   X          X               
     X                                                                      X         X                   X          X               
                                                                            X         X                   X          X               
                                                                            X         X                   X          X               
                                                                            X         X                   X          X               
                                                                            X         X                   X          X               
                                                                            X         X                   X          X               
                                                                            X         X                   X          X               
                                                                                      X                   X          X               
                                                                                                          X          X               
                                                                                                          X          X               
                                                                                                                     X               
                                                                                                                     X               
                                                                                                                     X               
 
 ***** Axes restored to original set *****
 -------------------------------------------------------------------
 Center     Atomic                   Forces (Hartrees/Bohr)
 Number     Number              X              Y              Z
 -------------------------------------------------------------------
      1        1           0.000075583   -0.000214348    0.000005281
      2        8           0.000119427   -0.001318407    0.000131665
      3        8          -0.000091789    0.001490894   -0.000282250
      4        7          -0.000650507    0.001951383    0.000075705
      5        8           0.000547286   -0.001909522    0.000069599
 -------------------------------------------------------------------
 Cartesian Forces:  Max     0.001951383 RMS     0.000906266
 -----------------------------------------------------------------------------------------------
                       Internal Coordinate Forces (Hartree/Bohr or radian)
  Cent   Atom   N1       Length/X         N2         Alpha/Y        N3         Beta/Z          J
 -----------------------------------------------------------------------------------------------
      1  H 
      2  O        1  -0.000005(     1)
      3  O        2  -0.000211(     2)      1  -0.000138(     5)
      4  N        3   0.000136(     3)      2  -0.000164(     6)      1   0.000389(     8)     0
      5  O        4   0.000365(     4)      3  -0.000012(     7)      2  -0.004085(     9)     0
 -----------------------------------------------------------------------------------------------
 Internal  Forces:  Max     0.004085352 RMS     0.001377761
 Force constants in Cartesian coordinates: 
                1             2             3             4             5 
      1  0.646321D-01
      2 -0.323459D-03 -0.237229D-02
      3  0.529598D-02  0.736332D-04  0.512357D+00
      4 -0.357772D-01  0.684149D-03 -0.162951D-01  0.272844D+00
      5  0.324665D-03  0.305874D-02 -0.997459D-04  0.206224D-03  0.201742D-02
      6  0.482408D-01 -0.247453D-03 -0.508537D+00  0.334736D-01 -0.792500D-04
      7 -0.183950D-01 -0.345332D-03  0.125403D-01 -0.220443D+00 -0.959466D-03
      8  0.619499D-03  0.101220D-02  0.103055D-04 -0.648074D-03 -0.649182D-02
      9 -0.531532D-01  0.169583D-03 -0.477109D-03 -0.194186D-01  0.190631D-02
     10 -0.923579D-02  0.490372D-04 -0.486458D-02 -0.169402D-01  0.935327D-03
     11 -0.467898D-03 -0.271416D-02 -0.274136D-03 -0.818219D-03 -0.481517D-02
     12  0.535983D-02  0.470214D-04 -0.474351D-02  0.114734D-01 -0.173383D-02
     13 -0.122411D-02 -0.643958D-04  0.332340D-02  0.316185D-03 -0.506751D-03
     14 -0.152807D-03  0.101552D-02  0.289944D-03  0.575920D-03  0.623084D-02
     15 -0.574342D-02 -0.427851D-04  0.139979D-02 -0.923330D-02  0.651495D-05
                6             7             8             9            10 
      6  0.594476D+00
      7 -0.213578D-01  0.341114D+00
      8  0.269170D-02  0.801387D-02  0.458174D-02
      9 -0.784252D-01  0.361113D-01 -0.364934D-02  0.181213D+00
     10 -0.523563D-01 -0.777274D-01 -0.734146D-02  0.174366D+00  0.820967D+00
     11 -0.141598D-02 -0.405193D-02  0.801512D-02  0.125700D-01  0.749622D-01
     12  0.170854D-01  0.628071D-01  0.857427D-02 -0.817902D-01 -0.178616D-01
     13 -0.800029D-02 -0.245493D-01 -0.643831D-03 -0.137906D+00 -0.717063D+00
     14 -0.949011D-03 -0.265714D-02 -0.711724D-02 -0.109966D-01 -0.686051D-01
     15 -0.245992D-01 -0.901009D-01 -0.762693D-02 -0.205207D-01 -0.992835D-01
               11            12            13            14            15 
     11  0.155850D-01
     12  0.578377D-03  0.186720D+00
     13 -0.696241D-01 -0.617787D-01  0.742520D+00
     14 -0.160708D-01 -0.746584D-02  0.708391D-01  0.159417D-01
     15 -0.114583D-01 -0.117271D+00  0.204361D+00  0.191215D-01  0.160991D+00
 Force constants in internal coordinates: 
                1             2             3             4             5 
      1  0.512357D+00
      2 -0.103976D-01  0.281373D+00
      3  0.345882D-02  0.246783D-02  0.117434D+00
      4 -0.357906D-02  0.588352D-02  0.153085D+00  0.811840D+00
      5  0.977296D-02  0.653293D-01  0.227052D-02  0.480069D-02  0.216698D+00
      6  0.463678D-02  0.589595D-01  0.409148D-01  0.217124D-01  0.312639D-01
      7 -0.116621D-02  0.375783D-01  0.323448D-01  0.846792D-01  0.212954D-01
      8 -0.788650D-04  0.607254D-03 -0.541204D-05 -0.413466D-04 -0.102178D-02
      9  0.634734D-04 -0.700631D-03 -0.452270D-02  0.328313D-03  0.296870D-03
                6             7             8             9 
      6  0.281905D+00
      7  0.956134D-01  0.483000D+00
      8 -0.239521D-04  0.236527D-03 -0.780564D-02
      9  0.216755D-02 -0.753915D-03 -0.385804D-02  0.404956D-01
 Leave Link  716 at Mon Feb 21 21:14:41 2022, MaxMem= 16106127360 cpu:               1.2 elap:               0.1
 (Enter /sw/contrib/gaussian/g16/B01/g16/l103.exe)

 GradGradGradGradGradGradGradGradGradGradGradGradGradGradGradGradGradGrad
 Berny optimization.
 Search for a local minimum.
 Step number   1 out of a maximum of    2
 All quantities printed in internal units (Hartrees-Bohrs-Radians)
 Second derivative matrix not updated -- analytic derivatives used.
 The second derivative matrix:
                          r1        r2        r3        r4        a1
           r1           0.51236
           r2          -0.01040   0.28137
           r3           0.00346   0.00247   0.11743
           r4          -0.00358   0.00588   0.15308   0.81184
           a1           0.00977   0.06533   0.00227   0.00480   0.21670
           a2           0.00464   0.05896   0.04091   0.02171   0.03126
           a3          -0.00117   0.03758   0.03234   0.08468   0.02130
           d1          -0.00008   0.00061  -0.00001  -0.00004  -0.00102
           d2           0.00006  -0.00070  -0.00452   0.00033   0.00030
                          a2        a3        d1        d2
           a2           0.28190
           a3           0.09561   0.48300
           d1          -0.00002   0.00024  -0.00781
           d2           0.00217  -0.00075  -0.00386   0.04050
 ITU=  0
     Eigenvalues ---   -0.00812   0.04018   0.07906   0.17531   0.22488
     Eigenvalues ---    0.32511   0.51298   0.51714   0.87077
 Eigenvalue     1 is  -8.12D-03 should be greater than     0.000000 Eigenvector:
                          d1        d2        a1        r3        r2
   1                    0.99681   0.07945   0.00541   0.00410  -0.00291
                          a2        r4        a3        r1
   1                   -0.00092  -0.00070  -0.00034  -0.00004
 Angle between quadratic step and forces=   8.31 degrees.
 Linear search not attempted -- first point.
 Variable       Old X    -DE/DX   Delta X   Delta X   Delta X     New X
                                 (Linear)    (Quad)   (Total)
    r1        1.83110  -0.00001   0.00000   0.00002   0.00002   1.83111
    r2        2.74940  -0.00021   0.00000  -0.00118  -0.00118   2.74822
    r3        2.75670   0.00014   0.00000  -0.00484  -0.00484   2.75186
    r4        2.21236   0.00036   0.00000   0.00141   0.00141   2.21376
    a1        1.70335  -0.00014   0.00000  -0.00020  -0.00020   1.70316
    a2        1.78543  -0.00016   0.00000   0.00113   0.00113   1.78656
    a3        1.90362  -0.00001   0.00000  -0.00023  -0.00023   1.90339
    d1        3.14159   0.00039   0.00000   0.01585   0.01585   3.15744
    d2        3.24148  -0.00409   0.00000  -0.10026  -0.10026   3.14122
         Item               Value     Threshold  Converged?
 Maximum Force            0.004085     0.000450     NO 
 RMS     Force            0.001378     0.000300     NO 
 Maximum Displacement     0.100259     0.001800     NO 
 RMS     Displacement     0.033881     0.001200     NO 
 Predicted change in Energy=-2.083480D-04
                       ----------------------------
                       ! Non-Optimized Parameters !
                       ! (Angstroms and Degrees)  !
 ----------------------                            ----------------------
 !      Name          Value   Derivative information (Atomic Units)     !
 ------------------------------------------------------------------------
 !       r1          0.969    -DE/DX =    0.0                           !
 !       r2          1.4543   -DE/DX =   -0.0002                        !
 !       r3          1.4562   -DE/DX =    0.0001                        !
 !       r4          1.1715   -DE/DX =    0.0004                        !
 !       a1         97.5838   -DE/DX =   -0.0001                        !
 !       a2        102.3625   -DE/DX =   -0.0002                        !
 !       a3        109.0561   -DE/DX =    0.0                           !
 !       d1        180.9081   -DE/DX =    0.0004                        !
 !       d2        179.9787   -DE/DX =   -0.0041                        !
 ------------------------------------------------------------------------
 GradGradGradGradGradGradGradGradGradGradGradGradGradGradGradGradGradGrad

 Leave Link  103 at Mon Feb 21 21:14:41 2022, MaxMem= 16106127360 cpu:               1.3 elap:               0.1
 (Enter /sw/contrib/gaussian/g16/B01/g16/l9999.exe)

 ----------------------------------------------------------------------

 Electric dipole moment (input orientation):
 (Debye = 10**-18 statcoulomb cm , SI units = C m)
                  (au)            (Debye)         (10**-30 SI)
   Tot        0.570339D+00      0.144966D+01      0.483554D+01
   x         -0.145459D+00     -0.369720D+00     -0.123325D+01
   y         -0.422829D-02     -0.107472D-01     -0.358489D-01
   z         -0.551462D+00     -0.140168D+01     -0.467549D+01

 Dipole polarizability, Alpha (input orientation).
 (esu units = cm**3 , SI units = C**2 m**2 J**-1)
 Alpha(0;0):
               (au)            (10**-24 esu)      (10**-40 SI)
   iso        0.273861D+02      0.405819D+01      0.451535D+01
   aniso      0.218827D+02      0.324269D+01      0.360798D+01
   xx         0.320505D+02      0.474939D+01      0.528441D+01
   yx         0.629447D+00      0.932744D-01      0.103782D+00
   yy         0.179797D+02      0.266432D+01      0.296445D+01
   zx         0.962728D+01      0.142662D+01      0.158732D+01
   zy         0.419789D+00      0.622063D-01      0.692138D-01
   zz         0.321280D+02      0.476088D+01      0.529719D+01

 ----------------------------------------------------------------------

 Dipole orientation:
     1          0.00000000          0.00000000          0.00000000
     8         -0.46700244          0.01357509         -1.77049312
     8          2.07547447          0.01888889         -2.81690505
     7          1.59330286          0.03947453         -5.53103376
     8          3.51512933         -0.16290566         -6.60813557

 Electric dipole moment (dipole orientation):
 (Debye = 10**-18 statcoulomb cm , SI units = C m)
                  (au)            (Debye)         (10**-30 SI)
   Tot        0.570339D+00      0.144966D+01      0.483554D+01
   x          0.000000D+00      0.000000D+00      0.000000D+00
   y          0.000000D+00      0.000000D+00      0.000000D+00
   z          0.570339D+00      0.144966D+01      0.483554D+01

 Dipole polarizability, Alpha (dipole orientation).
 (esu units = cm**3 , SI units = C**2 m**2 J**-1)
 Alpha(0;0):
               (au)            (10**-24 esu)      (10**-40 SI)
   iso        0.273861D+02      0.405819D+01      0.451535D+01
   aniso      0.218827D+02      0.324269D+01      0.360798D+01
   xx         0.273063D+02      0.404637D+01      0.450219D+01
   yx        -0.448578D+00     -0.664724D-01     -0.739605D-01
   yy         0.179732D+02      0.266335D+01      0.296338D+01
   zx        -0.835876D+01     -0.123864D+01     -0.137817D+01
   zy         0.434365D+00      0.643663D-01      0.716172D-01
   zz         0.368787D+02      0.546486D+01      0.608048D+01

 ----------------------------------------------------------------------
 1\1\GINC-N2128\Freq\RMP2-FC\Aug-CC-pVTZ\H1N1O3\CGAVINH\21-Feb-2022\1\\
 #p freq mp2/aug-cc-pvtz density=current\\title\\0,1\H\O,1,r1\O,2,r2,1,
 a1\N,3,r3,2,a2,1,d1,0\O,4,r4,3,a3,2,d2,0\\r1=0.96897556\r2=1.45491931\
 r3=1.45878406\r4=1.17072885\a1=97.59494903\a2=102.29752444\a3=109.0695
 5123\d1=180.\d2=185.72312793\\Version=ES64L-G16RevB.01\State=1-A\HF=-2
 79.5015527\MP2=-280.4465302\RMSD=4.048e-09\RMSF=9.063e-04\ZeroPoint=0.
 0218696\Thermal=0.0259908\Dipole=-0.145459,-0.0042283,-0.5514623\Dipol
 eDeriv=0.2663717,-0.0008547,0.0481586,0.0019883,0.3555768,0.0025108,0.
 0821075,0.0010095,0.275706,-0.3273519,-0.0047695,-0.2064463,0.0041953,
 -0.3137932,0.0047351,-0.1107811,-0.0054463,-0.2230147,-0.0469274,-0.00
 85294,0.1462713,-0.0110146,-0.0882238,0.0010498,-0.7498335,-0.0429693,
 -1.3527035,0.8881755,0.0660135,0.9066038,0.0717423,0.0712416,0.0690264
 ,0.9195206,0.0515436,1.6681564,-0.7802679,-0.0518599,-0.8945873,-0.066
 9113,-0.0248014,-0.077322,-0.1410135,-0.0041374,-0.3681442\Polar=32.05
 04726,0.629447,17.979699,9.627281,0.4197887,32.1279879\Quadrupole=-1.5
 006486,-0.7402824,2.240931,-0.1267216,2.0943406,0.0430569\PG=C01 [X(H1
 N1O3)]\NImag=1\\0.06463212,-0.00032346,-0.00237229,0.00529598,0.000073
 63,0.51235746,-0.03577725,0.00068415,-0.01629509,0.27284380,0.00032467
 ,0.00305874,-0.00009975,0.00020622,0.00201742,0.04824078,-0.00024745,-
 0.50853663,0.03347359,-0.00007925,0.59447566,-0.01839497,-0.00034533,0
 .01254029,-0.22044253,-0.00095947,-0.02135778,0.34111417,0.00061950,0.
 00101220,0.00001031,-0.00064807,-0.00649182,0.00269170,0.00801387,0.00
 458174,-0.05315316,0.00016958,-0.00047711,-0.01941859,0.00190631,-0.07
 842523,0.03611130,-0.00364934,0.18121323,-0.00923579,0.00004904,-0.004
 86458,-0.01694020,0.00093533,-0.05235630,-0.07772737,-0.00734146,0.174
 36600,0.82096655,-0.00046790,-0.00271416,-0.00027414,-0.00081822,-0.00
 481517,-0.00141598,-0.00405193,0.00801512,0.01257001,0.07496218,0.0155
 8502,0.00535983,0.00004702,-0.00474351,0.01147340,-0.00173383,0.017085
 37,0.06280714,0.00857427,-0.08179022,-0.01786164,0.00057838,0.18671975
 ,-0.00122411,-0.00006440,0.00332340,0.00031619,-0.00050675,-0.00800029
 ,-0.02454929,-0.00064383,-0.13790554,-0.71706319,-0.06962413,-0.061778
 73,0.74252040,-0.00015281,0.00101552,0.00028994,0.00057592,0.00623084,
 -0.00094901,-0.00265714,-0.00711724,-0.01099656,-0.06860508,-0.0160708
 1,-0.00746584,0.07083911,0.01594169,-0.00574342,-0.00004279,0.00139979
 ,-0.00923330,0.00000651,-0.02459917,-0.09010094,-0.00762693,-0.0205206
 7,-0.09928349,-0.01145826,-0.11727140,0.20436115,0.01912147,0.16099144
 \\-0.00007558,0.00021435,-0.00000528,-0.00011943,0.00131841,-0.0001316
 6,0.00009179,-0.00149089,0.00028225,0.00065051,-0.00195138,-0.00007571
 ,-0.00054729,0.00190952,-0.00006960\\\@


 CHARLIE BROWN.."I CAN'T GET THAT STUPID KITE IN THE
 AIR... I CAN'T... I C A N N O T..."
 LUCY.."OH COME NOW CHARLIE BROWN...THAT'S NO WAY TO TALK...
 THE TROUBLE WITH YOU IS YOU DON'T BELIEVE IN YOURSELF... YOU
 DON'T BELIEVE IN YOUR OWN ABILITIES...  YOU'VE GOT TO SAY TO
 YOURSELF...'I BELIEVE I CAN FLY THIS KITE.'... GO AHEAD SAY
 IT...."
 CHARLIE BROWN.."I BELIEVE THAT I CAN FLY THIS STUPID
 KITE.....I BELIEVE THAT I CAN FLY THIS KITE........
 I  A C T U A L L Y  B E L I E V E  T H A T  I  C A N ******"
 LUCY.."I'LL BET YOU TEN-TO-ONE YOU'RE WRONG......."    SCHULZ
 Job cpu time:       0 days  2 hours  6 minutes 22.5 seconds.
 Elapsed time:       0 days  0 hours  4 minutes 38.8 seconds.
 File lengths (MBytes):  RWF=   7239 Int=      0 D2E=      0 Chk=      8 Scr=      1
 Normal termination of Gaussian 16 at Mon Feb 21 21:14:42 2022.
