 Entering Gaussian System, Link 0=g16
 Input=hoono_r4_1p183263.gjf
 Output=hoono_r4_1p183263.log
 Initial command:
 /sw/contrib/gaussian/g16/B01/g16/l1.exe "/scr/Gau-25000.inp" -scrdir="/scr/"
 Entering Link 1 = /sw/contrib/gaussian/g16/B01/g16/l1.exe PID=     25001.
  
 Copyright (c) 1988-2017, Gaussian, Inc.  All Rights Reserved.
  
 This is part of the Gaussian(R) 16 program.  It is based on
 the Gaussian(R) 09 system (copyright 2009, Gaussian, Inc.),
 the Gaussian(R) 03 system (copyright 2003, Gaussian, Inc.),
 the Gaussian(R) 98 system (copyright 1998, Gaussian, Inc.),
 the Gaussian(R) 94 system (copyright 1995, Gaussian, Inc.),
 the Gaussian 92(TM) system (copyright 1992, Gaussian, Inc.),
 the Gaussian 90(TM) system (copyright 1990, Gaussian, Inc.),
 the Gaussian 88(TM) system (copyright 1988, Gaussian, Inc.),
 the Gaussian 86(TM) system (copyright 1986, Carnegie Mellon
 University), and the Gaussian 82(TM) system (copyright 1983,
 Carnegie Mellon University). Gaussian is a federally registered
 trademark of Gaussian, Inc.
  
 This software contains proprietary and confidential information,
 including trade secrets, belonging to Gaussian, Inc.
  
 This software is provided under written license and may be
 used, copied, transmitted, or stored only in accord with that
 written license.
  
 The following legend is applicable only to US Government
 contracts under FAR:
  
                    RESTRICTED RIGHTS LEGEND
  
 Use, reproduction and disclosure by the US Government is
 subject to restrictions as set forth in subparagraphs (a)
 and (c) of the Commercial Computer Software - Restricted
 Rights clause in FAR 52.227-19.
  
 Gaussian, Inc.
 340 Quinnipiac St., Bldg. 40, Wallingford CT 06492
  
  
 ---------------------------------------------------------------
 Warning -- This program may not be used in any manner that
 competes with the business of Gaussian, Inc. or will provide
 assistance to any competitor of Gaussian, Inc.  The licensee
 of this program is prohibited from giving any competitor of
 Gaussian, Inc. access to this program.  By using this program,
 the user acknowledges that Gaussian, Inc. is engaged in the
 business of creating and licensing software in the field of
 computational chemistry and represents and warrants to the
 licensee that it is not a competitor of Gaussian, Inc. and that
 it will not use this program in any manner prohibited above.
 ---------------------------------------------------------------
  

 Cite this work as:
 Gaussian 16, Revision B.01,
 M. J. Frisch, G. W. Trucks, H. B. Schlegel, G. E. Scuseria, 
 M. A. Robb, J. R. Cheeseman, G. Scalmani, V. Barone, 
 G. A. Petersson, H. Nakatsuji, X. Li, M. Caricato, A. V. Marenich, 
 J. Bloino, B. G. Janesko, R. Gomperts, B. Mennucci, H. P. Hratchian, 
 J. V. Ortiz, A. F. Izmaylov, J. L. Sonnenberg, D. Williams-Young, 
 F. Ding, F. Lipparini, F. Egidi, J. Goings, B. Peng, A. Petrone, 
 T. Henderson, D. Ranasinghe, V. G. Zakrzewski, J. Gao, N. Rega, 
 G. Zheng, W. Liang, M. Hada, M. Ehara, K. Toyota, R. Fukuda, 
 J. Hasegawa, M. Ishida, T. Nakajima, Y. Honda, O. Kitao, H. Nakai, 
 T. Vreven, K. Throssell, J. A. Montgomery, Jr., J. E. Peralta, 
 F. Ogliaro, M. J. Bearpark, J. J. Heyd, E. N. Brothers, K. N. Kudin, 
 V. N. Staroverov, T. A. Keith, R. Kobayashi, J. Normand, 
 K. Raghavachari, A. P. Rendell, J. C. Burant, S. S. Iyengar, 
 J. Tomasi, M. Cossi, J. M. Millam, M. Klene, C. Adamo, R. Cammi, 
 J. W. Ochterski, R. L. Martin, K. Morokuma, O. Farkas, 
 J. B. Foresman, and D. J. Fox, Gaussian, Inc., Wallingford CT, 2016.
 
 ******************************************
 Gaussian 16:  ES64L-G16RevB.01 20-Dec-2017
                21-Feb-2022 
 ******************************************
 %nproc=28
 Will use up to   28 processors via shared memory.
 %mem=120GB
 %chk=hoono_r4_1p183263.chk
 ---------------------------------------
 #p freq mp2/aug-cc-pvtz density=current
 ---------------------------------------
 1/10=4,30=1,38=1/1,3;
 2/12=2,17=6,18=5,40=1/2;
 3/5=16,6=1,7=10,11=9,25=1,30=1,71=2,140=1/1,2,3;
 4//1;
 5/5=2,38=5,98=1/2;
 8/6=3,8=1,10=1,19=11,30=-1/1;
 9/15=3,16=-3/6;
 11/6=1,8=1,15=11,17=12,24=-1,27=1,28=-2,29=300,32=6,42=3/1,2,10;
 10/6=2,21=1/2;
 8/6=4,8=1,10=1,19=11,30=-1/11,4;
 10/5=1,20=4/2;
 11/12=2,14=11,16=1,17=2,28=-2,42=3,76=2/2,10,12;
 6/7=2,8=2,9=2,10=2,22=-1/1;
 7/8=1,10=1,12=2,25=1,44=2/1,2,3,16;
 1/10=4,30=1/3;
 99//99;
 Leave Link    1 at Mon Feb 21 20:25:31 2022, MaxMem= 16106127360 cpu:               2.4 elap:               0.1
 (Enter /sw/contrib/gaussian/g16/B01/g16/l101.exe)
 -----
 title
 -----
 Symbolic Z-matrix:
 Charge =  0 Multiplicity = 1
 H
 O                    1    r1
 O                    2    r2       1    a1
 N                    3    r3       2    a2       1    d1       0
 O                    4    r4       3    a3       2    d2       0
       Variables:
  r1                    0.96898                  
  r2                    1.45492                  
  r3                    1.45878                  
  r4                    1.18326                  
  a1                   97.59495                  
  a2                  102.29752                  
  a3                  109.06955                  
  d1                  180.                       
  d2                  180.                       
 
 ITRead=  0  0  0  0  0
 MicOpt= -1 -1 -1 -1 -1
 NAtoms=      5 NQM=        5 NQMF=       0 NMMI=      0 NMMIF=      0
                NMic=       0 NMicF=      0.
                    Isotopes and Nuclear Properties:
 (Nuclear quadrupole moments (NQMom) in fm**2, nuclear magnetic moments (NMagM)
  in nuclear magnetons)

  Atom         1           2           3           4           5
 IAtWgt=           1          16          16          14          16
 AtmWgt=   1.0078250  15.9949146  15.9949146  14.0030740  15.9949146
 NucSpn=           1           0           0           2           0
 AtZEff=  -0.0000000  -0.0000000  -0.0000000  -0.0000000  -0.0000000
 NQMom=    0.0000000   0.0000000   0.0000000   2.0440000   0.0000000
 NMagM=    2.7928460   0.0000000   0.0000000   0.4037610   0.0000000
 AtZNuc=   1.0000000   8.0000000   8.0000000   7.0000000   8.0000000
 Leave Link  101 at Mon Feb 21 20:25:31 2022, MaxMem= 16106127360 cpu:               2.6 elap:               0.1
 (Enter /sw/contrib/gaussian/g16/B01/g16/l103.exe)

 GradGradGradGradGradGradGradGradGradGradGradGradGradGradGradGradGradGrad
 Berny optimization.
 Initialization pass.
                       ----------------------------
                       !    Initial Parameters    !
                       ! (Angstroms and Degrees)  !
 ----------------------                            ----------------------
 !      Name          Value   Derivative information (Atomic Units)     !
 ------------------------------------------------------------------------
 !       r1          0.969    calculate D2E/DX2 analytically            !
 !       r2          1.4549   calculate D2E/DX2 analytically            !
 !       r3          1.4588   calculate D2E/DX2 analytically            !
 !       r4          1.1833   calculate D2E/DX2 analytically            !
 !       a1         97.5949   calculate D2E/DX2 analytically            !
 !       a2        102.2975   calculate D2E/DX2 analytically            !
 !       a3        109.0696   calculate D2E/DX2 analytically            !
 !       d1        180.0      calculate D2E/DX2 analytically            !
 !       d2        180.0      calculate D2E/DX2 analytically            !
 ------------------------------------------------------------------------
 Trust Radius=3.00D-01 FncErr=1.00D-07 GrdErr=1.00D-07 EigMax=2.50D+02 EigMin=1.00D-04
 Number of steps in this run=      2 maximum allowed number of steps=      2.
 GradGradGradGradGradGradGradGradGradGradGradGradGradGradGradGradGradGrad

 Leave Link  103 at Mon Feb 21 20:25:31 2022, MaxMem= 16106127360 cpu:               1.9 elap:               0.1
 (Enter /sw/contrib/gaussian/g16/B01/g16/l202.exe)
                          Input orientation:                          
 ---------------------------------------------------------------------
 Center     Atomic      Atomic             Coordinates (Angstroms)
 Number     Number       Type             X           Y           Z
 ---------------------------------------------------------------------
      1          1           0        0.000000    0.000000    0.000000
      2          8           0        0.000000    0.000000    0.968976
      3          8           0        1.442156    0.000000    1.161271
      4          7           0        1.561752    0.000000    2.615144
      5          8           0        2.708010    0.000000    2.908749
 ---------------------------------------------------------------------
                    Distance matrix (angstroms):
                    1          2          3          4          5
     1  H    0.000000
     2  O    0.968976   0.000000
     3  O    1.851584   1.454919   0.000000
     4  N    3.045989   2.269127   1.458784   0.000000
     5  O    3.974184   3.331072   2.157792   1.183263   0.000000
 Stoichiometry    HNO3
 Framework group  CS[SG(HNO3)]
 Deg. of freedom     7
 Full point group                 CS      NOp   2
 Largest Abelian subgroup         CS      NOp   2
 Largest concise Abelian subgroup C1      NOp   1
                         Standard orientation:                         
 ---------------------------------------------------------------------
 Center     Atomic      Atomic             Coordinates (Angstroms)
 Number     Number       Type             X           Y           Z
 ---------------------------------------------------------------------
      1          1           0        1.544431    1.694812   -0.000000
      2          8           0        1.453818    0.730083   -0.000000
      3          8           0       -0.000000    0.673492   -0.000000
      4          7           0       -0.255030   -0.762826    0.000000
      5          8           0       -1.423721   -0.947953    0.000000
 ---------------------------------------------------------------------
 Rotational constants (GHZ):          54.8699170           4.9816957           4.5670487
 Leave Link  202 at Mon Feb 21 20:25:31 2022, MaxMem= 16106127360 cpu:               0.3 elap:               0.0
 (Enter /sw/contrib/gaussian/g16/B01/g16/l301.exe)
 Standard basis: Aug-CC-pVTZ (5D, 7F)
 Ernie: Thresh=  0.10000D-02 Tol=  0.10000D-05 Strict=F.
 Ernie:  12 primitive shells out of 131 were deleted.
 There are   166 symmetry adapted cartesian basis functions of A'  symmetry.
 There are    79 symmetry adapted cartesian basis functions of A"  symmetry.
 There are   136 symmetry adapted basis functions of A'  symmetry.
 There are    71 symmetry adapted basis functions of A"  symmetry.
   207 basis functions,   315 primitive gaussians,   245 cartesian basis functions
    16 alpha electrons       16 beta electrons
       nuclear repulsion energy       116.4949240512 Hartrees.
 IExCor=    0 DFT=F Ex=HF Corr=None ExCW=0 ScaHFX=  1.000000
 ScaDFX=  1.000000  1.000000  1.000000  1.000000 ScalE2=  1.000000  1.000000
 IRadAn=      5 IRanWt=     -1 IRanGd=            0 ICorTp=0 IEmpDi=  4
 NAtoms=    5 NActive=    5 NUniq=    5 SFac= 1.00D+00 NAtFMM=   60 NAOKFM=F Big=F
 Integral buffers will be    131072 words long.
 Raffenetti 1 integral format.
 Two-electron integral symmetry is turned on.
 Leave Link  301 at Mon Feb 21 20:25:31 2022, MaxMem= 16106127360 cpu:               1.5 elap:               0.1
 (Enter /sw/contrib/gaussian/g16/B01/g16/l302.exe)
 NPDir=0 NMtPBC=     1 NCelOv=     1 NCel=       1 NClECP=     1 NCelD=      1
         NCelK=      1 NCelE2=     1 NClLst=     1 CellRange=     0.0.
 One-electron integrals computed using PRISM.
 One-electron integral symmetry used in STVInt
 NBasis=   207 RedAO= T EigKep=  1.84D-04  NBF=   136    71
 NBsUse=   207 1.00D-06 EigRej= -1.00D+00 NBFU=   136    71
 Leave Link  302 at Mon Feb 21 20:25:31 2022, MaxMem= 16106127360 cpu:               4.7 elap:               0.2
 (Enter /sw/contrib/gaussian/g16/B01/g16/l303.exe)
 DipDrv:  MaxL=1.
 Leave Link  303 at Mon Feb 21 20:25:31 2022, MaxMem= 16106127360 cpu:               1.3 elap:               0.1
 (Enter /sw/contrib/gaussian/g16/B01/g16/l401.exe)
 ExpMin= 2.53D-02 ExpMax= 1.53D+04 ExpMxC= 5.22D+02 IAcc=3 IRadAn=         5 AccDes= 0.00D+00
 Harris functional with IExCor=  205 and IRadAn=       5 diagonalized for initial guess.
 HarFok:  IExCor=  205 AccDes= 0.00D+00 IRadAn=         5 IDoV= 1 UseB2=F ITyADJ=14
 ICtDFT=  3500011 ScaDFX=  1.000000  1.000000  1.000000  1.000000
 FoFCou: FMM=F IPFlag=           0 FMFlag=      100000 FMFlg1=           0
         NFxFlg=           0 DoJE=T BraDBF=F KetDBF=T FulRan=T
         wScrn=  0.000000 ICntrl=       500 IOpCl=  0 I1Cent=   200000004 NGrid=           0
         NMat0=    1 NMatS0=      1 NMatT0=    0 NMatD0=    1 NMtDS0=    0 NMtDT0=    0
 Petite list used in FoFCou.
 Harris En= -279.628690013359    
 JPrj=0 DoOrth=F DoCkMO=F.
 Initial guess orbital symmetries:
       Occupied  (A') (A') (A') (A') (A') (A') (A') (A') (A') (A')
                 (A") (A') (A') (A") (A") (A')
       Virtual   (A") (A') (A') (A') (A') (A') (A") (A') (A') (A')
                 (A") (A') (A") (A') (A') (A") (A') (A') (A") (A')
                 (A') (A') (A') (A') (A') (A") (A') (A") (A') (A')
                 (A") (A') (A") (A') (A') (A") (A') (A") (A') (A')
                 (A") (A') (A") (A') (A") (A') (A') (A') (A") (A")
                 (A') (A') (A') (A') (A") (A') (A") (A') (A") (A')
                 (A') (A') (A") (A') (A') (A") (A') (A") (A') (A')
                 (A") (A') (A') (A") (A") (A') (A') (A") (A') (A')
                 (A') (A") (A') (A") (A') (A") (A') (A") (A') (A')
                 (A') (A") (A') (A") (A') (A") (A") (A') (A') (A')
                 (A") (A') (A") (A') (A') (A') (A') (A") (A") (A')
                 (A") (A') (A') (A') (A") (A') (A') (A') (A") (A')
                 (A") (A') (A') (A") (A") (A') (A") (A') (A") (A')
                 (A') (A') (A') (A") (A") (A') (A") (A') (A') (A')
                 (A') (A") (A") (A') (A') (A") (A') (A') (A') (A')
                 (A") (A') (A') (A") (A') (A") (A') (A") (A') (A")
                 (A') (A") (A') (A") (A') (A") (A") (A") (A') (A')
                 (A") (A') (A") (A') (A") (A') (A") (A") (A') (A')
                 (A') (A') (A') (A') (A') (A') (A') (A') (A') (A')
                 (A')
 The electronic state of the initial guess is 1-A'.
 Leave Link  401 at Mon Feb 21 20:25:31 2022, MaxMem= 16106127360 cpu:               6.9 elap:               0.3
 (Enter /sw/contrib/gaussian/g16/B01/g16/l502.exe)
 Keep R1 ints in memory in symmetry-blocked form, NReq=348887737.
 FoFCou: FMM=F IPFlag=           0 FMFlag=           0 FMFlg1=           0
         NFxFlg=           0 DoJE=F BraDBF=F KetDBF=F FulRan=T
         wScrn=  0.000000 ICntrl=       600 IOpCl=  0 I1Cent=           0 NGrid=           0
         NMat0=    1 NMatS0=  21528 NMatT0=    0 NMatD0=    1 NMtDS0=    0 NMtDT0=    0
 Petite list used in FoFCou.
 Closed shell SCF:
 Using DIIS extrapolation, IDIIS=  1040.
 NGot= 16106127360 LenX= 15988850015 LenY= 15988789549
 Requested convergence on RMS density matrix=1.00D-08 within 128 cycles.
 Requested convergence on MAX density matrix=1.00D-06.
 Requested convergence on             energy=1.00D-06.
 No special actions if energy rises.

 Cycle   1  Pass 1  IDiag  1:
 E= -279.365482453520    
 DIIS: error= 2.66D-02 at cycle   1 NSaved=   1.
 NSaved= 1 IEnMin= 1 EnMin= -279.365482453520     IErMin= 1 ErrMin= 2.66D-02
 ErrMax= 2.66D-02  0.00D+00 EMaxC= 1.00D-01 BMatC= 4.41D-01 BMatP= 4.41D-01
 IDIUse=3 WtCom= 7.34D-01 WtEn= 2.66D-01
 Coeff-Com:  0.100D+01
 Coeff-En:   0.100D+01
 Coeff:      0.100D+01
 Gap=     0.509 Goal=   None    Shift=    0.000
 GapD=    0.509 DampG=2.000 DampE=0.500 DampFc=1.0000 IDamp=-1.
 RMSDP=1.64D-03 MaxDP=9.98D-02              OVMax= 1.18D-01

 Cycle   2  Pass 1  IDiag  1:
 E= -279.446189674500     Delta-E=       -0.080707220979 Rises=F Damp=F
 DIIS: error= 1.83D-02 at cycle   2 NSaved=   2.
 NSaved= 2 IEnMin= 2 EnMin= -279.446189674500     IErMin= 2 ErrMin= 1.83D-02
 ErrMax= 1.83D-02  0.00D+00 EMaxC= 1.00D-01 BMatC= 7.72D-02 BMatP= 4.41D-01
 IDIUse=3 WtCom= 8.17D-01 WtEn= 1.83D-01
 Coeff-Com:  0.205D+00 0.795D+00
 Coeff-En:   0.350D-01 0.965D+00
 Coeff:      0.174D+00 0.826D+00
 Gap=     0.533 Goal=   None    Shift=    0.000
 RMSDP=9.21D-04 MaxDP=3.80D-02 DE=-8.07D-02 OVMax= 7.05D-02

 Cycle   3  Pass 1  IDiag  1:
 E= -279.478362860888     Delta-E=       -0.032173186388 Rises=F Damp=F
 DIIS: error= 1.05D-02 at cycle   3 NSaved=   3.
 NSaved= 3 IEnMin= 3 EnMin= -279.478362860888     IErMin= 3 ErrMin= 1.05D-02
 ErrMax= 1.05D-02  0.00D+00 EMaxC= 1.00D-01 BMatC= 2.96D-02 BMatP= 7.72D-02
 IDIUse=3 WtCom= 8.95D-01 WtEn= 1.05D-01
 Coeff-Com: -0.333D-01 0.373D+00 0.660D+00
 Coeff-En:   0.000D+00 0.233D+00 0.767D+00
 Coeff:     -0.298D-01 0.358D+00 0.672D+00
 Gap=     0.512 Goal=   None    Shift=    0.000
 RMSDP=3.84D-04 MaxDP=1.61D-02 DE=-3.22D-02 OVMax= 4.02D-02

 Cycle   4  Pass 1  IDiag  1:
 E= -279.498181863996     Delta-E=       -0.019819003109 Rises=F Damp=F
 DIIS: error= 1.32D-03 at cycle   4 NSaved=   4.
 NSaved= 4 IEnMin= 4 EnMin= -279.498181863996     IErMin= 4 ErrMin= 1.32D-03
 ErrMax= 1.32D-03  0.00D+00 EMaxC= 1.00D-01 BMatC= 5.13D-04 BMatP= 2.96D-02
 IDIUse=3 WtCom= 9.87D-01 WtEn= 1.32D-02
 Coeff-Com: -0.117D-01 0.544D-01 0.157D+00 0.800D+00
 Coeff-En:   0.000D+00 0.000D+00 0.000D+00 0.100D+01
 Coeff:     -0.116D-01 0.537D-01 0.155D+00 0.803D+00
 Gap=     0.504 Goal=   None    Shift=    0.000
 RMSDP=9.22D-05 MaxDP=2.79D-03 DE=-1.98D-02 OVMax= 1.14D-02

 Cycle   5  Pass 1  IDiag  1:
 E= -279.498894307720     Delta-E=       -0.000712443723 Rises=F Damp=F
 DIIS: error= 7.51D-04 at cycle   5 NSaved=   5.
 NSaved= 5 IEnMin= 5 EnMin= -279.498894307720     IErMin= 5 ErrMin= 7.51D-04
 ErrMax= 7.51D-04  0.00D+00 EMaxC= 1.00D-01 BMatC= 9.06D-05 BMatP= 5.13D-04
 IDIUse=3 WtCom= 9.92D-01 WtEn= 7.51D-03
 Coeff-Com:  0.629D-02-0.720D-01-0.120D+00 0.158D-01 0.117D+01
 Coeff-En:   0.000D+00 0.000D+00 0.000D+00 0.000D+00 0.100D+01
 Coeff:      0.624D-02-0.715D-01-0.119D+00 0.157D-01 0.117D+01
 Gap=     0.504 Goal=   None    Shift=    0.000
 RMSDP=7.85D-05 MaxDP=2.18D-03 DE=-7.12D-04 OVMax= 1.15D-02

 Cycle   6  Pass 1  IDiag  1:
 E= -279.499227204406     Delta-E=       -0.000332896686 Rises=F Damp=F
 DIIS: error= 2.96D-04 at cycle   6 NSaved=   6.
 NSaved= 6 IEnMin= 6 EnMin= -279.499227204406     IErMin= 6 ErrMin= 2.96D-04
 ErrMax= 2.96D-04  0.00D+00 EMaxC= 1.00D-01 BMatC= 1.75D-05 BMatP= 9.06D-05
 IDIUse=3 WtCom= 9.97D-01 WtEn= 2.96D-03
 Coeff-Com:  0.358D-03 0.455D-02 0.997D-02-0.132D+00-0.271D+00 0.139D+01
 Coeff-En:   0.000D+00 0.000D+00 0.000D+00 0.000D+00 0.000D+00 0.100D+01
 Coeff:      0.357D-03 0.453D-02 0.994D-02-0.132D+00-0.271D+00 0.139D+01
 Gap=     0.504 Goal=   None    Shift=    0.000
 RMSDP=4.71D-05 MaxDP=1.30D-03 DE=-3.33D-04 OVMax= 5.86D-03

 Cycle   7  Pass 1  IDiag  1:
 E= -279.499304628516     Delta-E=       -0.000077424111 Rises=F Damp=F
 DIIS: error= 1.20D-04 at cycle   7 NSaved=   7.
 NSaved= 7 IEnMin= 7 EnMin= -279.499304628516     IErMin= 7 ErrMin= 1.20D-04
 ErrMax= 1.20D-04  0.00D+00 EMaxC= 1.00D-01 BMatC= 4.07D-06 BMatP= 1.75D-05
 IDIUse=3 WtCom= 9.99D-01 WtEn= 1.20D-03
 Coeff-Com: -0.975D-03 0.131D-01 0.262D-01-0.162D-01-0.267D+00 0.311D+00
 Coeff-Com:  0.934D+00
 Coeff-En:   0.000D+00 0.000D+00 0.000D+00 0.000D+00 0.000D+00 0.000D+00
 Coeff-En:   0.100D+01
 Coeff:     -0.974D-03 0.130D-01 0.262D-01-0.162D-01-0.267D+00 0.311D+00
 Coeff:      0.934D+00
 Gap=     0.504 Goal=   None    Shift=    0.000
 RMSDP=1.33D-05 MaxDP=3.84D-04 DE=-7.74D-05 OVMax= 1.59D-03

 Cycle   8  Pass 1  IDiag  1:
 E= -279.499313323417     Delta-E=       -0.000008694901 Rises=F Damp=F
 DIIS: error= 6.20D-05 at cycle   8 NSaved=   8.
 NSaved= 8 IEnMin= 8 EnMin= -279.499313323417     IErMin= 8 ErrMin= 6.20D-05
 ErrMax= 6.20D-05  0.00D+00 EMaxC= 1.00D-01 BMatC= 6.63D-07 BMatP= 4.07D-06
 IDIUse=1 WtCom= 1.00D+00 WtEn= 0.00D+00
 Coeff-Com: -0.444D-03 0.319D-02 0.730D-02 0.278D-01-0.365D-01-0.212D+00
 Coeff-Com:  0.247D+00 0.963D+00
 Coeff:     -0.444D-03 0.319D-02 0.730D-02 0.278D-01-0.365D-01-0.212D+00
 Coeff:      0.247D+00 0.963D+00
 Gap=     0.504 Goal=   None    Shift=    0.000
 RMSDP=6.65D-06 MaxDP=2.02D-04 DE=-8.69D-06 OVMax= 7.13D-04

 Cycle   9  Pass 1  IDiag  1:
 E= -279.499315102439     Delta-E=       -0.000001779022 Rises=F Damp=F
 DIIS: error= 1.77D-05 at cycle   9 NSaved=   9.
 NSaved= 9 IEnMin= 9 EnMin= -279.499315102439     IErMin= 9 ErrMin= 1.77D-05
 ErrMax= 1.77D-05  0.00D+00 EMaxC= 1.00D-01 BMatC= 8.30D-08 BMatP= 6.63D-07
 IDIUse=1 WtCom= 1.00D+00 WtEn= 0.00D+00
 Coeff-Com:  0.138D-03-0.182D-02-0.329D-02-0.288D-02 0.360D-01 0.452D-02
 Coeff-Com: -0.201D+00-0.838D-01 0.125D+01
 Coeff:      0.138D-03-0.182D-02-0.329D-02-0.288D-02 0.360D-01 0.452D-02
 Coeff:     -0.201D+00-0.838D-01 0.125D+01
 Gap=     0.504 Goal=   None    Shift=    0.000
 RMSDP=2.12D-06 MaxDP=7.47D-05 DE=-1.78D-06 OVMax= 2.00D-04

 Cycle  10  Pass 1  IDiag  1:
 E= -279.499315295402     Delta-E=       -0.000000192963 Rises=F Damp=F
 DIIS: error= 4.45D-06 at cycle  10 NSaved=  10.
 NSaved=10 IEnMin=10 EnMin= -279.499315295402     IErMin=10 ErrMin= 4.45D-06
 ErrMax= 4.45D-06  0.00D+00 EMaxC= 1.00D-01 BMatC= 6.62D-09 BMatP= 8.30D-08
 IDIUse=1 WtCom= 1.00D+00 WtEn= 0.00D+00
 Coeff-Com:  0.262D-04-0.171D-03-0.180D-03-0.276D-02 0.185D-03 0.207D-01
 Coeff-Com: -0.119D-01-0.665D-01-0.122D+00 0.118D+01
 Coeff:      0.262D-04-0.171D-03-0.180D-03-0.276D-02 0.185D-03 0.207D-01
 Coeff:     -0.119D-01-0.665D-01-0.122D+00 0.118D+01
 Gap=     0.504 Goal=   None    Shift=    0.000
 RMSDP=5.59D-07 MaxDP=2.36D-05 DE=-1.93D-07 OVMax= 5.05D-05

 Cycle  11  Pass 1  IDiag  1:
 E= -279.499315311252     Delta-E=       -0.000000015851 Rises=F Damp=F
 DIIS: error= 2.30D-06 at cycle  11 NSaved=  11.
 NSaved=11 IEnMin=11 EnMin= -279.499315311252     IErMin=11 ErrMin= 2.30D-06
 ErrMax= 2.30D-06  0.00D+00 EMaxC= 1.00D-01 BMatC= 8.21D-10 BMatP= 6.62D-09
 IDIUse=1 WtCom= 1.00D+00 WtEn= 0.00D+00
 Coeff-Com: -0.236D-04 0.259D-03 0.523D-03 0.637D-03-0.450D-02-0.449D-02
 Coeff-Com:  0.271D-01 0.283D-01-0.145D+00-0.179D+00 0.128D+01
 Coeff:     -0.236D-04 0.259D-03 0.523D-03 0.637D-03-0.450D-02-0.449D-02
 Coeff:      0.271D-01 0.283D-01-0.145D+00-0.179D+00 0.128D+01
 Gap=     0.504 Goal=   None    Shift=    0.000
 RMSDP=2.04D-07 MaxDP=7.48D-06 DE=-1.59D-08 OVMax= 1.98D-05

 Cycle  12  Pass 1  IDiag  1:
 E= -279.499315313604     Delta-E=       -0.000000002352 Rises=F Damp=F
 DIIS: error= 6.48D-07 at cycle  12 NSaved=  12.
 NSaved=12 IEnMin=12 EnMin= -279.499315313604     IErMin=12 ErrMin= 6.48D-07
 ErrMax= 6.48D-07  0.00D+00 EMaxC= 1.00D-01 BMatC= 8.93D-11 BMatP= 8.21D-10
 IDIUse=1 WtCom= 1.00D+00 WtEn= 0.00D+00
 Coeff-Com:  0.165D-05-0.343D-04-0.737D-04 0.206D-03 0.122D-02-0.261D-02
 Coeff-Com: -0.460D-02 0.638D-02 0.444D-01-0.130D+00-0.240D+00 0.133D+01
 Coeff:      0.165D-05-0.343D-04-0.737D-04 0.206D-03 0.122D-02-0.261D-02
 Coeff:     -0.460D-02 0.638D-02 0.444D-01-0.130D+00-0.240D+00 0.133D+01
 Gap=     0.504 Goal=   None    Shift=    0.000
 RMSDP=8.13D-08 MaxDP=3.18D-06 DE=-2.35D-09 OVMax= 7.61D-06

 Cycle  13  Pass 1  IDiag  1:
 E= -279.499315313892     Delta-E=       -0.000000000288 Rises=F Damp=F
 DIIS: error= 1.93D-07 at cycle  13 NSaved=  13.
 NSaved=13 IEnMin=13 EnMin= -279.499315313892     IErMin=13 ErrMin= 1.93D-07
 ErrMax= 1.93D-07  0.00D+00 EMaxC= 1.00D-01 BMatC= 4.99D-12 BMatP= 8.93D-11
 IDIUse=1 WtCom= 1.00D+00 WtEn= 0.00D+00
 Coeff-Com:  0.138D-05-0.146D-04-0.238D-04-0.101D-03 0.125D-03 0.868D-03
 Coeff-Com: -0.125D-02-0.316D-02 0.893D-03 0.439D-01-0.498D-01-0.303D+00
 Coeff-Com:  0.131D+01
 Coeff:      0.138D-05-0.146D-04-0.238D-04-0.101D-03 0.125D-03 0.868D-03
 Coeff:     -0.125D-02-0.316D-02 0.893D-03 0.439D-01-0.498D-01-0.303D+00
 Coeff:      0.131D+01
 Gap=     0.504 Goal=   None    Shift=    0.000
 RMSDP=2.12D-08 MaxDP=6.28D-07 DE=-2.88D-10 OVMax= 1.69D-06

 Cycle  14  Pass 1  IDiag  1:
 E= -279.499315313910     Delta-E=       -0.000000000017 Rises=F Damp=F
 DIIS: error= 2.70D-08 at cycle  14 NSaved=  14.
 NSaved=14 IEnMin=14 EnMin= -279.499315313910     IErMin=14 ErrMin= 2.70D-08
 ErrMax= 2.70D-08  0.00D+00 EMaxC= 1.00D-01 BMatC= 2.43D-13 BMatP= 4.99D-12
 IDIUse=1 WtCom= 1.00D+00 WtEn= 0.00D+00
 Coeff-Com: -0.202D-06 0.326D-05 0.583D-05 0.462D-05-0.870D-04 0.515D-04
 Coeff-Com:  0.332D-03 0.178D-03-0.254D-02 0.198D-02 0.161D-01-0.264D-01
 Coeff-Com: -0.193D+00 0.120D+01
 Coeff:     -0.202D-06 0.326D-05 0.583D-05 0.462D-05-0.870D-04 0.515D-04
 Coeff:      0.332D-03 0.178D-03-0.254D-02 0.198D-02 0.161D-01-0.264D-01
 Coeff:     -0.193D+00 0.120D+01
 Gap=     0.504 Goal=   None    Shift=    0.000
 RMSDP=4.14D-09 MaxDP=1.01D-07 DE=-1.73D-11 OVMax= 3.75D-07

 SCF Done:  E(RHF) =  -279.499315314     A.U. after   14 cycles
            NFock= 14  Conv=0.41D-08     -V/T= 2.0026
 KE= 2.787857329771D+02 PE=-8.942690640468D+02 EE= 2.194890917046D+02
 Leave Link  502 at Mon Feb 21 20:25:35 2022, MaxMem= 16106127360 cpu:              56.8 elap:               3.6
 (Enter /sw/contrib/gaussian/g16/B01/g16/l801.exe)
 ExpMin= 2.53D-02 ExpMax= 1.53D+04 ExpMxC= 5.22D+02 IAcc=3 IRadAn=         5 AccDes= 0.00D+00
 HarFok:  IExCor=  205 AccDes= 0.00D+00 IRadAn=         5 IDoV=-2 UseB2=F ITyADJ=14
 ICtDFT= 12500011 ScaDFX=  1.000000  1.000000  1.000000  1.000000
 Largest valence mixing into a core orbital is  2.09D-04
 Largest core mixing into a valence orbital is  3.68D-05
 Range of M.O.s used for correlation:     5   207
 NBasis=   207 NAE=    16 NBE=    16 NFC=     4 NFV=     0
 NROrb=    203 NOA=    12 NOB=    12 NVA=   191 NVB=   191

 **** Warning!!: The largest alpha MO coefficient is  0.17673599D+02

 Leave Link  801 at Mon Feb 21 20:25:35 2022, MaxMem= 16106127360 cpu:               2.0 elap:               0.1
 (Enter /sw/contrib/gaussian/g16/B01/g16/l906.exe)
 Frozen-core derivative calculation, NFC=   4 NFV=   0.
 FulOut=F Deriv=T AODrv=T NAtomX=     5
   MMem=           0  MDisk=          12 MDiskD=          12
  W3Min=      811440 MinDsk=     2425030 NBas6D=         245
 NBas2D=       30762    NTT=       30135    LW2=     7400000
    MDV= 16105574325 MDiskM=      328644 NBas2p=       30702
 Disk-based method using ON**2 memory for 12 occupieds at a time.
 Permanent disk used for amplitudes=    11516536 words.
 Estimated scratch disk usage=   321251614 words.
 IMap=   1   2   3   4   5   6   7   8   9  10  11  12  13  14  15  16
 Actual    scratch disk usage=   310331678 words.
 JobTyp=1 Pass  1:  I=   5 to  16 NPSUse= 28 ParTrn=T ParDer=T DoDerP=T.
 (rs|ai) integrals will be sorted in core.
 Spin components of T(2) and E(2):
     alpha-alpha T2 =       0.3428827943D-01 E2=     -0.1226800758D+00
     alpha-beta  T2 =       0.1883156328D+00 E2=     -0.7018479807D+00
     beta-beta   T2 =       0.3428827943D-01 E2=     -0.1226800758D+00
 The integrals were generated   1 times.
 ANorm=    0.1121112033D+01
 E2 =    -0.9472081323D+00 EUMP2 =    -0.28044652344624D+03
 Leave Link  906 at Mon Feb 21 20:27:12 2022, MaxMem= 16106127360 cpu:            2712.4 elap:              97.0
 (Enter /sw/contrib/gaussian/g16/B01/g16/l1101.exe)
 Using compressed Sx but separate Hx and Fx, NAtomX=     5.
 Will process      6 centers per pass.
 Leave Link 1101 at Mon Feb 21 20:27:13 2022, MaxMem= 16106127360 cpu:               5.2 elap:               0.2
 (Enter /sw/contrib/gaussian/g16/B01/g16/l1102.exe)
 Leave Link 1102 at Mon Feb 21 20:27:13 2022, MaxMem= 16106127360 cpu:               1.4 elap:               0.1
 (Enter /sw/contrib/gaussian/g16/B01/g16/l1110.exe)
 Forming Gx(P) for the SCF density, NAtomX=     5.
 Integral derivatives from FoFJK, PRISM(SPDF).
 Do as many integral derivatives as possible in FoFJK.
 G2DrvN: MDV=   16106126844.
 G2DrvN: will do     6 centers at a time, making    1 passes.
 Calling FoFCou, ICntrl=  3107 FMM=F I1Cent=   0 AccDes= 0.00D+00.
 FoFJK:  IHMeth= 1 ICntrl=    3107 DoSepK=F KAlg= 0 I1Cent=           0 FoldK=F
 IRaf=         0 NMat=       1 IRICut=       1 DoRegI=T DoRafI=F ISym2E= 1 IDoP0=0 IntGTp=1.
 FoFCou: FMM=F IPFlag=           0 FMFlag=      100000 FMFlg1=           0
         NFxFlg=           0 DoJE=F BraDBF=F KetDBF=F FulRan=T
         wScrn=  0.000000 ICntrl=      3107 IOpCl=  0 I1Cent=           0 NGrid=           0
         NMat0=    1 NMatS0=      1 NMatT0=    0 NMatD0=    1 NMtDS0=    0 NMtDT0=    0
 Petite list used in FoFCou.
 End of G2Drv F.D. properties file   721 does not exist.
 End of G2Drv F.D. properties file   722 does not exist.
 End of G2Drv F.D. properties file   788 does not exist.
 Leave Link 1110 at Mon Feb 21 20:27:16 2022, MaxMem= 16106127360 cpu:              83.2 elap:               3.0
 (Enter /sw/contrib/gaussian/g16/B01/g16/l1002.exe)
 Minotr:  Closed shell wavefunction.
          IDoAtm=11111
          Frozen-core window.
          Direct CPHF calculation.
          Differentiating once with respect to electric field.
                with respect to dipole field.
          Differentiating once with respect to nuclear coordinates.
          Requested convergence is 1.0D-08 RMS, and 1.0D-07 maximum.
          Secondary convergence is 1.0D-12 RMS, and 1.0D-12 maximum.
          NewPWx=T KeepS1=T KeepF1=T KeepIn=T MapXYZ=F SortEE=F KeepMc=T.
 Keep R1 ints in memory in symmetry-blocked form, NReq=348888983.
 FoFCou: FMM=F IPFlag=           0 FMFlag=           0 FMFlg1=           0
         NFxFlg=           0 DoJE=F BraDBF=F KetDBF=F FulRan=T
         wScrn=  0.000000 ICntrl=       600 IOpCl=  0 I1Cent=           0 NGrid=           0
         NMat0=    1 NMatS0=  21528 NMatT0=    0 NMatD0=    1 NMtDS0=    0 NMtDT0=    0
 Petite list used in FoFCou.
          MDV=   16106127360 using IRadAn=       1.
          Solving linear equations simultaneously, MaxMat=       0.
          There are    18 degrees of freedom in the 1st order CPHF.  IDoFFX=6 NUNeed=    18.
     15 vectors produced by pass  0 Test12= 1.70D-14 5.56D-09 XBig12= 8.42D+00 1.04D+00.
 AX will form    15 AO Fock derivatives at one time.
     15 vectors produced by pass  1 Test12= 1.70D-14 5.56D-09 XBig12= 1.40D+00 2.68D-01.
     15 vectors produced by pass  2 Test12= 1.70D-14 5.56D-09 XBig12= 1.48D-01 1.03D-01.
     15 vectors produced by pass  3 Test12= 1.70D-14 5.56D-09 XBig12= 5.24D-03 1.20D-02.
     15 vectors produced by pass  4 Test12= 1.70D-14 5.56D-09 XBig12= 1.09D-04 2.07D-03.
     15 vectors produced by pass  5 Test12= 1.70D-14 5.56D-09 XBig12= 1.50D-06 1.77D-04.
     15 vectors produced by pass  6 Test12= 1.70D-14 5.56D-09 XBig12= 1.18D-08 1.52D-05.
     12 vectors produced by pass  7 Test12= 1.70D-14 5.56D-09 XBig12= 8.79D-11 1.45D-06.
      3 vectors produced by pass  8 Test12= 1.70D-14 5.56D-09 XBig12= 6.36D-13 1.23D-07.
      2 vectors produced by pass  9 Test12= 1.70D-14 5.56D-09 XBig12= 4.47D-15 9.68D-09.
 InvSVY:  IOpt=1 It=  1 EMax= 7.77D-16
 Solved reduced A of dimension   122 with    15 vectors.
 FullF1:  Do perturbations      1 to      18.
 Saving first derivative matrices.
 End of Minotr F.D. properties file   721 does not exist.
 End of Minotr F.D. properties file   722 does not exist.
 End of Minotr F.D. properties file   788 does not exist.
 Leave Link 1002 at Mon Feb 21 20:27:19 2022, MaxMem= 16106127360 cpu:              81.6 elap:               2.9
 (Enter /sw/contrib/gaussian/g16/B01/g16/l811.exe)
 MDV= 16106127360.
 Form MO integral derivatives with frozen-active canonical formalism.
 MOERI=1 MOERIx=1 NAtoms=     5 NAtomX=     5.
 Discarding MO integrals.
 MO basis two electron integral derivatives will not be stored on disk.
 IAlg= 3 DoFC=T DoPWx=T Debug=F.
 Frozen-core window:  NFC=   4 NFV=   0.
 Reordered first order wavefunction length =     18678272
 In DefCFB: NBatch=  1 ICI= 16 ICA=191 LFMax= 96
            Large arrays: LIAPS=   619940160 LIARS=   288257200 words.
 In StABat: MaxSiz= 55 MinSiz= 25 NAtomB=  5
 DoIAMN: NPSUse= 28.
 Leave Link  811 at Mon Feb 21 20:28:38 2022, MaxMem= 16106127360 cpu:            2219.1 elap:              79.4
 (Enter /sw/contrib/gaussian/g16/B01/g16/l804.exe)
 Frozen-core window:  NFC=   4 NFV=   0.
 Closed-shell transformation, MDV= 16106127360 ITran=4 ISComp=1.
 Semi-Direct transformation.
 ModeAB=           2 MOrb=            16 LenV=   16104923065
 LASXX=     67341636 LTotXX=    67341636 LenRXX=    67341636
 LTotAB=    68301760 MaxLAS=    99807120 LenRXY=    99807120
 NonZer=   134683272 LenScr=   202817536 LnRSAI=           0
 LnScr1=           0 LExtra=           0 Total=    369966292
 MaxDsk=          -1 SrtSym=           F ITran=            4
 DoSDTr:  NPSUse= 28
 JobTyp=0 Pass  1:  I=   1 to  16.
 (rs|ai) integrals will be sorted in core.
 Complete sort for first half transformation.
 First half transformation complete.
 Begin second half transformation for I=  10.
 Begin second half transformation for I=  10.
 Complete sort for second half transformation.
 Second half transformation complete.
 Spin components of T(2) and E(2):
     alpha-alpha T2 =       0.3428827943D-01 E2=     -0.1226800758D+00
     alpha-beta  T2 =       0.1883156328D+00 E2=     -0.7018479807D+00
     beta-beta   T2 =       0.3428827943D-01 E2=     -0.1226800758D+00
 ANorm=    0.1585491843D+01
 E2 =    -0.9472081323D+00 EUMP2 =    -0.28044652344624D+03
 Leave Link  804 at Mon Feb 21 20:28:54 2022, MaxMem= 16106127360 cpu:             431.7 elap:              15.5
 (Enter /sw/contrib/gaussian/g16/B01/g16/l1002.exe)
 Minotr:  Closed shell wavefunction.
          Computing MP2/KS-MP2 derivatives.
          Using Z-Vector for PSCF gradient.
          Skipping F1 and S1 gradient terms here.
          IDoAtm=11111
          Frozen-core window.
          Using MO integrals in the linear equations.
          Forming densities via direct SCF.
          Differentiating once with respect to electric field.
                with respect to dipole field.
          Differentiating once with respect to nuclear coordinates.
          Using symmetry in CPHF.
          Requested convergence is 1.0D-10 RMS, and 1.0D-09 maximum.
          NewPWx=F KeepS1=T KeepF1=T KeepIn=T MapXYZ=F SortEE=F KeepMc=T.
          MDV=   16106127360 using IRadAn=       5.
          Solving linear equations separately, MaxMat=       0.
          There are     1 degrees of freedom in the 1st order CPHF.  IDoFFX=0 NUNeed=     1.
 FoFJK:  IHMeth= 1 ICntrl=       0 DoSepK=F KAlg= 0 I1Cent=           0 FoldK=F
 IRaf=         0 NMat=       1 IRICut=       1 DoRegI=T DoRafI=F ISym2E= 0 IDoP0=0 IntGTp=1.
 FoFCou: FMM=F IPFlag=           0 FMFlag=      100000 FMFlg1=           0
         NFxFlg=           0 DoJE=F BraDBF=F KetDBF=F FulRan=T
         wScrn=  0.000000 ICntrl=         0 IOpCl=  0 I1Cent=           0 NGrid=           0
         NMat0=    1 NMatS0=      1 NMatT0=    0 NMatD0=    1 NMtDS0=    0 NMtDT0=    0
 Symmetry not used in FoFCou.
 LinEq1:  Iter=  0 NonCon=     1 RMS=6.03D-03 Max=1.36D-01 NDo=     1
 LinEq1:  Iter=  1 NonCon=     1 RMS=1.95D-03 Max=3.98D-02 NDo=     1
 LinEq1:  Iter=  2 NonCon=     1 RMS=8.94D-04 Max=1.45D-02 NDo=     1
 LinEq1:  Iter=  3 NonCon=     1 RMS=4.02D-04 Max=8.41D-03 NDo=     1
 LinEq1:  Iter=  4 NonCon=     1 RMS=1.24D-04 Max=2.00D-03 NDo=     1
 LinEq1:  Iter=  5 NonCon=     1 RMS=4.96D-05 Max=7.91D-04 NDo=     1
 LinEq1:  Iter=  6 NonCon=     1 RMS=2.20D-05 Max=2.44D-04 NDo=     1
 LinEq1:  Iter=  7 NonCon=     1 RMS=8.86D-06 Max=1.66D-04 NDo=     1
 LinEq1:  Iter=  8 NonCon=     1 RMS=3.77D-06 Max=3.62D-05 NDo=     1
 LinEq1:  Iter=  9 NonCon=     1 RMS=1.02D-06 Max=1.37D-05 NDo=     1
 LinEq1:  Iter= 10 NonCon=     1 RMS=2.00D-07 Max=2.16D-06 NDo=     1
 LinEq1:  Iter= 11 NonCon=     1 RMS=3.68D-08 Max=3.77D-07 NDo=     1
 LinEq1:  Iter= 12 NonCon=     1 RMS=8.92D-09 Max=1.35D-07 NDo=     1
 LinEq1:  Iter= 13 NonCon=     1 RMS=1.63D-09 Max=2.74D-08 NDo=     1
 LinEq1:  Iter= 14 NonCon=     1 RMS=2.93D-10 Max=4.07D-09 NDo=     1
 LinEq1:  Iter= 15 NonCon=     0 RMS=5.14D-11 Max=5.60D-10 NDo=     1
 Linear equations converged to 1.000D-10 1.000D-09 after    15 iterations.
 End of Minotr F.D. properties file   721 does not exist.
 End of Minotr F.D. properties file   722 does not exist.
 End of Minotr F.D. properties file   788 does not exist.
 Leave Link 1002 at Mon Feb 21 20:28:56 2022, MaxMem= 16106127360 cpu:              65.8 elap:               2.4
 (Enter /sw/contrib/gaussian/g16/B01/g16/l1102.exe)
 Use density number 2.
 Symmetrizing basis deriv contribution to polar:
 IMax=3 JMax=2 DiffMx= 0.00D+00
 Leave Link 1102 at Mon Feb 21 20:28:56 2022, MaxMem= 16106127360 cpu:               1.3 elap:               0.1
 (Enter /sw/contrib/gaussian/g16/B01/g16/l1110.exe)
 Forming Gx(P) for generalized density number  2 NAtomX=     5.
 Integral derivatives from FoFJK, PRISM(SPDF).
 Do as many integral derivatives as possible in FoFJK.
 G2DrvN: MDV=   16106126844.
 G2DrvN: will do     6 centers at a time, making    1 passes.
 Calling FoFCou, ICntrl=  3107 FMM=F I1Cent=   0 AccDes= 0.00D+00.
 FoFJK:  IHMeth= 1 ICntrl=    3107 DoSepK=F KAlg= 0 I1Cent=           0 FoldK=F
 IRaf=         0 NMat=       1 IRICut=       1 DoRegI=T DoRafI=F ISym2E= 1 IDoP0=0 IntGTp=1.
 FoFCou: FMM=F IPFlag=           0 FMFlag=      100000 FMFlg1=           0
         NFxFlg=           0 DoJE=F BraDBF=F KetDBF=F FulRan=T
         wScrn=  0.000000 ICntrl=      3107 IOpCl=  0 I1Cent=           0 NGrid=           0
         NMat0=    1 NMatS0=      1 NMatT0=    0 NMatD0=    1 NMtDS0=    0 NMtDT0=    0
 Petite list used in FoFCou.
 End of G2Drv F.D. properties file   721 does not exist.
 End of G2Drv F.D. properties file   722 does not exist.
 End of G2Drv F.D. properties file   788 does not exist.
 Leave Link 1110 at Mon Feb 21 20:28:59 2022, MaxMem= 16106127360 cpu:              83.2 elap:               3.0
 (Enter /sw/contrib/gaussian/g16/B01/g16/l1112.exe)
 MP22nd: MDV=   16106127360
 This link is doing NAtomX=     5 total of    18 degrees of freedom.
 Using ON3 I/O method in MakUI.
 Frozen-core window:  NFC=   4 NFV=   0.
 Using Ix for Sx.
 Use MO integrals over full window.
 Using OV2 memory method for fx*t*t/D, MaxI=    16 DoOO2=F NP=  28.
 R2 and R3 integrals will be kept in memory, NReq=   915591705.
 FoFCou: FMM=F IPFlag=           0 FMFlag=           0 FMFlg1=           0
         NFxFlg=           0 DoJE=F BraDBF=F KetDBF=F FulRan=T
         wScrn=  0.000000 ICntrl=       600 IOpCl=  0 I1Cent=           0 NGrid=           0
         NMat0=    1 NMatS0=      1 NMatT0=    0 NMatD0=    1 NMtDS0=    0 NMtDT0=    0
 Symmetry not used in FoFCou.
 DD1Dir will call FoFMem   1 times, MxPair=       272
 NAB=   136 NAA=     0 NBB=     0.
 Symmetry is being used.
 FoFJK:  IHMeth= 1 ICntrl=       0 DoSepK=F KAlg= 0 I1Cent=           0 FoldK=F
 IRaf=         0 NMat=      18 IRICut=      45 DoRegI=T DoRafI=T ISym2E= 2 IDoP0=3 IntGTp=3.
 Discarding MO integrals.
 Leave Link 1112 at Mon Feb 21 20:29:37 2022, MaxMem= 16106127360 cpu:            1032.1 elap:              37.4
 (Enter /sw/contrib/gaussian/g16/B01/g16/l601.exe)
 Copying SCF densities to generalized density rwf, IOpCl= 0 IROHF=0.

 **********************************************************************

            Population analysis using the MP2 Density.

 **********************************************************************

 Orbital symmetries:
       Occupied  (A') (A') (A') (A') (A') (A') (A') (A') (A') (A')
                 (A") (A') (A") (A') (A") (A')
       Virtual   (A') (A") (A') (A') (A') (A") (A') (A') (A") (A')
                 (A") (A') (A') (A') (A") (A') (A') (A") (A') (A')
                 (A') (A') (A') (A') (A') (A") (A') (A") (A') (A')
                 (A") (A') (A") (A') (A') (A") (A') (A') (A") (A')
                 (A") (A') (A") (A') (A') (A") (A') (A') (A") (A')
                 (A") (A') (A') (A') (A") (A') (A") (A') (A") (A')
                 (A') (A') (A") (A') (A') (A") (A') (A") (A') (A')
                 (A") (A') (A') (A") (A") (A') (A') (A") (A') (A')
                 (A') (A") (A') (A") (A') (A") (A') (A") (A') (A')
                 (A") (A') (A') (A") (A') (A") (A') (A") (A') (A')
                 (A") (A') (A") (A') (A') (A") (A') (A') (A") (A')
                 (A") (A') (A') (A') (A") (A') (A') (A') (A") (A')
                 (A") (A') (A") (A') (A') (A") (A") (A') (A") (A')
                 (A') (A') (A') (A") (A") (A") (A') (A') (A') (A')
                 (A") (A') (A") (A') (A') (A") (A') (A') (A') (A')
                 (A") (A') (A') (A") (A') (A") (A') (A") (A') (A")
                 (A') (A") (A') (A') (A") (A") (A") (A') (A") (A')
                 (A") (A") (A') (A') (A") (A') (A") (A') (A") (A')
                 (A') (A') (A') (A') (A') (A') (A') (A') (A') (A')
                 (A')
 The electronic state is 1-A'.
 Alpha  occ. eigenvalues --  -20.69378 -20.68379 -20.66156 -15.81465  -1.61420
 Alpha  occ. eigenvalues --   -1.49537  -1.25565  -0.94980  -0.77146  -0.75592
 Alpha  occ. eigenvalues --   -0.70949  -0.67778  -0.61778  -0.59020  -0.48622
 Alpha  occ. eigenvalues --   -0.47491
 Alpha virt. eigenvalues --    0.02929   0.06782   0.08614   0.10172   0.13378
 Alpha virt. eigenvalues --    0.13419   0.14382   0.15423   0.17805   0.19431
 Alpha virt. eigenvalues --    0.19936   0.20634   0.22038   0.23440   0.23730
 Alpha virt. eigenvalues --    0.26591   0.29217   0.30339   0.30988   0.34355
 Alpha virt. eigenvalues --    0.34931   0.38673   0.42140   0.43147   0.52716
 Alpha virt. eigenvalues --    0.52757   0.55763   0.58135   0.61906   0.63890
 Alpha virt. eigenvalues --    0.67831   0.68368   0.70629   0.71086   0.72368
 Alpha virt. eigenvalues --    0.72867   0.74471   0.79087   0.79126   0.81078
 Alpha virt. eigenvalues --    0.81156   0.82737   0.86716   0.90712   0.92079
 Alpha virt. eigenvalues --    0.92514   0.95593   0.97481   0.98356   1.01585
 Alpha virt. eigenvalues --    1.05119   1.05401   1.08002   1.11595   1.13999
 Alpha virt. eigenvalues --    1.18875   1.21898   1.23082   1.33790   1.34963
 Alpha virt. eigenvalues --    1.38422   1.45277   1.48714   1.50744   1.53763
 Alpha virt. eigenvalues --    1.56690   1.58001   1.61231   1.66112   1.66912
 Alpha virt. eigenvalues --    1.70367   1.79250   1.83231   1.83420   1.87494
 Alpha virt. eigenvalues --    1.90988   1.95938   1.98893   2.00651   2.07729
 Alpha virt. eigenvalues --    2.12057   2.13077   2.14858   2.22376   2.26317
 Alpha virt. eigenvalues --    2.26392   2.28837   2.31282   2.34005   2.38498
 Alpha virt. eigenvalues --    2.42159   2.42580   2.45392   2.46114   2.47478
 Alpha virt. eigenvalues --    2.49872   2.58770   2.59421   2.61814   2.61984
 Alpha virt. eigenvalues --    2.63291   2.66386   2.75256   2.81906   2.84953
 Alpha virt. eigenvalues --    2.87836   2.89139   2.91969   2.95493   3.02225
 Alpha virt. eigenvalues --    3.07002   3.11760   3.20346   3.22324   3.31419
 Alpha virt. eigenvalues --    3.33989   3.51148   3.64215   3.83643   3.84024
 Alpha virt. eigenvalues --    4.14711   4.16098   4.18169   4.22793   4.35015
 Alpha virt. eigenvalues --    4.39122   4.45976   4.51663   4.64658   4.70817
 Alpha virt. eigenvalues --    4.79807   4.82217   4.82620   4.89653   5.02507
 Alpha virt. eigenvalues --    5.07636   5.09839   5.14955   5.17463   5.23749
 Alpha virt. eigenvalues --    5.27092   5.30790   5.32738   5.34614   5.60300
 Alpha virt. eigenvalues --    5.65317   5.75797   5.82381   5.96278   6.16525
 Alpha virt. eigenvalues --    6.30628   6.33703   6.39256   6.49361   6.50523
 Alpha virt. eigenvalues --    6.61189   6.66627   6.69441   6.75562   6.76110
 Alpha virt. eigenvalues --    6.82495   6.89345   7.00933   7.05252   7.05470
 Alpha virt. eigenvalues --    7.08816   7.11830   7.14630   7.17972   7.21584
 Alpha virt. eigenvalues --    7.23867   7.29822   7.29999   7.33973   7.39074
 Alpha virt. eigenvalues --    7.42921   7.48274   7.59560   7.60519   7.61400
 Alpha virt. eigenvalues --    7.66244   7.77809   7.86640   8.08765   8.30967
 Alpha virt. eigenvalues --    8.40762   8.54126  13.36381  14.29035  15.15530
 Alpha virt. eigenvalues --   15.78644
          Condensed to atoms (all electrons):
               1          2          3          4          5
     1  H    0.589216   0.128378   0.020072   0.012296  -0.000648
     2  O    0.128378   8.320492  -0.173346  -0.090370   0.015438
     3  O    0.020072  -0.173346   8.458900  -0.124952  -0.036237
     4  N    0.012296  -0.090370  -0.124952   6.966756  -0.054018
     5  O   -0.000648   0.015438  -0.036237  -0.054018   8.271408
 Mulliken charges:
               1
     1  H    0.250685
     2  O   -0.200593
     3  O   -0.144437
     4  N    0.290288
     5  O   -0.195943
 Sum of Mulliken charges =  -0.00000
 Mulliken charges with hydrogens summed into heavy atoms:
               1
     2  O    0.050093
     3  O   -0.144437
     4  N    0.290288
     5  O   -0.195943
 APT charges:
               1
     1  H    0.299804
     2  O   -0.288431
     3  O   -0.488029
     4  N    0.859022
     5  O   -0.382365
 Sum of APT charges =  -0.00000
 APT charges with hydrogens summed into heavy atoms:
               1
     2  O    0.011372
     3  O   -0.488029
     4  N    0.859022
     5  O   -0.382365
 Electronic spatial extent (au):  <R**2>=            254.0681
 Charge=             -0.0000 electrons
 Dipole moment (field-independent basis, Debye):
    X=              0.5542    Y=              1.4154    Z=             -0.0000  Tot=              1.5201
 Quadrupole moment (field-independent basis, Debye-Ang):
   XX=            -22.5329   YY=            -18.6157   ZZ=            -22.0311
   XY=              3.2147   XZ=              0.0000   YZ=              0.0000
 Traceless Quadrupole moment (field-independent basis, Debye-Ang):
   XX=             -1.4730   YY=              2.4442   ZZ=             -0.9712
   XY=              3.2147   XZ=              0.0000   YZ=              0.0000
 Octapole moment (field-independent basis, Debye-Ang**2):
  XXX=              2.9542  YYY=             11.6064  ZZZ=              0.0000  XYY=              8.0229
  XXY=              6.6195  XXZ=             -0.0000  XZZ=             -1.5379  YZZ=             -0.8129
  YYZ=             -0.0000  XYZ=             -0.0000
 Hexadecapole moment (field-independent basis, Debye-Ang**3):
 XXXX=           -158.9558 YYYY=            -90.5844 ZZZZ=            -18.2612 XXXY=            -37.1465
 XXXZ=              0.0000 YYYX=            -31.1130 YYYZ=              0.0000 ZZZX=              0.0000
 ZZZY=              0.0000 XXYY=            -34.2225 XXZZ=            -30.9449 YYZZ=            -20.8563
 XXYZ=              0.0000 YYXZ=              0.0000 ZZXY=            -15.2113
 N-N= 1.164949240512D+02 E-N=-8.950684712769D+02  KE= 2.801460090279D+02
 Symmetry A'   KE= 2.661796950691D+02
 Symmetry A"   KE= 1.396631395875D+01
  Exact polarizability:  34.133   9.608  30.423  -0.000  -0.000  17.952
 Approx polarizability:  29.288   5.208  23.630  -0.000  -0.000  15.577
 No NMR shielding tensors so no spin-rotation constants.
 Leave Link  601 at Mon Feb 21 20:29:37 2022, MaxMem= 16106127360 cpu:               4.3 elap:               0.2
 (Enter /sw/contrib/gaussian/g16/B01/g16/l701.exe)
 ... and contract with generalized density number  2.
 Compute integral second derivatives.
 Leave Link  701 at Mon Feb 21 20:29:37 2022, MaxMem= 16106127360 cpu:               5.7 elap:               0.2
 (Enter /sw/contrib/gaussian/g16/B01/g16/l702.exe)
 L702 exits ... SP integral derivatives will be done elsewhere.
 Leave Link  702 at Mon Feb 21 20:29:37 2022, MaxMem= 16106127360 cpu:               0.5 elap:               0.0
 (Enter /sw/contrib/gaussian/g16/B01/g16/l703.exe)
 Integral derivatives from FoFJK, PRISM(SPDF).
 Compute integral second derivatives, UseDBF=F ICtDFT=           0.
 Calling FoFJK, ICntrl=  10100127 FMM=F ISym2X=1 I1Cent= 0 IOpClX= 0 NMat=1 NMatS=1 NMatT=0.
 FoFJK:  IHMeth= 1 ICntrl=10100127 DoSepK=F KAlg= 0 I1Cent=           0 FoldK=F
 IRaf=         0 NMat=       1 IRICut=       1 DoRegI=T DoRafI=F ISym2E= 1 IDoP0=0 IntGTp=1.
 FoFCou: FMM=F IPFlag=           0 FMFlag=      100000 FMFlg1=         800
         NFxFlg=           0 DoJE=F BraDBF=F KetDBF=F FulRan=T
         wScrn=  0.000000 ICntrl=  10100127 IOpCl=  0 I1Cent=           0 NGrid=           0
         NMat0=    1 NMatS0=      1 NMatT0=    0 NMatD0=    1 NMtDS0=    0 NMtDT0=    0
 Petite list used in FoFCou.
 Leave Link  703 at Mon Feb 21 20:29:53 2022, MaxMem= 16106127360 cpu:             429.4 elap:              15.4
 (Enter /sw/contrib/gaussian/g16/B01/g16/l716.exe)
 Dipole        = 2.18038293D-01 5.56872305D-01-1.69714246D-32
 Polarizability= 3.41328556D+01 9.60765269D+00 3.04228484D+01
                -5.63689671D-31-8.58406733D-31 1.79516662D+01
 Full mass-weighted force constant matrix:
 Low frequencies --- -271.6584   -0.0012   -0.0003    0.0011   42.4157   56.4528
 Low frequencies ---   86.5789  269.9889  350.0847
 ******    1 imaginary frequencies (negative Signs) ****** 
 Diagonal vibrational polarizability:
       14.1973418      26.1274935      45.8646584
 Harmonic frequencies (cm**-1), IR intensities (KM/Mole), Raman scattering
 activities (A**4/AMU), depolarization ratios for plane and unpolarized
 incident light, reduced masses (AMU), force constants (mDyne/A),
 and normal coordinates:
                      1                      2                      3
                     A"                     A"                     A'
 Frequencies --   -271.4113               265.4930               349.8522
 Red. masses --      1.1295                11.4043                 8.4701
 Frc consts  --      0.0490                 0.4736                 0.6108
 IR Inten    --    125.2175                 0.3138                 8.8157
  Atom  AN      X      Y      Z        X      Y      Z        X      Y      Z
     1   1     0.00  -0.00   1.00     0.00  -0.00  -0.52     0.56  -0.43   0.00
     2   8     0.00  -0.00  -0.06     0.00  -0.00  -0.33    -0.08  -0.37   0.00
     3   8     0.00   0.00  -0.04    -0.00   0.00   0.34    -0.14   0.45  -0.00
     4   7    -0.00   0.00   0.05    -0.00   0.00   0.55     0.03   0.23  -0.00
     5   8    -0.00  -0.00  -0.00     0.00  -0.00  -0.46     0.16  -0.25   0.00
                      4                      5                      6
                     A'                     A'                     A'
 Frequencies --    445.3588               785.3456               965.7324
 Red. masses --     12.5014                13.1864                15.3966
 Frc consts  --      1.4609                 4.7918                 8.4604
 IR Inten    --    196.2832               170.7272                24.1062
  Atom  AN      X      Y      Z        X      Y      Z        X      Y      Z
     1   1     0.38   0.22   0.00    -0.32   0.18   0.00    -0.17  -0.04   0.00
     2   8     0.33   0.23   0.00     0.43   0.08   0.00    -0.52   0.03   0.00
     3   8     0.19   0.42  -0.00    -0.06  -0.26  -0.00     0.75  -0.02  -0.00
     4   7    -0.36  -0.43  -0.00    -0.13   0.63  -0.00    -0.12   0.25  -0.00
     5   8    -0.22  -0.29   0.00    -0.22  -0.38   0.00    -0.12  -0.22   0.00
                      7                      8                      9
                     A'                     A'                     A'
 Frequencies --   1369.5307              1599.3541              3778.8163
 Red. masses --      1.1447                11.7148                 1.0676
 Frc consts  --      1.2649                17.6553                 8.9815
 IR Inten    --    161.7118               107.6506                83.4886
  Atom  AN      X      Y      Z        X      Y      Z        X      Y      Z
     1   1     0.99  -0.05   0.00    -0.48   0.01  -0.00     0.10   0.99  -0.00
     2   8    -0.03   0.05   0.00    -0.00  -0.05  -0.00    -0.01  -0.06  -0.00
     3   8    -0.02  -0.05  -0.00     0.00   0.16   0.00     0.00   0.00   0.00
     4   7     0.03   0.01  -0.00     0.66  -0.06   0.00    -0.00  -0.00   0.00
     5   8    -0.04  -0.01   0.00    -0.55  -0.06  -0.00     0.00   0.00  -0.00

 -------------------
 - Thermochemistry -
 -------------------
 Temperature   298.150 Kelvin.  Pressure   1.00000 Atm.
 Atom     1 has atomic number  1 and mass   1.00783
 Atom     2 has atomic number  8 and mass  15.99491
 Atom     3 has atomic number  8 and mass  15.99491
 Atom     4 has atomic number  7 and mass  14.00307
 Atom     5 has atomic number  8 and mass  15.99491
 Molecular mass:    62.99564 amu.
 Principal axes and moments of inertia in atomic units:
                           1         2         3
     Eigenvalues --    32.89127 362.27448 395.16575
           X            0.80852  -0.58847   0.00000
           Y            0.58847   0.80852   0.00000
           Z           -0.00000   0.00000   1.00000
 This molecule is an asymmetric top.
 Rotational symmetry number  1.
 Rotational temperatures (Kelvin)      2.63334     0.23908     0.21918
 Rotational constants (GHZ):          54.86992     4.98170     4.56705
    1 imaginary frequencies ignored.
 Zero-point vibrational energy      57178.4 (Joules/Mol)
                                   13.66597 (Kcal/Mol)
 Warning -- explicit consideration of   3 degrees of freedom as
           vibrations may cause significant error
 Vibrational temperatures:    381.99   503.36   640.77  1129.94  1389.47
          (Kelvin)           1970.45  2301.11  5436.87
 
 Zero-point correction=                           0.021778 (Hartree/Particle)
 Thermal correction to Energy=                    0.025841
 Thermal correction to Enthalpy=                  0.026786
 Thermal correction to Gibbs Free Energy=        -0.004272
 Sum of electronic and zero-point Energies=           -280.424745
 Sum of electronic and thermal Energies=              -280.420682
 Sum of electronic and thermal Enthalpies=            -280.419738
 Sum of electronic and thermal Free Energies=         -280.450796
 
                     E (Thermal)             CV                S
                      KCal/Mol        Cal/Mol-Kelvin    Cal/Mol-Kelvin
 Total                   16.216             11.906             65.367
 Electronic               0.000              0.000              0.000
 Translational            0.889              2.981             38.341
 Rotational               0.889              2.981             23.070
 Vibrational             14.438              5.945              3.957
 Vibration     1          0.671              1.736              1.625
 Vibration     2          0.727              1.576              1.167
 Vibration     3          0.805              1.371              0.810
                       Q            Log10(Q)             Ln(Q)
 Total Bot       0.923004D+02          1.965203          4.525048
 Total V=0       0.960345D+12         11.982427         27.590559
 Vib (Bot)       0.191201D-09         -9.718511        -22.377698
 Vib (Bot)    1  0.729595D+00         -0.136918         -0.315266
 Vib (Bot)    2  0.527414D+00         -0.277848         -0.639769
 Vib (Bot)    3  0.386500D+00         -0.412850         -0.950623
 Vib (V=0)       0.198936D+01          0.298713          0.687813
 Vib (V=0)    1  0.138448D+01          0.141287          0.325326
 Vib (V=0)    2  0.122675D+01          0.088756          0.204368
 Vib (V=0)    3  0.113197D+01          0.053834          0.123957
 Electronic      0.100000D+01          0.000000          0.000000
 Translational   0.196526D+08          7.293420         16.793719
 Rotational      0.245637D+05          4.390294         10.109027
 
                                                                title
                                                             IR Spectrum
 
     3                                                                         1      1                                              
     7                                                                         5      3             9     7           4  3  2        
     7                                                                         9      7             6     8           4  5  6        
     9                                                                         9      0             6     5           5  0  5        
 
     X                                                                         X      X             X     X           X  X  X        
     X                                                                         X      X             X     X           X              
     X                                                                         X      X                   X           X              
     X                                                                         X      X                   X           X              
     X                                                                         X      X                   X           X              
     X                                                                         X      X                   X           X              
     X                                                                         X      X                   X           X              
     X                                                                         X      X                   X           X              
     X                                                                         X      X                   X           X              
                                                                               X      X                   X           X              
                                                                               X      X                   X           X              
                                                                                      X                   X           X              
                                                                                      X                   X           X              
                                                                                      X                   X           X              
                                                                                      X                   X           X              
                                                                                      X                   X           X              
                                                                                                          X           X              
                                                                                                                      X              
                                                                                                                      X              
                                                                                                                      X              
 
 ***** Axes restored to original set *****
 -------------------------------------------------------------------
 Center     Atomic                   Forces (Hartrees/Bohr)
 Number     Number              X              Y              Z
 -------------------------------------------------------------------
      1        1           0.000129372    0.000000000   -0.000082012
      2        8           0.000214036    0.000000000    0.000423681
      3        8           0.000898969    0.000000000    0.003217862
      4        7           0.015885418    0.000000000    0.001769115
      5        8          -0.017127795   -0.000000000   -0.005328646
 -------------------------------------------------------------------
 Cartesian Forces:  Max     0.017127795 RMS     0.006264416
 -----------------------------------------------------------------------------------------------
                       Internal Coordinate Forces (Hartree/Bohr or radian)
  Cent   Atom   N1       Length/X         N2         Alpha/Y        N3         Beta/Z          J
 -----------------------------------------------------------------------------------------------
      1  H 
      2  O        1   0.000082(     1)
      3  O        2  -0.000386(     2)      1  -0.000237(     5)
      4  N        3  -0.003649(     3)      2  -0.000569(     6)      1   0.000000(     8)     0
      5  O        4  -0.017914(     4)      3  -0.002039(     7)      2  -0.000000(     9)     0
 -----------------------------------------------------------------------------------------------
 Internal  Forces:  Max     0.017914351 RMS     0.006136747
 Force constants in Cartesian coordinates: 
                1             2             3             4             5 
      1  0.647032D-01
      2  0.000000D+00 -0.243584D-02
      3  0.525994D-02  0.000000D+00  0.512392D+00
      4 -0.359607D-01  0.000000D+00 -0.162158D-01  0.272463D+00
      5  0.000000D+00  0.315482D-02  0.000000D+00  0.000000D+00  0.203261D-02
      6  0.484286D-01  0.000000D+00 -0.508572D+00  0.331116D-01  0.000000D+00
      7 -0.182327D-01  0.000000D+00  0.124688D-01 -0.219863D+00  0.000000D+00
      8  0.000000D+00  0.986052D-03  0.000000D+00  0.000000D+00 -0.655274D-02
      9 -0.532414D-01  0.000000D+00 -0.468107D-03 -0.190667D-01  0.000000D+00
     10 -0.926532D-02  0.000000D+00 -0.478971D-02 -0.169807D-01  0.000000D+00
     11  0.000000D+00 -0.272791D-02  0.000000D+00  0.000000D+00 -0.491998D-02
     12  0.516311D-02  0.000000D+00 -0.475955D-02  0.112389D-01  0.000000D+00
     13 -0.124443D-02  0.000000D+00  0.327674D-02  0.340935D-03  0.000000D+00
     14  0.000000D+00  0.102288D-02  0.000000D+00  0.000000D+00  0.628530D-02
     15 -0.561023D-02  0.000000D+00  0.140776D-02 -0.906806D-02  0.000000D+00
                6             7             8             9            10 
      6  0.594975D+00
      7 -0.210174D-01  0.340841D+00
      8  0.000000D+00  0.000000D+00  0.531369D-02
      9 -0.788013D-01  0.344085D-01  0.000000D+00  0.179000D+00
     10 -0.524649D-01 -0.782901D-01  0.000000D+00  0.171070D+00  0.756430D+00
     11  0.000000D+00  0.000000D+00  0.769816D-02  0.000000D+00  0.000000D+00
     12  0.164445D-01  0.619390D-01  0.000000D+00 -0.810862D-01 -0.323210D-01
     13 -0.805789D-02 -0.244553D-01  0.000000D+00 -0.133171D+00 -0.651894D+00
     14  0.000000D+00  0.000000D+00 -0.744516D-02  0.000000D+00  0.000000D+00
     15 -0.240456D-01 -0.877989D-01  0.000000D+00 -0.186446D-01 -0.814947D-01
               11            12            13            14            15 
     11  0.169000D-01
     12  0.000000D+00  0.187544D+00
     13  0.000000D+00 -0.460200D-01  0.677253D+00
     14 -0.169503D-01  0.000000D+00  0.000000D+00  0.170873D-01
     15  0.000000D+00 -0.118142D+00  0.183972D+00  0.000000D+00  0.159425D+00
 Force constants in internal coordinates: 
                1             2             3             4             5 
      1  0.512392D+00
      2 -0.103548D-01  0.280682D+00
      3  0.346454D-02  0.261839D-02  0.114757D+00
      4 -0.352357D-02  0.583233D-02  0.147495D+00  0.733814D+00
      5  0.976088D-02  0.651620D-01  0.239377D-02  0.475646D-02  0.217096D+00
      6  0.463058D-02  0.593730D-01  0.410315D-01  0.215328D-01  0.316986D-01
      7 -0.123133D-02  0.371495D-01  0.298838D-01  0.833028D-01  0.209892D-01
      8  0.000000D+00  0.000000D+00  0.000000D+00  0.000000D+00  0.000000D+00
      9  0.000000D+00  0.000000D+00  0.000000D+00  0.000000D+00  0.000000D+00
                6             7             8             9 
      6  0.283764D+00
      7  0.940471D-01  0.474251D+00
      8  0.000000D+00  0.000000D+00 -0.784525D-02
      9  0.000000D+00  0.000000D+00 -0.392292D-02  0.411633D-01
 Leave Link  716 at Mon Feb 21 20:29:53 2022, MaxMem= 16106127360 cpu:               0.7 elap:               0.0
 (Enter /sw/contrib/gaussian/g16/B01/g16/l103.exe)

 GradGradGradGradGradGradGradGradGradGradGradGradGradGradGradGradGradGrad
 Berny optimization.
 Search for a local minimum.
 Step number   1 out of a maximum of    2
 All quantities printed in internal units (Hartrees-Bohrs-Radians)
 Second derivative matrix not updated -- analytic derivatives used.
 The second derivative matrix:
                          r1        r2        r3        r4        a1
           r1           0.51239
           r2          -0.01035   0.28068
           r3           0.00346   0.00262   0.11476
           r4          -0.00352   0.00583   0.14750   0.73381
           a1           0.00976   0.06516   0.00239   0.00476   0.21710
           a2           0.00463   0.05937   0.04103   0.02153   0.03170
           a3          -0.00123   0.03715   0.02988   0.08330   0.02099
           d1           0.00000  -0.00000  -0.00000  -0.00000  -0.00000
           d2          -0.00000   0.00000   0.00000   0.00000   0.00000
                          a2        a3        d1        d2
           a2           0.28376
           a3           0.09405   0.47425
           d1          -0.00000  -0.00000  -0.00785
           d2          -0.00000  -0.00000  -0.00392   0.04116
 ITU=  0
     Eigenvalues ---   -0.00816   0.04148   0.07492   0.17554   0.22565
     Eigenvalues ---    0.32424   0.50414   0.51315   0.79911
 Eigenvalue     1 is  -8.16D-03 should be greater than     0.000000 Eigenvector:
                          d1        d2        a3        a2        r3
   1                    0.99685   0.07929   0.00000   0.00000  -0.00000
                          r4        r2        a1        r1
   1                    0.00000   0.00000  -0.00000  -0.00000
 Angle between quadratic step and forces=  12.17 degrees.
 Linear search not attempted -- first point.
 Variable       Old X    -DE/DX   Delta X   Delta X   Delta X     New X
                                 (Linear)    (Quad)   (Total)
    r1        1.83110   0.00008   0.00000  -0.00001  -0.00001   1.83108
    r2        2.74940  -0.00039   0.00000  -0.00082  -0.00082   2.74858
    r3        2.75670  -0.00365   0.00000  -0.00061  -0.00061   2.75609
    r4        2.23604  -0.01791   0.00000  -0.02429  -0.02429   2.21175
    a1        1.70335  -0.00024   0.00000  -0.00033  -0.00033   1.70303
    a2        1.78543  -0.00057   0.00000   0.00011   0.00011   1.78554
    a3        1.90362  -0.00204   0.00000   0.00006   0.00006   1.90368
    d1        3.14159   0.00000   0.00000   0.00000   0.00000   3.14159
    d2        3.14159  -0.00000   0.00000  -0.00000   0.00000   3.14159
         Item               Value     Threshold  Converged?
 Maximum Force            0.017914     0.000450     NO 
 RMS     Force            0.006137     0.000300     NO 
 Maximum Displacement     0.024292     0.001800     NO 
 RMS     Displacement     0.008105     0.001200     NO 
 Predicted change in Energy=-2.188002D-04
                       ----------------------------
                       ! Non-Optimized Parameters !
                       ! (Angstroms and Degrees)  !
 ----------------------                            ----------------------
 !      Name          Value   Derivative information (Atomic Units)     !
 ------------------------------------------------------------------------
 !       r1          0.969    -DE/DX =    0.0001                        !
 !       r2          1.4545   -DE/DX =   -0.0004                        !
 !       r3          1.4585   -DE/DX =   -0.0036                        !
 !       r4          1.1704   -DE/DX =   -0.0179                        !
 !       a1         97.5762   -DE/DX =   -0.0002                        !
 !       a2        102.304    -DE/DX =   -0.0006                        !
 !       a3        109.0731   -DE/DX =   -0.002                         !
 !       d1        180.0      -DE/DX =    0.0                           !
 !       d2        180.0      -DE/DX =    0.0                           !
 ------------------------------------------------------------------------
 GradGradGradGradGradGradGradGradGradGradGradGradGradGradGradGradGradGrad

 Leave Link  103 at Mon Feb 21 20:29:53 2022, MaxMem= 16106127360 cpu:               0.5 elap:               0.0
 (Enter /sw/contrib/gaussian/g16/B01/g16/l9999.exe)

 ----------------------------------------------------------------------

 Electric dipole moment (input orientation):
 (Debye = 10**-18 statcoulomb cm , SI units = C m)
                  (au)            (Debye)         (10**-30 SI)
   Tot        0.598036D+00      0.152006D+01      0.507036D+01
   x         -0.165007D+00     -0.419407D+00     -0.139899D+01
   y          0.000000D+00      0.000000D+00      0.000000D+00
   z         -0.574822D+00     -0.146105D+01     -0.487354D+01

 Dipole polarizability, Alpha (input orientation).
 (esu units = cm**3 , SI units = C**2 m**2 J**-1)
 Alpha(0;0):
               (au)            (10**-24 esu)      (10**-40 SI)
   iso        0.275025D+02      0.407544D+01      0.453454D+01
   aniso      0.221920D+02      0.328851D+01      0.365896D+01
   xx         0.323114D+02      0.478805D+01      0.532743D+01
   yx         0.000000D+00      0.000000D+00      0.000000D+00
   yy         0.179517D+02      0.266016D+01      0.295983D+01
   zx         0.978503D+01      0.144999D+01      0.161333D+01
   zy         0.000000D+00      0.000000D+00      0.000000D+00
   zz         0.322443D+02      0.477812D+01      0.531637D+01

 ----------------------------------------------------------------------

 Dipole orientation:
     1         -0.00000000          0.00000000          0.00000000
     8         -0.50522813          0.00000000         -1.76001875
     8          2.01399733          0.00000000         -2.86124447
     7          1.47317190          0.00000000         -5.56437519
     8          3.40211513          0.00000000         -6.69533493

 Electric dipole moment (dipole orientation):
 (Debye = 10**-18 statcoulomb cm , SI units = C m)
                  (au)            (Debye)         (10**-30 SI)
   Tot        0.598036D+00      0.152006D+01      0.507036D+01
   x          0.000000D+00      0.000000D+00      0.000000D+00
   y          0.000000D+00      0.000000D+00      0.000000D+00
   z          0.598036D+00      0.152006D+01      0.507036D+01

 Dipole polarizability, Alpha (dipole orientation).
 (esu units = cm**3 , SI units = C**2 m**2 J**-1)
 Alpha(0;0):
               (au)            (10**-24 esu)      (10**-40 SI)
   iso        0.275025D+02      0.407544D+01      0.453454D+01
   aniso      0.221920D+02      0.328851D+01      0.365896D+01
   xx         0.271162D+02      0.401821D+01      0.447086D+01
   yx         0.000000D+00      0.000000D+00      0.000000D+00
   yy         0.179517D+02      0.266016D+01      0.295983D+01
   zx        -0.831296D+01     -0.123185D+01     -0.137062D+01
   zy         0.000000D+00      0.000000D+00      0.000000D+00
   zz         0.374395D+02      0.554796D+01      0.617294D+01

 ----------------------------------------------------------------------
 1\1\GINC-N2129\Freq\RMP2-FC\Aug-CC-pVTZ\H1N1O3\CGAVINH\21-Feb-2022\1\\
 #p freq mp2/aug-cc-pvtz density=current\\title\\0,1\H\O,1,r1\O,2,r2,1,
 a1\N,3,r3,2,a2,1,d1,0\O,4,r4,3,a3,2,d2,0\\r1=0.96897556\r2=1.45491931\
 r3=1.45878406\r4=1.18326343\a1=97.59494903\a2=102.29752444\a3=109.0695
 5123\d1=180.\d2=180.\\Version=ES64L-G16RevB.01\State=1-A'\HF=-279.4993
 153\MP2=-280.4465234\RMSD=4.137e-09\RMSF=6.264e-03\ZeroPoint=0.0217781
 \Thermal=0.0258414\Dipole=-0.1650074,0.,-0.5748217\DipoleDeriv=0.26640
 8,0.,0.0484914,0.,0.3559622,0.,0.0829577,0.,0.2770404,-0.3304768,0.,-0
 .209486,0.,-0.313031,0.,-0.1124,0.,-0.2217866,-0.0380171,0.,0.1503919,
 0.,-0.0819258,0.,-0.7492924,0.,-1.344144,0.8590094,0.,0.8783568,0.,0.0
 652261,0.,0.9105112,0.,1.652831,-0.7569236,0.,-0.8677541,0.,-0.0262315
 ,0.,-0.1317766,0.,-0.3639407\Polar=32.3113831,0.,17.9516662,9.7850347,
 0.,32.244321\Quadrupole=-1.5147074,-0.7220817,2.2367891,0.,2.0771143,0
 .\PG=CS [SG(H1N1O3)]\NImag=1\\0.06470316,0.,-0.00243584,0.00525994,0.,
 0.51239195,-0.03596070,0.,-0.01621575,0.27246334,0.,0.00315482,0.,0.,0
 .00203261,0.04842857,0.,-0.50857205,0.03311158,0.,0.59497451,-0.018232
 71,0.,0.01246878,-0.21986287,0.,-0.02101740,0.34084095,0.,0.00098605,0
 .,0.,-0.00655274,0.,0.,0.00531369,-0.05324138,0.,-0.00046811,-0.019066
 68,0.,-0.07880131,0.03440850,0.,0.17900027,-0.00926532,0.,-0.00478971,
 -0.01698071,0.,-0.05246485,-0.07829011,0.,0.17107029,0.75643032,0.,-0.
 00272791,0.,0.,-0.00491998,0.,0.,0.00769816,0.,0.,0.01690002,0.0051631
 1,0.,-0.00475955,0.01123891,0.,0.01644448,0.06193899,0.,-0.08108625,-0
 .03232099,0.,0.18754365,-0.00124443,0.,0.00327674,0.00034093,0.,-0.008
 05789,-0.02445527,0.,-0.13317073,-0.65189419,0.,-0.04602001,0.67725294
 ,0.,0.00102288,0.,0.,0.00628530,0.,0.,-0.00744516,0.,0.,-0.01695029,0.
 ,0.,0.01708728,-0.00561023,0.,0.00140776,-0.00906806,0.,-0.02404562,-0
 .08779887,0.,-0.01864460,-0.08149474,0.,-0.11814233,0.18397189,0.,0.15
 942478\\-0.00012937,0.,0.00008201,-0.00021404,0.,-0.00042368,-0.000898
 97,0.,-0.00321786,-0.01588542,0.,-0.00176911,0.01712779,0.,0.00532865\
 \\@


 EVERYTHING'S GOT A MORAL, IF ONLY YOU CAN FIND IT.

                                    -- LEWIS CARROL, ALICE IN WONDERLAND
 Job cpu time:       0 days  2 hours  0 minutes 39.8 seconds.
 Elapsed time:       0 days  0 hours  4 minutes 21.9 seconds.
 File lengths (MBytes):  RWF=   7239 Int=      0 D2E=      0 Chk=      8 Scr=      1
 Normal termination of Gaussian 16 at Mon Feb 21 20:29:54 2022.
