title                                                                   
SP        RMP2-FC                                                     Aug-CC-pVTZ         
Number of atoms                            I                5
Info1-9                                    I   N=           9
          33          24           0           0           0         110
           1           2           1
Full Title                                 C   N=           1
title       
Route                                      C   N=           4
#p SP mp2/aug-cc-pvtz density=current           
Charge                                     I                0
Multiplicity                               I                1
Number of electrons                        I               32
Number of alpha electrons                  I               16
Number of beta electrons                   I               16
Number of basis functions                  I              207
Number of independent functions            I              207
Number of point charges in /Mol/           I                0
Number of translation vectors              I                0
Atomic numbers                             I   N=           5
           1           8           8           7           8
Nuclear charges                            R   N=           5
  1.00000000E+00  8.00000000E+00  8.00000000E+00  7.00000000E+00  8.00000000E+00
Current cartesian coordinates              R   N=          15
  2.90927783E+00  3.19625649E+00  1.85178853E-31  2.73478763E+00  1.37349083E+00
  1.52922114E-31  1.67032756E-16  1.27193047E+00 -6.32924350E-32 -4.86784238E-01
 -1.44145284E+00  4.12395663E-31 -2.67251115E+00 -1.78368213E+00 -3.71513059E-31
Number of symbols in /Mol/                 I                0
Force Field                                I                0
Atom Types                                 C   N=           5
                                                            
Int Atom Types                             I   N=           5
           0           0           0           0           0
MM charges                                 R   N=           5
  0.00000000E+00  0.00000000E+00  0.00000000E+00  0.00000000E+00  0.00000000E+00
Integer atomic weights                     I   N=           5
           1          16          16          14          16
Real atomic weights                        R   N=           5
  1.00782504E+00  1.59949146E+01  1.59949146E+01  1.40030740E+01  1.59949146E+01
Atom fragment info                         I   N=           5
           0           0           0           0           0
Atom residue num                           I   N=           5
           0           0           0           0           0
Nuclear spins                              I   N=           5
           1           0           0           2           0
Nuclear ZEff                               R   N=           5
 -1.00000000E+00 -5.60000000E+00 -5.60000000E+00 -4.55000000E+00 -5.60000000E+00
Nuclear ZNuc                               R   N=           5
  1.00000000E+00  8.00000000E+00  8.00000000E+00  7.00000000E+00  8.00000000E+00
Nuclear QMom                               R   N=           5
  0.00000000E+00  0.00000000E+00  0.00000000E+00  2.04400000E+00  0.00000000E+00
Nuclear GFac                               R   N=           5
  2.79284600E+00  0.00000000E+00  0.00000000E+00  4.03761000E-01  0.00000000E+00
MicOpt                                     I   N=           5
          -1          -1          -1          -1          -1
Number of residues                         I                0
Number of secondary structures             I                0
SymInf integers                            I   N=          26
           1           2           1           1           1           1
           1          -1           0           0           0           0
           0           0           0           0           0           0
           0           0           0           0           0           0
           0           0
RotTr to input orientation                 R   N=          12
 -9.95449302E-01 -8.70373785E-16 -9.52926389E-02  9.52926389E-02  7.74532638E-16
 -9.95449302E-01  9.40220235E-16 -1.00000000E+00 -6.88067759E-16  2.59145887E+00
  0.00000000E+00  3.45894405E+00
Number of contracted shells                I               65
Number of primitive shells                 I              119
Pure/Cartesian d shells                    I                0
Pure/Cartesian f shells                    I                0
Highest angular momentum                   I                3
Largest degree of contraction              I                7
Shell types                                I   N=          65
           0           0           0           0           1           1
           1          -2          -2           0           0           0
           0           0           1           1           1           1
          -2          -2          -2          -3          -3           0
           0           0           0           0           1           1
           1           1          -2          -2          -2          -3
          -3           0           0           0           0           0
           1           1           1           1          -2          -2
          -2          -3          -3           0           0           0
           0           0           1           1           1           1
          -2          -2          -2          -3          -3
Number of primitives per shell             I   N=          65
           3           1           1           1           1           1
           1           1           1           7           6           1
           1           1           3           1           1           1
           1           1           1           1           1           7
           6           1           1           1           3           1
           1           1           1           1           1           1
           1           7           6           1           1           1
           3           1           1           1           1           1
           1           1           1           7           6           1
           1           1           3           1           1           1
           1           1           1           1           1
Shell to atom map                          I   N=          65
           1           1           1           1           1           1
           1           1           1           2           2           2
           2           2           2           2           2           2
           2           2           2           2           2           3
           3           3           3           3           3           3
           3           3           3           3           3           3
           3           4           4           4           4           4
           4           4           4           4           4           4
           4           4           4           5           5           5
           5           5           5           5           5           5
           5           5           5           5           5
Primitive exponents                        R   N=         119
  3.38700000E+01  5.09500000E+00  1.15900000E+00  3.25800000E-01  1.02700000E-01
  2.52600000E-02  1.40700000E+00  3.88000000E-01  1.02000000E-01  1.05700000E+00
  2.47000000E-01  1.53300000E+04  2.29900000E+03  5.22400000E+02  1.47300000E+02
  4.75500000E+01  1.67600000E+01  6.20700000E+00  5.22400000E+02  1.47300000E+02
  4.75500000E+01  1.67600000E+01  6.20700000E+00  6.88200000E-01  1.75200000E+00
  2.38400000E-01  7.37600000E-02  3.44600000E+01  7.74900000E+00  2.28000000E+00
  7.15600000E-01  2.14000000E-01  5.97400000E-02  2.31400000E+00  6.45000000E-01
  2.14000000E-01  1.42800000E+00  5.00000000E-01  1.53300000E+04  2.29900000E+03
  5.22400000E+02  1.47300000E+02  4.75500000E+01  1.67600000E+01  6.20700000E+00
  5.22400000E+02  1.47300000E+02  4.75500000E+01  1.67600000E+01  6.20700000E+00
  6.88200000E-01  1.75200000E+00  2.38400000E-01  7.37600000E-02  3.44600000E+01
  7.74900000E+00  2.28000000E+00  7.15600000E-01  2.14000000E-01  5.97400000E-02
  2.31400000E+00  6.45000000E-01  2.14000000E-01  1.42800000E+00  5.00000000E-01
  1.14200000E+04  1.71200000E+03  3.89300000E+02  1.10000000E+02  3.55700000E+01
  1.25400000E+01  4.64400000E+00  3.89300000E+02  1.10000000E+02  3.55700000E+01
  1.25400000E+01  4.64400000E+00  5.11800000E-01  1.29300000E+00  1.78700000E-01
  5.76000000E-02  2.66300000E+01  5.94800000E+00  1.74200000E+00  5.55000000E-01
  1.72500000E-01  4.91000000E-02  1.65400000E+00  4.69000000E-01  1.51000000E-01
  1.09300000E+00  3.64000000E-01  1.53300000E+04  2.29900000E+03  5.22400000E+02
  1.47300000E+02  4.75500000E+01  1.67600000E+01  6.20700000E+00  5.22400000E+02
  1.47300000E+02  4.75500000E+01  1.67600000E+01  6.20700000E+00  6.88200000E-01
  1.75200000E+00  2.38400000E-01  7.37600000E-02  3.44600000E+01  7.74900000E+00
  2.28000000E+00  7.15600000E-01  2.14000000E-01  5.97400000E-02  2.31400000E+00
  6.45000000E-01  2.14000000E-01  1.42800000E+00  5.00000000E-01
Contraction coefficients                   R   N=         119
  2.54948632E-02  1.90362766E-01  8.52162022E-01  1.00000000E+00  1.00000000E+00
  1.00000000E+00  1.00000000E+00  1.00000000E+00  1.00000000E+00  1.00000000E+00
  1.00000000E+00  5.19808943E-04  4.02025621E-03  2.07128267E-02  8.10105536E-02
  2.35962985E-01  4.42653446E-01  3.57064423E-01 -4.42115008E-05 -1.22591041E-03
 -1.05517725E-02 -6.74452633E-02 -1.71198607E-01  1.07329856E+00  1.00000000E+00
  1.00000000E+00  1.00000000E+00  4.11634896E-02  2.57762836E-01  8.02419274E-01
  1.00000000E+00  1.00000000E+00  1.00000000E+00  1.00000000E+00  1.00000000E+00
  1.00000000E+00  1.00000000E+00  1.00000000E+00  5.19808943E-04  4.02025621E-03
  2.07128267E-02  8.10105536E-02  2.35962985E-01  4.42653446E-01  3.57064423E-01
 -4.42115008E-05 -1.22591041E-03 -1.05517725E-02 -6.74452633E-02 -1.71198607E-01
  1.07329856E+00  1.00000000E+00  1.00000000E+00  1.00000000E+00  4.11634896E-02
  2.57762836E-01  8.02419274E-01  1.00000000E+00  1.00000000E+00  1.00000000E+00
  1.00000000E+00  1.00000000E+00  1.00000000E+00  1.00000000E+00  1.00000000E+00
  5.34563860E-04  4.13435660E-03  2.12335358E-02  8.25006224E-02  2.38138871E-01
  4.42551547E-01  3.53757422E-01 -4.89867350E-05 -1.19527323E-03 -1.03490714E-02
 -6.48680190E-02 -1.71552477E-01  1.07289568E+00  1.00000000E+00  1.00000000E+00
  1.00000000E+00  3.98072123E-02  2.49002660E-01  8.10479727E-01  1.00000000E+00
  1.00000000E+00  1.00000000E+00  1.00000000E+00  1.00000000E+00  1.00000000E+00
  1.00000000E+00  1.00000000E+00  5.19808943E-04  4.02025621E-03  2.07128267E-02
  8.10105536E-02  2.35962985E-01  4.42653446E-01  3.57064423E-01 -4.42115008E-05
 -1.22591041E-03 -1.05517725E-02 -6.74452633E-02 -1.71198607E-01  1.07329856E+00
  1.00000000E+00  1.00000000E+00  1.00000000E+00  4.11634896E-02  2.57762836E-01
  8.02419274E-01  1.00000000E+00  1.00000000E+00  1.00000000E+00  1.00000000E+00
  1.00000000E+00  1.00000000E+00  1.00000000E+00  1.00000000E+00
Coordinates of each shell                  R   N=         195
  2.90927783E+00  3.19625649E+00  4.03214777E-31  2.90927783E+00  3.19625649E+00
  4.03214777E-31  2.90927783E+00  3.19625649E+00  4.03214777E-31  2.90927783E+00
  3.19625649E+00  4.03214777E-31  2.90927783E+00  3.19625649E+00  4.03214777E-31
  2.90927783E+00  3.19625649E+00  4.03214777E-31  2.90927783E+00  3.19625649E+00
  4.03214777E-31  2.90927783E+00  3.19625649E+00  4.03214777E-31  2.90927783E+00
  3.19625649E+00  4.03214777E-31  2.73478763E+00  1.37349083E+00  4.59082775E-31
  2.73478763E+00  1.37349083E+00  4.59082775E-31  2.73478763E+00  1.37349083E+00
  4.59082775E-31  2.73478763E+00  1.37349083E+00  4.59082775E-31  2.73478763E+00
  1.37349083E+00  4.59082775E-31  2.73478763E+00  1.37349083E+00  4.59082775E-31
  2.73478763E+00  1.37349083E+00  4.59082775E-31  2.73478763E+00  1.37349083E+00
  4.59082775E-31  2.73478763E+00  1.37349083E+00  4.59082775E-31  2.73478763E+00
  1.37349083E+00  4.59082775E-31  2.73478763E+00  1.37349083E+00  4.59082775E-31
  2.73478763E+00  1.37349083E+00  4.59082775E-31  2.73478763E+00  1.37349083E+00
  4.59082775E-31  2.73478763E+00  1.37349083E+00  4.59082775E-31  3.57387485E-18
  1.27193047E+00 -6.24256348E-32  3.57387485E-18  1.27193047E+00 -6.24256348E-32
  3.57387485E-18  1.27193047E+00 -6.24256348E-32  3.57387485E-18  1.27193047E+00
 -6.24256348E-32  3.57387485E-18  1.27193047E+00 -6.24256348E-32  3.57387485E-18
  1.27193047E+00 -6.24256348E-32  3.57387485E-18  1.27193047E+00 -6.24256348E-32
  3.57387485E-18  1.27193047E+00 -6.24256348E-32  3.57387485E-18  1.27193047E+00
 -6.24256348E-32  3.57387485E-18  1.27193047E+00 -6.24256348E-32  3.57387485E-18
  1.27193047E+00 -6.24256348E-32  3.57387485E-18  1.27193047E+00 -6.24256348E-32
  3.57387485E-18  1.27193047E+00 -6.24256348E-32  3.57387485E-18  1.27193047E+00
 -6.24256348E-32 -4.86784238E-01 -1.44145284E+00 -2.29685124E-32 -4.86784238E-01
 -1.44145284E+00 -2.29685124E-32 -4.86784238E-01 -1.44145284E+00 -2.29685124E-32
 -4.86784238E-01 -1.44145284E+00 -2.29685124E-32 -4.86784238E-01 -1.44145284E+00
 -2.29685124E-32 -4.86784238E-01 -1.44145284E+00 -2.29685124E-32 -4.86784238E-01
 -1.44145284E+00 -2.29685124E-32 -4.86784238E-01 -1.44145284E+00 -2.29685124E-32
 -4.86784238E-01 -1.44145284E+00 -2.29685124E-32 -4.86784238E-01 -1.44145284E+00
 -2.29685124E-32 -4.86784238E-01 -1.44145284E+00 -2.29685124E-32 -4.86784238E-01
 -1.44145284E+00 -2.29685124E-32 -4.86784238E-01 -1.44145284E+00 -2.29685124E-32
 -4.86784238E-01 -1.44145284E+00 -2.29685124E-32 -2.67251115E+00 -1.78368213E+00
 -4.26961539E-31 -2.67251115E+00 -1.78368213E+00 -4.26961539E-31 -2.67251115E+00
 -1.78368213E+00 -4.26961539E-31 -2.67251115E+00 -1.78368213E+00 -4.26961539E-31
 -2.67251115E+00 -1.78368213E+00 -4.26961539E-31 -2.67251115E+00 -1.78368213E+00
 -4.26961539E-31 -2.67251115E+00 -1.78368213E+00 -4.26961539E-31 -2.67251115E+00
 -1.78368213E+00 -4.26961539E-31 -2.67251115E+00 -1.78368213E+00 -4.26961539E-31
 -2.67251115E+00 -1.78368213E+00 -4.26961539E-31 -2.67251115E+00 -1.78368213E+00
 -4.26961539E-31 -2.67251115E+00 -1.78368213E+00 -4.26961539E-31 -2.67251115E+00
 -1.78368213E+00 -4.26961539E-31 -2.67251115E+00 -1.78368213E+00 -4.26961539E-31
Num ILSW                                   I              100
ILSW                                       I   N=         100
           0           0           0           0           2           0
           0           0           0           0           0          -1
           5           0           0           0           0           0
           0           0           0           0           0           0
           1           0           0           0           0           0
           0           0      100000           0          -1           0
           0           0           0           0           0           0
           0           0           0           1           0           0
           0 -2000000000           1           0           0           0
           0           0           4          52           0           0
           0           0           0           0           0           0
           0           0           0           5           0           1
           0           0           0           0           0           0
           0           0           0           0           0           0
           0           0           0           0           0           0
           0           0           0           0           0           0
           0           0           0           0
Num RLSW                                   I               52
RLSW                                       R   N=          52
  1.00000000E+00  1.00000000E+00  1.00000000E+00  1.00000000E+00  1.00000000E+00
  0.00000000E+00  0.00000000E+00  1.00000000E+00  0.00000000E+00  0.00000000E+00
  0.00000000E+00  0.00000000E+00  1.00000000E+00  0.00000000E+00  0.00000000E+00
  0.00000000E+00  0.00000000E+00  1.00000000E+00  0.00000000E+00  0.00000000E+00
  0.00000000E+00  0.00000000E+00  1.00000000E+00  0.00000000E+00  0.00000000E+00
  0.00000000E+00  0.00000000E+00  1.00000000E+00  0.00000000E+00  0.00000000E+00
  0.00000000E+00  0.00000000E+00  1.00000000E+00  0.00000000E+00  0.00000000E+00
  0.00000000E+00  0.00000000E+00  0.00000000E+00  1.00000000E+00  1.00000000E+00
  0.00000000E+00  1.00000000E+00  0.00000000E+00  0.00000000E+00  0.00000000E+00
  0.00000000E+00  0.00000000E+00  0.00000000E+00  0.00000000E+00  0.00000000E+00
  0.00000000E+00  0.00000000E+00
MxBond                                     I                2
NBond                                      I   N=           5
           1           2           2           2           1
IBond                                      I   N=          10
           2           0           1           3           2           4
           3           5           4           0
RBond                                      R   N=          10
  1.00000000E+00  0.00000000E+00  1.00000000E+00  1.00000000E+00  1.00000000E+00
  1.00000000E+00  1.00000000E+00  2.00000000E+00  2.00000000E+00  0.00000000E+00
Virial Ratio                               R      2.002313563482091E+00
SCF Energy                                 R     -2.795022168887753E+02
MP2 Energy                                 R     -2.804467148125177E+02
Total Energy                               R     -2.804467148125177E+02
Post-SCF wavefunction norm                 R      1.119950869917346E+00
RMS Density                                R      3.727297834178765E-09
Job Status                                 I                1
Nuclear derivative order                   I                0
External E-field                           R   N=          35
  0.00000000E+00  0.00000000E+00  0.00000000E+00  0.00000000E+00  0.00000000E+00
  0.00000000E+00  0.00000000E+00  0.00000000E+00  0.00000000E+00  0.00000000E+00
  0.00000000E+00  0.00000000E+00  0.00000000E+00  0.00000000E+00  0.00000000E+00
  0.00000000E+00  0.00000000E+00  0.00000000E+00  0.00000000E+00  0.00000000E+00
  0.00000000E+00  0.00000000E+00  0.00000000E+00  0.00000000E+00  0.00000000E+00
  0.00000000E+00  0.00000000E+00  0.00000000E+00  0.00000000E+00  0.00000000E+00
  0.00000000E+00  0.00000000E+00  0.00000000E+00  0.00000000E+00  0.00000000E+00
IOpCl                                      I                0
IROHF                                      I                0
Alpha Orbital Energies                     R   N=         207
 -2.06905010E+01 -2.06841771E+01 -2.06594011E+01 -1.58126969E+01 -1.62424421E+00
 -1.49844360E+00 -1.25320548E+00 -9.48161616E-01 -7.73506718E-01 -7.59729661E-01
 -7.12418999E-01 -6.79393754E-01 -6.21100467E-01 -5.90335520E-01 -4.84005404E-01
 -4.72343121E-01  2.96386800E-02  7.16823691E-02  8.61057643E-02  1.01745805E-01
  1.33950606E-01  1.34258971E-01  1.44114144E-01  1.54561794E-01  1.78241731E-01
  1.94111797E-01  1.99779960E-01  2.06425253E-01  2.21538626E-01  2.37434742E-01
  2.38411115E-01  2.66103651E-01  2.93485505E-01  3.03939301E-01  3.10625955E-01
  3.43865853E-01  3.49998918E-01  3.87342150E-01  4.22347645E-01  4.31754257E-01
  5.27447672E-01  5.29385967E-01  5.58614521E-01  5.81836772E-01  6.26080961E-01
  6.38245865E-01  6.74431370E-01  6.84378796E-01  7.06938341E-01  7.10941489E-01
  7.24472709E-01  7.29233217E-01  7.44607993E-01  7.92030612E-01  7.92112809E-01
  8.10311806E-01  8.12830842E-01  8.31072729E-01  8.68303211E-01  9.08973960E-01
  9.22073815E-01  9.26887603E-01  9.56330899E-01  9.77873752E-01  9.85067270E-01
  1.01649521E+00  1.05246621E+00  1.05467191E+00  1.08301356E+00  1.11839043E+00
  1.14220447E+00  1.18995950E+00  1.22077150E+00  1.23315853E+00  1.33902204E+00
  1.35086446E+00  1.38630562E+00  1.45369399E+00  1.48768717E+00  1.50849471E+00
  1.53843314E+00  1.56747074E+00  1.58015100E+00  1.61366801E+00  1.66509107E+00
  1.67029436E+00  1.70339760E+00  1.79397330E+00  1.83177783E+00  1.83485225E+00
  1.87898176E+00  1.91072235E+00  1.95628009E+00  1.99299492E+00  2.00503437E+00
  2.07806979E+00  2.12234635E+00  2.13213464E+00  2.15145531E+00  2.22477749E+00
  2.26516425E+00  2.26601648E+00  2.28997947E+00  2.31509226E+00  2.34601859E+00
  2.38535492E+00  2.42550812E+00  2.42987575E+00  2.45461406E+00  2.46274580E+00
  2.47753987E+00  2.50205969E+00  2.59033885E+00  2.59742163E+00  2.62225950E+00
  2.62630121E+00  2.63657576E+00  2.67006797E+00  2.75797155E+00  2.82529722E+00
  2.85749805E+00  2.88761213E+00  2.89716404E+00  2.92631796E+00  2.95967410E+00
  3.02942109E+00  3.06807088E+00  3.12023056E+00  3.21255291E+00  3.22978754E+00
  3.31891969E+00  3.33915340E+00  3.51963244E+00  3.64460126E+00  3.83849795E+00
  3.84612610E+00  4.14992767E+00  4.16539430E+00  4.18480382E+00  4.25845515E+00
  4.35330777E+00  4.39476185E+00  4.46995515E+00  4.51821346E+00  4.66285434E+00
  4.71418614E+00  4.80573104E+00  4.82422788E+00  4.82929278E+00  4.89635016E+00
  5.02380259E+00  5.07776053E+00  5.10479124E+00  5.14431178E+00  5.17935154E+00
  5.24343113E+00  5.27224693E+00  5.30849725E+00  5.33058206E+00  5.35686087E+00
  5.61021224E+00  5.67375742E+00  5.77138867E+00  5.84020288E+00  5.96023486E+00
  6.17016238E+00  6.29823085E+00  6.33932019E+00  6.39290191E+00  6.49313350E+00
  6.50530664E+00  6.61197894E+00  6.66362406E+00  6.69871563E+00  6.75727598E+00
  6.76651928E+00  6.83284123E+00  6.89895199E+00  7.01900003E+00  7.06105244E+00
  7.06533036E+00  7.09551504E+00  7.12537621E+00  7.15471727E+00  7.18405064E+00
  7.22682240E+00  7.24393104E+00  7.30820440E+00  7.32538815E+00  7.34753211E+00
  7.40105659E+00  7.43992661E+00  7.48522605E+00  7.61286506E+00  7.62041900E+00
  7.63003462E+00  7.66813690E+00  7.79622949E+00  7.88856777E+00  8.10390671E+00
  8.32334947E+00  8.41609603E+00  8.54477623E+00  1.34114313E+01  1.44020861E+01
  1.51705067E+01  1.61533298E+01
Alpha MO coefficients                      R   N=       42849
  8.99648990E-05 -6.33597751E-04 -7.14146431E-04 -2.96948497E-06 -1.94408100E-05
 -2.64879385E-05  0.00000000E+00 -4.13589950E-05  5.12017784E-05  0.00000000E+00
  8.57146648E-05  3.04542331E-05  0.00000000E+00  3.03990996E-05  0.00000000E+00
  0.00000000E+00 -5.07754389E-05  2.00878751E-05 -7.10910945E-06  0.00000000E+00
  0.00000000E+00 -1.41458795E-04  1.17577328E-04  4.64142221E-03 -2.73166933E-04
  9.78765230E-06  1.61063408E-03  1.85987401E-03  1.09223266E-04  7.95012053E-06
  0.00000000E+00 -6.49552745E-04 -4.05475215E-05  0.00000000E+00 -1.15152390E-03
  7.85779688E-04  0.00000000E+00 -4.12277233E-04  6.00207215E-05  0.00000000E+00
  2.71002236E-05  0.00000000E+00  0.00000000E+00 -5.08146111E-05  5.65225375E-06
 -3.86198221E-04  0.00000000E+00  0.00000000E+00  7.55388161E-04 -2.81950405E-05
 -4.52563302E-04  0.00000000E+00  0.00000000E+00  2.48251132E-04 -1.31775607E-05
  0.00000000E+00  8.19178544E-05  1.29405477E-05  0.00000000E+00  0.00000000E+00
 -1.12101545E-04 -4.33485201E-06  0.00000000E+00  2.55102981E-04 -2.66007509E-05
  0.00000000E+00  0.00000000E+00 -3.51393498E-04  4.37330886E-05  9.76905610E-01
 -9.21784821E-03  4.33302459E-02  1.96721540E-03 -9.57489667E-04  1.51370521E-03
 -1.34899900E-03  0.00000000E+00 -1.46468705E-03  1.37618031E-03  0.00000000E+00
  4.52271148E-05 -1.16361347E-03  0.00000000E+00 -1.44098973E-04 -1.33034426E-05
  0.00000000E+00  4.46522645E-05  0.00000000E+00  0.00000000E+00 -3.24368761E-05
  2.14523357E-05  7.55432720E-04  0.00000000E+00  0.00000000E+00 -2.45399281E-04
 -3.93218655E-04 -3.53890025E-04  0.00000000E+00  0.00000000E+00 -3.21303263E-04
 -3.78856297E-04  0.00000000E+00  4.87446611E-05 -4.84493750E-05  0.00000000E+00
  0.00000000E+00 -4.01536721E-05 -1.64100791E-05  0.00000000E+00  2.73451013E-05
  2.14935160E-05  0.00000000E+00  0.00000000E+00 -3.10637482E-04 -1.41066171E-04
  3.90270574E-05  4.59358622E-05 -2.63699087E-04 -7.09648917E-04 -1.53478365E-04
 -2.64597020E-05 -9.74612369E-05  0.00000000E+00  2.66995759E-04  7.10797327E-04
  0.00000000E+00 -8.33897831E-04 -4.75353652E-04  0.00000000E+00 -1.24880485E-04
 -2.84452043E-05  0.00000000E+00 -1.80251928E-05  0.00000000E+00  0.00000000E+00
 -2.97325955E-05  1.52863423E-05 -3.28029112E-04  0.00000000E+00  0.00000000E+00
 -8.28910148E-04  1.17372496E-04 -3.47127180E-05  0.00000000E+00  0.00000000E+00
  9.48520825E-05 -1.21427827E-04  0.00000000E+00 -2.02238544E-05 -1.19949930E-04
  0.00000000E+00  0.00000000E+00 -6.08948120E-05 -1.37893283E-04  0.00000000E+00
  3.53796201E-06 -1.52949881E-04  0.00000000E+00  0.00000000E+00  4.94864139E-05
 -4.15739162E-04 -2.68808324E-03  1.23703808E-04 -1.28179088E-04 -2.38024110E-04
  1.42459251E-04 -8.15361174E-06 -2.75591337E-05  0.00000000E+00  6.99519517E-05
  1.62382549E-04  0.00000000E+00  2.34912804E-04  1.95791146E-04  0.00000000E+00
  1.28664835E-04  2.38193127E-05  0.00000000E+00 -3.36977838E-06  0.00000000E+00
  0.00000000E+00 -1.79331210E-05  1.26061724E-06  8.85271003E-07  0.00000000E+00
  0.00000000E+00  8.08285578E-05  8.65147962E-05 -9.99389874E-05  0.00000000E+00
  0.00000000E+00  1.66083449E-04  1.60801729E-04  0.00000000E+00  1.58823458E-05
 -3.37008093E-06  0.00000000E+00  0.00000000E+00 -4.00992316E-06 -1.21497178E-05
  0.00000000E+00 -3.36248868E-05  4.51893885E-05  0.00000000E+00  0.00000000E+00
  8.32238237E-05  9.03366513E-05  3.95675473E-05 -9.96084825E-04 -4.89079902E-04
 -1.11981537E-05 -2.22312822E-05  1.57383420E-05  0.00000000E+00 -5.17507115E-07
  2.75673310E-04  0.00000000E+00 -4.23518459E-05  1.33970846E-04  0.00000000E+00
  2.61685806E-05  0.00000000E+00  0.00000000E+00  1.19927220E-05  1.10807396E-05
 -2.81504150E-05  0.00000000E+00  0.00000000E+00  1.12857401E-05  3.54855750E-05
  1.12306487E-04  8.57795465E-05 -2.82082745E-05  7.52791187E-04  6.51671140E-04
  1.02227126E-05  2.66249671E-06  0.00000000E+00 -7.39810013E-05  1.39612964E-05
  0.00000000E+00  3.36513160E-04  9.16957978E-04  0.00000000E+00  4.49760974E-06
  8.30075081E-05  0.00000000E+00 -2.40957741E-06  0.00000000E+00  0.00000000E+00
 -1.44658941E-08 -5.78550990E-06 -3.55671649E-05  0.00000000E+00  0.00000000E+00
 -1.97466939E-05  8.31366636E-05 -2.28457919E-05  0.00000000E+00  0.00000000E+00
 -2.68194168E-04 -1.69440367E-04  0.00000000E+00  9.11134954E-06  6.19253081E-06
  0.00000000E+00  0.00000000E+00  2.94285544E-06 -1.87193554E-05  0.00000000E+00
 -4.03491302E-05 -3.90566651E-05  0.00000000E+00  0.00000000E+00 -7.84941457E-05
  2.01150756E-05  2.72694591E-03  3.74319635E-05  9.64978089E-05 -6.66082221E-05
 -4.69867375E-04  7.74505378E-06  1.56546123E-05  0.00000000E+00 -6.37982187E-05
 -5.56791037E-05  0.00000000E+00  2.37762247E-04 -1.94972456E-04  0.00000000E+00
 -1.87301623E-04 -6.53266563E-05  0.00000000E+00 -8.68037859E-06  0.00000000E+00
  0.00000000E+00  2.24046144E-05  1.99171643E-05  4.66026342E-06  0.00000000E+00
  0.00000000E+00 -1.18277115E-04 -4.74857515E-05 -4.46639568E-06  0.00000000E+00
  0.00000000E+00 -2.21887571E-04 -2.12523470E-04  0.00000000E+00  3.49149302E-06
 -5.12091083E-07  0.00000000E+00  0.00000000E+00  1.86598656E-06 -1.35907117E-05
  0.00000000E+00 -4.70341767E-05  3.28807803E-06  0.00000000E+00  0.00000000E+00
 -7.91195608E-05  1.87552138E-04  2.58635827E-04  1.46498080E-03 -7.78479773E-05
 -1.53838580E-03  4.00369375E-04 -1.44327110E-04 -2.31209126E-07  0.00000000E+00
 -2.09052843E-03 -4.10582297E-04  0.00000000E+00  1.04024248E-03  7.70179795E-04
  0.00000000E+00 -1.69964105E-04  5.61722366E-05  0.00000000E+00 -1.23315731E-04
  0.00000000E+00  0.00000000E+00  2.42618974E-04  9.54552637E-05 -4.42534953E-04
  0.00000000E+00  0.00000000E+00  8.99487018E-04 -6.19379874E-05  1.11665623E-05
  0.00000000E+00  0.00000000E+00 -3.38504969E-04 -1.25024126E-04  0.00000000E+00
 -1.17124374E-06  1.53552780E-05  0.00000000E+00  0.00000000E+00  1.87680867E-05
  1.32996270E-05  0.00000000E+00  1.64076549E-04 -7.19935523E-05  0.00000000E+00
  0.00000000E+00 -2.40744202E-04  4.14265947E-05  9.76648882E-01 -9.84802441E-03
  4.35684566E-02  4.50346309E-03 -4.45828112E-04  2.14690409E-03  4.86518855E-04
  0.00000000E+00 -2.38254828E-03 -6.10857900E-04  0.00000000E+00  1.13876463E-03
 -1.52005872E-06  0.00000000E+00  4.44617852E-06 -4.24923190E-05  0.00000000E+00
 -2.32388620E-04  0.00000000E+00  0.00000000E+00  1.02510193E-04  3.25217107E-05
  3.90693105E-04  0.00000000E+00  0.00000000E+00 -8.32115804E-04 -4.24276360E-04
 -1.53211788E-04  0.00000000E+00  0.00000000E+00  2.55162116E-04  1.75954634E-05
  0.00000000E+00  5.22481182E-05  1.78583547E-05  0.00000000E+00  0.00000000E+00
 -2.19943415E-05 -1.34392618E-05  0.00000000E+00  1.38416026E-04  9.65244194E-06
  0.00000000E+00  0.00000000E+00 -1.88878985E-04 -1.42506489E-04  4.73518247E-04
  2.04554776E-03  1.02942830E-04  1.43273634E-05 -4.00051173E-05 -2.44656101E-04
  0.00000000E+00  1.17158350E-04 -1.26803060E-03  0.00000000E+00  3.17178212E-04
 -3.34058693E-04  0.00000000E+00 -2.43842923E-06  0.00000000E+00  0.00000000E+00
  7.78079300E-05  1.54315430E-05 -1.59493740E-04  0.00000000E+00  0.00000000E+00
 -5.36766046E-04 -2.89031333E-05  9.76824930E-01 -9.16273240E-03  4.34616042E-02
  1.06731610E-04 -1.17537567E-03 -1.58126680E-03  1.43484298E-03  0.00000000E+00
  1.60191155E-03 -1.27295777E-03  0.00000000E+00 -5.19278799E-04 -8.61774953E-04
  0.00000000E+00  6.15838686E-05 -3.45218858E-05  0.00000000E+00  2.77352120E-05
  0.00000000E+00  0.00000000E+00 -1.15067507E-04 -3.74474251E-06  7.64563315E-04
  0.00000000E+00  0.00000000E+00 -2.17589957E-04 -2.36480093E-04 -2.60233730E-04
  0.00000000E+00  0.00000000E+00  1.51950817E-04  1.28802207E-04  0.00000000E+00
 -6.52478915E-05  4.54562690E-07  0.00000000E+00  0.00000000E+00  2.00239400E-05
  9.39377574E-06  0.00000000E+00 -6.25916097E-06  1.23231411E-04  0.00000000E+00
  0.00000000E+00  2.62435550E-04  9.25893545E-05 -4.73108470E-03 -2.01386737E-04