 Entering Gaussian System, Link 0=g16
 Input=hoono_d2_178p0922.gjf
 Output=hoono_d2_178p0922.log
 Initial command:
 /sw/contrib/gaussian/g16/B01/g16/l1.exe "/scr/Gau-10539.inp" -scrdir="/scr/"
 Entering Link 1 = /sw/contrib/gaussian/g16/B01/g16/l1.exe PID=     10540.
  
 Copyright (c) 1988-2017, Gaussian, Inc.  All Rights Reserved.
  
 This is part of the Gaussian(R) 16 program.  It is based on
 the Gaussian(R) 09 system (copyright 2009, Gaussian, Inc.),
 the Gaussian(R) 03 system (copyright 2003, Gaussian, Inc.),
 the Gaussian(R) 98 system (copyright 1998, Gaussian, Inc.),
 the Gaussian(R) 94 system (copyright 1995, Gaussian, Inc.),
 the Gaussian 92(TM) system (copyright 1992, Gaussian, Inc.),
 the Gaussian 90(TM) system (copyright 1990, Gaussian, Inc.),
 the Gaussian 88(TM) system (copyright 1988, Gaussian, Inc.),
 the Gaussian 86(TM) system (copyright 1986, Carnegie Mellon
 University), and the Gaussian 82(TM) system (copyright 1983,
 Carnegie Mellon University). Gaussian is a federally registered
 trademark of Gaussian, Inc.
  
 This software contains proprietary and confidential information,
 including trade secrets, belonging to Gaussian, Inc.
  
 This software is provided under written license and may be
 used, copied, transmitted, or stored only in accord with that
 written license.
  
 The following legend is applicable only to US Government
 contracts under FAR:
  
                    RESTRICTED RIGHTS LEGEND
  
 Use, reproduction and disclosure by the US Government is
 subject to restrictions as set forth in subparagraphs (a)
 and (c) of the Commercial Computer Software - Restricted
 Rights clause in FAR 52.227-19.
  
 Gaussian, Inc.
 340 Quinnipiac St., Bldg. 40, Wallingford CT 06492
  
  
 ---------------------------------------------------------------
 Warning -- This program may not be used in any manner that
 competes with the business of Gaussian, Inc. or will provide
 assistance to any competitor of Gaussian, Inc.  The licensee
 of this program is prohibited from giving any competitor of
 Gaussian, Inc. access to this program.  By using this program,
 the user acknowledges that Gaussian, Inc. is engaged in the
 business of creating and licensing software in the field of
 computational chemistry and represents and warrants to the
 licensee that it is not a competitor of Gaussian, Inc. and that
 it will not use this program in any manner prohibited above.
 ---------------------------------------------------------------
  

 Cite this work as:
 Gaussian 16, Revision B.01,
 M. J. Frisch, G. W. Trucks, H. B. Schlegel, G. E. Scuseria, 
 M. A. Robb, J. R. Cheeseman, G. Scalmani, V. Barone, 
 G. A. Petersson, H. Nakatsuji, X. Li, M. Caricato, A. V. Marenich, 
 J. Bloino, B. G. Janesko, R. Gomperts, B. Mennucci, H. P. Hratchian, 
 J. V. Ortiz, A. F. Izmaylov, J. L. Sonnenberg, D. Williams-Young, 
 F. Ding, F. Lipparini, F. Egidi, J. Goings, B. Peng, A. Petrone, 
 T. Henderson, D. Ranasinghe, V. G. Zakrzewski, J. Gao, N. Rega, 
 G. Zheng, W. Liang, M. Hada, M. Ehara, K. Toyota, R. Fukuda, 
 J. Hasegawa, M. Ishida, T. Nakajima, Y. Honda, O. Kitao, H. Nakai, 
 T. Vreven, K. Throssell, J. A. Montgomery, Jr., J. E. Peralta, 
 F. Ogliaro, M. J. Bearpark, J. J. Heyd, E. N. Brothers, K. N. Kudin, 
 V. N. Staroverov, T. A. Keith, R. Kobayashi, J. Normand, 
 K. Raghavachari, A. P. Rendell, J. C. Burant, S. S. Iyengar, 
 J. Tomasi, M. Cossi, J. M. Millam, M. Klene, C. Adamo, R. Cammi, 
 J. W. Ochterski, R. L. Martin, K. Morokuma, O. Farkas, 
 J. B. Foresman, and D. J. Fox, Gaussian, Inc., Wallingford CT, 2016.
 
 ******************************************
 Gaussian 16:  ES64L-G16RevB.01 20-Dec-2017
                14-Feb-2022 
 ******************************************
 %nproc=28
 Will use up to   28 processors via shared memory.
 %mem=120GB
 %chk=hoono_d2_178p0922.chk
 -------------------------------------
 #p SP mp2/aug-cc-pvtz density=current
 -------------------------------------
 1/30=1,38=1,172=1/1;
 2/12=2,17=6,18=5,40=1/2;
 3/5=16,6=1,7=10,11=9,25=1,30=1,71=1/1,2,3;
 4//1;
 5/5=2,38=5/2;
 8/6=4,10=1/1;
 9/15=1,16=-3/6;
 10/5=1,13=10/2;
 6/7=2,8=2,9=2,10=2,22=-1/1;
 99/5=1,9=1/99;
 Leave Link    1 at Mon Feb 14 22:03:11 2022, MaxMem= 16106127360 cpu:               2.8 elap:               0.1
 (Enter /sw/contrib/gaussian/g16/B01/g16/l101.exe)
 -----
 title
 -----
 Symbolic Z-matrix:
 Charge =  0 Multiplicity = 1
 H
 O                    1    r1
 O                    2    r2       1    a1
 N                    3    r3       2    a2       1    d1       0
 O                    4    r4       3    a3       2    d2       0
       Variables:
  r1                    0.96898                  
  r2                    1.45492                  
  r3                    1.45878                  
  r4                    1.17073                  
  a1                   97.59495                  
  a2                  102.29752                  
  a3                  109.06955                  
  d1                  180.                       
  d2                  178.09229                  
 
 ITRead=  0  0  0  0  0
 MicOpt= -1 -1 -1 -1 -1
 NAtoms=      5 NQM=        5 NQMF=       0 NMMI=      0 NMMIF=      0
                NMic=       0 NMicF=      0.
                    Isotopes and Nuclear Properties:
 (Nuclear quadrupole moments (NQMom) in fm**2, nuclear magnetic moments (NMagM)
  in nuclear magnetons)

  Atom         1           2           3           4           5
 IAtWgt=           1          16          16          14          16
 AtmWgt=   1.0078250  15.9949146  15.9949146  14.0030740  15.9949146
 NucSpn=           1           0           0           2           0
 AtZEff=  -0.0000000  -0.0000000  -0.0000000  -0.0000000  -0.0000000
 NQMom=    0.0000000   0.0000000   0.0000000   2.0440000   0.0000000
 NMagM=    2.7928460   0.0000000   0.0000000   0.4037610   0.0000000
 AtZNuc=   1.0000000   8.0000000   8.0000000   7.0000000   8.0000000
 Leave Link  101 at Mon Feb 14 22:03:11 2022, MaxMem= 16106127360 cpu:               2.7 elap:               0.1
 (Enter /sw/contrib/gaussian/g16/B01/g16/l202.exe)
                          Input orientation:                          
 ---------------------------------------------------------------------
 Center     Atomic      Atomic             Coordinates (Angstroms)
 Number     Number       Type             X           Y           Z
 ---------------------------------------------------------------------
      1          1           0        0.000000    0.000000    0.000000
      2          8           0        0.000000    0.000000    0.968976
      3          8           0        1.442156    0.000000    1.161271
      4          7           0        1.561752    0.000000    2.615144
      5          8           0        2.695256   -0.036834    2.905689
 ---------------------------------------------------------------------
                    Distance matrix (angstroms):
                    1          2          3          4          5
     1  H    0.000000
     2  O    0.968976   0.000000
     3  O    1.851584   1.454919   0.000000
     4  N    3.045989   2.269127   1.458784   0.000000
     5  O    3.963432   3.319130   2.148165   1.170729   0.000000
 Stoichiometry    HNO3
 Framework group  C1[X(HNO3)]
 Deg. of freedom     9
 Full point group                 C1      NOp   1
 Largest Abelian subgroup         C1      NOp   1
 Largest concise Abelian subgroup C1      NOp   1
                         Standard orientation:                         
 ---------------------------------------------------------------------
 Center     Atomic      Atomic             Coordinates (Angstroms)
 Number     Number       Type             X           Y           Z
 ---------------------------------------------------------------------
      1          1           0       -2.248820    0.434593   -0.009642
      2          8           0       -1.598723   -0.283935   -0.007478
      3          8           0       -0.400384    0.541003    0.008422
      4          7           0        0.663714   -0.456857    0.012952
      5          8           0        1.699460    0.088358   -0.011072
 ---------------------------------------------------------------------
 Rotational constants (GHZ):          54.9218544           5.0114588           4.5929507
 Leave Link  202 at Mon Feb 14 22:03:11 2022, MaxMem= 16106127360 cpu:               0.2 elap:               0.0
 (Enter /sw/contrib/gaussian/g16/B01/g16/l301.exe)
 Standard basis: Aug-CC-pVTZ (5D, 7F)
 Ernie: Thresh=  0.10000D-02 Tol=  0.10000D-05 Strict=F.
 Ernie:  12 primitive shells out of 131 were deleted.
 There are   245 symmetry adapted cartesian basis functions of A   symmetry.
 There are   207 symmetry adapted basis functions of A   symmetry.
   207 basis functions,   315 primitive gaussians,   245 cartesian basis functions
    16 alpha electrons       16 beta electrons
       nuclear repulsion energy       116.8728748569 Hartrees.
 IExCor=    0 DFT=F Ex=HF Corr=None ExCW=0 ScaHFX=  1.000000
 ScaDFX=  1.000000  1.000000  1.000000  1.000000 ScalE2=  1.000000  1.000000
 IRadAn=      5 IRanWt=     -1 IRanGd=            0 ICorTp=0 IEmpDi=  4
 NAtoms=    5 NActive=    5 NUniq=    5 SFac= 1.00D+00 NAtFMM=   60 NAOKFM=F Big=F
 Integral buffers will be    131072 words long.
 Raffenetti 1 integral format.
 Two-electron integral symmetry is turned on.
 Leave Link  301 at Mon Feb 14 22:03:11 2022, MaxMem= 16106127360 cpu:               1.6 elap:               0.1
 (Enter /sw/contrib/gaussian/g16/B01/g16/l302.exe)
 NPDir=0 NMtPBC=     1 NCelOv=     1 NCel=       1 NClECP=     1 NCelD=      1
         NCelK=      1 NCelE2=     1 NClLst=     1 CellRange=     0.0.
 One-electron integrals computed using PRISM.
 One-electron integral symmetry used in STVInt
 NBasis=   207 RedAO= T EigKep=  1.82D-04  NBF=   207
 NBsUse=   207 1.00D-06 EigRej= -1.00D+00 NBFU=   207
 Leave Link  302 at Mon Feb 14 22:03:11 2022, MaxMem= 16106127360 cpu:               4.9 elap:               0.2
 (Enter /sw/contrib/gaussian/g16/B01/g16/l303.exe)
 DipDrv:  MaxL=1.
 Leave Link  303 at Mon Feb 14 22:03:11 2022, MaxMem= 16106127360 cpu:               1.4 elap:               0.1
 (Enter /sw/contrib/gaussian/g16/B01/g16/l401.exe)
 ExpMin= 2.53D-02 ExpMax= 1.53D+04 ExpMxC= 5.22D+02 IAcc=3 IRadAn=         5 AccDes= 0.00D+00
 Harris functional with IExCor=  205 and IRadAn=       5 diagonalized for initial guess.
 HarFok:  IExCor=  205 AccDes= 0.00D+00 IRadAn=         5 IDoV= 1 UseB2=F ITyADJ=14
 ICtDFT=  3500011 ScaDFX=  1.000000  1.000000  1.000000  1.000000
 FoFCou: FMM=F IPFlag=           0 FMFlag=      100000 FMFlg1=           0
         NFxFlg=           0 DoJE=T BraDBF=F KetDBF=T FulRan=T
         wScrn=  0.000000 ICntrl=       500 IOpCl=  0 I1Cent=   200000004 NGrid=           0
         NMat0=    1 NMatS0=      1 NMatT0=    0 NMatD0=    1 NMtDS0=    0 NMtDT0=    0
 Petite list used in FoFCou.
 Harris En= -279.628680838508    
 JPrj=0 DoOrth=F DoCkMO=F.
 Leave Link  401 at Mon Feb 14 22:03:12 2022, MaxMem= 16106127360 cpu:               8.1 elap:               0.3
 (Enter /sw/contrib/gaussian/g16/B01/g16/l502.exe)
 Keep R1 ints in memory in canonical form, NReq=245616893.
 FoFCou: FMM=F IPFlag=           0 FMFlag=           0 FMFlg1=           0
         NFxFlg=           0 DoJE=F BraDBF=F KetDBF=F FulRan=T
         wScrn=  0.000000 ICntrl=       600 IOpCl=  0 I1Cent=           0 NGrid=           0
         NMat0=    1 NMatS0=  21528 NMatT0=    0 NMatD0=    1 NMtDS0=    0 NMtDT0=    0
 Symmetry not used in FoFCou.
 Two-electron integral symmetry not used.
 Closed shell SCF:
 Using DIIS extrapolation, IDIIS=  1040.
 NGot= 16106127360 LenX= 15874260251 LenY= 15874199785
 Requested convergence on RMS density matrix=1.00D-08 within 128 cycles.
 Requested convergence on MAX density matrix=1.00D-06.
 Requested convergence on             energy=1.00D-06.
 No special actions if energy rises.

 Cycle   1  Pass 1  IDiag  1:
 E= -279.370466558004    
 DIIS: error= 2.64D-02 at cycle   1 NSaved=   1.
 NSaved= 1 IEnMin= 1 EnMin= -279.370466558004     IErMin= 1 ErrMin= 2.64D-02
 ErrMax= 2.64D-02  0.00D+00 EMaxC= 1.00D-01 BMatC= 4.38D-01 BMatP= 4.38D-01
 IDIUse=3 WtCom= 7.36D-01 WtEn= 2.64D-01
 Coeff-Com:  0.100D+01
 Coeff-En:   0.100D+01
 Coeff:      0.100D+01
 Gap=     0.519 Goal=   None    Shift=    0.000
 GapD=    0.519 DampG=2.000 DampE=0.500 DampFc=1.0000 IDamp=-1.
 RMSDP=1.62D-03 MaxDP=9.92D-02              OVMax= 1.13D-01

 Cycle   2  Pass 1  IDiag  1:
 E= -279.452407532389     Delta-E=       -0.081940974385 Rises=F Damp=F
 DIIS: error= 1.79D-02 at cycle   2 NSaved=   2.
 NSaved= 2 IEnMin= 2 EnMin= -279.452407532389     IErMin= 2 ErrMin= 1.79D-02
 ErrMax= 1.79D-02  0.00D+00 EMaxC= 1.00D-01 BMatC= 7.18D-02 BMatP= 4.38D-01
 IDIUse=3 WtCom= 8.21D-01 WtEn= 1.79D-01
 Coeff-Com:  0.195D+00 0.805D+00
 Coeff-En:   0.000D+00 0.100D+01
 Coeff:      0.160D+00 0.840D+00
 Gap=     0.534 Goal=   None    Shift=    0.000
 RMSDP=9.00D-04 MaxDP=3.73D-02 DE=-8.19D-02 OVMax= 6.93D-02

 Cycle   3  Pass 1  IDiag  1:
 E= -279.481518840579     Delta-E=       -0.029111308191 Rises=F Damp=F
 DIIS: error= 1.04D-02 at cycle   3 NSaved=   3.
 NSaved= 3 IEnMin= 3 EnMin= -279.481518840579     IErMin= 3 ErrMin= 1.04D-02
 ErrMax= 1.04D-02  0.00D+00 EMaxC= 1.00D-01 BMatC= 2.87D-02 BMatP= 7.18D-02
 IDIUse=3 WtCom= 8.96D-01 WtEn= 1.04D-01
 Coeff-Com: -0.330D-01 0.378D+00 0.655D+00
 Coeff-En:   0.000D+00 0.241D+00 0.759D+00
 Coeff:     -0.296D-01 0.364D+00 0.666D+00
 Gap=     0.510 Goal=   None    Shift=    0.000
 RMSDP=3.77D-04 MaxDP=1.54D-02 DE=-2.91D-02 OVMax= 3.81D-02

 Cycle   4  Pass 1  IDiag  1:
 E= -279.500597224276     Delta-E=       -0.019078383697 Rises=F Damp=F
 DIIS: error= 1.29D-03 at cycle   4 NSaved=   4.
 NSaved= 4 IEnMin= 4 EnMin= -279.500597224276     IErMin= 4 ErrMin= 1.29D-03
 ErrMax= 1.29D-03  0.00D+00 EMaxC= 1.00D-01 BMatC= 4.94D-04 BMatP= 2.87D-02
 IDIUse=3 WtCom= 9.87D-01 WtEn= 1.29D-02
 Coeff-Com: -0.117D-01 0.575D-01 0.158D+00 0.796D+00
 Coeff-En:   0.000D+00 0.000D+00 0.000D+00 0.100D+01
 Coeff:     -0.115D-01 0.567D-01 0.156D+00 0.798D+00
 Gap=     0.502 Goal=   None    Shift=    0.000
 RMSDP=9.03D-05 MaxDP=2.17D-03 DE=-1.91D-02 OVMax= 1.12D-02

 Cycle   5  Pass 1  IDiag  1:
 E= -279.501273626548     Delta-E=       -0.000676402272 Rises=F Damp=F
 DIIS: error= 7.37D-04 at cycle   5 NSaved=   5.
 NSaved= 5 IEnMin= 5 EnMin= -279.501273626548     IErMin= 5 ErrMin= 7.37D-04
 ErrMax= 7.37D-04  0.00D+00 EMaxC= 1.00D-01 BMatC= 8.72D-05 BMatP= 4.94D-04
 IDIUse=3 WtCom= 9.93D-01 WtEn= 7.37D-03
 Coeff-Com:  0.613D-02-0.724D-01-0.118D+00 0.202D-01 0.116D+01
 Coeff-En:   0.000D+00 0.000D+00 0.000D+00 0.000D+00 0.100D+01
 Coeff:      0.609D-02-0.719D-01-0.117D+00 0.201D-01 0.116D+01
 Gap=     0.502 Goal=   None    Shift=    0.000
 RMSDP=7.63D-05 MaxDP=2.10D-03 DE=-6.76D-04 OVMax= 1.11D-02

 Cycle   6  Pass 1  IDiag  1:
 E= -279.501589102676     Delta-E=       -0.000315476128 Rises=F Damp=F
 DIIS: error= 2.85D-04 at cycle   6 NSaved=   6.
 NSaved= 6 IEnMin= 6 EnMin= -279.501589102676     IErMin= 6 ErrMin= 2.85D-04
 ErrMax= 2.85D-04  0.00D+00 EMaxC= 1.00D-01 BMatC= 1.67D-05 BMatP= 8.72D-05
 IDIUse=3 WtCom= 9.97D-01 WtEn= 2.85D-03
 Coeff-Com:  0.595D-03 0.162D-02 0.451D-02-0.130D+00-0.231D+00 0.135D+01
 Coeff-En:   0.000D+00 0.000D+00 0.000D+00 0.000D+00 0.000D+00 0.100D+01
 Coeff:      0.594D-03 0.161D-02 0.450D-02-0.129D+00-0.230D+00 0.135D+01
 Gap=     0.502 Goal=   None    Shift=    0.000
 RMSDP=4.54D-05 MaxDP=1.06D-03 DE=-3.15D-04 OVMax= 5.56D-03

 Cycle   7  Pass 1  IDiag  1:
 E= -279.501661945669     Delta-E=       -0.000072842993 Rises=F Damp=F
 DIIS: error= 1.23D-04 at cycle   7 NSaved=   7.
 NSaved= 7 IEnMin= 7 EnMin= -279.501661945669     IErMin= 7 ErrMin= 1.23D-04
 ErrMax= 1.23D-04  0.00D+00 EMaxC= 1.00D-01 BMatC= 4.52D-06 BMatP= 1.67D-05
 IDIUse=3 WtCom= 9.99D-01 WtEn= 1.23D-03
 Coeff-Com: -0.939D-03 0.136D-01 0.265D-01-0.243D-01-0.287D+00 0.392D+00
 Coeff-Com:  0.881D+00
 Coeff-En:   0.000D+00 0.000D+00 0.000D+00 0.000D+00 0.000D+00 0.000D+00
 Coeff-En:   0.100D+01
 Coeff:     -0.938D-03 0.135D-01 0.265D-01-0.243D-01-0.287D+00 0.391D+00
 Coeff:      0.881D+00
 Gap=     0.502 Goal=   None    Shift=    0.000
 RMSDP=1.33D-05 MaxDP=3.78D-04 DE=-7.28D-05 OVMax= 1.55D-03

 Cycle   8  Pass 1  IDiag  1:
 E= -279.501670858120     Delta-E=       -0.000008912451 Rises=F Damp=F
 DIIS: error= 5.72D-05 at cycle   8 NSaved=   8.
 NSaved= 8 IEnMin= 8 EnMin= -279.501670858120     IErMin= 8 ErrMin= 5.72D-05
 ErrMax= 5.72D-05  0.00D+00 EMaxC= 1.00D-01 BMatC= 6.07D-07 BMatP= 4.52D-06
 IDIUse=1 WtCom= 1.00D+00 WtEn= 0.00D+00
 Coeff-Com: -0.449D-03 0.345D-02 0.761D-02 0.274D-01-0.409D-01-0.198D+00
 Coeff-Com:  0.171D+00 0.103D+01
 Coeff:     -0.449D-03 0.345D-02 0.761D-02 0.274D-01-0.409D-01-0.198D+00
 Coeff:      0.171D+00 0.103D+01
 Gap=     0.502 Goal=   None    Shift=    0.000
 RMSDP=6.91D-06 MaxDP=2.03D-04 DE=-8.91D-06 OVMax= 7.47D-04

 Cycle   9  Pass 1  IDiag  1:
 E= -279.501672637737     Delta-E=       -0.000001779618 Rises=F Damp=F
 DIIS: error= 1.58D-05 at cycle   9 NSaved=   9.
 NSaved= 9 IEnMin= 9 EnMin= -279.501672637737     IErMin= 9 ErrMin= 1.58D-05
 ErrMax= 1.58D-05  0.00D+00 EMaxC= 1.00D-01 BMatC= 6.93D-08 BMatP= 6.07D-07
 IDIUse=1 WtCom= 1.00D+00 WtEn= 0.00D+00
 Coeff-Com:  0.123D-03-0.172D-02-0.308D-02-0.206D-02 0.342D-01-0.169D-04
 Coeff-Com: -0.167D+00-0.103D+00 0.124D+01
 Coeff:      0.123D-03-0.172D-02-0.308D-02-0.206D-02 0.342D-01-0.169D-04
 Coeff:     -0.167D+00-0.103D+00 0.124D+01
 Gap=     0.502 Goal=   None    Shift=    0.000
 RMSDP=1.94D-06 MaxDP=5.17D-05 DE=-1.78D-06 OVMax= 1.75D-04

 Cycle  10  Pass 1  IDiag  1:
 E= -279.501672798299     Delta-E=       -0.000000160562 Rises=F Damp=F
 DIIS: error= 4.11D-06 at cycle  10 NSaved=  10.
 NSaved=10 IEnMin=10 EnMin= -279.501672798299     IErMin=10 ErrMin= 4.11D-06
 ErrMax= 4.11D-06  0.00D+00 EMaxC= 1.00D-01 BMatC= 5.56D-09 BMatP= 6.93D-08
 IDIUse=1 WtCom= 1.00D+00 WtEn= 0.00D+00
 Coeff-Com:  0.310D-04-0.243D-03-0.323D-03-0.270D-02 0.162D-02 0.197D-01
 Coeff-Com: -0.130D-01-0.743D-01-0.804D-01 0.115D+01
 Coeff:      0.310D-04-0.243D-03-0.323D-03-0.270D-02 0.162D-02 0.197D-01
 Coeff:     -0.130D-01-0.743D-01-0.804D-01 0.115D+01
 Gap=     0.502 Goal=   None    Shift=    0.000
 RMSDP=5.06D-07 MaxDP=2.11D-05 DE=-1.61D-07 OVMax= 4.18D-05

 Cycle  11  Pass 1  IDiag  1:
 E= -279.501672810897     Delta-E=       -0.000000012597 Rises=F Damp=F
 DIIS: error= 2.02D-06 at cycle  11 NSaved=  11.
 NSaved=11 IEnMin=11 EnMin= -279.501672810897     IErMin=11 ErrMin= 2.02D-06
 ErrMax= 2.02D-06  0.00D+00 EMaxC= 1.00D-01 BMatC= 6.65D-10 BMatP= 5.56D-09
 IDIUse=1 WtCom= 1.00D+00 WtEn= 0.00D+00
 Coeff-Com: -0.213D-04 0.245D-03 0.488D-03 0.535D-03-0.429D-02-0.357D-02
 Coeff-Com:  0.211D-01 0.311D-01-0.139D+00-0.179D+00 0.127D+01
 Coeff:     -0.213D-04 0.245D-03 0.488D-03 0.535D-03-0.429D-02-0.357D-02
 Coeff:      0.211D-01 0.311D-01-0.139D+00-0.179D+00 0.127D+01
 Gap=     0.502 Goal=   None    Shift=    0.000
 RMSDP=1.80D-07 MaxDP=6.52D-06 DE=-1.26D-08 OVMax= 1.74D-05

 Cycle  12  Pass 1  IDiag  1:
 E= -279.501672812731     Delta-E=       -0.000000001834 Rises=F Damp=F
 DIIS: error= 5.84D-07 at cycle  12 NSaved=  12.
 NSaved=12 IEnMin=12 EnMin= -279.501672812731     IErMin=12 ErrMin= 5.84D-07
 ErrMax= 5.84D-07  0.00D+00 EMaxC= 1.00D-01 BMatC= 7.30D-11 BMatP= 6.65D-10
 IDIUse=1 WtCom= 1.00D+00 WtEn= 0.00D+00
 Coeff-Com:  0.127D-05-0.296D-04-0.641D-04 0.183D-03 0.109D-02-0.231D-02
 Coeff-Com: -0.416D-02 0.545D-02 0.421D-01-0.114D+00-0.282D+00 0.135D+01
 Coeff:      0.127D-05-0.296D-04-0.641D-04 0.183D-03 0.109D-02-0.231D-02
 Coeff:     -0.416D-02 0.545D-02 0.421D-01-0.114D+00-0.282D+00 0.135D+01
 Gap=     0.502 Goal=   None    Shift=    0.000
 RMSDP=7.34D-08 MaxDP=2.82D-06 DE=-1.83D-09 OVMax= 6.73D-06

 Cycle  13  Pass 1  IDiag  1:
 E= -279.501672812968     Delta-E=       -0.000000000237 Rises=F Damp=F
 DIIS: error= 1.67D-07 at cycle  13 NSaved=  13.
 NSaved=13 IEnMin=13 EnMin= -279.501672812968     IErMin=13 ErrMin= 1.67D-07
 ErrMax= 1.67D-07  0.00D+00 EMaxC= 1.00D-01 BMatC= 4.36D-12 BMatP= 7.30D-11
 IDIUse=1 WtCom= 1.00D+00 WtEn= 0.00D+00
 Coeff-Com:  0.131D-05-0.142D-04-0.228D-04-0.915D-04 0.121D-03 0.784D-03
 Coeff-Com: -0.842D-03-0.336D-02 0.462D-03 0.423D-01-0.355D-01-0.335D+00
 Coeff-Com:  0.133D+01
 Coeff:      0.131D-05-0.142D-04-0.228D-04-0.915D-04 0.121D-03 0.784D-03
 Coeff:     -0.842D-03-0.336D-02 0.462D-03 0.423D-01-0.355D-01-0.335D+00
 Coeff:      0.133D+01
 Gap=     0.502 Goal=   None    Shift=    0.000
 RMSDP=2.05D-08 MaxDP=5.64D-07 DE=-2.37D-10 OVMax= 1.81D-06

 Cycle  14  Pass 1  IDiag  1:
 E= -279.501672812984     Delta-E=       -0.000000000016 Rises=F Damp=F
 DIIS: error= 3.93D-08 at cycle  14 NSaved=  14.
 NSaved=14 IEnMin=14 EnMin= -279.501672812984     IErMin=14 ErrMin= 3.93D-08
 ErrMax= 3.93D-08  0.00D+00 EMaxC= 1.00D-01 BMatC= 3.18D-13 BMatP= 4.36D-12
 IDIUse=1 WtCom= 1.00D+00 WtEn= 0.00D+00
 Coeff-Com: -0.241D-06 0.377D-05 0.664D-05 0.725D-05-0.926D-04 0.289D-04
 Coeff-Com:  0.331D-03 0.321D-03-0.265D-02 0.424D-03 0.195D-01-0.190D-01
 Coeff-Com: -0.250D+00 0.125D+01
 Coeff:     -0.241D-06 0.377D-05 0.664D-05 0.725D-05-0.926D-04 0.289D-04
 Coeff:      0.331D-03 0.321D-03-0.265D-02 0.424D-03 0.195D-01-0.190D-01
 Coeff:     -0.250D+00 0.125D+01
 Gap=     0.502 Goal=   None    Shift=    0.000
 RMSDP=5.30D-09 MaxDP=8.92D-08 DE=-1.58D-11 OVMax= 6.30D-07

 SCF Done:  E(RHF) =  -279.501672813     A.U. after   14 cycles
            NFock= 14  Conv=0.53D-08     -V/T= 2.0024
 KE= 2.788454009015D+02 PE=-8.950725588051D+02 EE= 2.198526102336D+02
 Leave Link  502 at Mon Feb 14 22:03:19 2022, MaxMem= 16106127360 cpu:              46.6 elap:               7.0
 (Enter /sw/contrib/gaussian/g16/B01/g16/l801.exe)
 ExpMin= 2.53D-02 ExpMax= 1.53D+04 ExpMxC= 5.22D+02 IAcc=3 IRadAn=         5 AccDes= 0.00D+00
 HarFok:  IExCor=  205 AccDes= 0.00D+00 IRadAn=         5 IDoV=-2 UseB2=F ITyADJ=14
 ICtDFT= 12500011 ScaDFX=  1.000000  1.000000  1.000000  1.000000
 Largest valence mixing into a core orbital is  2.08D-04
 Largest core mixing into a valence orbital is  3.63D-05
 Range of M.O.s used for correlation:     5   207
 NBasis=   207 NAE=    16 NBE=    16 NFC=     4 NFV=     0
 NROrb=    203 NOA=    12 NOB=    12 NVA=   191 NVB=   191

 **** Warning!!: The largest alpha MO coefficient is  0.17662452D+02

 Leave Link  801 at Mon Feb 14 22:03:19 2022, MaxMem= 16106127360 cpu:               2.1 elap:               0.1
 (Enter /sw/contrib/gaussian/g16/B01/g16/l906.exe)
 Frozen-core derivative calculation, NFC=   4 NFV=   0.
 FulOut=F Deriv=T AODrv=F NAtomX=     5
   MMem=          76  MDisk=          12 MDiskD=          12
  W3Min=      811440 MinDsk=     1524655 NBas6D=         245
 NBas2D=       30762    NTT=       30135    LW2=     3500000
    MDV= 16105643539 MDiskM=      328645 NBas2p=       30466
 Fully in-core method, ICMem=   960157634.
 IMap=   1   2   3   4   5   6   7   8   9  10  11  12  13  14  15  16
 JobTyp=1 Pass  1 fully in-core, NPsUse= 28.
 Compute canonical integrals.
 FoFCou: FMM=F IPFlag=           0 FMFlag=           0 FMFlg1=           0
         NFxFlg=           0 DoJE=F BraDBF=F KetDBF=F FulRan=T
         wScrn=  0.000000 ICntrl=       600 IOpCl=  1 I1Cent=           0 NGrid=           0
         NMat0=    1 NMatS0=  30762 NMatT0=    0 NMatD0=    1 NMtDS0=    0 NMtDT0=    0
 Symmetry not used in FoFCou.
 Spin components of T(2) and E(2):
     alpha-alpha T2 =       0.3402417170D-01 E2=     -0.1224036804D+00
     alpha-beta  T2 =       0.1868465203D+00 E2=     -0.7002318084D+00
     beta-beta   T2 =       0.3402417170D-01 E2=     -0.1224036804D+00
 The integrals were generated   1 times.
 ANorm=    0.1120220900D+01
 E2 =    -0.9450391693D+00 EUMP2 =    -0.28044671198227D+03
 Leave Link  906 at Mon Feb 14 22:03:28 2022, MaxMem= 16106127360 cpu:             245.5 elap:               8.8
 (Enter /sw/contrib/gaussian/g16/B01/g16/l1002.exe)
 Minotr:  Closed shell wavefunction.
          Computing MP2/KS-MP2 derivatives.
          Using Z-Vector for PSCF gradient.
          Skipping F1 and S1 gradient terms here.
          Frozen-core window.
          Direct CPHF calculation.
          Differentiating once with respect to electric field.
                with respect to dipole field.
          Electric field/nuclear overlap derivatives assumed to be zero.
          Requested convergence is 1.0D-10 RMS, and 1.0D-09 maximum.
          NewPWx=F KeepS1=T KeepF1=T KeepIn=T MapXYZ=F SortEE=F KeepMc=T.
 Keep R1 ints in memory in canonical form, NReq=245621348.
 FoFCou: FMM=F IPFlag=           0 FMFlag=           0 FMFlg1=           0
         NFxFlg=           0 DoJE=F BraDBF=F KetDBF=F FulRan=T
         wScrn=  0.000000 ICntrl=       600 IOpCl=  0 I1Cent=           0 NGrid=           0
         NMat0=    1 NMatS0=  21528 NMatT0=    0 NMatD0=    1 NMtDS0=    0 NMtDT0=    0
 Symmetry not used in FoFCou.
 Two-electron integral symmetry not used.
          MDV=   16106127360 using IRadAn=       5.
          Solving linear equations separately, MaxMat=       0.
          There are     1 degrees of freedom in the 1st order CPHF.  IDoFFX=0 NUNeed=     1.
 LinEq1:  Iter=  0 NonCon=     1 RMS=5.96D-03 Max=1.32D-01 NDo=     1
 AX will form     1 AO Fock derivatives at one time.
 LinEq1:  Iter=  1 NonCon=     1 RMS=1.90D-03 Max=3.82D-02 NDo=     1
 LinEq1:  Iter=  2 NonCon=     1 RMS=8.68D-04 Max=1.40D-02 NDo=     1
 LinEq1:  Iter=  3 NonCon=     1 RMS=3.87D-04 Max=7.81D-03 NDo=     1
 LinEq1:  Iter=  4 NonCon=     1 RMS=1.19D-04 Max=1.90D-03 NDo=     1
 LinEq1:  Iter=  5 NonCon=     1 RMS=4.55D-05 Max=7.23D-04 NDo=     1
 LinEq1:  Iter=  6 NonCon=     1 RMS=2.03D-05 Max=2.27D-04 NDo=     1
 LinEq1:  Iter=  7 NonCon=     1 RMS=8.16D-06 Max=1.53D-04 NDo=     1
 LinEq1:  Iter=  8 NonCon=     1 RMS=3.48D-06 Max=3.41D-05 NDo=     1
 LinEq1:  Iter=  9 NonCon=     1 RMS=9.49D-07 Max=1.30D-05 NDo=     1
 LinEq1:  Iter= 10 NonCon=     1 RMS=1.89D-07 Max=1.97D-06 NDo=     1
 LinEq1:  Iter= 11 NonCon=     1 RMS=3.81D-08 Max=6.43D-07 NDo=     1
 LinEq1:  Iter= 12 NonCon=     1 RMS=1.17D-08 Max=3.17D-07 NDo=     1
 LinEq1:  Iter= 13 NonCon=     1 RMS=3.01D-09 Max=7.92D-08 NDo=     1
 LinEq1:  Iter= 14 NonCon=     1 RMS=5.91D-10 Max=1.04D-08 NDo=     1
 LinEq1:  Iter= 15 NonCon=     1 RMS=1.30D-10 Max=1.75D-09 NDo=     1
 LinEq1:  Iter= 16 NonCon=     0 RMS=3.38D-11 Max=6.15D-10 NDo=     1
 Linear equations converged to 1.000D-10 1.000D-09 after    16 iterations.
 End of Minotr F.D. properties file   721 does not exist.
 End of Minotr F.D. properties file   722 does not exist.
 End of Minotr F.D. properties file   788 does not exist.
 Leave Link 1002 at Mon Feb 14 22:03:36 2022, MaxMem= 16106127360 cpu:              40.4 elap:               8.5
 (Enter /sw/contrib/gaussian/g16/B01/g16/l601.exe)
 Copying SCF densities to generalized density rwf, IOpCl= 0 IROHF=0.

 **********************************************************************

            Population analysis using the MP2 Density.

 **********************************************************************

 Orbital symmetries:
       Occupied  (A) (A) (A) (A) (A) (A) (A) (A) (A) (A) (A) (A)
                 (A) (A) (A) (A)
       Virtual   (A) (A) (A) (A) (A) (A) (A) (A) (A) (A) (A) (A)
                 (A) (A) (A) (A) (A) (A) (A) (A) (A) (A) (A) (A)
                 (A) (A) (A) (A) (A) (A) (A) (A) (A) (A) (A) (A)
                 (A) (A) (A) (A) (A) (A) (A) (A) (A) (A) (A) (A)
                 (A) (A) (A) (A) (A) (A) (A) (A) (A) (A) (A) (A)
                 (A) (A) (A) (A) (A) (A) (A) (A) (A) (A) (A) (A)
                 (A) (A) (A) (A) (A) (A) (A) (A) (A) (A) (A) (A)
                 (A) (A) (A) (A) (A) (A) (A) (A) (A) (A) (A) (A)
                 (A) (A) (A) (A) (A) (A) (A) (A) (A) (A) (A) (A)
                 (A) (A) (A) (A) (A) (A) (A) (A) (A) (A) (A) (A)
                 (A) (A) (A) (A) (A) (A) (A) (A) (A) (A) (A) (A)
                 (A) (A) (A) (A) (A) (A) (A) (A) (A) (A) (A) (A)
                 (A) (A) (A) (A) (A) (A) (A) (A) (A) (A) (A) (A)
                 (A) (A) (A) (A) (A) (A) (A) (A) (A) (A) (A) (A)
                 (A) (A) (A) (A) (A) (A) (A) (A) (A) (A) (A) (A)
                 (A) (A) (A) (A) (A) (A) (A) (A) (A) (A) (A)
 The electronic state is 1-A.
 Alpha  occ. eigenvalues --  -20.69087 -20.68431 -20.65998 -15.81283  -1.62403
 Alpha  occ. eigenvalues --   -1.49574  -1.25441  -0.94807  -0.77278  -0.75918
 Alpha  occ. eigenvalues --   -0.71183  -0.67933  -0.62047  -0.58942  -0.48522
 Alpha  occ. eigenvalues --   -0.47250
 Alpha virt. eigenvalues --    0.02963   0.07166   0.08595   0.10172   0.13338
 Alpha virt. eigenvalues --    0.13452   0.14408   0.15453   0.17823   0.19417
 Alpha virt. eigenvalues --    0.19977   0.20640   0.22083   0.23524   0.23759
 Alpha virt. eigenvalues --    0.26598   0.29343   0.30378   0.31062   0.34343
 Alpha virt. eigenvalues --    0.34976   0.38722   0.42191   0.43152   0.52694
 Alpha virt. eigenvalues --    0.52966   0.55848   0.58160   0.62596   0.63832
 Alpha virt. eigenvalues --    0.67410   0.68486   0.70640   0.71116   0.72424
 Alpha virt. eigenvalues --    0.72945   0.74468   0.79102   0.79264   0.80974
 Alpha virt. eigenvalues --    0.81330   0.83054   0.86821   0.90824   0.92195
 Alpha virt. eigenvalues --    0.92632   0.95655   0.97733   0.98474   1.01642
 Alpha virt. eigenvalues --    1.05164   1.05492   1.08274   1.11757   1.14103
 Alpha virt. eigenvalues --    1.18963   1.22089   1.23260   1.33878   1.35055
 Alpha virt. eigenvalues --    1.38645   1.45326   1.48776   1.50892   1.53805
 Alpha virt. eigenvalues --    1.56671   1.57999   1.61325   1.66410   1.66954
 Alpha virt. eigenvalues --    1.70337   1.79295   1.83077   1.83525   1.87851
 Alpha virt. eigenvalues --    1.91024   1.95618   1.99199   2.00599   2.07767
 Alpha virt. eigenvalues --    2.12086   2.13185   2.15008   2.22458   2.26438
 Alpha virt. eigenvalues --    2.26494   2.28963   2.31429   2.34419   2.38618
 Alpha virt. eigenvalues --    2.42332   2.42975   2.45413   2.46282   2.47680
 Alpha virt. eigenvalues --    2.50147   2.58961   2.59659   2.62064   2.62469
 Alpha virt. eigenvalues --    2.63472   2.66745   2.75723   2.82445   2.85525
 Alpha virt. eigenvalues --    2.88452   2.89493   2.92381   2.95854   3.02534
 Alpha virt. eigenvalues --    3.06825   3.12168   3.20473   3.22653   3.31650
 Alpha virt. eigenvalues --    3.34170   3.51684   3.64307   3.83819   3.84484
 Alpha virt. eigenvalues --    4.14872   4.16293   4.18382   4.25750   4.35166
 Alpha virt. eigenvalues --    4.39328   4.46343   4.51919   4.66143   4.71052
 Alpha virt. eigenvalues --    4.80524   4.82473   4.82868   4.89613   5.02319
 Alpha virt. eigenvalues --    5.07719   5.10361   5.14459   5.17907   5.24264
 Alpha virt. eigenvalues --    5.27225   5.30798   5.32959   5.35518   5.60640
 Alpha virt. eigenvalues --    5.67371   5.76940   5.82896   5.95746   6.16864
 Alpha virt. eigenvalues --    6.30885   6.33817   6.39437   6.49360   6.50540
 Alpha virt. eigenvalues --    6.61383   6.66791   6.69943   6.75764   6.76346
 Alpha virt. eigenvalues --    6.83264   6.89828   7.01360   7.05585   7.05740
 Alpha virt. eigenvalues --    7.09011   7.12447   7.15000   7.18154   7.22509
 Alpha virt. eigenvalues --    7.24178   7.30732   7.32528   7.34750   7.39940
 Alpha virt. eigenvalues --    7.43154   7.48441   7.60456   7.62086   7.62695
 Alpha virt. eigenvalues --    7.66609   7.78935   7.88677   8.09279   8.31450
 Alpha virt. eigenvalues --    8.40913   8.54421  13.39135  14.39301  15.16200
 Alpha virt. eigenvalues --   16.15211
          Condensed to atoms (all electrons):
               1          2          3          4          5
     1  H    0.589533   0.128395   0.020037   0.012410  -0.000649
     2  O    0.128395   8.321697  -0.173559  -0.090444   0.015495
     3  O    0.020037  -0.173559   8.469602  -0.130076  -0.038789
     4  N    0.012410  -0.090444  -0.130076   6.972127  -0.055746
     5  O   -0.000649   0.015495  -0.038789  -0.055746   8.272895
 Mulliken charges:
               1
     1  H    0.250275
     2  O   -0.201584
     3  O   -0.147215
     4  N    0.291729
     5  O   -0.193205
 Sum of Mulliken charges =  -0.00000
 Mulliken charges with hydrogens summed into heavy atoms:
               1
     2  O    0.048691
     3  O   -0.147215
     4  N    0.291729
     5  O   -0.193205
 Electronic spatial extent (au):  <R**2>=            252.8811
 Charge=             -0.0000 electrons
 Dipole moment (field-independent basis, Debye):
    X=             -1.2177    Y=              0.7913    Z=             -0.0035  Tot=              1.4523
 Quadrupole moment (field-independent basis, Debye-Ang):
   XX=            -17.9907   YY=            -23.0932   ZZ=            -22.0110
   XY=             -2.7932   XZ=              0.0519   YZ=              0.0203
 Traceless Quadrupole moment (field-independent basis, Debye-Ang):
   XX=              3.0409   YY=             -2.0615   ZZ=             -0.9794
   XY=             -2.7932   XZ=              0.0519   YZ=              0.0203
 Octapole moment (field-independent basis, Debye-Ang**2):
  XXX=            -18.1999  YYY=              1.7587  ZZZ=             -0.0285  XYY=             -1.0909
  XXY=              6.2036  XXZ=             -0.0640  XZZ=              1.7760  YZZ=              0.2526
  YYZ=             -0.0380  XYZ=              0.0458
 Hexadecapole moment (field-independent basis, Debye-Ang**3):
 XXXX=           -190.0929 YYYY=            -41.0839 ZZZZ=            -18.2562 XXXY=            -12.1443
 XXXZ=              0.2830 YYYX=             -1.0074 YYYZ=              0.0653 ZZZX=             -0.0438
 ZZZY=              0.0138 XXYY=            -42.4518 XXZZ=            -41.6590 YYZZ=             -9.8815
 XXYZ=              0.0005 YYXZ=              0.0160 ZZXY=             -0.4765
 N-N= 1.168728748569D+02 E-N=-8.958563408094D+02  KE= 2.801974458390D+02
 No NMR shielding tensors so no spin-rotation constants.
 Leave Link  601 at Mon Feb 14 22:03:36 2022, MaxMem= 16106127360 cpu:               4.4 elap:               0.2
 (Enter /sw/contrib/gaussian/g16/B01/g16/l9999.exe)
 1\1\GINC-N2218\SP\RMP2-FC\Aug-CC-pVTZ\H1N1O3\CGAVINH\14-Feb-2022\0\\#p
  SP mp2/aug-cc-pvtz density=current\\title\\0,1\H\O,1,0.96897556\O,2,1
 .45491931,1,97.59494903\N,3,1.45878406,2,102.29752444,1,180.,0\O,4,1.1
 7072885,3,109.06955123,2,178.09229069,0\\Version=ES64L-G16RevB.01\Stat
 e=1-A\HF=-279.5016728\MP2=-280.446712\RMSD=5.304e-09\Dipole=-0.146374,
 0.0014308,-0.5522951\Quadrupole=-1.5122032,-0.7290149,2.241218,0.04248
 01,2.0945042,-0.0143587\PG=C01 [X(H1N1O3)]\\@


 MOM AND DAD WENT TO ALPHA CENTAURI AND ALL
 I GOT WAS THIS DUMB T-SHIRT.
 Job cpu time:       0 days  0 hours  6 minutes  2.6 seconds.
 Elapsed time:       0 days  0 hours  0 minutes 25.6 seconds.
 File lengths (MBytes):  RWF=     21 Int=      0 D2E=      0 Chk=      8 Scr=      1
 Normal termination of Gaussian 16 at Mon Feb 14 22:03:37 2022.
