 Entering Gaussian System, Link 0=g16
 Input=hoono_r4_1p174692.gjf
 Output=hoono_r4_1p174692.log
 Initial command:
 /sw/contrib/gaussian/g16/B01/g16/l1.exe "/scr/Gau-5690.inp" -scrdir="/scr/"
 Entering Link 1 = /sw/contrib/gaussian/g16/B01/g16/l1.exe PID=      5691.
  
 Copyright (c) 1988-2017, Gaussian, Inc.  All Rights Reserved.
  
 This is part of the Gaussian(R) 16 program.  It is based on
 the Gaussian(R) 09 system (copyright 2009, Gaussian, Inc.),
 the Gaussian(R) 03 system (copyright 2003, Gaussian, Inc.),
 the Gaussian(R) 98 system (copyright 1998, Gaussian, Inc.),
 the Gaussian(R) 94 system (copyright 1995, Gaussian, Inc.),
 the Gaussian 92(TM) system (copyright 1992, Gaussian, Inc.),
 the Gaussian 90(TM) system (copyright 1990, Gaussian, Inc.),
 the Gaussian 88(TM) system (copyright 1988, Gaussian, Inc.),
 the Gaussian 86(TM) system (copyright 1986, Carnegie Mellon
 University), and the Gaussian 82(TM) system (copyright 1983,
 Carnegie Mellon University). Gaussian is a federally registered
 trademark of Gaussian, Inc.
  
 This software contains proprietary and confidential information,
 including trade secrets, belonging to Gaussian, Inc.
  
 This software is provided under written license and may be
 used, copied, transmitted, or stored only in accord with that
 written license.
  
 The following legend is applicable only to US Government
 contracts under FAR:
  
                    RESTRICTED RIGHTS LEGEND
  
 Use, reproduction and disclosure by the US Government is
 subject to restrictions as set forth in subparagraphs (a)
 and (c) of the Commercial Computer Software - Restricted
 Rights clause in FAR 52.227-19.
  
 Gaussian, Inc.
 340 Quinnipiac St., Bldg. 40, Wallingford CT 06492
  
  
 ---------------------------------------------------------------
 Warning -- This program may not be used in any manner that
 competes with the business of Gaussian, Inc. or will provide
 assistance to any competitor of Gaussian, Inc.  The licensee
 of this program is prohibited from giving any competitor of
 Gaussian, Inc. access to this program.  By using this program,
 the user acknowledges that Gaussian, Inc. is engaged in the
 business of creating and licensing software in the field of
 computational chemistry and represents and warrants to the
 licensee that it is not a competitor of Gaussian, Inc. and that
 it will not use this program in any manner prohibited above.
 ---------------------------------------------------------------
  

 Cite this work as:
 Gaussian 16, Revision B.01,
 M. J. Frisch, G. W. Trucks, H. B. Schlegel, G. E. Scuseria, 
 M. A. Robb, J. R. Cheeseman, G. Scalmani, V. Barone, 
 G. A. Petersson, H. Nakatsuji, X. Li, M. Caricato, A. V. Marenich, 
 J. Bloino, B. G. Janesko, R. Gomperts, B. Mennucci, H. P. Hratchian, 
 J. V. Ortiz, A. F. Izmaylov, J. L. Sonnenberg, D. Williams-Young, 
 F. Ding, F. Lipparini, F. Egidi, J. Goings, B. Peng, A. Petrone, 
 T. Henderson, D. Ranasinghe, V. G. Zakrzewski, J. Gao, N. Rega, 
 G. Zheng, W. Liang, M. Hada, M. Ehara, K. Toyota, R. Fukuda, 
 J. Hasegawa, M. Ishida, T. Nakajima, Y. Honda, O. Kitao, H. Nakai, 
 T. Vreven, K. Throssell, J. A. Montgomery, Jr., J. E. Peralta, 
 F. Ogliaro, M. J. Bearpark, J. J. Heyd, E. N. Brothers, K. N. Kudin, 
 V. N. Staroverov, T. A. Keith, R. Kobayashi, J. Normand, 
 K. Raghavachari, A. P. Rendell, J. C. Burant, S. S. Iyengar, 
 J. Tomasi, M. Cossi, J. M. Millam, M. Klene, C. Adamo, R. Cammi, 
 J. W. Ochterski, R. L. Martin, K. Morokuma, O. Farkas, 
 J. B. Foresman, and D. J. Fox, Gaussian, Inc., Wallingford CT, 2016.
 
 ******************************************
 Gaussian 16:  ES64L-G16RevB.01 20-Dec-2017
                14-Feb-2022 
 ******************************************
 %nproc=28
 Will use up to   28 processors via shared memory.
 %mem=120GB
 %chk=hoono_r4_1p174692.chk
 -------------------------------------
 #p SP mp2/aug-cc-pvtz density=current
 -------------------------------------
 1/30=1,38=1,172=1/1;
 2/12=2,17=6,18=5,40=1/2;
 3/5=16,6=1,7=10,11=9,25=1,30=1,71=1/1,2,3;
 4//1;
 5/5=2,38=5/2;
 8/6=4,10=1/1;
 9/15=1,16=-3/6;
 10/5=1,13=10/2;
 6/7=2,8=2,9=2,10=2,22=-1/1;
 99/5=1,9=1/99;
 Leave Link    1 at Mon Feb 14 21:59:30 2022, MaxMem= 16106127360 cpu:               4.9 elap:               0.2
 (Enter /sw/contrib/gaussian/g16/B01/g16/l101.exe)
 -----
 title
 -----
 Symbolic Z-matrix:
 Charge =  0 Multiplicity = 1
 H
 O                    1    r1
 O                    2    r2       1    a1
 N                    3    r3       2    a2       1    d1       0
 O                    4    r4       3    a3       2    d2       0
       Variables:
  r1                    0.96898                  
  r2                    1.45492                  
  r3                    1.45878                  
  r4                    1.17469                  
  a1                   97.59495                  
  a2                  102.29752                  
  a3                  109.06955                  
  d1                  180.                       
  d2                  180.                       
 
 ITRead=  0  0  0  0  0
 MicOpt= -1 -1 -1 -1 -1
 NAtoms=      5 NQM=        5 NQMF=       0 NMMI=      0 NMMIF=      0
                NMic=       0 NMicF=      0.
                    Isotopes and Nuclear Properties:
 (Nuclear quadrupole moments (NQMom) in fm**2, nuclear magnetic moments (NMagM)
  in nuclear magnetons)

  Atom         1           2           3           4           5
 IAtWgt=           1          16          16          14          16
 AtmWgt=   1.0078250  15.9949146  15.9949146  14.0030740  15.9949146
 NucSpn=           1           0           0           2           0
 AtZEff=  -0.0000000  -0.0000000  -0.0000000  -0.0000000  -0.0000000
 NQMom=    0.0000000   0.0000000   0.0000000   2.0440000   0.0000000
 NMagM=    2.7928460   0.0000000   0.0000000   0.4037610   0.0000000
 AtZNuc=   1.0000000   8.0000000   8.0000000   7.0000000   8.0000000
 Leave Link  101 at Mon Feb 14 21:59:30 2022, MaxMem= 16106127360 cpu:               2.4 elap:               0.1
 (Enter /sw/contrib/gaussian/g16/B01/g16/l202.exe)
                          Input orientation:                          
 ---------------------------------------------------------------------
 Center     Atomic      Atomic             Coordinates (Angstroms)
 Number     Number       Type             X           Y           Z
 ---------------------------------------------------------------------
      1          1           0        0.000000    0.000000    0.000000
      2          8           0        0.000000    0.000000    0.968976
      3          8           0        1.442156    0.000000    1.161271
      4          7           0        1.561752    0.000000    2.615144
      5          8           0        2.699707    0.000000    2.906622
 ---------------------------------------------------------------------
                    Distance matrix (angstroms):
                    1          2          3          4          5
     1  H    0.000000
     2  O    0.968976   0.000000
     3  O    1.851584   1.454919   0.000000
     4  N    3.045989   2.269127   1.458784   0.000000
     5  O    3.966973   3.323085   2.151206   1.174693   0.000000
 Stoichiometry    HNO3
 Framework group  CS[SG(HNO3)]
 Deg. of freedom     7
 Full point group                 CS      NOp   2
 Largest Abelian subgroup         CS      NOp   2
 Largest concise Abelian subgroup C1      NOp   1
                         Standard orientation:                         
 ---------------------------------------------------------------------
 Center     Atomic      Atomic             Coordinates (Angstroms)
 Number     Number       Type             X           Y           Z
 ---------------------------------------------------------------------
      1          1           0        1.547634    1.689620    0.000000
      2          8           0        1.453989    0.725180    0.000000
      3          8           0       -0.000000    0.673160   -0.000000
      4          7           0       -0.259544   -0.762349   -0.000000
      5          8           0       -1.420342   -0.942487   -0.000000
 ---------------------------------------------------------------------
 Rotational constants (GHZ):          54.9281945           5.0018032           4.5843489
 Leave Link  202 at Mon Feb 14 21:59:30 2022, MaxMem= 16106127360 cpu:               0.2 elap:               0.0
 (Enter /sw/contrib/gaussian/g16/B01/g16/l301.exe)
 Standard basis: Aug-CC-pVTZ (5D, 7F)
 Ernie: Thresh=  0.10000D-02 Tol=  0.10000D-05 Strict=F.
 Ernie:  12 primitive shells out of 131 were deleted.
 There are   166 symmetry adapted cartesian basis functions of A'  symmetry.
 There are    79 symmetry adapted cartesian basis functions of A"  symmetry.
 There are   136 symmetry adapted basis functions of A'  symmetry.
 There are    71 symmetry adapted basis functions of A"  symmetry.
   207 basis functions,   315 primitive gaussians,   245 cartesian basis functions
    16 alpha electrons       16 beta electrons
       nuclear repulsion energy       116.7520765526 Hartrees.
 IExCor=    0 DFT=F Ex=HF Corr=None ExCW=0 ScaHFX=  1.000000
 ScaDFX=  1.000000  1.000000  1.000000  1.000000 ScalE2=  1.000000  1.000000
 IRadAn=      5 IRanWt=     -1 IRanGd=            0 ICorTp=0 IEmpDi=  4
 NAtoms=    5 NActive=    5 NUniq=    5 SFac= 1.00D+00 NAtFMM=   60 NAOKFM=F Big=F
 Integral buffers will be    131072 words long.
 Raffenetti 1 integral format.
 Two-electron integral symmetry is turned on.
 Leave Link  301 at Mon Feb 14 21:59:30 2022, MaxMem= 16106127360 cpu:               1.2 elap:               0.1
 (Enter /sw/contrib/gaussian/g16/B01/g16/l302.exe)
 NPDir=0 NMtPBC=     1 NCelOv=     1 NCel=       1 NClECP=     1 NCelD=      1
         NCelK=      1 NCelE2=     1 NClLst=     1 CellRange=     0.0.
 One-electron integrals computed using PRISM.
 One-electron integral symmetry used in STVInt
 NBasis=   207 RedAO= T EigKep=  1.82D-04  NBF=   136    71
 NBsUse=   207 1.00D-06 EigRej= -1.00D+00 NBFU=   136    71
 Leave Link  302 at Mon Feb 14 21:59:30 2022, MaxMem= 16106127360 cpu:               6.9 elap:               0.3
 (Enter /sw/contrib/gaussian/g16/B01/g16/l303.exe)
 DipDrv:  MaxL=1.
 Leave Link  303 at Mon Feb 14 21:59:30 2022, MaxMem= 16106127360 cpu:               1.5 elap:               0.1
 (Enter /sw/contrib/gaussian/g16/B01/g16/l401.exe)
 ExpMin= 2.53D-02 ExpMax= 1.53D+04 ExpMxC= 5.22D+02 IAcc=3 IRadAn=         5 AccDes= 0.00D+00
 Harris functional with IExCor=  205 and IRadAn=       5 diagonalized for initial guess.
 HarFok:  IExCor=  205 AccDes= 0.00D+00 IRadAn=         5 IDoV= 1 UseB2=F ITyADJ=14
 ICtDFT=  3500011 ScaDFX=  1.000000  1.000000  1.000000  1.000000
 FoFCou: FMM=F IPFlag=           0 FMFlag=      100000 FMFlg1=           0
         NFxFlg=           0 DoJE=T BraDBF=F KetDBF=T FulRan=T
         wScrn=  0.000000 ICntrl=       500 IOpCl=  0 I1Cent=   200000004 NGrid=           0
         NMat0=    1 NMatS0=      1 NMatT0=    0 NMatD0=    1 NMtDS0=    0 NMtDT0=    0
 Petite list used in FoFCou.
 Harris En= -279.628741677641    
 JPrj=0 DoOrth=F DoCkMO=F.
 Initial guess orbital symmetries:
       Occupied  (A') (A') (A') (A') (A') (A') (A') (A') (A') (A')
                 (A") (A') (A') (A") (A") (A')
       Virtual   (A") (A') (A') (A') (A') (A') (A") (A') (A') (A')
                 (A") (A') (A") (A') (A') (A") (A') (A") (A') (A')
                 (A') (A') (A') (A') (A') (A") (A') (A") (A') (A')
                 (A") (A') (A") (A') (A') (A") (A') (A") (A') (A')
                 (A") (A') (A") (A') (A") (A') (A') (A') (A") (A")
                 (A') (A') (A') (A') (A") (A') (A") (A') (A") (A')
                 (A') (A') (A") (A') (A') (A") (A') (A") (A') (A')
                 (A") (A') (A') (A") (A") (A') (A') (A") (A') (A')
                 (A') (A") (A') (A") (A') (A") (A') (A") (A') (A')
                 (A') (A") (A') (A") (A') (A") (A") (A') (A') (A")
                 (A') (A') (A") (A') (A') (A') (A') (A") (A") (A')
                 (A") (A') (A') (A') (A") (A') (A') (A') (A") (A')
                 (A") (A') (A') (A") (A") (A') (A') (A") (A") (A')
                 (A') (A') (A') (A") (A") (A') (A") (A') (A') (A')
                 (A') (A") (A") (A') (A') (A") (A') (A') (A') (A')
                 (A") (A') (A') (A") (A') (A") (A') (A") (A') (A")
                 (A') (A") (A') (A") (A') (A") (A") (A") (A') (A')
                 (A") (A') (A") (A') (A") (A') (A") (A") (A') (A')
                 (A') (A') (A') (A') (A') (A') (A') (A') (A') (A')
                 (A')
 The electronic state of the initial guess is 1-A'.
 Leave Link  401 at Mon Feb 14 21:59:31 2022, MaxMem= 16106127360 cpu:               6.3 elap:               0.3
 (Enter /sw/contrib/gaussian/g16/B01/g16/l502.exe)
 Keep R1 ints in memory in symmetry-blocked form, NReq=348887737.
 FoFCou: FMM=F IPFlag=           0 FMFlag=           0 FMFlg1=           0
         NFxFlg=           0 DoJE=F BraDBF=F KetDBF=F FulRan=T
         wScrn=  0.000000 ICntrl=       600 IOpCl=  0 I1Cent=           0 NGrid=           0
         NMat0=    1 NMatS0=  21528 NMatT0=    0 NMatD0=    1 NMtDS0=    0 NMtDT0=    0
 Petite list used in FoFCou.
 Closed shell SCF:
 Using DIIS extrapolation, IDIIS=  1040.
 NGot= 16106127360 LenX= 15988850015 LenY= 15988789549
 Requested convergence on RMS density matrix=1.00D-08 within 128 cycles.
 Requested convergence on MAX density matrix=1.00D-06.
 Requested convergence on             energy=1.00D-06.
 No special actions if energy rises.

 Cycle   1  Pass 1  IDiag  1:
 E= -279.368954500385    
 DIIS: error= 2.68D-02 at cycle   1 NSaved=   1.
 NSaved= 1 IEnMin= 1 EnMin= -279.368954500385     IErMin= 1 ErrMin= 2.68D-02
 ErrMax= 2.68D-02  0.00D+00 EMaxC= 1.00D-01 BMatC= 4.39D-01 BMatP= 4.39D-01
 IDIUse=3 WtCom= 7.32D-01 WtEn= 2.68D-01
 Coeff-Com:  0.100D+01
 Coeff-En:   0.100D+01
 Coeff:      0.100D+01
 Gap=     0.512 Goal=   None    Shift=    0.000
 GapD=    0.512 DampG=2.000 DampE=0.500 DampFc=1.0000 IDamp=-1.
 RMSDP=1.63D-03 MaxDP=9.94D-02              OVMax= 1.15D-01

 Cycle   2  Pass 1  IDiag  1:
 E= -279.450523089689     Delta-E=       -0.081568589303 Rises=F Damp=F
 DIIS: error= 1.80D-02 at cycle   2 NSaved=   2.
 NSaved= 2 IEnMin= 2 EnMin= -279.450523089689     IErMin= 2 ErrMin= 1.80D-02
 ErrMax= 1.80D-02  0.00D+00 EMaxC= 1.00D-01 BMatC= 7.35D-02 BMatP= 4.39D-01
 IDIUse=3 WtCom= 8.20D-01 WtEn= 1.80D-01
 Coeff-Com:  0.198D+00 0.802D+00
 Coeff-En:   0.518D-02 0.995D+00
 Coeff:      0.163D+00 0.837D+00
 Gap=     0.532 Goal=   None    Shift=    0.000
 RMSDP=9.08D-04 MaxDP=3.76D-02 DE=-8.16D-02 OVMax= 6.99D-02

 Cycle   3  Pass 1  IDiag  1:
 E= -279.480462216791     Delta-E=       -0.029939127102 Rises=F Damp=F
 DIIS: error= 1.05D-02 at cycle   3 NSaved=   3.
 NSaved= 3 IEnMin= 3 EnMin= -279.480462216791     IErMin= 3 ErrMin= 1.05D-02
 ErrMax= 1.05D-02  0.00D+00 EMaxC= 1.00D-01 BMatC= 2.92D-02 BMatP= 7.35D-02
 IDIUse=3 WtCom= 8.95D-01 WtEn= 1.05D-01
 Coeff-Com: -0.331D-01 0.377D+00 0.656D+00
 Coeff-En:   0.000D+00 0.240D+00 0.760D+00
 Coeff:     -0.297D-01 0.363D+00 0.667D+00
 Gap=     0.511 Goal=   None    Shift=    0.000
 RMSDP=3.80D-04 MaxDP=1.56D-02 DE=-2.99D-02 OVMax= 3.88D-02

 Cycle   4  Pass 1  IDiag  1:
 E= -279.499894657353     Delta-E=       -0.019432440562 Rises=F Damp=F
 DIIS: error= 1.30D-03 at cycle   4 NSaved=   4.
 NSaved= 4 IEnMin= 4 EnMin= -279.499894657353     IErMin= 4 ErrMin= 1.30D-03
 ErrMax= 1.30D-03  0.00D+00 EMaxC= 1.00D-01 BMatC= 4.99D-04 BMatP= 2.92D-02
 IDIUse=3 WtCom= 9.87D-01 WtEn= 1.30D-02
 Coeff-Com: -0.117D-01 0.566D-01 0.158D+00 0.798D+00
 Coeff-En:   0.000D+00 0.000D+00 0.000D+00 0.100D+01
 Coeff:     -0.115D-01 0.558D-01 0.156D+00 0.800D+00
 Gap=     0.503 Goal=   None    Shift=    0.000
 RMSDP=9.09D-05 MaxDP=2.78D-03 DE=-1.94D-02 OVMax= 1.13D-02

 Cycle   5  Pass 1  IDiag  1:
 E= -279.500582401789     Delta-E=       -0.000687744437 Rises=F Damp=F
 DIIS: error= 7.41D-04 at cycle   5 NSaved=   5.
 NSaved= 5 IEnMin= 5 EnMin= -279.500582401789     IErMin= 5 ErrMin= 7.41D-04
 ErrMax= 7.41D-04  0.00D+00 EMaxC= 1.00D-01 BMatC= 8.83D-05 BMatP= 4.99D-04
 IDIUse=3 WtCom= 9.93D-01 WtEn= 7.41D-03
 Coeff-Com:  0.618D-02-0.724D-01-0.118D+00 0.193D-01 0.117D+01
 Coeff-En:   0.000D+00 0.000D+00 0.000D+00 0.000D+00 0.100D+01
 Coeff:      0.613D-02-0.719D-01-0.117D+00 0.192D-01 0.116D+01
 Gap=     0.503 Goal=   None    Shift=    0.000
 RMSDP=7.70D-05 MaxDP=2.13D-03 DE=-6.88D-04 OVMax= 1.12D-02

 Cycle   6  Pass 1  IDiag  1:
 E= -279.500903321969     Delta-E=       -0.000320920180 Rises=F Damp=F
 DIIS: error= 2.89D-04 at cycle   6 NSaved=   6.
 NSaved= 6 IEnMin= 6 EnMin= -279.500903321969     IErMin= 6 ErrMin= 2.89D-04
 ErrMax= 2.89D-04  0.00D+00 EMaxC= 1.00D-01 BMatC= 1.70D-05 BMatP= 8.83D-05
 IDIUse=3 WtCom= 9.97D-01 WtEn= 2.89D-03
 Coeff-Com:  0.523D-03 0.253D-02 0.618D-02-0.131D+00-0.243D+00 0.137D+01
 Coeff-En:   0.000D+00 0.000D+00 0.000D+00 0.000D+00 0.000D+00 0.100D+01
 Coeff:      0.521D-03 0.252D-02 0.616D-02-0.130D+00-0.243D+00 0.136D+01
 Gap=     0.503 Goal=   None    Shift=    0.000
 RMSDP=4.59D-05 MaxDP=1.27D-03 DE=-3.21D-04 OVMax= 5.65D-03

 Cycle   7  Pass 1  IDiag  1:
 E= -279.500977645998     Delta-E=       -0.000074324028 Rises=F Damp=F
 DIIS: error= 1.23D-04 at cycle   7 NSaved=   7.
 NSaved= 7 IEnMin= 7 EnMin= -279.500977645998     IErMin= 7 ErrMin= 1.23D-04
 ErrMax= 1.23D-04  0.00D+00 EMaxC= 1.00D-01 BMatC= 4.42D-06 BMatP= 1.70D-05
 IDIUse=3 WtCom= 9.99D-01 WtEn= 1.23D-03
 Coeff-Com: -0.950D-03 0.135D-01 0.265D-01-0.227D-01-0.283D+00 0.375D+00
 Coeff-Com:  0.892D+00
 Coeff-En:   0.000D+00 0.000D+00 0.000D+00 0.000D+00 0.000D+00 0.000D+00
 Coeff-En:   0.100D+01
 Coeff:     -0.949D-03 0.135D-01 0.264D-01-0.227D-01-0.282D+00 0.374D+00
 Coeff:      0.892D+00
 Gap=     0.503 Goal=   None    Shift=    0.000
 RMSDP=1.33D-05 MaxDP=3.79D-04 DE=-7.43D-05 OVMax= 1.56D-03

 Cycle   8  Pass 1  IDiag  1:
 E= -279.500986500228     Delta-E=       -0.000008854231 Rises=F Damp=F
 DIIS: error= 5.88D-05 at cycle   8 NSaved=   8.
 NSaved= 8 IEnMin= 8 EnMin= -279.500986500228     IErMin= 8 ErrMin= 5.88D-05
 ErrMax= 5.88D-05  0.00D+00 EMaxC= 1.00D-01 BMatC= 6.25D-07 BMatP= 4.42D-06
 IDIUse=1 WtCom= 1.00D+00 WtEn= 0.00D+00
 Coeff-Com: -0.448D-03 0.337D-02 0.750D-02 0.276D-01-0.395D-01-0.202D+00
 Coeff-Com:  0.190D+00 0.101D+01
 Coeff:     -0.448D-03 0.337D-02 0.750D-02 0.276D-01-0.395D-01-0.202D+00
 Coeff:      0.190D+00 0.101D+01
 Gap=     0.503 Goal=   None    Shift=    0.000
 RMSDP=6.88D-06 MaxDP=2.04D-04 DE=-8.85D-06 OVMax= 7.42D-04

 Cycle   9  Pass 1  IDiag  1:
 E= -279.500988296503     Delta-E=       -0.000001796274 Rises=F Damp=F
 DIIS: error= 1.64D-05 at cycle   9 NSaved=   9.
 NSaved= 9 IEnMin= 9 EnMin= -279.500988296503     IErMin= 9 ErrMin= 1.64D-05
 ErrMax= 1.64D-05  0.00D+00 EMaxC= 1.00D-01 BMatC= 7.31D-08 BMatP= 6.25D-07
 IDIUse=1 WtCom= 1.00D+00 WtEn= 0.00D+00
 Coeff-Com:  0.128D-03-0.176D-02-0.314D-02-0.231D-02 0.348D-01 0.132D-02
 Coeff-Com: -0.175D+00-0.101D+00 0.125D+01
 Coeff:      0.128D-03-0.176D-02-0.314D-02-0.231D-02 0.348D-01 0.132D-02
 Coeff:     -0.175D+00-0.101D+00 0.125D+01
 Gap=     0.503 Goal=   None    Shift=    0.000
 RMSDP=1.99D-06 MaxDP=6.89D-05 DE=-1.80D-06 OVMax= 1.83D-04

 Cycle  10  Pass 1  IDiag  1:
 E= -279.500988466431     Delta-E=       -0.000000169928 Rises=F Damp=F
 DIIS: error= 4.22D-06 at cycle  10 NSaved=  10.
 NSaved=10 IEnMin=10 EnMin= -279.500988466431     IErMin=10 ErrMin= 4.22D-06
 ErrMax= 4.22D-06  0.00D+00 EMaxC= 1.00D-01 BMatC= 5.87D-09 BMatP= 7.31D-08
 IDIUse=1 WtCom= 1.00D+00 WtEn= 0.00D+00
 Coeff-Com:  0.296D-04-0.221D-03-0.280D-03-0.272D-02 0.119D-02 0.200D-01
 Coeff-Com: -0.126D-01-0.717D-01-0.930D-01 0.116D+01
 Coeff:      0.296D-04-0.221D-03-0.280D-03-0.272D-02 0.119D-02 0.200D-01
 Coeff:     -0.126D-01-0.717D-01-0.930D-01 0.116D+01
 Gap=     0.503 Goal=   None    Shift=    0.000
 RMSDP=5.21D-07 MaxDP=2.18D-05 DE=-1.70D-07 OVMax= 4.43D-05

 Cycle  11  Pass 1  IDiag  1:
 E= -279.500988479916     Delta-E=       -0.000000013485 Rises=F Damp=F
 DIIS: error= 2.12D-06 at cycle  11 NSaved=  11.
 NSaved=11 IEnMin=11 EnMin= -279.500988479916     IErMin=11 ErrMin= 2.12D-06
 ErrMax= 2.12D-06  0.00D+00 EMaxC= 1.00D-01 BMatC= 7.09D-10 BMatP= 5.87D-09
 IDIUse=1 WtCom= 1.00D+00 WtEn= 0.00D+00
 Coeff-Com: -0.220D-04 0.249D-03 0.498D-03 0.561D-03-0.436D-02-0.381D-02
 Coeff-Com:  0.226D-01 0.306D-01-0.141D+00-0.178D+00 0.127D+01
 Coeff:     -0.220D-04 0.249D-03 0.498D-03 0.561D-03-0.436D-02-0.381D-02
 Coeff:      0.226D-01 0.306D-01-0.141D+00-0.178D+00 0.127D+01
 Gap=     0.503 Goal=   None    Shift=    0.000
 RMSDP=1.86D-07 MaxDP=6.81D-06 DE=-1.35D-08 OVMax= 1.80D-05

 Cycle  12  Pass 1  IDiag  1:
 E= -279.500988481883     Delta-E=       -0.000000001967 Rises=F Damp=F
 DIIS: error= 6.04D-07 at cycle  12 NSaved=  12.
 NSaved=12 IEnMin=12 EnMin= -279.500988481883     IErMin=12 ErrMin= 6.04D-07
 ErrMax= 6.04D-07  0.00D+00 EMaxC= 1.00D-01 BMatC= 7.71D-11 BMatP= 7.09D-10
 IDIUse=1 WtCom= 1.00D+00 WtEn= 0.00D+00
 Coeff-Com:  0.136D-05-0.307D-04-0.661D-04 0.191D-03 0.112D-02-0.240D-02
 Coeff-Com: -0.425D-02 0.569D-02 0.426D-01-0.119D+00-0.267D+00 0.134D+01
 Coeff:      0.136D-05-0.307D-04-0.661D-04 0.191D-03 0.112D-02-0.240D-02
 Coeff:     -0.425D-02 0.569D-02 0.426D-01-0.119D+00-0.267D+00 0.134D+01
 Gap=     0.503 Goal=   None    Shift=    0.000
 RMSDP=7.48D-08 MaxDP=2.94D-06 DE=-1.97D-09 OVMax= 6.92D-06

 Cycle  13  Pass 1  IDiag  1:
 E= -279.500988482131     Delta-E=       -0.000000000247 Rises=F Damp=F
 DIIS: error= 1.76D-07 at cycle  13 NSaved=  13.
 NSaved=13 IEnMin=13 EnMin= -279.500988482131     IErMin=13 ErrMin= 1.76D-07
 ErrMax= 1.76D-07  0.00D+00 EMaxC= 1.00D-01 BMatC= 4.31D-12 BMatP= 7.71D-11
 IDIUse=1 WtCom= 1.00D+00 WtEn= 0.00D+00
 Coeff-Com:  0.131D-05-0.142D-04-0.228D-04-0.931D-04 0.123D-03 0.792D-03
 Coeff-Com: -0.945D-03-0.325D-02 0.656D-03 0.420D-01-0.400D-01-0.319D+00
 Coeff-Com:  0.132D+01
 Coeff:      0.131D-05-0.142D-04-0.228D-04-0.931D-04 0.123D-03 0.792D-03
 Coeff:     -0.945D-03-0.325D-02 0.656D-03 0.420D-01-0.400D-01-0.319D+00
 Coeff:      0.132D+01
 Gap=     0.503 Goal=   None    Shift=    0.000
 RMSDP=1.98D-08 MaxDP=5.82D-07 DE=-2.47D-10 OVMax= 1.60D-06

 Cycle  14  Pass 1  IDiag  1:
 E= -279.500988482144     Delta-E=       -0.000000000013 Rises=F Damp=F
 DIIS: error= 2.52D-08 at cycle  14 NSaved=  14.
 NSaved=14 IEnMin=14 EnMin= -279.500988482144     IErMin=14 ErrMin= 2.52D-08
 ErrMax= 2.52D-08  0.00D+00 EMaxC= 1.00D-01 BMatC= 2.10D-13 BMatP= 4.31D-12
 IDIUse=1 WtCom= 1.00D+00 WtEn= 0.00D+00
 Coeff-Com: -0.193D-06 0.315D-05 0.562D-05 0.449D-05-0.837D-04 0.479D-04
 Coeff-Com:  0.293D-03 0.214D-03-0.247D-02 0.162D-02 0.167D-01-0.258D-01
 Coeff-Com: -0.198D+00 0.121D+01
 Coeff:     -0.193D-06 0.315D-05 0.562D-05 0.449D-05-0.837D-04 0.479D-04
 Coeff:      0.293D-03 0.214D-03-0.247D-02 0.162D-02 0.167D-01-0.258D-01
 Coeff:     -0.198D+00 0.121D+01
 Gap=     0.503 Goal=   None    Shift=    0.000
 RMSDP=3.90D-09 MaxDP=9.41D-08 DE=-1.34D-11 OVMax= 3.52D-07

 SCF Done:  E(RHF) =  -279.500988482     A.U. after   14 cycles
            NFock= 14  Conv=0.39D-08     -V/T= 2.0024
 KE= 2.788261331609D+02 PE=-8.948156606433D+02 EE= 2.197364624477D+02
 Leave Link  502 at Mon Feb 14 21:59:34 2022, MaxMem= 16106127360 cpu:              55.3 elap:               3.7
 (Enter /sw/contrib/gaussian/g16/B01/g16/l801.exe)
 ExpMin= 2.53D-02 ExpMax= 1.53D+04 ExpMxC= 5.22D+02 IAcc=3 IRadAn=         5 AccDes= 0.00D+00
 HarFok:  IExCor=  205 AccDes= 0.00D+00 IRadAn=         5 IDoV=-2 UseB2=F ITyADJ=14
 ICtDFT= 12500011 ScaDFX=  1.000000  1.000000  1.000000  1.000000
 Largest valence mixing into a core orbital is  2.09D-04
 Largest core mixing into a valence orbital is  3.64D-05
 Range of M.O.s used for correlation:     5   207
 NBasis=   207 NAE=    16 NBE=    16 NFC=     4 NFV=     0
 NROrb=    203 NOA=    12 NOB=    12 NVA=   191 NVB=   191

 **** Warning!!: The largest alpha MO coefficient is  0.17665994D+02

 Leave Link  801 at Mon Feb 14 21:59:34 2022, MaxMem= 16106127360 cpu:               2.2 elap:               0.1
 (Enter /sw/contrib/gaussian/g16/B01/g16/l906.exe)
 Frozen-core derivative calculation, NFC=   4 NFV=   0.
 FulOut=F Deriv=T AODrv=F NAtomX=     5
   MMem=          76  MDisk=          12 MDiskD=          12
  W3Min=      811440 MinDsk=     1524655 NBas6D=         245
 NBas2D=       30762    NTT=       30135    LW2=     3500000
    MDV= 16105579927 MDiskM=      328644 NBas2p=       30466
 Fully in-core method, ICMem=   960157634.
 IMap=   1   2   3   4   5   6   7   8   9  10  11  12  13  14  15  16
 JobTyp=1 Pass  1 fully in-core, NPsUse= 28.
 Compute canonical integrals.
 FoFCou: FMM=F IPFlag=           0 FMFlag=           0 FMFlg1=           0
         NFxFlg=           0 DoJE=F BraDBF=F KetDBF=F FulRan=T
         wScrn=  0.000000 ICntrl=       600 IOpCl=  1 I1Cent=           0 NGrid=           0
         NMat0=    1 NMatS0=  30762 NMatT0=    0 NMatD0=    1 NMtDS0=    0 NMtDT0=    0
 Symmetry not used in FoFCou.
 Spin components of T(2) and E(2):
     alpha-alpha T2 =       0.3410756219D-01 E2=     -0.1224914533D+00
     alpha-beta  T2 =       0.1873092100D+00 E2=     -0.7007436829D+00
     beta-beta   T2 =       0.3410756219D-01 E2=     -0.1224914533D+00
 The integrals were generated   1 times.
 ANorm=    0.1120501823D+01
 E2 =    -0.9457265895D+00 EUMP2 =    -0.28044671507166D+03
 Leave Link  906 at Mon Feb 14 21:59:43 2022, MaxMem= 16106127360 cpu:             251.2 elap:               9.0
 (Enter /sw/contrib/gaussian/g16/B01/g16/l1002.exe)
 Minotr:  Closed shell wavefunction.
          Computing MP2/KS-MP2 derivatives.
          Using Z-Vector for PSCF gradient.
          Skipping F1 and S1 gradient terms here.
          Frozen-core window.
          Direct CPHF calculation.
          Differentiating once with respect to electric field.
                with respect to dipole field.
          Electric field/nuclear overlap derivatives assumed to be zero.
          Using symmetry in CPHF.
          Requested convergence is 1.0D-10 RMS, and 1.0D-09 maximum.
          NewPWx=F KeepS1=T KeepF1=T KeepIn=T MapXYZ=F SortEE=F KeepMc=T.
 Keep R1 ints in memory in symmetry-blocked form, NReq=348888868.
 FoFCou: FMM=F IPFlag=           0 FMFlag=           0 FMFlg1=           0
         NFxFlg=           0 DoJE=F BraDBF=F KetDBF=F FulRan=T
         wScrn=  0.000000 ICntrl=       600 IOpCl=  0 I1Cent=           0 NGrid=           0
         NMat0=    1 NMatS0=  21528 NMatT0=    0 NMatD0=    1 NMtDS0=    0 NMtDT0=    0
 Petite list used in FoFCou.
          MDV=   16106127360 using IRadAn=       5.
          Solving linear equations separately, MaxMat=       0.
          There are     1 degrees of freedom in the 1st order CPHF.  IDoFFX=0 NUNeed=     1.
 LinEq1:  Iter=  0 NonCon=     1 RMS=5.98D-03 Max=1.34D-01 NDo=     1
 AX will form     1 AO Fock derivatives at one time.
 LinEq1:  Iter=  1 NonCon=     1 RMS=1.92D-03 Max=3.88D-02 NDo=     1
 LinEq1:  Iter=  2 NonCon=     1 RMS=8.76D-04 Max=1.42D-02 NDo=     1
 LinEq1:  Iter=  3 NonCon=     1 RMS=3.91D-04 Max=8.00D-03 NDo=     1
 LinEq1:  Iter=  4 NonCon=     1 RMS=1.21D-04 Max=1.93D-03 NDo=     1
 LinEq1:  Iter=  5 NonCon=     1 RMS=4.68D-05 Max=7.46D-04 NDo=     1
 LinEq1:  Iter=  6 NonCon=     1 RMS=2.09D-05 Max=2.39D-04 NDo=     1
 LinEq1:  Iter=  7 NonCon=     1 RMS=8.38D-06 Max=1.62D-04 NDo=     1
 LinEq1:  Iter=  8 NonCon=     1 RMS=3.57D-06 Max=3.49D-05 NDo=     1
 LinEq1:  Iter=  9 NonCon=     1 RMS=9.69D-07 Max=1.33D-05 NDo=     1
 LinEq1:  Iter= 10 NonCon=     1 RMS=1.90D-07 Max=2.06D-06 NDo=     1
 LinEq1:  Iter= 11 NonCon=     1 RMS=3.53D-08 Max=3.65D-07 NDo=     1
 LinEq1:  Iter= 12 NonCon=     1 RMS=8.52D-09 Max=1.32D-07 NDo=     1
 LinEq1:  Iter= 13 NonCon=     1 RMS=1.54D-09 Max=2.64D-08 NDo=     1
 LinEq1:  Iter= 14 NonCon=     1 RMS=2.79D-10 Max=3.91D-09 NDo=     1
 LinEq1:  Iter= 15 NonCon=     0 RMS=4.98D-11 Max=5.56D-10 NDo=     1
 Linear equations converged to 1.000D-10 1.000D-09 after    15 iterations.
 End of Minotr F.D. properties file   721 does not exist.
 End of Minotr F.D. properties file   722 does not exist.
 End of Minotr F.D. properties file   788 does not exist.
 Leave Link 1002 at Mon Feb 14 21:59:47 2022, MaxMem= 16106127360 cpu:              53.0 elap:               3.9
 (Enter /sw/contrib/gaussian/g16/B01/g16/l601.exe)
 Copying SCF densities to generalized density rwf, IOpCl= 0 IROHF=0.

 **********************************************************************

            Population analysis using the MP2 Density.

 **********************************************************************

 Orbital symmetries:
       Occupied  (A') (A') (A') (A') (A') (A') (A') (A') (A') (A')
                 (A") (A') (A") (A') (A") (A')
       Virtual   (A') (A") (A') (A') (A') (A") (A') (A') (A") (A')
                 (A") (A') (A') (A') (A") (A') (A') (A") (A') (A')
                 (A') (A') (A') (A') (A") (A') (A') (A") (A') (A')
                 (A") (A') (A") (A') (A') (A") (A') (A') (A") (A')
                 (A") (A') (A") (A') (A') (A") (A') (A') (A") (A')
                 (A") (A') (A') (A') (A") (A') (A") (A') (A") (A')
                 (A') (A') (A") (A') (A') (A") (A') (A") (A') (A')
                 (A") (A') (A') (A") (A") (A') (A') (A") (A') (A')
                 (A') (A") (A') (A") (A') (A") (A') (A") (A') (A')
                 (A") (A') (A') (A") (A') (A") (A') (A") (A') (A')
                 (A") (A') (A") (A') (A') (A") (A') (A') (A") (A')
                 (A") (A') (A') (A') (A") (A') (A') (A') (A") (A')
                 (A") (A') (A") (A') (A') (A") (A") (A') (A") (A')
                 (A') (A') (A') (A") (A") (A") (A') (A') (A') (A')
                 (A") (A') (A") (A') (A') (A") (A') (A') (A') (A')
                 (A") (A') (A') (A") (A') (A") (A') (A") (A') (A")
                 (A') (A") (A') (A') (A") (A") (A") (A') (A") (A')
                 (A") (A') (A") (A') (A") (A') (A") (A") (A') (A')
                 (A') (A') (A') (A') (A') (A') (A') (A') (A') (A')
                 (A')
 The electronic state is 1-A'.
 Alpha  occ. eigenvalues --  -20.69181 -20.68413 -20.66049 -15.81341  -1.62086
 Alpha  occ. eigenvalues --   -1.49567  -1.25481  -0.94861  -0.77234  -0.75814
 Alpha  occ. eigenvalues --   -0.71102  -0.67889  -0.61964  -0.58968  -0.48555
 Alpha  occ. eigenvalues --   -0.47327
 Alpha virt. eigenvalues --    0.02952   0.07045   0.08601   0.10172   0.13390
 Alpha virt. eigenvalues --    0.13403   0.14399   0.15444   0.17819   0.19422
 Alpha virt. eigenvalues --    0.19966   0.20636   0.22068   0.23509   0.23735
 Alpha virt. eigenvalues --    0.26600   0.29303   0.30373   0.31028   0.34348
 Alpha virt. eigenvalues --    0.34960   0.38707   0.42181   0.43159   0.52741
 Alpha virt. eigenvalues --    0.52865   0.55825   0.58156   0.62378   0.63847
 Alpha virt. eigenvalues --    0.67569   0.68419   0.70635   0.71104   0.72397
 Alpha virt. eigenvalues --    0.72917   0.74468   0.79134   0.79180   0.81045
 Alpha virt. eigenvalues --    0.81235   0.82956   0.86790   0.90792   0.92158
 Alpha virt. eigenvalues --    0.92595   0.95639   0.97667   0.98429   1.01627
 Alpha virt. eigenvalues --    1.05174   1.05452   1.08159   1.11711   1.14081
 Alpha virt. eigenvalues --    1.18925   1.22021   1.23208   1.33855   1.35020
 Alpha virt. eigenvalues --    1.38560   1.45326   1.48759   1.50848   1.53792
 Alpha virt. eigenvalues --    1.56694   1.57981   1.61295   1.66324   1.66946
 Alpha virt. eigenvalues --    1.70341   1.79296   1.83162   1.83456   1.87723
 Alpha virt. eigenvalues --    1.91014   1.95726   1.99113   2.00585   2.07752
 Alpha virt. eigenvalues --    2.12086   2.13162   2.14947   2.22424   2.26415
 Alpha virt. eigenvalues --    2.26443   2.28920   2.31386   2.34280   2.38578
 Alpha virt. eigenvalues --    2.42354   2.42788   2.45406   2.46230   2.47608
 Alpha virt. eigenvalues --    2.50051   2.58892   2.59580   2.62019   2.62309
 Alpha virt. eigenvalues --    2.63405   2.66634   2.75596   2.82311   2.85382
 Alpha virt. eigenvalues --    2.88237   2.89301   2.92265   2.95705   3.02423
 Alpha virt. eigenvalues --    3.06874   3.12034   3.20430   3.22555   3.31589
 Alpha virt. eigenvalues --    3.34105   3.51532   3.64308   3.83783   3.84323
 Alpha virt. eigenvalues --    4.14819   4.16243   4.18313   4.24815   4.35115
 Alpha virt. eigenvalues --    4.39261   4.46220   4.51836   4.65694   4.70986
 Alpha virt. eigenvalues --    4.80304   4.82397   4.82793   4.89599   5.02385
 Alpha virt. eigenvalues --    5.07714   5.10186   5.14616   5.17773   5.24094
 Alpha virt. eigenvalues --    5.27179   5.30853   5.32893   5.35172   5.60550
 Alpha virt. eigenvalues --    5.66709   5.76571   5.82726   5.95886   6.16753
 Alpha virt. eigenvalues --    6.30796   6.33787   6.39381   6.49361   6.50534
 Alpha virt. eigenvalues --    6.61315   6.66744   6.69789   6.75710   6.76266
 Alpha virt. eigenvalues --    6.83023   6.89679   7.01215   7.05516   7.05623
 Alpha virt. eigenvalues --    7.08948   7.12242   7.14863   7.18095   7.22213
 Alpha virt. eigenvalues --    7.24084   7.30508   7.31689   7.34475   7.39620
 Alpha virt. eigenvalues --    7.43076   7.48398   7.60708   7.61093   7.62258
 Alpha virt. eigenvalues --    7.66464   7.78580   7.88028   8.09116   8.31306
 Alpha virt. eigenvalues --    8.40869   8.54335  13.38311  14.36103  15.15996
 Alpha virt. eigenvalues --   16.03345
          Condensed to atoms (all electrons):
               1          2          3          4          5
     1  H    0.589431   0.128389   0.020061   0.012371  -0.000649
     2  O    0.128389   8.321341  -0.173526  -0.090423   0.015490
     3  O    0.020061  -0.173526   8.466118  -0.128397  -0.037964
     4  N    0.012371  -0.090423  -0.128397   6.970435  -0.055295
     5  O   -0.000649   0.015490  -0.037964  -0.055295   8.272560
 Mulliken charges:
               1
     1  H    0.250397
     2  O   -0.201271
     3  O   -0.146292
     4  N    0.291308
     5  O   -0.194142
 Sum of Mulliken charges =  -0.00000
 Mulliken charges with hydrogens summed into heavy atoms:
               1
     2  O    0.049126
     3  O   -0.146292
     4  N    0.291308
     5  O   -0.194142
 Electronic spatial extent (au):  <R**2>=            253.2657
 Charge=             -0.0000 electrons
 Dipole moment (field-independent basis, Debye):
    X=              0.5231    Y=              1.3782    Z=              0.0000  Tot=              1.4741
 Quadrupole moment (field-independent basis, Debye-Ang):
   XX=            -22.4896   YY=            -18.6158   ZZ=            -22.0169
   XY=              3.2428   XZ=             -0.0000   YZ=              0.0000
 Traceless Quadrupole moment (field-independent basis, Debye-Ang):
   XX=             -1.4488   YY=              2.4250   ZZ=             -0.9762
   XY=              3.2428   XZ=             -0.0000   YZ=              0.0000
 Octapole moment (field-independent basis, Debye-Ang**2):
  XXX=              2.8915  YYY=             11.3963  ZZZ=             -0.0000  XYY=              7.9463
  XXY=              6.5929  XXZ=              0.0000  XZZ=             -1.5654  YZZ=             -0.8412
  YYZ=              0.0000  XYZ=              0.0000
 Hexadecapole moment (field-independent basis, Debye-Ang**3):
 XXXX=           -158.6154 YYYY=            -90.0030 ZZZZ=            -18.2475 XXXY=            -36.8299
 XXXZ=             -0.0000 YYYX=            -30.8543 YYYZ=             -0.0000 ZZZX=             -0.0000
 ZZZY=             -0.0000 XXYY=            -34.0449 XXZZ=            -30.8948 YYZZ=            -20.7288
 XXYZ=             -0.0000 YYXZ=             -0.0000 ZZXY=            -15.1072
 N-N= 1.167520765526D+02 E-N=-8.956043902896D+02  KE= 2.801807936618D+02
 Symmetry A'   KE= 2.662110570949D+02
 Symmetry A"   KE= 1.396973656684D+01
 No NMR shielding tensors so no spin-rotation constants.
 Leave Link  601 at Mon Feb 14 21:59:48 2022, MaxMem= 16106127360 cpu:               4.5 elap:               0.2
 (Enter /sw/contrib/gaussian/g16/B01/g16/l9999.exe)
 1\1\GINC-N2218\SP\RMP2-FC\Aug-CC-pVTZ\H1N1O3\CGAVINH\14-Feb-2022\0\\#p
  SP mp2/aug-cc-pvtz density=current\\title\\0,1\H\O,1,0.96897556\O,2,1
 .45491931,1,97.59494903\N,3,1.45878406,2,102.29752444,1,180.,0\O,4,1.1
 746926326,3,109.06955123,2,180.,0\\Version=ES64L-G16RevB.01\State=1-A'
 \HF=-279.5009885\MP2=-280.4467151\RMSD=3.898e-09\Dipole=-0.1524248,0.,
 -0.5595699\Quadrupole=-1.5140892,-0.7257636,2.2398528,0.,2.0888343,0.\
 PG=CS [SG(H1N1O3)]\\@


 SUCCESS IS COUNTED SWEETEST
 BY THOSE WHO NE'ER SUCCEED.
 TO COMPREHEND NECTAR
 REQUIRES SOREST NEED.
           EMILY DICKINSON
 Job cpu time:       0 days  0 hours  6 minutes 31.3 seconds.
 Elapsed time:       0 days  0 hours  0 minutes 18.1 seconds.
 File lengths (MBytes):  RWF=     22 Int=      0 D2E=      0 Chk=      8 Scr=      1
 Normal termination of Gaussian 16 at Mon Feb 14 21:59:48 2022.
