title                                                                   
SP        RMP2-FC                                                     Aug-CC-pVTZ         
Number of atoms                            I                5
Info1-9                                    I   N=           9
          33          24           0           0           0         110
           1           2           1
Full Title                                 C   N=           1
title       
Route                                      C   N=           4
#p SP mp2/aug-cc-pvtz density=current           
Charge                                     I                0
Multiplicity                               I                1
Number of electrons                        I               32
Number of alpha electrons                  I               16
Number of beta electrons                   I               16
Number of basis functions                  I              207
Number of independent functions            I              207
Number of point charges in /Mol/           I                0
Number of translation vectors              I                0
Atomic numbers                             I   N=           5
           1           8           8           7           8
Nuclear charges                            R   N=           5
  1.00000000E+00  8.00000000E+00  8.00000000E+00  7.00000000E+00  8.00000000E+00
Current cartesian coordinates              R   N=          15
  2.95503826E+00  3.18375123E+00  5.31354277E-32  2.74784180E+00  1.36441314E+00
 -4.52192348E-31  4.53216148E-17  1.27189030E+00  1.34099635E-31 -4.96172424E-01
 -1.43979198E+00 -3.21010548E-31 -2.68307071E+00 -1.77445436E+00  2.31269093E-31
Number of symbols in /Mol/                 I                0
Force Field                                I                0
Atom Types                                 C   N=           5
                                                            
Int Atom Types                             I   N=           5
           0           0           0           0           0
MM charges                                 R   N=           5
  0.00000000E+00  0.00000000E+00  0.00000000E+00  0.00000000E+00  0.00000000E+00
Integer atomic weights                     I   N=           5
           1          16          16          14          16
Real atomic weights                        R   N=           5
  1.00782504E+00  1.59949146E+01  1.59949146E+01  1.40030740E+01  1.59949146E+01
Atom fragment info                         I   N=           5
           0           0           0           0           0
Atom residue num                           I   N=           5
           0           0           0           0           0
Nuclear spins                              I   N=           5
           1           0           0           2           0
Nuclear ZEff                               R   N=           5
 -1.00000000E+00 -5.60000000E+00 -5.60000000E+00 -4.55000000E+00 -5.60000000E+00
Nuclear ZNuc                               R   N=           5
  1.00000000E+00  8.00000000E+00  8.00000000E+00  7.00000000E+00  8.00000000E+00
Nuclear QMom                               R   N=           5
  0.00000000E+00  0.00000000E+00  0.00000000E+00  2.04400000E+00  0.00000000E+00
Nuclear GFac                               R   N=           5
  2.79284600E+00  0.00000000E+00  0.00000000E+00  4.03761000E-01  0.00000000E+00
MicOpt                                     I   N=           5
          -1          -1          -1          -1          -1
Number of residues                         I                0
Number of secondary structures             I                0
SymInf integers                            I   N=          26
           1           2           1           1           1           1
           1          -1           0           0           0           0
           0           0           0           0           0           0
           0           0           0           0           0           0
           0           0
RotTr to input orientation                 R   N=          12
 -9.93577440E-01 -8.73536213E-16 -1.13154192E-01  1.13154192E-01  7.91760513E-16
 -9.93577440E-01  9.57516895E-16 -1.00000000E+00 -6.87831099E-16  2.57580455E+00
  0.00000000E+00  3.49767836E+00
Number of contracted shells                I               65
Number of primitive shells                 I              119
Pure/Cartesian d shells                    I                0
Pure/Cartesian f shells                    I                0
Highest angular momentum                   I                3
Largest degree of contraction              I                7
Shell types                                I   N=          65
           0           0           0           0           1           1
           1          -2          -2           0           0           0
           0           0           1           1           1           1
          -2          -2          -2          -3          -3           0
           0           0           0           0           1           1
           1           1          -2          -2          -2          -3
          -3           0           0           0           0           0
           1           1           1           1          -2          -2
          -2          -3          -3           0           0           0
           0           0           1           1           1           1
          -2          -2          -2          -3          -3
Number of primitives per shell             I   N=          65
           3           1           1           1           1           1
           1           1           1           7           6           1
           1           1           3           1           1           1
           1           1           1           1           1           7
           6           1           1           1           3           1
           1           1           1           1           1           1
           1           7           6           1           1           1
           3           1           1           1           1           1
           1           1           1           7           6           1
           1           1           3           1           1           1
           1           1           1           1           1
Shell to atom map                          I   N=          65
           1           1           1           1           1           1
           1           1           1           2           2           2
           2           2           2           2           2           2
           2           2           2           2           2           3
           3           3           3           3           3           3
           3           3           3           3           3           3
           3           4           4           4           4           4
           4           4           4           4           4           4
           4           4           4           5           5           5
           5           5           5           5           5           5
           5           5           5           5           5
Primitive exponents                        R   N=         119
  3.38700000E+01  5.09500000E+00  1.15900000E+00  3.25800000E-01  1.02700000E-01
  2.52600000E-02  1.40700000E+00  3.88000000E-01  1.02000000E-01  1.05700000E+00
  2.47000000E-01  1.53300000E+04  2.29900000E+03  5.22400000E+02  1.47300000E+02
  4.75500000E+01  1.67600000E+01  6.20700000E+00  5.22400000E+02  1.47300000E+02
  4.75500000E+01  1.67600000E+01  6.20700000E+00  6.88200000E-01  1.75200000E+00
  2.38400000E-01  7.37600000E-02  3.44600000E+01  7.74900000E+00  2.28000000E+00
  7.15600000E-01  2.14000000E-01  5.97400000E-02  2.31400000E+00  6.45000000E-01
  2.14000000E-01  1.42800000E+00  5.00000000E-01  1.53300000E+04  2.29900000E+03
  5.22400000E+02  1.47300000E+02  4.75500000E+01  1.67600000E+01  6.20700000E+00
  5.22400000E+02  1.47300000E+02  4.75500000E+01  1.67600000E+01  6.20700000E+00
  6.88200000E-01  1.75200000E+00  2.38400000E-01  7.37600000E-02  3.44600000E+01
  7.74900000E+00  2.28000000E+00  7.15600000E-01  2.14000000E-01  5.97400000E-02
  2.31400000E+00  6.45000000E-01  2.14000000E-01  1.42800000E+00  5.00000000E-01
  1.14200000E+04  1.71200000E+03  3.89300000E+02  1.10000000E+02  3.55700000E+01
  1.25400000E+01  4.64400000E+00  3.89300000E+02  1.10000000E+02  3.55700000E+01
  1.25400000E+01  4.64400000E+00  5.11800000E-01  1.29300000E+00  1.78700000E-01
  5.76000000E-02  2.66300000E+01  5.94800000E+00  1.74200000E+00  5.55000000E-01
  1.72500000E-01  4.91000000E-02  1.65400000E+00  4.69000000E-01  1.51000000E-01
  1.09300000E+00  3.64000000E-01  1.53300000E+04  2.29900000E+03  5.22400000E+02
  1.47300000E+02  4.75500000E+01  1.67600000E+01  6.20700000E+00  5.22400000E+02
  1.47300000E+02  4.75500000E+01  1.67600000E+01  6.20700000E+00  6.88200000E-01
  1.75200000E+00  2.38400000E-01  7.37600000E-02  3.44600000E+01  7.74900000E+00
  2.28000000E+00  7.15600000E-01  2.14000000E-01  5.97400000E-02  2.31400000E+00
  6.45000000E-01  2.14000000E-01  1.42800000E+00  5.00000000E-01
Contraction coefficients                   R   N=         119
  2.54948632E-02  1.90362766E-01  8.52162022E-01  1.00000000E+00  1.00000000E+00
  1.00000000E+00  1.00000000E+00  1.00000000E+00  1.00000000E+00  1.00000000E+00
  1.00000000E+00  5.19808943E-04  4.02025621E-03  2.07128267E-02  8.10105536E-02
  2.35962985E-01  4.42653446E-01  3.57064423E-01 -4.42115008E-05 -1.22591041E-03
 -1.05517725E-02 -6.74452633E-02 -1.71198607E-01  1.07329856E+00  1.00000000E+00
  1.00000000E+00  1.00000000E+00  4.11634896E-02  2.57762836E-01  8.02419274E-01
  1.00000000E+00  1.00000000E+00  1.00000000E+00  1.00000000E+00  1.00000000E+00
  1.00000000E+00  1.00000000E+00  1.00000000E+00  5.19808943E-04  4.02025621E-03
  2.07128267E-02  8.10105536E-02  2.35962985E-01  4.42653446E-01  3.57064423E-01
 -4.42115008E-05 -1.22591041E-03 -1.05517725E-02 -6.74452633E-02 -1.71198607E-01
  1.07329856E+00  1.00000000E+00  1.00000000E+00  1.00000000E+00  4.11634896E-02
  2.57762836E-01  8.02419274E-01  1.00000000E+00  1.00000000E+00  1.00000000E+00
  1.00000000E+00  1.00000000E+00  1.00000000E+00  1.00000000E+00  1.00000000E+00
  5.34563860E-04  4.13435660E-03  2.12335358E-02  8.25006224E-02  2.38138871E-01
  4.42551547E-01  3.53757422E-01 -4.89867350E-05 -1.19527323E-03 -1.03490714E-02
 -6.48680190E-02 -1.71552477E-01  1.07289568E+00  1.00000000E+00  1.00000000E+00
  1.00000000E+00  3.98072123E-02  2.49002660E-01  8.10479727E-01  1.00000000E+00
  1.00000000E+00  1.00000000E+00  1.00000000E+00  1.00000000E+00  1.00000000E+00
  1.00000000E+00  1.00000000E+00  5.19808943E-04  4.02025621E-03  2.07128267E-02
  8.10105536E-02  2.35962985E-01  4.42653446E-01  3.57064423E-01 -4.42115008E-05
 -1.22591041E-03 -1.05517725E-02 -6.74452633E-02 -1.71198607E-01  1.07329856E+00
  1.00000000E+00  1.00000000E+00  1.00000000E+00  4.11634896E-02  2.57762836E-01
  8.02419274E-01  1.00000000E+00  1.00000000E+00  1.00000000E+00  1.00000000E+00
  1.00000000E+00  1.00000000E+00  1.00000000E+00  1.00000000E+00
Coordinates of each shell                  R   N=         195
  2.95503826E+00  3.18375123E+00 -6.54319675E-32  2.95503826E+00  3.18375123E+00
 -6.54319675E-32  2.95503826E+00  3.18375123E+00 -6.54319675E-32  2.95503826E+00
  3.18375123E+00 -6.54319675E-32  2.95503826E+00  3.18375123E+00 -6.54319675E-32
  2.95503826E+00  3.18375123E+00 -6.54319675E-32  2.95503826E+00  3.18375123E+00
 -6.54319675E-32  2.95503826E+00  3.18375123E+00 -6.54319675E-32  2.95503826E+00
  3.18375123E+00 -6.54319675E-32  2.74784180E+00  1.36441314E+00 -2.95410039E-31
  2.74784180E+00  1.36441314E+00 -2.95410039E-31  2.74784180E+00  1.36441314E+00
 -2.95410039E-31  2.74784180E+00  1.36441314E+00 -2.95410039E-31  2.74784180E+00
  1.36441314E+00 -2.95410039E-31  2.74784180E+00  1.36441314E+00 -2.95410039E-31
  2.74784180E+00  1.36441314E+00 -2.95410039E-31  2.74784180E+00  1.36441314E+00
 -2.95410039E-31  2.74784180E+00  1.36441314E+00 -2.95410039E-31  2.74784180E+00
  1.36441314E+00 -2.95410039E-31  2.74784180E+00  1.36441314E+00 -2.95410039E-31
  2.74784180E+00  1.36441314E+00 -2.95410039E-31  2.74784180E+00  1.36441314E+00
 -2.95410039E-31  2.74784180E+00  1.36441314E+00 -2.95410039E-31 -9.39219332E-18
  1.27189030E+00  1.86918842E-31 -9.39219332E-18  1.27189030E+00  1.86918842E-31
 -9.39219332E-18  1.27189030E+00  1.86918842E-31 -9.39219332E-18  1.27189030E+00
  1.86918842E-31 -9.39219332E-18  1.27189030E+00  1.86918842E-31 -9.39219332E-18
  1.27189030E+00  1.86918842E-31 -9.39219332E-18  1.27189030E+00  1.86918842E-31
 -9.39219332E-18  1.27189030E+00  1.86918842E-31 -9.39219332E-18  1.27189030E+00
  1.86918842E-31 -9.39219332E-18  1.27189030E+00  1.86918842E-31 -9.39219332E-18
  1.27189030E+00  1.86918842E-31 -9.39219332E-18  1.27189030E+00  1.86918842E-31
 -9.39219332E-18  1.27189030E+00  1.86918842E-31 -9.39219332E-18  1.27189030E+00
  1.86918842E-31 -4.96172424E-01 -1.43979198E+00 -1.22045497E-31 -4.96172424E-01
 -1.43979198E+00 -1.22045497E-31 -4.96172424E-01 -1.43979198E+00 -1.22045497E-31
 -4.96172424E-01 -1.43979198E+00 -1.22045497E-31 -4.96172424E-01 -1.43979198E+00
 -1.22045497E-31 -4.96172424E-01 -1.43979198E+00 -1.22045497E-31 -4.96172424E-01
 -1.43979198E+00 -1.22045497E-31 -4.96172424E-01 -1.43979198E+00 -1.22045497E-31
 -4.96172424E-01 -1.43979198E+00 -1.22045497E-31 -4.96172424E-01 -1.43979198E+00
 -1.22045497E-31 -4.96172424E-01 -1.43979198E+00 -1.22045497E-31 -4.96172424E-01
 -1.43979198E+00 -1.22045497E-31 -4.96172424E-01 -1.43979198E+00 -1.22045497E-31
 -4.96172424E-01 -1.43979198E+00 -1.22045497E-31 -2.68307071E+00 -1.77445436E+00
  2.23460002E-31 -2.68307071E+00 -1.77445436E+00  2.23460002E-31 -2.68307071E+00
 -1.77445436E+00  2.23460002E-31 -2.68307071E+00 -1.77445436E+00  2.23460002E-31
 -2.68307071E+00 -1.77445436E+00  2.23460002E-31 -2.68307071E+00 -1.77445436E+00
  2.23460002E-31 -2.68307071E+00 -1.77445436E+00  2.23460002E-31 -2.68307071E+00
 -1.77445436E+00  2.23460002E-31 -2.68307071E+00 -1.77445436E+00  2.23460002E-31
 -2.68307071E+00 -1.77445436E+00  2.23460002E-31 -2.68307071E+00 -1.77445436E+00
  2.23460002E-31 -2.68307071E+00 -1.77445436E+00  2.23460002E-31 -2.68307071E+00
 -1.77445436E+00  2.23460002E-31 -2.68307071E+00 -1.77445436E+00  2.23460002E-31
Num ILSW                                   I              100
ILSW                                       I   N=         100
           0           0           0           0           2           0
           0           0           0           0           0          -1
           5           0           0           0           0           0
           0           0           0           0           0           0
           1           0           0           0           0           0
           0           0      100000           0          -1           0
           0           0           0           0           0           0
           0           0           0           1           0           0
           0 -2000000000           1           0           0           0
           0           0           4          52           0           0
           0           0           0           0           0           0
           0           0           0           5           0           1
           0           0           0           0           0           0
           0           0           0           0           0           0
           0           0           0           0           0           0
           0           0           0           0           0           0
           0           0           0           0
Num RLSW                                   I               52
RLSW                                       R   N=          52
  1.00000000E+00  1.00000000E+00  1.00000000E+00  1.00000000E+00  1.00000000E+00
  0.00000000E+00  0.00000000E+00  1.00000000E+00  0.00000000E+00  0.00000000E+00
  0.00000000E+00  0.00000000E+00  1.00000000E+00  0.00000000E+00  0.00000000E+00
  0.00000000E+00  0.00000000E+00  1.00000000E+00  0.00000000E+00  0.00000000E+00
  0.00000000E+00  0.00000000E+00  1.00000000E+00  0.00000000E+00  0.00000000E+00
  0.00000000E+00  0.00000000E+00  1.00000000E+00  0.00000000E+00  0.00000000E+00
  0.00000000E+00  0.00000000E+00  1.00000000E+00  0.00000000E+00  0.00000000E+00
  0.00000000E+00  0.00000000E+00  0.00000000E+00  1.00000000E+00  1.00000000E+00
  0.00000000E+00  1.00000000E+00  0.00000000E+00  0.00000000E+00  0.00000000E+00
  0.00000000E+00  0.00000000E+00  0.00000000E+00  0.00000000E+00  0.00000000E+00
  0.00000000E+00  0.00000000E+00
MxBond                                     I                2
NBond                                      I   N=           5
           1           2           2           2           1
IBond                                      I   N=          10
           2           0           1           3           2           4
           3           5           4           0
RBond                                      R   N=          10
  1.00000000E+00  0.00000000E+00  1.00000000E+00  1.00000000E+00  1.00000000E+00
  1.00000000E+00  1.00000000E+00  2.00000000E+00  2.00000000E+00  0.00000000E+00
Virial Ratio                               R      2.002364921234049E+00
SCF Energy                                 R     -2.795017737472734E+02
MP2 Energy                                 R     -2.804467102707686E+02
Total Energy                               R     -2.804467102707686E+02
Post-SCF wavefunction norm                 R      1.120201352422209E+00
RMS Density                                R      3.799135021708494E-09
Job Status                                 I                1
Nuclear derivative order                   I                0
External E-field                           R   N=          35
  0.00000000E+00  0.00000000E+00  0.00000000E+00  0.00000000E+00  0.00000000E+00
  0.00000000E+00  0.00000000E+00  0.00000000E+00  0.00000000E+00  0.00000000E+00
  0.00000000E+00  0.00000000E+00  0.00000000E+00  0.00000000E+00  0.00000000E+00
  0.00000000E+00  0.00000000E+00  0.00000000E+00  0.00000000E+00  0.00000000E+00
  0.00000000E+00  0.00000000E+00  0.00000000E+00  0.00000000E+00  0.00000000E+00
  0.00000000E+00  0.00000000E+00  0.00000000E+00  0.00000000E+00  0.00000000E+00
  0.00000000E+00  0.00000000E+00  0.00000000E+00  0.00000000E+00  0.00000000E+00
IOpCl                                      I                0
IROHF                                      I                0
Alpha Orbital Energies                     R   N=         207
 -2.06909910E+01 -2.06843208E+01 -2.06596352E+01 -1.58128622E+01 -1.62400366E+00
 -1.49523638E+00 -1.25452926E+00 -9.48036516E-01 -7.72383877E-01 -7.59714404E-01
 -7.11709109E-01 -6.79582764E-01 -6.20309161E-01 -5.88642194E-01 -4.85120368E-01
 -4.72498001E-01  2.95368228E-02  7.17004324E-02  8.59490864E-02  1.01747311E-01
  1.33878720E-01  1.33998232E-01  1.44080238E-01  1.54489668E-01  1.78284148E-01
  1.94256770E-01  1.99879141E-01  2.06329319E-01  2.20850833E-01  2.35429597E-01
  2.37388334E-01  2.66418315E-01  2.93427028E-01  3.03989606E-01  3.10218298E-01
  3.43508638E-01  3.49586712E-01  3.87189040E-01  4.21332934E-01  4.31924026E-01
  5.27197740E-01  5.29194976E-01  5.58659465E-01  5.81867253E-01  6.25871119E-01
  6.38370578E-01  6.74380839E-01  6.84303697E-01  7.06329481E-01  7.11595674E-01
  7.22510317E-01  7.29817437E-01  7.44816858E-01  7.90770216E-01  7.91017672E-01
  8.09818397E-01  8.12954839E-01  8.31099724E-01  8.68469642E-01  9.07967585E-01
  9.22508309E-01  9.25886076E-01  9.57540177E-01  9.77874271E-01  9.84020044E-01
  1.01603250E+00  1.05220673E+00  1.05499776E+00  1.08223432E+00  1.11763933E+00
  1.14005441E+00  1.18923471E+00  1.22078633E+00  1.23180887E+00  1.33861146E+00
  1.34949686E+00  1.38667976E+00  1.45239076E+00  1.48813440E+00  1.51039308E+00
  1.53837660E+00  1.56707466E+00  1.57981315E+00  1.61440873E+00  1.66470916E+00
  1.66930313E+00  1.70339277E+00  1.79115697E+00  1.83156477E+00  1.83413847E+00
  1.87871177E+00  1.90969988E+00  1.95673769E+00  1.99141146E+00  2.00646426E+00
  2.07704351E+00  2.11884506E+00  2.13199773E+00  2.15008882E+00  2.22351543E+00
  2.26490669E+00  2.26548131E+00  2.28892851E+00  2.31456362E+00  2.34495324E+00
  2.38573515E+00  2.42299548E+00  2.42677109E+00  2.45451786E+00  2.46303146E+00
  2.47557610E+00  2.50219804E+00  2.58908996E+00  2.59555904E+00  2.61929866E+00
  2.62628290E+00  2.63430188E+00  2.66851914E+00  2.75719143E+00  2.82347277E+00
  2.85978934E+00  2.88651647E+00  2.89444488E+00  2.92263696E+00  2.95964834E+00
  3.02585612E+00  3.06782558E+00  3.12229450E+00  3.20253683E+00  3.22812251E+00
  3.31770997E+00  3.34115826E+00  3.51549310E+00  3.64707688E+00  3.83894959E+00
  3.84619461E+00  4.15025258E+00  4.15985464E+00  4.18392408E+00  4.25709410E+00
  4.35551223E+00  4.39198038E+00  4.46406703E+00  4.51535179E+00  4.66305304E+00
  4.70157033E+00  4.80593735E+00  4.82458249E+00  4.83034704E+00  4.89584040E+00
  5.02258313E+00  5.07770072E+00  5.10364978E+00  5.14681806E+00  5.18254109E+00
  5.23911211E+00  5.27299034E+00  5.30940267E+00  5.33043341E+00  5.35419695E+00
  5.60823289E+00  5.67369345E+00  5.77160837E+00  5.82298082E+00  5.95715650E+00
  6.16634233E+00  6.30758601E+00  6.34013432E+00  6.39540194E+00  6.49353182E+00
  6.50552031E+00  6.61309169E+00  6.66777745E+00  6.69827734E+00  6.75617181E+00
  6.76435234E+00  6.83176176E+00  6.89805006E+00  7.00786599E+00  7.05716009E+00
  7.05942846E+00  7.09060917E+00  7.12398666E+00  7.15292273E+00  7.18131899E+00
  7.22442151E+00  7.24178187E+00  7.30891108E+00  7.32543615E+00  7.34686316E+00
  7.39909619E+00  7.42420148E+00  7.48438097E+00  7.60833493E+00  7.61634115E+00
  7.62722021E+00  7.66556433E+00  7.78685388E+00  7.88667815E+00  8.09220169E+00
  8.31272276E+00  8.41524409E+00  8.54494493E+00  1.33929674E+01  1.43952173E+01
  1.51514383E+01  1.61517679E+01
Alpha MO coefficients                      R   N=       42849
  9.22367331E-05 -6.89255072E-04 -7.59221317E-04 -5.23448062E-06 -2.76179987E-05
 -2.52860927E-05  0.00000000E+00 -3.79149068E-05  9.01520320E-05  0.00000000E+00
  9.33904530E-05  4.91252366E-05  0.00000000E+00  3.34278665E-05  0.00000000E+00
  0.00000000E+00 -4.46213233E-05  2.30876709E-05 -3.15526049E-06  0.00000000E+00
  0.00000000E+00 -1.29940903E-04  1.14391609E-04  4.51682817E-03 -2.77111603E-04
  9.93992360E-06  1.63337314E-03  1.86882378E-03  1.06518997E-04  6.32137441E-06
  0.00000000E+00 -6.17027808E-04 -2.16683728E-05  0.00000000E+00 -1.11296847E-03
  8.30425796E-04  0.00000000E+00 -4.09516471E-04  6.51906465E-05  0.00000000E+00
  2.89605483E-05  0.00000000E+00  0.00000000E+00 -5.48347944E-05  5.38024693E-06
 -3.82520388E-04  0.00000000E+00  0.00000000E+00  7.38341905E-04 -3.06324819E-05
 -4.51382654E-04  0.00000000E+00  0.00000000E+00  2.44310846E-04 -1.93891096E-05
  0.00000000E+00  8.02252259E-05  1.22553479E-05  0.00000000E+00  0.00000000E+00
 -1.09699987E-04 -3.98197184E-06  0.00000000E+00  2.54505128E-04 -2.78934307E-05
  0.00000000E+00  0.00000000E+00 -3.56811787E-04  5.34725907E-05  9.76912618E-01
 -9.21486694E-03  4.33169587E-02  2.03852719E-03 -9.39595912E-04  1.49752932E-03
 -1.35602069E-03  0.00000000E+00 -1.44011865E-03  1.38470768E-03  0.00000000E+00
  6.56886655E-05 -1.18447745E-03  0.00000000E+00 -1.40411003E-04 -1.45329800E-05
  0.00000000E+00  4.67255724E-05  0.00000000E+00  0.00000000E+00 -3.48481730E-05
  2.06297043E-05  7.46498183E-04  0.00000000E+00  0.00000000E+00 -2.36848651E-04
 -3.88552209E-04 -3.54465455E-04  0.00000000E+00  0.00000000E+00 -3.16542244E-04
 -3.86369189E-04  0.00000000E+00  4.75952604E-05 -4.92367176E-05  0.00000000E+00
  0.00000000E+00 -3.94193903E-05 -1.53654994E-05  0.00000000E+00  2.34271702E-05
  2.31687638E-05  0.00000000E+00  0.00000000E+00 -3.05578672E-04 -1.39665719E-04
  3.89635219E-05  4.54961551E-05 -2.63799779E-04 -7.11419260E-04 -1.45140143E-04
 -2.70170867E-05 -9.70697568E-05  0.00000000E+00  2.69579379E-04  7.06998405E-04
  0.00000000E+00 -8.46472201E-04 -4.99003408E-04  0.00000000E+00 -1.28118192E-04
 -2.90866727E-05  0.00000000E+00 -1.81847500E-05  0.00000000E+00  0.00000000E+00
 -2.96598207E-05  1.50856467E-05 -3.27494644E-04  0.00000000E+00  0.00000000E+00
 -8.26294789E-04  1.29079121E-04 -3.61905445E-05  0.00000000E+00  0.00000000E+00
  1.03437408E-04 -1.14136983E-04  0.00000000E+00 -2.07012983E-05 -1.19855593E-04
  0.00000000E+00  0.00000000E+00 -6.29211309E-05 -1.37478273E-04  0.00000000E+00
  2.85197993E-06 -1.51713386E-04  0.00000000E+00  0.00000000E+00  4.40523501E-05
 -4.18178525E-04 -2.53802278E-03  1.21420097E-04 -1.21664922E-04 -2.53013333E-04
  1.32005851E-04 -7.85027917E-06 -2.76222131E-05  0.00000000E+00  6.88022088E-05
  1.62998785E-04  0.00000000E+00  2.31910240E-04  2.09435175E-04  0.00000000E+00
  1.27582071E-04  2.47040502E-05  0.00000000E+00 -3.33826450E-06  0.00000000E+00
  0.00000000E+00 -1.78435978E-05  1.11402231E-06  7.18399081E-07  0.00000000E+00
  0.00000000E+00  8.00356101E-05  8.81656854E-05 -1.01368424E-04  0.00000000E+00
  0.00000000E+00  1.65289749E-04  1.65363100E-04  0.00000000E+00  1.58691823E-05
 -3.53713474E-06  0.00000000E+00  0.00000000E+00 -4.30028339E-06 -1.19971880E-05
  0.00000000E+00 -3.36646741E-05  4.51700518E-05  0.00000000E+00  0.00000000E+00
  8.33329572E-05  9.02439197E-05  3.72401872E-05 -9.89390032E-04 -4.90805179E-04
 -1.12272332E-05 -2.28361007E-05  1.63934314E-05  0.00000000E+00 -6.86960369E-07
  2.73467089E-04  0.00000000E+00 -4.40456897E-05  1.34386737E-04  0.00000000E+00
  2.51621407E-05  0.00000000E+00  0.00000000E+00  1.32376643E-05  1.17975178E-05
 -2.84580641E-05  0.00000000E+00  0.00000000E+00  1.23893185E-05  3.68523902E-05
  1.10597575E-04  8.40706492E-05 -2.83606733E-05  7.50504031E-04  6.57399860E-04
  1.01108363E-05  2.54424174E-06  0.00000000E+00 -7.20467673E-05  1.49337116E-05
  0.00000000E+00  3.53391963E-04  9.03843022E-04  0.00000000E+00  6.36399568E-06
  8.34539808E-05  0.00000000E+00 -2.20873090E-06  0.00000000E+00  0.00000000E+00
 -2.35655116E-07 -6.33089165E-06 -3.60553912E-05  0.00000000E+00  0.00000000E+00
 -1.80331293E-05  8.64760802E-05 -2.28388695E-05  0.00000000E+00  0.00000000E+00
 -2.70310392E-04 -1.54006178E-04  0.00000000E+00  9.33019403E-06  6.05372629E-06
  0.00000000E+00  0.00000000E+00  2.59904715E-06 -1.84763014E-05  0.00000000E+00
 -4.15149772E-05 -3.82914234E-05  0.00000000E+00  0.00000000E+00 -7.93653348E-05
  2.09900951E-05  2.57687997E-03  3.93237790E-05  8.95069839E-05 -5.73461215E-05
 -4.73339490E-04  7.30087761E-06  1.57754965E-05  0.00000000E+00 -6.23644731E-05
 -5.49494448E-05  0.00000000E+00  2.37688507E-04 -1.92896237E-04  0.00000000E+00
 -1.89756850E-04 -6.50384252E-05  0.00000000E+00 -8.64800890E-06  0.00000000E+00
  0.00000000E+00  2.25383055E-05  1.97284598E-05  4.08865499E-06  0.00000000E+00
  0.00000000E+00 -1.18384273E-04 -4.59824686E-05 -2.45291723E-06  0.00000000E+00
  0.00000000E+00 -2.23084447E-04 -2.10382269E-04  0.00000000E+00  3.15973597E-06
 -7.06401541E-07  0.00000000E+00  0.00000000E+00  1.57835054E-06 -1.33862508E-05
  0.00000000E+00 -4.58543837E-05  4.32622912E-06  0.00000000E+00  0.00000000E+00
 -7.61210598E-05  1.87350292E-04  2.58720122E-04  1.46542948E-03 -7.79443331E-05
 -1.53722741E-03  4.02487061E-04 -1.44432612E-04  3.69315590E-07  0.00000000E+00
 -2.09055509E-03 -4.03261946E-04  0.00000000E+00  1.03027124E-03  7.56838962E-04
  0.00000000E+00 -1.70793258E-04  5.65831817E-05  0.00000000E+00 -1.23365134E-04
  0.00000000E+00  0.00000000E+00  2.43225680E-04  9.37262264E-05 -4.42061129E-04
  0.00000000E+00  0.00000000E+00  8.99824610E-04 -6.74948995E-05  1.16355412E-05
  0.00000000E+00  0.00000000E+00 -3.36316959E-04 -1.23693847E-04  0.00000000E+00
 -1.23613569E-06  1.53985818E-05  0.00000000E+00  0.00000000E+00  1.88339153E-05
  1.33657829E-05  0.00000000E+00  1.64501242E-04 -7.18280719E-05  0.00000000E+00
  0.00000000E+00 -2.40744940E-04  4.25711883E-05  9.76649510E-01 -9.84806197E-03
  4.35679004E-02  4.49373633E-03 -4.50322388E-04  2.14867813E-03  4.80063183E-04
  0.00000000E+00 -2.38504949E-03 -6.02853958E-04  0.00000000E+00  1.13685046E-03
 -3.14672684E-06  0.00000000E+00  4.07150803E-06 -4.29196236E-05  0.00000000E+00
 -2.32282116E-04  0.00000000E+00  0.00000000E+00  1.02829093E-04  3.16306364E-05
  3.90777842E-04  0.00000000E+00  0.00000000E+00 -8.34850089E-04 -4.18307391E-04
 -1.54214675E-04  0.00000000E+00  0.00000000E+00  2.55314928E-04  1.72703410E-05
  0.00000000E+00  5.23453770E-05  1.76667528E-05  0.00000000E+00  0.00000000E+00
 -2.21604143E-05 -1.32709178E-05  0.00000000E+00  1.38159179E-04  9.14082189E-06
  0.00000000E+00  0.00000000E+00 -1.90229649E-04 -1.40322461E-04  4.77049048E-04
  2.11685068E-03  1.26257105E-04  1.32533662E-05 -4.25953806E-05 -2.45942828E-04
  0.00000000E+00  9.17917322E-05 -1.28694140E-03  0.00000000E+00  2.92643216E-04
 -3.41030647E-04  0.00000000E+00 -1.76967065E-06  0.00000000E+00  0.00000000E+00
  7.62918228E-05  1.01875276E-05 -1.55697994E-04  0.00000000E+00  0.00000000E+00
 -5.37770922E-04 -8.47830578E-06  9.76829835E-01 -9.15769369E-03  4.34530705E-02
  1.06657491E-04 -1.11313979E-03 -1.55152812E-03  1.45345384E-03  0.00000000E+00
  1.56183819E-03 -1.29070441E-03  0.00000000E+00 -5.86719559E-04 -9.13028402E-04
  0.00000000E+00  5.73411372E-05 -1.97033142E-05  0.00000000E+00  2.82326199E-05
  0.00000000E+00  0.00000000E+00 -1.17912873E-04  1.90057428E-06  7.61585615E-04
  0.00000000E+00  0.00000000E+00 -2.05658647E-04 -2.51712499E-04 -2.64736423E-04
  0.00000000E+00  0.00000000E+00  1.81808244E-04  1.35752150E-04  0.00000000E+00
 -6.41209289E-05  5.71538408E-07  0.00000000E+00  0.00000000E+00  1.94934638E-05
  9.98628020E-06  0.00000000E+00  1.54911312E-06  1.26104763E-04  0.00000000E+00
  0.00000000E+00  2.66682035E-04  8.91454945E-05 -4.60828591E-03 -2.11447355E-04