 Entering Gaussian System, Link 0=g16
 Input=hoono_r1_0p978956.gjf
 Output=hoono_r1_0p978956.log
 Initial command:
 /sw/contrib/gaussian/g16/B01/g16/l1.exe "/scr/Gau-28038.inp" -scrdir="/scr/"
 Entering Link 1 = /sw/contrib/gaussian/g16/B01/g16/l1.exe PID=     28039.
  
 Copyright (c) 1988-2017, Gaussian, Inc.  All Rights Reserved.
  
 This is part of the Gaussian(R) 16 program.  It is based on
 the Gaussian(R) 09 system (copyright 2009, Gaussian, Inc.),
 the Gaussian(R) 03 system (copyright 2003, Gaussian, Inc.),
 the Gaussian(R) 98 system (copyright 1998, Gaussian, Inc.),
 the Gaussian(R) 94 system (copyright 1995, Gaussian, Inc.),
 the Gaussian 92(TM) system (copyright 1992, Gaussian, Inc.),
 the Gaussian 90(TM) system (copyright 1990, Gaussian, Inc.),
 the Gaussian 88(TM) system (copyright 1988, Gaussian, Inc.),
 the Gaussian 86(TM) system (copyright 1986, Carnegie Mellon
 University), and the Gaussian 82(TM) system (copyright 1983,
 Carnegie Mellon University). Gaussian is a federally registered
 trademark of Gaussian, Inc.
  
 This software contains proprietary and confidential information,
 including trade secrets, belonging to Gaussian, Inc.
  
 This software is provided under written license and may be
 used, copied, transmitted, or stored only in accord with that
 written license.
  
 The following legend is applicable only to US Government
 contracts under FAR:
  
                    RESTRICTED RIGHTS LEGEND
  
 Use, reproduction and disclosure by the US Government is
 subject to restrictions as set forth in subparagraphs (a)
 and (c) of the Commercial Computer Software - Restricted
 Rights clause in FAR 52.227-19.
  
 Gaussian, Inc.
 340 Quinnipiac St., Bldg. 40, Wallingford CT 06492
  
  
 ---------------------------------------------------------------
 Warning -- This program may not be used in any manner that
 competes with the business of Gaussian, Inc. or will provide
 assistance to any competitor of Gaussian, Inc.  The licensee
 of this program is prohibited from giving any competitor of
 Gaussian, Inc. access to this program.  By using this program,
 the user acknowledges that Gaussian, Inc. is engaged in the
 business of creating and licensing software in the field of
 computational chemistry and represents and warrants to the
 licensee that it is not a competitor of Gaussian, Inc. and that
 it will not use this program in any manner prohibited above.
 ---------------------------------------------------------------
  

 Cite this work as:
 Gaussian 16, Revision B.01,
 M. J. Frisch, G. W. Trucks, H. B. Schlegel, G. E. Scuseria, 
 M. A. Robb, J. R. Cheeseman, G. Scalmani, V. Barone, 
 G. A. Petersson, H. Nakatsuji, X. Li, M. Caricato, A. V. Marenich, 
 J. Bloino, B. G. Janesko, R. Gomperts, B. Mennucci, H. P. Hratchian, 
 J. V. Ortiz, A. F. Izmaylov, J. L. Sonnenberg, D. Williams-Young, 
 F. Ding, F. Lipparini, F. Egidi, J. Goings, B. Peng, A. Petrone, 
 T. Henderson, D. Ranasinghe, V. G. Zakrzewski, J. Gao, N. Rega, 
 G. Zheng, W. Liang, M. Hada, M. Ehara, K. Toyota, R. Fukuda, 
 J. Hasegawa, M. Ishida, T. Nakajima, Y. Honda, O. Kitao, H. Nakai, 
 T. Vreven, K. Throssell, J. A. Montgomery, Jr., J. E. Peralta, 
 F. Ogliaro, M. J. Bearpark, J. J. Heyd, E. N. Brothers, K. N. Kudin, 
 V. N. Staroverov, T. A. Keith, R. Kobayashi, J. Normand, 
 K. Raghavachari, A. P. Rendell, J. C. Burant, S. S. Iyengar, 
 J. Tomasi, M. Cossi, J. M. Millam, M. Klene, C. Adamo, R. Cammi, 
 J. W. Ochterski, R. L. Martin, K. Morokuma, O. Farkas, 
 J. B. Foresman, and D. J. Fox, Gaussian, Inc., Wallingford CT, 2016.
 
 ******************************************
 Gaussian 16:  ES64L-G16RevB.01 20-Dec-2017
                21-Feb-2022 
 ******************************************
 %nproc=28
 Will use up to   28 processors via shared memory.
 %mem=120GB
 %chk=hoono_r1_0p978956.chk
 ---------------------------------------
 #p freq mp2/aug-cc-pvtz density=current
 ---------------------------------------
 1/10=4,30=1,38=1/1,3;
 2/12=2,17=6,18=5,40=1/2;
 3/5=16,6=1,7=10,11=9,25=1,30=1,71=2,140=1/1,2,3;
 4//1;
 5/5=2,38=5,98=1/2;
 8/6=3,8=1,10=1,19=11,30=-1/1;
 9/15=3,16=-3/6;
 11/6=1,8=1,15=11,17=12,24=-1,27=1,28=-2,29=300,32=6,42=3/1,2,10;
 10/6=2,21=1/2;
 8/6=4,8=1,10=1,19=11,30=-1/11,4;
 10/5=1,20=4/2;
 11/12=2,14=11,16=1,17=2,28=-2,42=3,76=2/2,10,12;
 6/7=2,8=2,9=2,10=2,22=-1/1;
 7/8=1,10=1,12=2,25=1,44=2/1,2,3,16;
 1/10=4,30=1/3;
 99//99;
 Leave Link    1 at Mon Feb 21 19:57:46 2022, MaxMem= 16106127360 cpu:               2.4 elap:               0.1
 (Enter /sw/contrib/gaussian/g16/B01/g16/l101.exe)
 -----
 title
 -----
 Symbolic Z-matrix:
 Charge =  0 Multiplicity = 1
 H
 O                    1    r1
 O                    2    r2       1    a1
 N                    3    r3       2    a2       1    d1       0
 O                    4    r4       3    a3       2    d2       0
       Variables:
  r1                    0.97896                  
  r2                    1.45492                  
  r3                    1.45878                  
  r4                    1.17073                  
  a1                   97.59495                  
  a2                  102.29752                  
  a3                  109.06955                  
  d1                  180.                       
  d2                  180.                       
 
 ITRead=  0  0  0  0  0
 MicOpt= -1 -1 -1 -1 -1
 NAtoms=      5 NQM=        5 NQMF=       0 NMMI=      0 NMMIF=      0
                NMic=       0 NMicF=      0.
                    Isotopes and Nuclear Properties:
 (Nuclear quadrupole moments (NQMom) in fm**2, nuclear magnetic moments (NMagM)
  in nuclear magnetons)

  Atom         1           2           3           4           5
 IAtWgt=           1          16          16          14          16
 AtmWgt=   1.0078250  15.9949146  15.9949146  14.0030740  15.9949146
 NucSpn=           1           0           0           2           0
 AtZEff=  -0.0000000  -0.0000000  -0.0000000  -0.0000000  -0.0000000
 NQMom=    0.0000000   0.0000000   0.0000000   2.0440000   0.0000000
 NMagM=    2.7928460   0.0000000   0.0000000   0.4037610   0.0000000
 AtZNuc=   1.0000000   8.0000000   8.0000000   7.0000000   8.0000000
 Leave Link  101 at Mon Feb 21 19:57:46 2022, MaxMem= 16106127360 cpu:               2.7 elap:               0.1
 (Enter /sw/contrib/gaussian/g16/B01/g16/l103.exe)

 GradGradGradGradGradGradGradGradGradGradGradGradGradGradGradGradGradGrad
 Berny optimization.
 Initialization pass.
                       ----------------------------
                       !    Initial Parameters    !
                       ! (Angstroms and Degrees)  !
 ----------------------                            ----------------------
 !      Name          Value   Derivative information (Atomic Units)     !
 ------------------------------------------------------------------------
 !       r1          0.979    calculate D2E/DX2 analytically            !
 !       r2          1.4549   calculate D2E/DX2 analytically            !
 !       r3          1.4588   calculate D2E/DX2 analytically            !
 !       r4          1.1707   calculate D2E/DX2 analytically            !
 !       a1         97.5949   calculate D2E/DX2 analytically            !
 !       a2        102.2975   calculate D2E/DX2 analytically            !
 !       a3        109.0696   calculate D2E/DX2 analytically            !
 !       d1        180.0      calculate D2E/DX2 analytically            !
 !       d2        180.0      calculate D2E/DX2 analytically            !
 ------------------------------------------------------------------------
 Trust Radius=3.00D-01 FncErr=1.00D-07 GrdErr=1.00D-07 EigMax=2.50D+02 EigMin=1.00D-04
 Number of steps in this run=      2 maximum allowed number of steps=      2.
 GradGradGradGradGradGradGradGradGradGradGradGradGradGradGradGradGradGrad

 Leave Link  103 at Mon Feb 21 19:57:46 2022, MaxMem= 16106127360 cpu:               1.6 elap:               0.1
 (Enter /sw/contrib/gaussian/g16/B01/g16/l202.exe)
                          Input orientation:                          
 ---------------------------------------------------------------------
 Center     Atomic      Atomic             Coordinates (Angstroms)
 Number     Number       Type             X           Y           Z
 ---------------------------------------------------------------------
      1          1           0        0.000000    0.000000    0.000000
      2          8           0        0.000000    0.000000    0.978956
      3          8           0        1.442156    0.000000    1.171251
      4          7           0        1.561752    0.000000    2.625125
      5          8           0        2.695867    0.000000    2.915619
 ---------------------------------------------------------------------
                    Distance matrix (angstroms):
                    1          2          3          4          5
     1  H    0.000000
     2  O    0.978956   0.000000
     3  O    1.857860   1.454919   0.000000
     4  N    3.054562   2.269127   1.458784   0.000000
     5  O    3.970962   3.319392   2.148165   1.170729   0.000000
 Stoichiometry    HNO3
 Framework group  CS[SG(HNO3)]
 Deg. of freedom     7
 Full point group                 CS      NOp   2
 Largest Abelian subgroup         CS      NOp   2
 Largest concise Abelian subgroup C1      NOp   1
                         Standard orientation:                         
 ---------------------------------------------------------------------
 Center     Atomic      Atomic             Coordinates (Angstroms)
 Number     Number       Type             X           Y           Z
 ---------------------------------------------------------------------
      1          1           0        1.550137    1.696767    0.000000
      2          8           0        1.454065    0.722537    0.000000
      3          8           0       -0.000000    0.672699    0.000000
      4          7           0       -0.261698   -0.762420   -0.000000
      5          8           0       -1.418847   -0.940214   -0.000000
 ---------------------------------------------------------------------
 Rotational constants (GHZ):          54.9127990           5.0096170           4.5908044
 Leave Link  202 at Mon Feb 21 19:57:46 2022, MaxMem= 16106127360 cpu:               0.4 elap:               0.0
 (Enter /sw/contrib/gaussian/g16/B01/g16/l301.exe)
 Standard basis: Aug-CC-pVTZ (5D, 7F)
 Ernie: Thresh=  0.10000D-02 Tol=  0.10000D-05 Strict=F.
 Ernie:  12 primitive shells out of 131 were deleted.
 There are   166 symmetry adapted cartesian basis functions of A'  symmetry.
 There are    79 symmetry adapted cartesian basis functions of A"  symmetry.
 There are   136 symmetry adapted basis functions of A'  symmetry.
 There are    71 symmetry adapted basis functions of A"  symmetry.
   207 basis functions,   315 primitive gaussians,   245 cartesian basis functions
    16 alpha electrons       16 beta electrons
       nuclear repulsion energy       116.8143640570 Hartrees.
 IExCor=    0 DFT=F Ex=HF Corr=None ExCW=0 ScaHFX=  1.000000
 ScaDFX=  1.000000  1.000000  1.000000  1.000000 ScalE2=  1.000000  1.000000
 IRadAn=      5 IRanWt=     -1 IRanGd=            0 ICorTp=0 IEmpDi=  4
 NAtoms=    5 NActive=    5 NUniq=    5 SFac= 1.00D+00 NAtFMM=   60 NAOKFM=F Big=F
 Integral buffers will be    131072 words long.
 Raffenetti 1 integral format.
 Two-electron integral symmetry is turned on.
 Leave Link  301 at Mon Feb 21 19:57:46 2022, MaxMem= 16106127360 cpu:               1.7 elap:               0.1
 (Enter /sw/contrib/gaussian/g16/B01/g16/l302.exe)
 NPDir=0 NMtPBC=     1 NCelOv=     1 NCel=       1 NClECP=     1 NCelD=      1
         NCelK=      1 NCelE2=     1 NClLst=     1 CellRange=     0.0.
 One-electron integrals computed using PRISM.
 One-electron integral symmetry used in STVInt
 NBasis=   207 RedAO= T EigKep=  1.83D-04  NBF=   136    71
 NBsUse=   207 1.00D-06 EigRej= -1.00D+00 NBFU=   136    71
 Leave Link  302 at Mon Feb 21 19:57:46 2022, MaxMem= 16106127360 cpu:               4.7 elap:               0.2
 (Enter /sw/contrib/gaussian/g16/B01/g16/l303.exe)
 DipDrv:  MaxL=1.
 Leave Link  303 at Mon Feb 21 19:57:46 2022, MaxMem= 16106127360 cpu:               2.3 elap:               0.1
 (Enter /sw/contrib/gaussian/g16/B01/g16/l401.exe)
 ExpMin= 2.53D-02 ExpMax= 1.53D+04 ExpMxC= 5.22D+02 IAcc=3 IRadAn=         5 AccDes= 0.00D+00
 Harris functional with IExCor=  205 and IRadAn=       5 diagonalized for initial guess.
 HarFok:  IExCor=  205 AccDes= 0.00D+00 IRadAn=         5 IDoV= 1 UseB2=F ITyADJ=14
 ICtDFT=  3500011 ScaDFX=  1.000000  1.000000  1.000000  1.000000
 FoFCou: FMM=F IPFlag=           0 FMFlag=      100000 FMFlg1=           0
         NFxFlg=           0 DoJE=T BraDBF=F KetDBF=T FulRan=T
         wScrn=  0.000000 ICntrl=       500 IOpCl=  0 I1Cent=   200000004 NGrid=           0
         NMat0=    1 NMatS0=      1 NMatT0=    0 NMatD0=    1 NMtDS0=    0 NMtDT0=    0
 Petite list used in FoFCou.
 Harris En= -279.628514337307    
 JPrj=0 DoOrth=F DoCkMO=F.
 Initial guess orbital symmetries:
       Occupied  (A') (A') (A') (A') (A') (A') (A') (A') (A') (A')
                 (A") (A') (A') (A") (A") (A')
       Virtual   (A") (A') (A') (A') (A') (A') (A") (A') (A') (A')
                 (A") (A') (A") (A') (A') (A") (A') (A") (A') (A')
                 (A') (A') (A') (A') (A') (A") (A') (A") (A') (A')
                 (A") (A') (A") (A') (A') (A") (A') (A") (A') (A')
                 (A") (A') (A") (A') (A") (A') (A') (A') (A") (A")
                 (A') (A') (A') (A') (A") (A') (A") (A') (A") (A')
                 (A') (A') (A") (A') (A') (A") (A') (A") (A') (A')
                 (A") (A') (A') (A") (A") (A') (A') (A") (A') (A')
                 (A') (A") (A') (A") (A') (A") (A') (A") (A') (A')
                 (A') (A") (A') (A") (A') (A") (A") (A') (A') (A")
                 (A') (A') (A") (A') (A') (A') (A') (A") (A") (A')
                 (A") (A') (A') (A') (A") (A') (A') (A') (A") (A')
                 (A") (A') (A') (A") (A") (A') (A') (A") (A") (A')
                 (A') (A') (A') (A") (A") (A') (A") (A') (A') (A')
                 (A") (A') (A") (A') (A') (A") (A') (A') (A') (A')
                 (A") (A') (A') (A") (A') (A") (A') (A") (A') (A")
                 (A') (A") (A') (A") (A') (A") (A") (A") (A') (A')
                 (A") (A') (A") (A') (A") (A') (A") (A") (A') (A')
                 (A') (A') (A') (A') (A') (A') (A') (A') (A') (A')
                 (A')
 The electronic state of the initial guess is 1-A'.
 Leave Link  401 at Mon Feb 21 19:57:47 2022, MaxMem= 16106127360 cpu:               6.8 elap:               0.3
 (Enter /sw/contrib/gaussian/g16/B01/g16/l502.exe)
 Keep R1 ints in memory in symmetry-blocked form, NReq=348887737.
 FoFCou: FMM=F IPFlag=           0 FMFlag=           0 FMFlg1=           0
         NFxFlg=           0 DoJE=F BraDBF=F KetDBF=F FulRan=T
         wScrn=  0.000000 ICntrl=       600 IOpCl=  0 I1Cent=           0 NGrid=           0
         NMat0=    1 NMatS0=  21528 NMatT0=    0 NMatD0=    1 NMtDS0=    0 NMtDT0=    0
 Petite list used in FoFCou.
 Closed shell SCF:
 Using DIIS extrapolation, IDIIS=  1040.
 NGot= 16106127360 LenX= 15988850015 LenY= 15988789549
 Requested convergence on RMS density matrix=1.00D-08 within 128 cycles.
 Requested convergence on MAX density matrix=1.00D-06.
 Requested convergence on             energy=1.00D-06.
 No special actions if energy rises.

 Cycle   1  Pass 1  IDiag  1:
 E= -279.370497365506    
 DIIS: error= 2.77D-02 at cycle   1 NSaved=   1.
 NSaved= 1 IEnMin= 1 EnMin= -279.370497365506     IErMin= 1 ErrMin= 2.77D-02
 ErrMax= 2.77D-02  0.00D+00 EMaxC= 1.00D-01 BMatC= 4.37D-01 BMatP= 4.37D-01
 IDIUse=3 WtCom= 7.23D-01 WtEn= 2.77D-01
 Coeff-Com:  0.100D+01
 Coeff-En:   0.100D+01
 Coeff:      0.100D+01
 Gap=     0.513 Goal=   None    Shift=    0.000
 GapD=    0.513 DampG=2.000 DampE=0.500 DampFc=1.0000 IDamp=-1.
 RMSDP=1.62D-03 MaxDP=9.92D-02              OVMax= 1.12D-01

 Cycle   2  Pass 1  IDiag  1:
 E= -279.452291487497     Delta-E=       -0.081794121992 Rises=F Damp=F
 DIIS: error= 1.77D-02 at cycle   2 NSaved=   2.
 NSaved= 2 IEnMin= 2 EnMin= -279.452291487497     IErMin= 2 ErrMin= 1.77D-02
 ErrMax= 1.77D-02  0.00D+00 EMaxC= 1.00D-01 BMatC= 7.11D-02 BMatP= 4.37D-01
 IDIUse=3 WtCom= 8.23D-01 WtEn= 1.77D-01
 Coeff-Com:  0.193D+00 0.807D+00
 Coeff-En:   0.000D+00 0.100D+01
 Coeff:      0.159D+00 0.841D+00
 Gap=     0.529 Goal=   None    Shift=    0.000
 RMSDP=8.96D-04 MaxDP=3.74D-02 DE=-8.18D-02 OVMax= 6.95D-02

 Cycle   3  Pass 1  IDiag  1:
 E= -279.481050640914     Delta-E=       -0.028759153416 Rises=F Damp=F
 DIIS: error= 1.04D-02 at cycle   3 NSaved=   3.
 NSaved= 3 IEnMin= 3 EnMin= -279.481050640914     IErMin= 3 ErrMin= 1.04D-02
 ErrMax= 1.04D-02  0.00D+00 EMaxC= 1.00D-01 BMatC= 2.86D-02 BMatP= 7.11D-02
 IDIUse=3 WtCom= 8.96D-01 WtEn= 1.04D-01
 Coeff-Com: -0.331D-01 0.379D+00 0.654D+00
 Coeff-En:   0.000D+00 0.242D+00 0.758D+00
 Coeff:     -0.297D-01 0.365D+00 0.665D+00
 Gap=     0.510 Goal=   None    Shift=    0.000
 RMSDP=3.75D-04 MaxDP=1.54D-02 DE=-2.88D-02 OVMax= 3.80D-02

 Cycle   4  Pass 1  IDiag  1:
 E= -279.500048295256     Delta-E=       -0.018997654342 Rises=F Damp=F
 DIIS: error= 1.27D-03 at cycle   4 NSaved=   4.
 NSaved= 4 IEnMin= 4 EnMin= -279.500048295256     IErMin= 4 ErrMin= 1.27D-03
 ErrMax= 1.27D-03  0.00D+00 EMaxC= 1.00D-01 BMatC= 4.87D-04 BMatP= 2.86D-02
 IDIUse=3 WtCom= 9.87D-01 WtEn= 1.27D-02
 Coeff-Com: -0.115D-01 0.566D-01 0.156D+00 0.799D+00
 Coeff-En:   0.000D+00 0.000D+00 0.000D+00 0.100D+01
 Coeff:     -0.114D-01 0.559D-01 0.154D+00 0.801D+00
 Gap=     0.502 Goal=   None    Shift=    0.000
 RMSDP=9.03D-05 MaxDP=2.77D-03 DE=-1.90D-02 OVMax= 1.12D-02

 Cycle   5  Pass 1  IDiag  1:
 E= -279.500722139052     Delta-E=       -0.000673843796 Rises=F Damp=F
 DIIS: error= 7.40D-04 at cycle   5 NSaved=   5.
 NSaved= 5 IEnMin= 5 EnMin= -279.500722139052     IErMin= 5 ErrMin= 7.40D-04
 ErrMax= 7.40D-04  0.00D+00 EMaxC= 1.00D-01 BMatC= 8.74D-05 BMatP= 4.87D-04
 IDIUse=3 WtCom= 9.93D-01 WtEn= 7.40D-03
 Coeff-Com:  0.613D-02-0.727D-01-0.118D+00 0.254D-01 0.116D+01
 Coeff-En:   0.000D+00 0.000D+00 0.000D+00 0.000D+00 0.100D+01
 Coeff:      0.608D-02-0.722D-01-0.117D+00 0.252D-01 0.116D+01
 Gap=     0.502 Goal=   None    Shift=    0.000
 RMSDP=7.61D-05 MaxDP=2.10D-03 DE=-6.74D-04 OVMax= 1.11D-02

 Cycle   6  Pass 1  IDiag  1:
 E= -279.501037021251     Delta-E=       -0.000314882199 Rises=F Damp=F
 DIIS: error= 2.83D-04 at cycle   6 NSaved=   6.
 NSaved= 6 IEnMin= 6 EnMin= -279.501037021251     IErMin= 6 ErrMin= 2.83D-04
 ErrMax= 2.83D-04  0.00D+00 EMaxC= 1.00D-01 BMatC= 1.68D-05 BMatP= 8.74D-05
 IDIUse=3 WtCom= 9.97D-01 WtEn= 2.83D-03
 Coeff-Com:  0.620D-03 0.135D-02 0.402D-02-0.132D+00-0.224D+00 0.135D+01
 Coeff-En:   0.000D+00 0.000D+00 0.000D+00 0.000D+00 0.000D+00 0.100D+01
 Coeff:      0.618D-03 0.135D-02 0.401D-02-0.132D+00-0.223D+00 0.135D+01
 Gap=     0.502 Goal=   None    Shift=    0.000
 RMSDP=4.53D-05 MaxDP=1.25D-03 DE=-3.15D-04 OVMax= 5.56D-03

 Cycle   7  Pass 1  IDiag  1:
 E= -279.501109995521     Delta-E=       -0.000072974271 Rises=F Damp=F
 DIIS: error= 1.25D-04 at cycle   7 NSaved=   7.
 NSaved= 7 IEnMin= 7 EnMin= -279.501109995521     IErMin= 7 ErrMin= 1.25D-04
 ErrMax= 1.25D-04  0.00D+00 EMaxC= 1.00D-01 BMatC= 4.60D-06 BMatP= 1.68D-05
 IDIUse=3 WtCom= 9.99D-01 WtEn= 1.25D-03
 Coeff-Com: -0.936D-03 0.136D-01 0.265D-01-0.262D-01-0.287D+00 0.396D+00
 Coeff-Com:  0.878D+00
 Coeff-En:   0.000D+00 0.000D+00 0.000D+00 0.000D+00 0.000D+00 0.000D+00
 Coeff-En:   0.100D+01
 Coeff:     -0.935D-03 0.136D-01 0.264D-01-0.261D-01-0.287D+00 0.395D+00
 Coeff:      0.878D+00
 Gap=     0.502 Goal=   None    Shift=    0.000
 RMSDP=1.33D-05 MaxDP=3.78D-04 DE=-7.30D-05 OVMax= 1.56D-03

 Cycle   8  Pass 1  IDiag  1:
 E= -279.501119019076     Delta-E=       -0.000009023555 Rises=F Damp=F
 DIIS: error= 5.68D-05 at cycle   8 NSaved=   8.
 NSaved= 8 IEnMin= 8 EnMin= -279.501119019076     IErMin= 8 ErrMin= 5.68D-05
 ErrMax= 5.68D-05  0.00D+00 EMaxC= 1.00D-01 BMatC= 6.12D-07 BMatP= 4.60D-06
 IDIUse=1 WtCom= 1.00D+00 WtEn= 0.00D+00
 Coeff-Com: -0.451D-03 0.348D-02 0.765D-02 0.278D-01-0.417D-01-0.197D+00
 Coeff-Com:  0.166D+00 0.103D+01
 Coeff:     -0.451D-03 0.348D-02 0.765D-02 0.278D-01-0.417D-01-0.197D+00
 Coeff:      0.166D+00 0.103D+01
 Gap=     0.502 Goal=   None    Shift=    0.000
 RMSDP=6.97D-06 MaxDP=2.04D-04 DE=-9.02D-06 OVMax= 7.52D-04

 Cycle   9  Pass 1  IDiag  1:
 E= -279.501120822425     Delta-E=       -0.000001803349 Rises=F Damp=F
 DIIS: error= 1.58D-05 at cycle   9 NSaved=   9.
 NSaved= 9 IEnMin= 9 EnMin= -279.501120822425     IErMin= 9 ErrMin= 1.58D-05
 ErrMax= 1.58D-05  0.00D+00 EMaxC= 1.00D-01 BMatC= 6.92D-08 BMatP= 6.12D-07
 IDIUse=1 WtCom= 1.00D+00 WtEn= 0.00D+00
 Coeff-Com:  0.122D-03-0.172D-02-0.306D-02-0.194D-02 0.340D-01-0.233D-03
 Coeff-Com: -0.164D+00-0.105D+00 0.124D+01
 Coeff:      0.122D-03-0.172D-02-0.306D-02-0.194D-02 0.340D-01-0.233D-03
 Coeff:     -0.164D+00-0.105D+00 0.124D+01
 Gap=     0.502 Goal=   None    Shift=    0.000
 RMSDP=1.94D-06 MaxDP=6.63D-05 DE=-1.80D-06 OVMax= 1.76D-04

 Cycle  10  Pass 1  IDiag  1:
 E= -279.501120983330     Delta-E=       -0.000000160904 Rises=F Damp=F
 DIIS: error= 4.15D-06 at cycle  10 NSaved=  10.
 NSaved=10 IEnMin=10 EnMin= -279.501120983330     IErMin=10 ErrMin= 4.15D-06
 ErrMax= 4.15D-06  0.00D+00 EMaxC= 1.00D-01 BMatC= 5.61D-09 BMatP= 6.92D-08
 IDIUse=1 WtCom= 1.00D+00 WtEn= 0.00D+00
 Coeff-Com:  0.318D-04-0.252D-03-0.339D-03-0.275D-02 0.183D-02 0.197D-01
 Coeff-Com: -0.132D-01-0.757D-01-0.760D-01 0.115D+01
 Coeff:      0.318D-04-0.252D-03-0.339D-03-0.275D-02 0.183D-02 0.197D-01
 Coeff:     -0.132D-01-0.757D-01-0.760D-01 0.115D+01
 Gap=     0.502 Goal=   None    Shift=    0.000
 RMSDP=5.06D-07 MaxDP=2.11D-05 DE=-1.61D-07 OVMax= 4.18D-05

 Cycle  11  Pass 1  IDiag  1:
 E= -279.501120995936     Delta-E=       -0.000000012606 Rises=F Damp=F
 DIIS: error= 2.03D-06 at cycle  11 NSaved=  11.
 NSaved=11 IEnMin=11 EnMin= -279.501120995936     IErMin=11 ErrMin= 2.03D-06
 ErrMax= 2.03D-06  0.00D+00 EMaxC= 1.00D-01 BMatC= 6.65D-10 BMatP= 5.61D-09
 IDIUse=1 WtCom= 1.00D+00 WtEn= 0.00D+00
 Coeff-Com: -0.213D-04 0.245D-03 0.489D-03 0.528D-03-0.430D-02-0.354D-02
 Coeff-Com:  0.207D-01 0.315D-01-0.139D+00-0.180D+00 0.127D+01
 Coeff:     -0.213D-04 0.245D-03 0.489D-03 0.528D-03-0.430D-02-0.354D-02
 Coeff:      0.207D-01 0.315D-01-0.139D+00-0.180D+00 0.127D+01
 Gap=     0.502 Goal=   None    Shift=    0.000
 RMSDP=1.78D-07 MaxDP=6.54D-06 DE=-1.26D-08 OVMax= 1.75D-05

 Cycle  12  Pass 1  IDiag  1:
 E= -279.501120997754     Delta-E=       -0.000000001818 Rises=F Damp=F
 DIIS: error= 5.90D-07 at cycle  12 NSaved=  12.
 NSaved=12 IEnMin=12 EnMin= -279.501120997754     IErMin=12 ErrMin= 5.90D-07
 ErrMax= 5.90D-07  0.00D+00 EMaxC= 1.00D-01 BMatC= 7.19D-11 BMatP= 6.65D-10
 IDIUse=1 WtCom= 1.00D+00 WtEn= 0.00D+00
 Coeff-Com:  0.120D-05-0.289D-04-0.621D-04 0.189D-03 0.106D-02-0.229D-02
 Coeff-Com: -0.407D-02 0.544D-02 0.414D-01-0.112D+00-0.282D+00 0.135D+01
 Coeff:      0.120D-05-0.289D-04-0.621D-04 0.189D-03 0.106D-02-0.229D-02
 Coeff:     -0.407D-02 0.544D-02 0.414D-01-0.112D+00-0.282D+00 0.135D+01
 Gap=     0.502 Goal=   None    Shift=    0.000
 RMSDP=7.16D-08 MaxDP=2.82D-06 DE=-1.82D-09 OVMax= 6.76D-06

 Cycle  13  Pass 1  IDiag  1:
 E= -279.501120997982     Delta-E=       -0.000000000228 Rises=F Damp=F
 DIIS: error= 1.69D-07 at cycle  13 NSaved=  13.
 NSaved=13 IEnMin=13 EnMin= -279.501120997982     IErMin=13 ErrMin= 1.69D-07
 ErrMax= 1.69D-07  0.00D+00 EMaxC= 1.00D-01 BMatC= 4.03D-12 BMatP= 7.19D-11
 IDIUse=1 WtCom= 1.00D+00 WtEn= 0.00D+00
 Coeff-Com:  0.129D-05-0.141D-04-0.226D-04-0.898D-04 0.126D-03 0.757D-03
 Coeff-Com: -0.823D-03-0.328D-02 0.597D-03 0.408D-01-0.348D-01-0.327D+00
 Coeff-Com:  0.132D+01
 Coeff:      0.129D-05-0.141D-04-0.226D-04-0.898D-04 0.126D-03 0.757D-03
 Coeff:     -0.823D-03-0.328D-02 0.597D-03 0.408D-01-0.348D-01-0.327D+00
 Coeff:      0.132D+01
 Gap=     0.502 Goal=   None    Shift=    0.000
 RMSDP=1.91D-08 MaxDP=5.63D-07 DE=-2.28D-10 OVMax= 1.57D-06

 Cycle  14  Pass 1  IDiag  1:
 E= -279.501120997996     Delta-E=       -0.000000000014 Rises=F Damp=F
 DIIS: error= 2.45D-08 at cycle  14 NSaved=  14.
 NSaved=14 IEnMin=14 EnMin= -279.501120997996     IErMin=14 ErrMin= 2.45D-08
 ErrMax= 2.45D-08  0.00D+00 EMaxC= 1.00D-01 BMatC= 1.97D-13 BMatP= 4.03D-12
 IDIUse=1 WtCom= 1.00D+00 WtEn= 0.00D+00
 Coeff-Com: -0.190D-06 0.312D-05 0.556D-05 0.436D-05-0.820D-04 0.454D-04
 Coeff-Com:  0.277D-03 0.230D-03-0.243D-02 0.140D-02 0.170D-01-0.256D-01
 Coeff-Com: -0.200D+00 0.121D+01
 Coeff:     -0.190D-06 0.312D-05 0.556D-05 0.436D-05-0.820D-04 0.454D-04
 Coeff:      0.277D-03 0.230D-03-0.243D-02 0.140D-02 0.170D-01-0.256D-01
 Coeff:     -0.200D+00 0.121D+01
 Gap=     0.502 Goal=   None    Shift=    0.000
 RMSDP=3.79D-09 MaxDP=9.10D-08 DE=-1.40D-11 OVMax= 3.42D-07

 SCF Done:  E(RHF) =  -279.501120998     A.U. after   14 cycles
            NFock= 14  Conv=0.38D-08     -V/T= 2.0024
 KE= 2.788269559648D+02 PE=-8.949524646496D+02 EE= 2.198100236297D+02
 Leave Link  502 at Mon Feb 21 19:57:50 2022, MaxMem= 16106127360 cpu:              56.4 elap:               3.7
 (Enter /sw/contrib/gaussian/g16/B01/g16/l801.exe)
 ExpMin= 2.53D-02 ExpMax= 1.53D+04 ExpMxC= 5.22D+02 IAcc=3 IRadAn=         5 AccDes= 0.00D+00
 HarFok:  IExCor=  205 AccDes= 0.00D+00 IRadAn=         5 IDoV=-2 UseB2=F ITyADJ=14
 ICtDFT= 12500011 ScaDFX=  1.000000  1.000000  1.000000  1.000000
 Largest valence mixing into a core orbital is  2.08D-04
 Largest core mixing into a valence orbital is  3.63D-05
 Range of M.O.s used for correlation:     5   207
 NBasis=   207 NAE=    16 NBE=    16 NFC=     4 NFV=     0
 NROrb=    203 NOA=    12 NOB=    12 NVA=   191 NVB=   191

 **** Warning!!: The largest alpha MO coefficient is  0.17463728D+02

 Leave Link  801 at Mon Feb 21 19:57:51 2022, MaxMem= 16106127360 cpu:               2.5 elap:               0.2
 (Enter /sw/contrib/gaussian/g16/B01/g16/l906.exe)
 Frozen-core derivative calculation, NFC=   4 NFV=   0.
 FulOut=F Deriv=T AODrv=T NAtomX=     5
   MMem=           0  MDisk=          12 MDiskD=          12
  W3Min=      811440 MinDsk=     2425030 NBas6D=         245
 NBas2D=       30762    NTT=       30135    LW2=     7400000
    MDV= 16105574283 MDiskM=      328644 NBas2p=       30702
 Disk-based method using ON**2 memory for 12 occupieds at a time.
 Permanent disk used for amplitudes=    11516536 words.
 Estimated scratch disk usage=   321251614 words.
 IMap=   1   2   3   4   5   6   7   8   9  10  11  12  13  14  15  16
 Actual    scratch disk usage=   310331678 words.
 JobTyp=1 Pass  1:  I=   5 to  16 NPSUse= 28 ParTrn=T ParDer=T DoDerP=T.
 (rs|ai) integrals will be sorted in core.
 Spin components of T(2) and E(2):
     alpha-alpha T2 =       0.3407346710D-01 E2=     -0.1224681104D+00
     alpha-beta  T2 =       0.1871422728D+00 E2=     -0.7005884184D+00
     beta-beta   T2 =       0.3407346710D-01 E2=     -0.1224681104D+00
 The integrals were generated   1 times.
 ANorm=    0.1120396897D+01
 E2 =    -0.9455246393D+00 EUMP2 =    -0.28044664563727D+03
 Leave Link  906 at Mon Feb 21 19:59:27 2022, MaxMem= 16106127360 cpu:            2704.1 elap:              96.8
 (Enter /sw/contrib/gaussian/g16/B01/g16/l1101.exe)
 Using compressed Sx but separate Hx and Fx, NAtomX=     5.
 Will process      6 centers per pass.
 Leave Link 1101 at Mon Feb 21 19:59:28 2022, MaxMem= 16106127360 cpu:               5.1 elap:               0.2
 (Enter /sw/contrib/gaussian/g16/B01/g16/l1102.exe)
 Leave Link 1102 at Mon Feb 21 19:59:28 2022, MaxMem= 16106127360 cpu:               1.5 elap:               0.1
 (Enter /sw/contrib/gaussian/g16/B01/g16/l1110.exe)
 Forming Gx(P) for the SCF density, NAtomX=     5.
 Integral derivatives from FoFJK, PRISM(SPDF).
 Do as many integral derivatives as possible in FoFJK.
 G2DrvN: MDV=   16106126844.
 G2DrvN: will do     6 centers at a time, making    1 passes.
 Calling FoFCou, ICntrl=  3107 FMM=F I1Cent=   0 AccDes= 0.00D+00.
 FoFJK:  IHMeth= 1 ICntrl=    3107 DoSepK=F KAlg= 0 I1Cent=           0 FoldK=F
 IRaf=         0 NMat=       1 IRICut=       1 DoRegI=T DoRafI=F ISym2E= 1 IDoP0=0 IntGTp=1.
 FoFCou: FMM=F IPFlag=           0 FMFlag=      100000 FMFlg1=           0
         NFxFlg=           0 DoJE=F BraDBF=F KetDBF=F FulRan=T
         wScrn=  0.000000 ICntrl=      3107 IOpCl=  0 I1Cent=           0 NGrid=           0
         NMat0=    1 NMatS0=      1 NMatT0=    0 NMatD0=    1 NMtDS0=    0 NMtDT0=    0
 Petite list used in FoFCou.
 End of G2Drv F.D. properties file   721 does not exist.
 End of G2Drv F.D. properties file   722 does not exist.
 End of G2Drv F.D. properties file   788 does not exist.
 Leave Link 1110 at Mon Feb 21 19:59:31 2022, MaxMem= 16106127360 cpu:              84.3 elap:               3.0
 (Enter /sw/contrib/gaussian/g16/B01/g16/l1002.exe)
 Minotr:  Closed shell wavefunction.
          IDoAtm=11111
          Frozen-core window.
          Direct CPHF calculation.
          Differentiating once with respect to electric field.
                with respect to dipole field.
          Differentiating once with respect to nuclear coordinates.
          Requested convergence is 1.0D-08 RMS, and 1.0D-07 maximum.
          Secondary convergence is 1.0D-12 RMS, and 1.0D-12 maximum.
          NewPWx=T KeepS1=T KeepF1=T KeepIn=T MapXYZ=F SortEE=F KeepMc=T.
 Keep R1 ints in memory in symmetry-blocked form, NReq=348888983.
 FoFCou: FMM=F IPFlag=           0 FMFlag=           0 FMFlg1=           0
         NFxFlg=           0 DoJE=F BraDBF=F KetDBF=F FulRan=T
         wScrn=  0.000000 ICntrl=       600 IOpCl=  0 I1Cent=           0 NGrid=           0
         NMat0=    1 NMatS0=  21528 NMatT0=    0 NMatD0=    1 NMtDS0=    0 NMtDT0=    0
 Petite list used in FoFCou.
          MDV=   16106127360 using IRadAn=       1.
          Solving linear equations simultaneously, MaxMat=       0.
          There are    18 degrees of freedom in the 1st order CPHF.  IDoFFX=6 NUNeed=    18.
     15 vectors produced by pass  0 Test12= 1.70D-14 5.56D-09 XBig12= 8.30D+00 1.07D+00.
 AX will form    15 AO Fock derivatives at one time.
     15 vectors produced by pass  1 Test12= 1.70D-14 5.56D-09 XBig12= 1.34D+00 2.61D-01.
     15 vectors produced by pass  2 Test12= 1.70D-14 5.56D-09 XBig12= 1.41D-01 9.73D-02.
     15 vectors produced by pass  3 Test12= 1.70D-14 5.56D-09 XBig12= 4.86D-03 1.07D-02.
     15 vectors produced by pass  4 Test12= 1.70D-14 5.56D-09 XBig12= 9.59D-05 1.88D-03.
     15 vectors produced by pass  5 Test12= 1.70D-14 5.56D-09 XBig12= 1.36D-06 1.73D-04.
     15 vectors produced by pass  6 Test12= 1.70D-14 5.56D-09 XBig12= 1.09D-08 1.54D-05.
     12 vectors produced by pass  7 Test12= 1.70D-14 5.56D-09 XBig12= 7.96D-11 1.33D-06.
      3 vectors produced by pass  8 Test12= 1.70D-14 5.56D-09 XBig12= 5.61D-13 1.16D-07.
      2 vectors produced by pass  9 Test12= 1.70D-14 5.56D-09 XBig12= 3.67D-15 1.02D-08.
 InvSVY:  IOpt=1 It=  1 EMax= 8.88D-16
 Solved reduced A of dimension   122 with    15 vectors.
 FullF1:  Do perturbations      1 to      18.
 Saving first derivative matrices.
 End of Minotr F.D. properties file   721 does not exist.
 End of Minotr F.D. properties file   722 does not exist.
 End of Minotr F.D. properties file   788 does not exist.
 Leave Link 1002 at Mon Feb 21 19:59:34 2022, MaxMem= 16106127360 cpu:              82.6 elap:               3.0
 (Enter /sw/contrib/gaussian/g16/B01/g16/l811.exe)
 MDV= 16106127360.
 Form MO integral derivatives with frozen-active canonical formalism.
 MOERI=1 MOERIx=1 NAtoms=     5 NAtomX=     5.
 Discarding MO integrals.
 MO basis two electron integral derivatives will not be stored on disk.
 IAlg= 3 DoFC=T DoPWx=T Debug=F.
 Frozen-core window:  NFC=   4 NFV=   0.
 Reordered first order wavefunction length =     18678272
 In DefCFB: NBatch=  1 ICI= 16 ICA=191 LFMax= 96
            Large arrays: LIAPS=   619940160 LIARS=   288257200 words.
 In StABat: MaxSiz= 55 MinSiz= 25 NAtomB=  5
 DoIAMN: NPSUse= 28.
 Leave Link  811 at Mon Feb 21 20:00:55 2022, MaxMem= 16106127360 cpu:            2270.6 elap:              81.3
 (Enter /sw/contrib/gaussian/g16/B01/g16/l804.exe)
 Frozen-core window:  NFC=   4 NFV=   0.
 Closed-shell transformation, MDV= 16106127360 ITran=4 ISComp=1.
 Semi-Direct transformation.
 ModeAB=           2 MOrb=            16 LenV=   16104923051
 LASXX=     67341636 LTotXX=    67341636 LenRXX=    67341636
 LTotAB=    68301760 MaxLAS=    99807120 LenRXY=    99807120
 NonZer=   134683272 LenScr=   202817536 LnRSAI=           0
 LnScr1=           0 LExtra=           0 Total=    369966292
 MaxDsk=          -1 SrtSym=           F ITran=            4
 DoSDTr:  NPSUse= 28
 JobTyp=0 Pass  1:  I=   1 to  16.
 (rs|ai) integrals will be sorted in core.
 Complete sort for first half transformation.
 First half transformation complete.
 Begin second half transformation for I=  10.
 Begin second half transformation for I=  10.
 Complete sort for second half transformation.
 Second half transformation complete.
 Spin components of T(2) and E(2):
     alpha-alpha T2 =       0.3407346710D-01 E2=     -0.1224681104D+00
     alpha-beta  T2 =       0.1871422728D+00 E2=     -0.7005884184D+00
     beta-beta   T2 =       0.3407346710D-01 E2=     -0.1224681104D+00
 ANorm=    0.1584480487D+01
 E2 =    -0.9455246393D+00 EUMP2 =    -0.28044664563727D+03
 Leave Link  804 at Mon Feb 21 20:01:11 2022, MaxMem= 16106127360 cpu:             429.5 elap:              15.4
 (Enter /sw/contrib/gaussian/g16/B01/g16/l1002.exe)
 Minotr:  Closed shell wavefunction.
          Computing MP2/KS-MP2 derivatives.
          Using Z-Vector for PSCF gradient.
          Skipping F1 and S1 gradient terms here.
          IDoAtm=11111
          Frozen-core window.
          Using MO integrals in the linear equations.
          Forming densities via direct SCF.
          Differentiating once with respect to electric field.
                with respect to dipole field.
          Differentiating once with respect to nuclear coordinates.
          Using symmetry in CPHF.
          Requested convergence is 1.0D-10 RMS, and 1.0D-09 maximum.
          NewPWx=F KeepS1=T KeepF1=T KeepIn=T MapXYZ=F SortEE=F KeepMc=T.
          MDV=   16106127360 using IRadAn=       5.
          Solving linear equations separately, MaxMat=       0.
          There are     1 degrees of freedom in the 1st order CPHF.  IDoFFX=0 NUNeed=     1.
 FoFJK:  IHMeth= 1 ICntrl=       0 DoSepK=F KAlg= 0 I1Cent=           0 FoldK=F
 IRaf=         0 NMat=       1 IRICut=       1 DoRegI=T DoRafI=F ISym2E= 0 IDoP0=0 IntGTp=1.
 FoFCou: FMM=F IPFlag=           0 FMFlag=      100000 FMFlg1=           0
         NFxFlg=           0 DoJE=F BraDBF=F KetDBF=F FulRan=T
         wScrn=  0.000000 ICntrl=         0 IOpCl=  0 I1Cent=           0 NGrid=           0
         NMat0=    1 NMatS0=      1 NMatT0=    0 NMatD0=    1 NMtDS0=    0 NMtDT0=    0
 Symmetry not used in FoFCou.
 LinEq1:  Iter=  0 NonCon=     1 RMS=5.96D-03 Max=1.33D-01 NDo=     1
 LinEq1:  Iter=  1 NonCon=     1 RMS=1.91D-03 Max=3.82D-02 NDo=     1
 LinEq1:  Iter=  2 NonCon=     1 RMS=8.70D-04 Max=1.40D-02 NDo=     1
 LinEq1:  Iter=  3 NonCon=     1 RMS=3.87D-04 Max=7.80D-03 NDo=     1
 LinEq1:  Iter=  4 NonCon=     1 RMS=1.20D-04 Max=1.91D-03 NDo=     1
 LinEq1:  Iter=  5 NonCon=     1 RMS=4.53D-05 Max=7.21D-04 NDo=     1
 LinEq1:  Iter=  6 NonCon=     1 RMS=2.03D-05 Max=2.40D-04 NDo=     1
 LinEq1:  Iter=  7 NonCon=     1 RMS=8.14D-06 Max=1.59D-04 NDo=     1
 LinEq1:  Iter=  8 NonCon=     1 RMS=3.49D-06 Max=3.43D-05 NDo=     1
 LinEq1:  Iter=  9 NonCon=     1 RMS=9.52D-07 Max=1.32D-05 NDo=     1
 LinEq1:  Iter= 10 NonCon=     1 RMS=1.87D-07 Max=2.02D-06 NDo=     1
 LinEq1:  Iter= 11 NonCon=     1 RMS=3.49D-08 Max=3.62D-07 NDo=     1
 LinEq1:  Iter= 12 NonCon=     1 RMS=8.41D-09 Max=1.31D-07 NDo=     1
 LinEq1:  Iter= 13 NonCon=     1 RMS=1.52D-09 Max=2.63D-08 NDo=     1
 LinEq1:  Iter= 14 NonCon=     1 RMS=2.74D-10 Max=3.84D-09 NDo=     1
 LinEq1:  Iter= 15 NonCon=     0 RMS=4.94D-11 Max=5.59D-10 NDo=     1
 Linear equations converged to 1.000D-10 1.000D-09 after    15 iterations.
 End of Minotr F.D. properties file   721 does not exist.
 End of Minotr F.D. properties file   722 does not exist.
 End of Minotr F.D. properties file   788 does not exist.
 Leave Link 1002 at Mon Feb 21 20:01:13 2022, MaxMem= 16106127360 cpu:              67.5 elap:               2.5
 (Enter /sw/contrib/gaussian/g16/B01/g16/l1102.exe)
 Use density number 2.
 Symmetrizing basis deriv contribution to polar:
 IMax=3 JMax=2 DiffMx= 0.00D+00
 Leave Link 1102 at Mon Feb 21 20:01:14 2022, MaxMem= 16106127360 cpu:               1.4 elap:               0.1
 (Enter /sw/contrib/gaussian/g16/B01/g16/l1110.exe)
 Forming Gx(P) for generalized density number  2 NAtomX=     5.
 Integral derivatives from FoFJK, PRISM(SPDF).
 Do as many integral derivatives as possible in FoFJK.
 G2DrvN: MDV=   16106126844.
 G2DrvN: will do     6 centers at a time, making    1 passes.
 Calling FoFCou, ICntrl=  3107 FMM=F I1Cent=   0 AccDes= 0.00D+00.
 FoFJK:  IHMeth= 1 ICntrl=    3107 DoSepK=F KAlg= 0 I1Cent=           0 FoldK=F
 IRaf=         0 NMat=       1 IRICut=       1 DoRegI=T DoRafI=F ISym2E= 1 IDoP0=0 IntGTp=1.
 FoFCou: FMM=F IPFlag=           0 FMFlag=      100000 FMFlg1=           0
         NFxFlg=           0 DoJE=F BraDBF=F KetDBF=F FulRan=T
         wScrn=  0.000000 ICntrl=      3107 IOpCl=  0 I1Cent=           0 NGrid=           0
         NMat0=    1 NMatS0=      1 NMatT0=    0 NMatD0=    1 NMtDS0=    0 NMtDT0=    0
 Petite list used in FoFCou.
 End of G2Drv F.D. properties file   721 does not exist.
 End of G2Drv F.D. properties file   722 does not exist.
 End of G2Drv F.D. properties file   788 does not exist.
 Leave Link 1110 at Mon Feb 21 20:01:17 2022, MaxMem= 16106127360 cpu:              83.9 elap:               3.0
 (Enter /sw/contrib/gaussian/g16/B01/g16/l1112.exe)
 MP22nd: MDV=   16106127360
 This link is doing NAtomX=     5 total of    18 degrees of freedom.
 Using ON3 I/O method in MakUI.
 Frozen-core window:  NFC=   4 NFV=   0.
 Using Ix for Sx.
 Use MO integrals over full window.
 Using OV2 memory method for fx*t*t/D, MaxI=    16 DoOO2=F NP=  28.
 R2 and R3 integrals will be kept in memory, NReq=   915591705.
 FoFCou: FMM=F IPFlag=           0 FMFlag=           0 FMFlg1=           0
         NFxFlg=           0 DoJE=F BraDBF=F KetDBF=F FulRan=T
         wScrn=  0.000000 ICntrl=       600 IOpCl=  0 I1Cent=           0 NGrid=           0
         NMat0=    1 NMatS0=      1 NMatT0=    0 NMatD0=    1 NMtDS0=    0 NMtDT0=    0
 Symmetry not used in FoFCou.
 DD1Dir will call FoFMem   1 times, MxPair=       272
 NAB=   136 NAA=     0 NBB=     0.
 Symmetry is being used.
 FoFJK:  IHMeth= 1 ICntrl=       0 DoSepK=F KAlg= 0 I1Cent=           0 FoldK=F
 IRaf=         0 NMat=      18 IRICut=      45 DoRegI=T DoRafI=T ISym2E= 2 IDoP0=3 IntGTp=3.
 Discarding MO integrals.
 Leave Link 1112 at Mon Feb 21 20:01:52 2022, MaxMem= 16106127360 cpu:             967.3 elap:              34.9
 (Enter /sw/contrib/gaussian/g16/B01/g16/l601.exe)
 Copying SCF densities to generalized density rwf, IOpCl= 0 IROHF=0.

 **********************************************************************

            Population analysis using the MP2 Density.

 **********************************************************************

 Orbital symmetries:
       Occupied  (A') (A') (A') (A') (A') (A') (A') (A') (A') (A')
                 (A") (A') (A") (A') (A") (A')
       Virtual   (A') (A") (A') (A') (A') (A") (A') (A') (A") (A')
                 (A") (A') (A') (A') (A") (A') (A') (A") (A') (A')
                 (A') (A') (A') (A') (A") (A') (A') (A") (A') (A')
                 (A") (A') (A") (A') (A') (A") (A') (A') (A") (A')
                 (A") (A') (A") (A') (A') (A") (A') (A') (A") (A')
                 (A") (A') (A') (A') (A") (A') (A") (A') (A") (A')
                 (A') (A') (A") (A') (A') (A") (A') (A") (A') (A')
                 (A") (A') (A') (A") (A") (A') (A') (A") (A') (A')
                 (A') (A") (A') (A") (A") (A') (A') (A") (A') (A')
                 (A") (A') (A') (A") (A') (A") (A') (A") (A') (A')
                 (A") (A') (A") (A') (A') (A") (A') (A') (A") (A')
                 (A") (A') (A') (A') (A") (A') (A') (A') (A') (A")
                 (A") (A') (A") (A') (A') (A") (A") (A') (A") (A')
                 (A') (A') (A') (A") (A") (A") (A') (A') (A') (A')
                 (A") (A') (A") (A') (A') (A") (A') (A') (A') (A')
                 (A") (A') (A') (A") (A') (A") (A') (A") (A') (A")
                 (A') (A") (A') (A') (A") (A") (A") (A') (A") (A')
                 (A") (A') (A") (A') (A") (A') (A") (A") (A') (A')
                 (A') (A') (A') (A') (A') (A') (A') (A') (A') (A')
                 (A')
 The electronic state is 1-A'.
 Alpha  occ. eigenvalues --  -20.69062 -20.68411 -20.66075 -15.81263  -1.62380
 Alpha  occ. eigenvalues --   -1.49454  -1.25248  -0.94784  -0.77199  -0.75837
 Alpha  occ. eigenvalues --   -0.71156  -0.67783  -0.62016  -0.58895  -0.48488
 Alpha  occ. eigenvalues --   -0.47223
 Alpha virt. eigenvalues --    0.02944   0.07183   0.08599   0.10174   0.13396
 Alpha virt. eigenvalues --    0.13403   0.14364   0.15417   0.17840   0.19420
 Alpha virt. eigenvalues --    0.19984   0.20636   0.22085   0.23570   0.23747
 Alpha virt. eigenvalues --    0.26579   0.29323   0.30345   0.31009   0.34352
 Alpha virt. eigenvalues --    0.35028   0.38706   0.42064   0.43048   0.52742
 Alpha virt. eigenvalues --    0.52938   0.55854   0.58180   0.62607   0.63831
 Alpha virt. eigenvalues --    0.67460   0.68353   0.70643   0.71072   0.72332
 Alpha virt. eigenvalues --    0.72941   0.74448   0.79182   0.79193   0.81018
 Alpha virt. eigenvalues --    0.81283   0.83046   0.86838   0.90833   0.92163
 Alpha virt. eigenvalues --    0.92616   0.95574   0.97867   0.98327   1.01465
 Alpha virt. eigenvalues --    1.05245   1.05483   1.08147   1.11616   1.14001
 Alpha virt. eigenvalues --    1.18982   1.22015   1.23074   1.33914   1.35103
 Alpha virt. eigenvalues --    1.38638   1.45073   1.48499   1.50733   1.53832
 Alpha virt. eigenvalues --    1.56689   1.58035   1.61218   1.66494   1.67035
 Alpha virt. eigenvalues --    1.70321   1.79274   1.83100   1.83495   1.87863
 Alpha virt. eigenvalues --    1.90884   1.95065   1.99181   2.00411   2.07762
 Alpha virt. eigenvalues --    2.11973   2.13215   2.15019   2.22391   2.26400
 Alpha virt. eigenvalues --    2.26566   2.28956   2.31338   2.34337   2.38441
 Alpha virt. eigenvalues --    2.42440   2.42798   2.45422   2.46265   2.47621
 Alpha virt. eigenvalues --    2.50063   2.59288   2.59621   2.62137   2.62369
 Alpha virt. eigenvalues --    2.63492   2.66943   2.75742   2.82846   2.85529
 Alpha virt. eigenvalues --    2.88376   2.89442   2.92316   2.95817   3.02337
 Alpha virt. eigenvalues --    3.06751   3.12324   3.20490   3.22590   3.31533
 Alpha virt. eigenvalues --    3.34068   3.51747   3.63919   3.83373   3.83830
 Alpha virt. eigenvalues --    4.13984   4.15953   4.18169   4.25665   4.34308
 Alpha virt. eigenvalues --    4.39099   4.46027   4.51538   4.66085   4.70662
 Alpha virt. eigenvalues --    4.80213   4.81235   4.82566   4.89559   5.02330
 Alpha virt. eigenvalues --    5.07746   5.09296   5.13688   5.17383   5.23065
 Alpha virt. eigenvalues --    5.26542   5.30665   5.30903   5.35308   5.60140
 Alpha virt. eigenvalues --    5.67368   5.76683   5.82396   5.95637   6.17088
 Alpha virt. eigenvalues --    6.30853   6.34013   6.39215   6.49364   6.50540
 Alpha virt. eigenvalues --    6.61221   6.66897   6.69935   6.75824   6.76366
 Alpha virt. eigenvalues --    6.83243   6.89838   7.00697   7.05496   7.05594
 Alpha virt. eigenvalues --    7.08863   7.12183   7.14758   7.17978   7.22256
 Alpha virt. eigenvalues --    7.22748   7.29747   7.32514   7.34521   7.39983
 Alpha virt. eigenvalues --    7.42966   7.48457   7.60724   7.61621   7.62505
 Alpha virt. eigenvalues --    7.66295   7.77930   7.88678   8.08817   8.31103
 Alpha virt. eigenvalues --    8.39691   8.54109  13.38823  14.37983  15.02379
 Alpha virt. eigenvalues --   16.15256
          Condensed to atoms (all electrons):
               1          2          3          4          5
     1  H    0.579103   0.132228   0.018902   0.012149  -0.000620
     2  O    0.132228   8.323983  -0.172367  -0.089674   0.015405
     3  O    0.018902  -0.172367   8.468663  -0.129819  -0.038886
     4  N    0.012149  -0.089674  -0.129819   6.972023  -0.055750
     5  O   -0.000620   0.015405  -0.038886  -0.055750   8.273090
 Mulliken charges:
               1
     1  H    0.258236
     2  O   -0.209576
     3  O   -0.146493
     4  N    0.291071
     5  O   -0.193238
 Sum of Mulliken charges =  -0.00000
 Mulliken charges with hydrogens summed into heavy atoms:
               1
     2  O    0.048660
     3  O   -0.146493
     4  N    0.291071
     5  O   -0.193238
 APT charges:
               1
     1  H    0.298627
     2  O   -0.286664
     3  O   -0.496137
     4  N    0.876818
     5  O   -0.392645
 Sum of APT charges =  -0.00000
 APT charges with hydrogens summed into heavy atoms:
               1
     2  O    0.011964
     3  O   -0.496137
     4  N    0.876818
     5  O   -0.392645
 Electronic spatial extent (au):  <R**2>=            253.0098
 Charge=             -0.0000 electrons
 Dipole moment (field-independent basis, Debye):
    X=              0.5135    Y=              1.3735    Z=              0.0000  Tot=              1.4663
 Quadrupole moment (field-independent basis, Debye-Ang):
   XX=            -22.4735   YY=            -18.5768   ZZ=            -22.0229
   XY=              3.2757   XZ=              0.0000   YZ=             -0.0000
 Traceless Quadrupole moment (field-independent basis, Debye-Ang):
   XX=             -1.4491   YY=              2.4476   ZZ=             -0.9985
   XY=              3.2757   XZ=              0.0000   YZ=             -0.0000
 Octapole moment (field-independent basis, Debye-Ang**2):
  XXX=              2.8419  YYY=             11.4172  ZZZ=             -0.0000  XYY=              7.9814
  XXY=              6.6052  XXZ=              0.0000  XZZ=             -1.5952  YZZ=             -0.8678
  YYZ=              0.0000  XYZ=              0.0000
 Hexadecapole moment (field-independent basis, Debye-Ang**3):
 XXXX=           -158.5900 YYYY=            -89.5951 ZZZZ=            -18.2624 XXXY=            -36.7119
 XXXZ=             -0.0000 YYYX=            -30.5822 YYYZ=             -0.0000 ZZZX=             -0.0000
 ZZZY=             -0.0000 XXYY=            -33.8946 XXZZ=            -30.9086 YYZZ=            -20.7144
 XXYZ=             -0.0000 YYXZ=             -0.0000 ZZXY=            -15.0917
 N-N= 1.168143640570D+02 E-N=-8.957368005573D+02  KE= 2.801805647745D+02
 Symmetry A'   KE= 2.662098745266D+02
 Symmetry A"   KE= 1.397069024790D+01
  Exact polarizability:  34.048   9.519  30.392   0.000   0.000  17.952
 Approx polarizability:  29.034   5.119  23.626   0.000   0.000  15.538
 No NMR shielding tensors so no spin-rotation constants.
 Leave Link  601 at Mon Feb 21 20:01:52 2022, MaxMem= 16106127360 cpu:               6.1 elap:               0.3
 (Enter /sw/contrib/gaussian/g16/B01/g16/l701.exe)
 ... and contract with generalized density number  2.
 Compute integral second derivatives.
 Leave Link  701 at Mon Feb 21 20:01:52 2022, MaxMem= 16106127360 cpu:               7.0 elap:               0.3
 (Enter /sw/contrib/gaussian/g16/B01/g16/l702.exe)
 L702 exits ... SP integral derivatives will be done elsewhere.
 Leave Link  702 at Mon Feb 21 20:01:53 2022, MaxMem= 16106127360 cpu:               1.8 elap:               0.1
 (Enter /sw/contrib/gaussian/g16/B01/g16/l703.exe)
 Integral derivatives from FoFJK, PRISM(SPDF).
 Compute integral second derivatives, UseDBF=F ICtDFT=           0.
 Calling FoFJK, ICntrl=  10100127 FMM=F ISym2X=1 I1Cent= 0 IOpClX= 0 NMat=1 NMatS=1 NMatT=0.
 FoFJK:  IHMeth= 1 ICntrl=10100127 DoSepK=F KAlg= 0 I1Cent=           0 FoldK=F
 IRaf=         0 NMat=       1 IRICut=       1 DoRegI=T DoRafI=F ISym2E= 1 IDoP0=0 IntGTp=1.
 FoFCou: FMM=F IPFlag=           0 FMFlag=      100000 FMFlg1=         800
         NFxFlg=           0 DoJE=F BraDBF=F KetDBF=F FulRan=T
         wScrn=  0.000000 ICntrl=  10100127 IOpCl=  0 I1Cent=           0 NGrid=           0
         NMat0=    1 NMatS0=      1 NMatT0=    0 NMatD0=    1 NMtDS0=    0 NMtDT0=    0
 Petite list used in FoFCou.
 Leave Link  703 at Mon Feb 21 20:02:08 2022, MaxMem= 16106127360 cpu:             425.3 elap:              15.2
 (Enter /sw/contrib/gaussian/g16/B01/g16/l716.exe)
 Dipole        = 2.02024665D-01 5.40365614D-01 4.43010226D-32
 Polarizability= 3.40477598D+01 9.51872431D+00 3.03924289D+01
                 6.52275551D-31 5.91283511D-30 1.79519967D+01
 Full mass-weighted force constant matrix:
 Low frequencies ---  -88.0729  -10.1697   -0.0008    0.0006    0.0014   31.4921
 Low frequencies ---  221.0640  283.4913  349.2360
 Diagonal vibrational polarizability:
       14.0419258      25.1063565      56.0368196
 Harmonic frequencies (cm**-1), IR intensities (KM/Mole), Raman scattering
 activities (A**4/AMU), depolarization ratios for plane and unpolarized
 incident light, reduced masses (AMU), force constants (mDyne/A),
 and normal coordinates:
                      1                      2                      3
                     A"                     A"                     A'
 Frequencies --    212.5576               261.1268               349.1558
 Red. masses --      4.4909                 1.3342                 8.9901
 Frc consts  --      0.1195                 0.0536                 0.6457
 IR Inten    --     34.4770                89.9522                 3.9019
  Atom  AN      X      Y      Z        X      Y      Z        X      Y      Z
     1   1     0.00  -0.00   0.87    -0.00  -0.00   0.99     0.51  -0.45  -0.00
     2   8     0.00  -0.00  -0.24    -0.00  -0.00   0.01    -0.09  -0.39   0.00
     3   8     0.00   0.00   0.12    -0.00  -0.00  -0.11    -0.15   0.43  -0.00
     4   7    -0.00  -0.00   0.34     0.00   0.00  -0.06     0.05   0.27  -0.00
     5   8    -0.00  -0.00  -0.24     0.00   0.00   0.09     0.17  -0.26   0.00
                      4                      5                      6
                     A'                     A'                     A'
 Frequencies --    451.4943               788.4559               967.7557
 Red. masses --     12.3266                13.2941                15.1916
 Frc consts  --      1.4805                 4.8693                 8.3827
 IR Inten    --    200.3575               176.9952                20.9288
  Atom  AN      X      Y      Z        X      Y      Z        X      Y      Z
     1   1     0.41   0.19   0.00    -0.30   0.19   0.00    -0.21  -0.04   0.00
     2   8     0.32   0.20   0.00     0.42   0.09   0.00    -0.52   0.03   0.00
     3   8     0.17   0.44  -0.00    -0.06  -0.28  -0.00     0.75  -0.01  -0.00
     4   7    -0.35  -0.40  -0.00    -0.14   0.63  -0.00    -0.12   0.24  -0.00
     5   8    -0.22  -0.30   0.00    -0.22  -0.37   0.00    -0.11  -0.22   0.00
                      7                      8                      9
                     A'                     A'                     A'
 Frequencies --   1401.1694              1677.5506              3651.2062
 Red. masses --      1.1275                12.9708                 1.0676
 Frc consts  --      1.3043                21.5064                 8.3853
 IR Inten    --    152.0813               138.4942                81.2826
  Atom  AN      X      Y      Z        X      Y      Z        X      Y      Z
     1   1     0.99  -0.05   0.00    -0.37   0.01  -0.00     0.10   0.99  -0.00
     2   8    -0.03   0.05   0.00    -0.00  -0.04  -0.00    -0.01  -0.06  -0.00
     3   8    -0.02  -0.05  -0.00     0.00   0.15   0.00     0.00   0.00   0.00
     4   7     0.02   0.01  -0.00     0.70  -0.05   0.00    -0.00  -0.00   0.00
     5   8    -0.03  -0.01   0.00    -0.59  -0.07  -0.00     0.00   0.00  -0.00

 -------------------
 - Thermochemistry -
 -------------------
 Temperature   298.150 Kelvin.  Pressure   1.00000 Atm.
 Atom     1 has atomic number  1 and mass   1.00783
 Atom     2 has atomic number  8 and mass  15.99491
 Atom     3 has atomic number  8 and mass  15.99491
 Atom     4 has atomic number  7 and mass  14.00307
 Atom     5 has atomic number  8 and mass  15.99491
 Molecular mass:    62.99564 amu.
 Principal axes and moments of inertia in atomic units:
                           1         2         3
     Eigenvalues --    32.86558 360.25532 393.12091
           X            0.81005  -0.58636   0.00000
           Y            0.58636   0.81005   0.00000
           Z            0.00000  -0.00000   1.00000
 This molecule is an asymmetric top.
 Rotational symmetry number  1.
 Rotational temperatures (Kelvin)      2.63540     0.24042     0.22032
 Rotational constants (GHZ):          54.91280     5.00962     4.59080
 Zero-point vibrational energy      58380.6 (Joules/Mol)
                                   13.95330 (Kcal/Mol)
 Warning -- explicit consideration of   4 degrees of freedom as
           vibrations may cause significant error
 Vibrational temperatures:    305.82   375.70   502.36   649.60  1134.41
          (Kelvin)           1392.38  2015.97  2413.62  5253.27
 
 Zero-point correction=                           0.022236 (Hartree/Particle)
 Thermal correction to Energy=                    0.026839
 Thermal correction to Enthalpy=                  0.027783
 Thermal correction to Gibbs Free Energy=        -0.004232
 Sum of electronic and zero-point Energies=           -280.424410
 Sum of electronic and thermal Energies=              -280.419807
 Sum of electronic and thermal Enthalpies=            -280.418863
 Sum of electronic and thermal Free Energies=         -280.450878
 
                     E (Thermal)             CV                S
                      KCal/Mol        Cal/Mol-Kelvin    Cal/Mol-Kelvin
 Total                   16.842             13.691             67.382
 Electronic               0.000              0.000              0.000
 Translational            0.889              2.981             38.341
 Rotational               0.889              2.981             23.058
 Vibrational             15.064              7.729              5.984
 Vibration     1          0.644              1.822              2.022
 Vibration     2          0.669              1.744              1.654
 Vibration     3          0.726              1.577              1.170
 Vibration     4          0.810              1.358              0.791
                       Q            Log10(Q)             Ln(Q)
 Total Bot       0.884718D+02          1.946805          4.482684
 Total V=0       0.149500D+13         12.174642         28.033150
 Vib (Bot)       0.184332D-09         -9.734399        -22.414282
 Vib (Bot)    1  0.933447D+00         -0.029910         -0.068871
 Vib (Bot)    2  0.743408D+00         -0.128773         -0.296511
 Vib (Bot)    3  0.528705D+00         -0.276787         -0.637325
 Vib (Bot)    4  0.379360D+00         -0.420948         -0.969270
 Vib (V=0)       0.311486D+01          0.493438          1.136183
 Vib (V=0)    1  0.155893D+01          0.192825          0.443997
 Vib (V=0)    2  0.139591D+01          0.144857          0.333547
 Vib (V=0)    3  0.122769D+01          0.089088          0.205132
 Vib (V=0)    4  0.112763D+01          0.052165          0.120114
 Electronic      0.100000D+01          0.000000          0.000000
 Translational   0.196526D+08          7.293420         16.793719
 Rotational      0.244222D+05          4.387785         10.103247
 
                                                                title
                                                             IR Spectrum
 
     3                                                                    1         1                                                
     6                                                                    6         4              9     7           4  3  2 2       
     5                                                                    7         0              6     8           5  4  6 1       
     1                                                                    8         1              8     8           1  9  1 3       
 
     X                                                                    X         X              X     X           X  X  X X       
     X                                                                    X         X              X     X           X     X X       
     X                                                                    X         X                    X           X     X X       
     X                                                                    X         X                    X           X     X         
     X                                                                    X         X                    X           X     X         
     X                                                                    X         X                    X           X     X         
     X                                                                    X         X                    X           X     X         
     X                                                                    X         X                    X           X     X         
                                                                          X         X                    X           X     X         
                                                                          X         X                    X           X               
                                                                          X         X                    X           X               
                                                                          X         X                    X           X               
                                                                          X         X                    X           X               
                                                                          X         X                    X           X               
                                                                                    X                    X           X               
                                                                                                         X           X               
                                                                                                         X           X               
                                                                                                         X           X               
                                                                                                                     X               
                                                                                                                     X               
 
 ***** Axes restored to original set *****
 -------------------------------------------------------------------
 Center     Atomic                   Forces (Hartrees/Bohr)
 Number     Number              X              Y              Z
 -------------------------------------------------------------------
      1        1           0.000166638   -0.000000000    0.009341604
      2        8          -0.000136173    0.000000000   -0.009171847
      3        8           0.000044008    0.000000000   -0.000021013
      4        7          -0.000512057   -0.000000000   -0.000247905
      5        8           0.000437584    0.000000000    0.000099161
 -------------------------------------------------------------------
 Cartesian Forces:  Max     0.009341604 RMS     0.003385873
 -----------------------------------------------------------------------------------------------
                       Internal Coordinate Forces (Hartree/Bohr or radian)
  Cent   Atom   N1       Length/X         N2         Alpha/Y        N3         Beta/Z          J
 -----------------------------------------------------------------------------------------------
      1  H 
      2  O        1  -0.009342(     1)
      3  O        2  -0.000053(     2)      1  -0.000308(     5)
      4  N        3  -0.000154(     3)      2  -0.000143(     6)      1  -0.000000(     8)     0
      5  O        4   0.000449(     4)      3  -0.000028(     7)      2   0.000000(     9)     0
 -----------------------------------------------------------------------------------------------
 Internal  Forces:  Max     0.009341604 RMS     0.003120001
 Force constants in Cartesian coordinates: 
                1             2             3             4             5 
      1  0.681039D-01
      2  0.000000D+00  0.272726D-02
      3  0.520753D-02  0.000000D+00  0.478376D+00
      4 -0.397848D-01  0.000000D+00 -0.159715D-01  0.277142D+00
      5  0.000000D+00 -0.199904D-02  0.000000D+00  0.000000D+00  0.706019D-02
      6  0.475370D-01  0.000000D+00 -0.474515D+00  0.337764D-01  0.000000D+00
      7 -0.179778D-01  0.000000D+00  0.123107D-01 -0.220478D+00  0.000000D+00
      8  0.000000D+00  0.943930D-03  0.000000D+00  0.000000D+00 -0.645366D-02
      9 -0.523943D-01  0.000000D+00 -0.582981D-03 -0.199365D-01  0.000000D+00
     10 -0.912253D-02  0.000000D+00 -0.486236D-02 -0.171851D-01  0.000000D+00
     11  0.000000D+00 -0.269687D-02  0.000000D+00  0.000000D+00 -0.496002D-02
     12  0.534068D-02  0.000000D+00 -0.465163D-02  0.114592D-01  0.000000D+00
     13 -0.121874D-02  0.000000D+00  0.331561D-02  0.305264D-03  0.000000D+00
     14  0.000000D+00  0.102472D-02  0.000000D+00  0.000000D+00  0.635254D-02
     15 -0.569097D-02  0.000000D+00  0.137379D-02 -0.932767D-02  0.000000D+00
                6             7             8             9            10 
      6  0.560189D+00
      7 -0.208194D-01  0.341451D+00
      8  0.000000D+00  0.000000D+00  0.416304D-02
      9 -0.781840D-01  0.356828D-01  0.000000D+00  0.180798D+00
     10 -0.524172D-01 -0.782080D-01  0.000000D+00  0.174907D+00  0.828593D+00
     11  0.000000D+00  0.000000D+00  0.851554D-02  0.000000D+00  0.000000D+00
     12  0.171534D-01  0.632243D-01  0.000000D+00 -0.816658D-01 -0.179302D-01
     13 -0.807679D-02 -0.247878D-01  0.000000D+00 -0.138259D+00 -0.724078D+00
     14  0.000000D+00  0.000000D+00 -0.716885D-02  0.000000D+00  0.000000D+00
     15 -0.246427D-01 -0.903984D-01  0.000000D+00 -0.203654D-01 -0.996973D-01
               11            12            13            14            15 
     11  0.854825D-02
     12  0.000000D+00  0.186271D+00
     13  0.000000D+00 -0.620939D-01  0.749779D+00
     14 -0.940690D-02  0.000000D+00  0.000000D+00  0.919848D-02
     15  0.000000D+00 -0.117107D+00  0.205114D+00  0.000000D+00  0.160742D+00
 Force constants in internal coordinates: 
                1             2             3             4             5 
      1  0.478376D+00
      2 -0.101593D-01  0.281085D+00
      3  0.339362D-02  0.254296D-02  0.117065D+00
      4 -0.355280D-02  0.594377D-02  0.153057D+00  0.812120D+00
      5  0.980038D-02  0.648260D-01  0.221437D-02  0.479642D-02  0.215795D+00
      6  0.463292D-02  0.590840D-01  0.407261D-01  0.218327D-01  0.310877D-01
      7 -0.112413D-02  0.376538D-01  0.323189D-01  0.846772D-01  0.213270D-01
      8  0.000000D+00  0.000000D+00  0.000000D+00  0.000000D+00  0.000000D+00
      9  0.000000D+00  0.000000D+00  0.000000D+00  0.000000D+00  0.000000D+00
                6             7             8             9 
      6  0.282217D+00
      7  0.959436D-01  0.482618D+00
      8  0.000000D+00  0.000000D+00 -0.776806D-02
      9  0.000000D+00  0.000000D+00 -0.392847D-02  0.411113D-01
 Leave Link  716 at Mon Feb 21 20:02:08 2022, MaxMem= 16106127360 cpu:               2.0 elap:               0.1
 (Enter /sw/contrib/gaussian/g16/B01/g16/l103.exe)

 GradGradGradGradGradGradGradGradGradGradGradGradGradGradGradGradGradGrad
 Berny optimization.
 Search for a local minimum.
 Step number   1 out of a maximum of    2
 All quantities printed in internal units (Hartrees-Bohrs-Radians)
 Second derivative matrix not updated -- analytic derivatives used.
 The second derivative matrix:
                          r1        r2        r3        r4        a1
           r1           0.47838
           r2          -0.01016   0.28109
           r3           0.00339   0.00254   0.11707
           r4          -0.00355   0.00594   0.15306   0.81212
           a1           0.00980   0.06483   0.00221   0.00480   0.21579
           a2           0.00463   0.05908   0.04073   0.02183   0.03109
           a3          -0.00112   0.03765   0.03232   0.08468   0.02133
           d1           0.00000  -0.00000   0.00000   0.00000  -0.00000
           d2          -0.00000  -0.00000   0.00000   0.00000  -0.00000
                          a2        a3        d1        d2
           a2           0.28222
           a3           0.09594   0.48262
           d1          -0.00000  -0.00000  -0.00777
           d2          -0.00000  -0.00000  -0.00393   0.04111
 ITU=  0
     Eigenvalues ---   -0.00808   0.04142   0.07821   0.17495   0.22464
     Eigenvalues ---    0.32430   0.47915   0.51702   0.87100
 Eigenvalue     1 is  -8.08D-03 should be greater than     0.000000 Eigenvector:
                          d1        d2        r3        a3        a2
   1                    0.99683   0.07960  -0.00000   0.00000   0.00000
                          r4        a1        r2        r1
   1                    0.00000  -0.00000   0.00000   0.00000
 Angle between quadratic step and forces=   5.42 degrees.
 Linear search not attempted -- first point.
 Variable       Old X    -DE/DX   Delta X   Delta X   Delta X     New X
                                 (Linear)    (Quad)   (Total)
    r1        1.84996  -0.00934   0.00000  -0.01952  -0.01952   1.83044
    r2        2.74940  -0.00005   0.00000  -0.00087  -0.00087   2.74853
    r3        2.75670  -0.00015   0.00000  -0.00188  -0.00188   2.75482
    r4        2.21236   0.00045   0.00000   0.00083   0.00083   2.21319
    a1        1.70335  -0.00031   0.00000  -0.00031  -0.00031   1.70304
    a2        1.78543  -0.00014   0.00000   0.00027   0.00027   1.78570
    a3        1.90362  -0.00003   0.00000  -0.00009  -0.00009   1.90353
    d1        3.14159  -0.00000   0.00000  -0.00000   0.00000   3.14159
    d2        3.14159   0.00000   0.00000  -0.00000   0.00000   3.14159
         Item               Value     Threshold  Converged?
 Maximum Force            0.009342     0.000450     NO 
 RMS     Force            0.003120     0.000300     NO 
 Maximum Displacement     0.019523     0.001800     NO 
 RMS     Displacement     0.006552     0.001200     NO 
 Predicted change in Energy=-9.157302D-05
                       ----------------------------
                       ! Non-Optimized Parameters !
                       ! (Angstroms and Degrees)  !
 ----------------------                            ----------------------
 !      Name          Value   Derivative information (Atomic Units)     !
 ------------------------------------------------------------------------
 !       r1          0.9686   -DE/DX =   -0.0093                        !
 !       r2          1.4545   -DE/DX =   -0.0001                        !
 !       r3          1.4578   -DE/DX =   -0.0002                        !
 !       r4          1.1712   -DE/DX =    0.0004                        !
 !       a1         97.5772   -DE/DX =   -0.0003                        !
 !       a2        102.3129   -DE/DX =   -0.0001                        !
 !       a3        109.0641   -DE/DX =    0.0                           !
 !       d1        180.0      -DE/DX =    0.0                           !
 !       d2        180.0      -DE/DX =    0.0                           !
 ------------------------------------------------------------------------
 GradGradGradGradGradGradGradGradGradGradGradGradGradGradGradGradGradGrad

 Leave Link  103 at Mon Feb 21 20:02:08 2022, MaxMem= 16106127360 cpu:               1.2 elap:               0.1
 (Enter /sw/contrib/gaussian/g16/B01/g16/l9999.exe)

 ----------------------------------------------------------------------

 Electric dipole moment (input orientation):
 (Debye = 10**-18 statcoulomb cm , SI units = C m)
                  (au)            (Debye)         (10**-30 SI)
   Tot        0.576896D+00      0.146632D+01      0.489113D+01
   x         -0.148020D+00     -0.376228D+00     -0.125496D+01
   y          0.000000D+00      0.000000D+00      0.000000D+00
   z         -0.557583D+00     -0.141724D+01     -0.472739D+01

 Dipole polarizability, Alpha (input orientation).
 (esu units = cm**3 , SI units = C**2 m**2 J**-1)
 Alpha(0;0):
               (au)            (10**-24 esu)      (10**-40 SI)
   iso        0.274641D+02      0.406975D+01      0.452821D+01
   aniso      0.220322D+02      0.326484D+01      0.363262D+01
   xx         0.321533D+02      0.476463D+01      0.530136D+01
   yx         0.000000D+00      0.000000D+00      0.000000D+00
   yy         0.179520D+02      0.266021D+01      0.295988D+01
   zx         0.969237D+01      0.143626D+01      0.159806D+01
   zy         0.000000D+00      0.000000D+00      0.000000D+00
   zz         0.322869D+02      0.478442D+01      0.532339D+01

 ----------------------------------------------------------------------

 Dipole orientation:
     1         -0.00000000          0.00000000         -0.00000000
     8         -0.47466110          0.00000000         -1.78802804
     8          2.06614718         -0.00000000         -2.83849856
     7          1.57965318         -0.00000000         -5.55193392
     8          3.51022449         -0.00000000         -6.63240484

 Electric dipole moment (dipole orientation):
 (Debye = 10**-18 statcoulomb cm , SI units = C m)
                  (au)            (Debye)         (10**-30 SI)
   Tot        0.576896D+00      0.146632D+01      0.489113D+01
   x          0.000000D+00      0.000000D+00      0.000000D+00
   y          0.000000D+00      0.000000D+00      0.000000D+00
   z          0.576896D+00      0.146632D+01      0.489113D+01

 Dipole polarizability, Alpha (dipole orientation).
 (esu units = cm**3 , SI units = C**2 m**2 J**-1)
 Alpha(0;0):
               (au)            (10**-24 esu)      (10**-40 SI)
   iso        0.274641D+02      0.406975D+01      0.452821D+01
   aniso      0.220322D+02      0.326484D+01      0.363262D+01
   xx         0.273549D+02      0.405357D+01      0.451021D+01
   yx         0.000000D+00      0.000000D+00      0.000000D+00
   yy         0.179520D+02      0.266021D+01      0.295988D+01
   zx        -0.838308D+01     -0.124224D+01     -0.138218D+01
   zy         0.000000D+00      0.000000D+00      0.000000D+00
   zz         0.370853D+02      0.549548D+01      0.611454D+01

 ----------------------------------------------------------------------
 1\1\GINC-N2110\Freq\RMP2-FC\Aug-CC-pVTZ\H1N1O3\CGAVINH\21-Feb-2022\1\\
 #p freq mp2/aug-cc-pvtz density=current\\title\\0,1\H\O,1,r1\O,2,r2,1,
 a1\N,3,r3,2,a2,1,d1,0\O,4,r4,3,a3,2,d2,0\\r1=0.97895602\r2=1.45491931\
 r3=1.45878406\r4=1.17072885\a1=97.59494903\a2=102.29752444\a3=109.0695
 5123\d1=180.\d2=180.\\Version=ES64L-G16RevB.01\State=1-A'\HF=-279.5011
 21\MP2=-280.4466456\RMSD=3.792e-09\RMSF=3.386e-03\ZeroPoint=0.022236\T
 hermal=0.0268389\Dipole=-0.1480196,0.,-0.5575833\DipoleDeriv=0.2675715
 ,0.,0.0479934,0.,0.3541768,0.,0.0801835,0.,0.2741332,-0.3280466,0.,-0.
 2081006,0.,-0.3123765,0.,-0.1072484,0.,-0.2195677,-0.0463191,0.,0.1510
 537,0.,-0.0869953,0.,-0.7544125,0.,-1.3550962,0.8940926,0.,0.9087847,0
 .,0.0658729,0.,0.9236011,0.,1.6704885,-0.7872984,0.,-0.8997312,0.,-0.0
 206779,0.,-0.1421238,0.,-0.3699578\Polar=32.153294,0.,17.9519967,9.692
 3687,0.,32.2868947\Quadrupole=-1.5251538,-0.7423548,2.2675087,0.,2.105
 5435,0.\PG=CS [SG(H1N1O3)]\NImag=0\\0.06810391,0.,0.00272726,0.0052075
 3,0.,0.47837625,-0.03978480,0.,-0.01597149,0.27714247,0.,-0.00199904,0
 .,0.,0.00706019,0.04753702,0.,-0.47451542,0.03377642,0.,0.56018871,-0.
 01797785,0.,0.01231072,-0.22047782,0.,-0.02081942,0.34145145,0.,0.0009
 4393,0.,0.,-0.00645366,0.,0.,0.00416304,-0.05239425,0.,-0.00058298,-0.
 01993647,0.,-0.07818397,0.03568285,0.,0.18079814,-0.00912253,0.,-0.004
 86236,-0.01718512,0.,-0.05241722,-0.07820799,0.,0.17490708,0.82859329,
 0.,-0.00269687,0.,0.,-0.00496002,0.,0.,0.00851554,0.,0.,0.00854825,0.0
 0534068,0.,-0.00465163,0.01145922,0.,0.01715343,0.06322426,0.,-0.08166
 580,-0.01793024,0.,0.18627130,-0.00121874,0.,0.00331561,0.00030526,0.,
 -0.00807679,-0.02478780,0.,-0.13825920,-0.72407766,0.,-0.06209392,0.74
 977893,0.,0.00102472,0.,0.,0.00635254,0.,0.,-0.00716885,0.,0.,-0.00940
 690,0.,0.,0.00919848,-0.00569097,0.,0.00137379,-0.00932767,0.,-0.02464
 275,-0.09039841,0.,-0.02036539,-0.09969725,0.,-0.11710730,0.20511430,0
 .,0.16074165\\-0.00016664,0.,-0.00934160,0.00013617,0.,0.00917185,-0.0
 0004401,0.,0.00002101,0.00051206,0.,0.00024791,-0.00043758,0.,-0.00009
 916\\\@


    UPON JULIA'S CLOTHES

 WHENAS IN SILKS MY JULIA GOES,
 THEN, THEN, METHINKS, HOW SWEETLY FLOWS
 THAT LIQUEFACTION OF HER CLOTHES.

 NEXT, WHEN I CAST MINE EYES, AND SEE
 THAT BRAVE VIBRATION, EACH WAY FREE,
 O, HOW THAT GLITTERING TAKETH ME!
     -- ROBERT HERRICK, 1648
 Job cpu time:       0 days  2 hours  0 minutes 24.7 seconds.
 Elapsed time:       0 days  0 hours  4 minutes 21.4 seconds.
 File lengths (MBytes):  RWF=   7239 Int=      0 D2E=      0 Chk=      8 Scr=      1
 Normal termination of Gaussian 16 at Mon Feb 21 20:02:09 2022.
