 Entering Gaussian System, Link 0=g16
 Input=hono_r3_m_02.gjf
 Output=hono_r3_m_02.log
 Initial command:
 /sw/contrib/gaussian/g16/B01/g16/l1.exe "/scr/Gau-18147.inp" -scrdir="/scr/"
 Entering Link 1 = /sw/contrib/gaussian/g16/B01/g16/l1.exe PID=     18148.
  
 Copyright (c) 1988-2017, Gaussian, Inc.  All Rights Reserved.
  
 This is part of the Gaussian(R) 16 program.  It is based on
 the Gaussian(R) 09 system (copyright 2009, Gaussian, Inc.),
 the Gaussian(R) 03 system (copyright 2003, Gaussian, Inc.),
 the Gaussian(R) 98 system (copyright 1998, Gaussian, Inc.),
 the Gaussian(R) 94 system (copyright 1995, Gaussian, Inc.),
 the Gaussian 92(TM) system (copyright 1992, Gaussian, Inc.),
 the Gaussian 90(TM) system (copyright 1990, Gaussian, Inc.),
 the Gaussian 88(TM) system (copyright 1988, Gaussian, Inc.),
 the Gaussian 86(TM) system (copyright 1986, Carnegie Mellon
 University), and the Gaussian 82(TM) system (copyright 1983,
 Carnegie Mellon University). Gaussian is a federally registered
 trademark of Gaussian, Inc.
  
 This software contains proprietary and confidential information,
 including trade secrets, belonging to Gaussian, Inc.
  
 This software is provided under written license and may be
 used, copied, transmitted, or stored only in accord with that
 written license.
  
 The following legend is applicable only to US Government
 contracts under FAR:
  
                    RESTRICTED RIGHTS LEGEND
  
 Use, reproduction and disclosure by the US Government is
 subject to restrictions as set forth in subparagraphs (a)
 and (c) of the Commercial Computer Software - Restricted
 Rights clause in FAR 52.227-19.
  
 Gaussian, Inc.
 340 Quinnipiac St., Bldg. 40, Wallingford CT 06492
  
  
 ---------------------------------------------------------------
 Warning -- This program may not be used in any manner that
 competes with the business of Gaussian, Inc. or will provide
 assistance to any competitor of Gaussian, Inc.  The licensee
 of this program is prohibited from giving any competitor of
 Gaussian, Inc. access to this program.  By using this program,
 the user acknowledges that Gaussian, Inc. is engaged in the
 business of creating and licensing software in the field of
 computational chemistry and represents and warrants to the
 licensee that it is not a competitor of Gaussian, Inc. and that
 it will not use this program in any manner prohibited above.
 ---------------------------------------------------------------
  

 Cite this work as:
 Gaussian 16, Revision B.01,
 M. J. Frisch, G. W. Trucks, H. B. Schlegel, G. E. Scuseria, 
 M. A. Robb, J. R. Cheeseman, G. Scalmani, V. Barone, 
 G. A. Petersson, H. Nakatsuji, X. Li, M. Caricato, A. V. Marenich, 
 J. Bloino, B. G. Janesko, R. Gomperts, B. Mennucci, H. P. Hratchian, 
 J. V. Ortiz, A. F. Izmaylov, J. L. Sonnenberg, D. Williams-Young, 
 F. Ding, F. Lipparini, F. Egidi, J. Goings, B. Peng, A. Petrone, 
 T. Henderson, D. Ranasinghe, V. G. Zakrzewski, J. Gao, N. Rega, 
 G. Zheng, W. Liang, M. Hada, M. Ehara, K. Toyota, R. Fukuda, 
 J. Hasegawa, M. Ishida, T. Nakajima, Y. Honda, O. Kitao, H. Nakai, 
 T. Vreven, K. Throssell, J. A. Montgomery, Jr., J. E. Peralta, 
 F. Ogliaro, M. J. Bearpark, J. J. Heyd, E. N. Brothers, K. N. Kudin, 
 V. N. Staroverov, T. A. Keith, R. Kobayashi, J. Normand, 
 K. Raghavachari, A. P. Rendell, J. C. Burant, S. S. Iyengar, 
 J. Tomasi, M. Cossi, J. M. Millam, M. Klene, C. Adamo, R. Cammi, 
 J. W. Ochterski, R. L. Martin, K. Morokuma, O. Farkas, 
 J. B. Foresman, and D. J. Fox, Gaussian, Inc., Wallingford CT, 2016.
 
 ******************************************
 Gaussian 16:  ES64L-G16RevB.01 20-Dec-2017
                31-Jan-2022 
 ******************************************
 %nproc=28
 Will use up to   28 processors via shared memory.
 %mem=120GB
 %chk=/gscratch/ilahie/mccoygrp/coire_hoono/hono/hono_r3_m_02.chk
 -------------------------------------
 #p SP mp2/aug-cc-pvtz density=current
 -------------------------------------
 1/30=1,38=1,172=1/1;
 2/12=2,17=6,18=5,40=1/2;
 3/5=16,6=1,7=10,11=9,25=1,30=1,71=1/1,2,3;
 4//1;
 5/5=2,38=5/2;
 8/6=4,10=1/1;
 9/15=1,16=-3/6;
 10/5=1,13=10/2;
 6/7=2,8=2,9=2,10=2,22=-1/1;
 99/5=1,9=1/99;
 Leave Link    1 at Mon Jan 31 11:55:41 2022, MaxMem= 16106127360 cpu:               6.6 elap:               0.2
 (Enter /sw/contrib/gaussian/g16/B01/g16/l101.exe)
 -----
 title
 -----
 Symbolic Z-matrix:
 Charge =  0 Multiplicity = 1
 H
 O                    1    r1
 N                    2    r2       1    a1
 O                    3    r3       2    a2       1    d1       0
       Variables:
  r1                    0.97026                  
  r2                    1.42776                  
  r3                    1.1568                   
  a1                  101.62779                  
  a2                  110.70859                  
  d1                  180.                       
 
 ITRead=  0  0  0  0
 MicOpt= -1 -1 -1 -1
 NAtoms=      4 NQM=        4 NQMF=       0 NMMI=      0 NMMIF=      0
                NMic=       0 NMicF=      0.
                    Isotopes and Nuclear Properties:
 (Nuclear quadrupole moments (NQMom) in fm**2, nuclear magnetic moments (NMagM)
  in nuclear magnetons)

  Atom         1           2           3           4
 IAtWgt=           1          16          14          16
 AtmWgt=   1.0078250  15.9949146  14.0030740  15.9949146
 NucSpn=           1           0           2           0
 AtZEff=  -0.0000000  -0.0000000  -0.0000000  -0.0000000
 NQMom=    0.0000000   0.0000000   2.0440000   0.0000000
 NMagM=    2.7928460   0.0000000   0.4037610   0.0000000
 AtZNuc=   1.0000000   8.0000000   7.0000000   8.0000000
 Leave Link  101 at Mon Jan 31 11:55:41 2022, MaxMem= 16106127360 cpu:               2.1 elap:               0.1
 (Enter /sw/contrib/gaussian/g16/B01/g16/l202.exe)
                          Input orientation:                          
 ---------------------------------------------------------------------
 Center     Atomic      Atomic             Coordinates (Angstroms)
 Number     Number       Type             X           Y           Z
 ---------------------------------------------------------------------
      1          1           0        0.000000    0.000000    0.000000
      2          8           0        0.000000    0.000000    0.970263
      3          7           0        1.398463    0.000000    1.258033
      4          8           0        1.581038    0.000000    2.400337
 ---------------------------------------------------------------------
                    Distance matrix (angstroms):
                    1          2          3          4
     1  H    0.000000
     2  O    0.970263   0.000000
     3  N    1.881049   1.427764   0.000000
     4  O    2.874247   2.131852   1.156802   0.000000
 Stoichiometry    HNO2
 Framework group  CS[SG(HNO2)]
 Deg. of freedom     5
 Full point group                 CS      NOp   2
 Largest Abelian subgroup         CS      NOp   2
 Largest concise Abelian subgroup C1      NOp   1
                         Standard orientation:                         
 ---------------------------------------------------------------------
 Center     Atomic      Atomic             Coordinates (Angstroms)
 Number     Number       Type             X           Y           Z
 ---------------------------------------------------------------------
      1          1           0        1.751394   -0.167700    0.000000
      2          8           0        0.884047   -0.602578    0.000000
      3          7           0       -0.000000    0.518570   -0.000000
      4          8           0       -1.102971    0.169791   -0.000000
 ---------------------------------------------------------------------
 Rotational constants (GHZ):          94.3208906          12.7329830          11.2185226
 Leave Link  202 at Mon Jan 31 11:55:41 2022, MaxMem= 16106127360 cpu:               0.2 elap:               0.0
 (Enter /sw/contrib/gaussian/g16/B01/g16/l301.exe)
 Standard basis: Aug-CC-pVTZ (5D, 7F)
 Ernie: Thresh=  0.10000D-02 Tol=  0.10000D-05 Strict=F.
 Ernie:  9 primitive shells out of 101 were deleted.
 There are   129 symmetry adapted cartesian basis functions of A'  symmetry.
 There are    61 symmetry adapted cartesian basis functions of A"  symmetry.
 There are   106 symmetry adapted basis functions of A'  symmetry.
 There are    55 symmetry adapted basis functions of A"  symmetry.
   161 basis functions,   243 primitive gaussians,   190 cartesian basis functions
    12 alpha electrons       12 beta electrons
       nuclear repulsion energy        70.0642132632 Hartrees.
 IExCor=    0 DFT=F Ex=HF Corr=None ExCW=0 ScaHFX=  1.000000
 ScaDFX=  1.000000  1.000000  1.000000  1.000000 ScalE2=  1.000000  1.000000
 IRadAn=      5 IRanWt=     -1 IRanGd=            0 ICorTp=0 IEmpDi=  4
 NAtoms=    4 NActive=    4 NUniq=    4 SFac= 1.00D+00 NAtFMM=   60 NAOKFM=F Big=F
 Integral buffers will be    131072 words long.
 Raffenetti 1 integral format.
 Two-electron integral symmetry is turned on.
 Leave Link  301 at Mon Jan 31 11:55:41 2022, MaxMem= 16106127360 cpu:               1.4 elap:               0.1
 (Enter /sw/contrib/gaussian/g16/B01/g16/l302.exe)
 NPDir=0 NMtPBC=     1 NCelOv=     1 NCel=       1 NClECP=     1 NCelD=      1
         NCelK=      1 NCelE2=     1 NClLst=     1 CellRange=     0.0.
 One-electron integrals computed using PRISM.
 One-electron integral symmetry used in STVInt
 NBasis=   161 RedAO= T EigKep=  1.92D-04  NBF=   106    55
 NBsUse=   161 1.00D-06 EigRej= -1.00D+00 NBFU=   106    55
 Leave Link  302 at Mon Jan 31 11:55:41 2022, MaxMem= 16106127360 cpu:               4.4 elap:               0.2
 (Enter /sw/contrib/gaussian/g16/B01/g16/l303.exe)
 DipDrv:  MaxL=1.
 Leave Link  303 at Mon Jan 31 11:55:41 2022, MaxMem= 16106127360 cpu:               1.4 elap:               0.1
 (Enter /sw/contrib/gaussian/g16/B01/g16/l401.exe)
 ExpMin= 2.53D-02 ExpMax= 1.53D+04 ExpMxC= 5.22D+02 IAcc=3 IRadAn=         5 AccDes= 0.00D+00
 Harris functional with IExCor=  205 and IRadAn=       5 diagonalized for initial guess.
 HarFok:  IExCor=  205 AccDes= 0.00D+00 IRadAn=         5 IDoV= 1 UseB2=F ITyADJ=14
 ICtDFT=  3500011 ScaDFX=  1.000000  1.000000  1.000000  1.000000
 FoFCou: FMM=F IPFlag=           0 FMFlag=      100000 FMFlg1=           0
         NFxFlg=           0 DoJE=T BraDBF=F KetDBF=T FulRan=T
         wScrn=  0.000000 ICntrl=       500 IOpCl=  0 I1Cent=   200000004 NGrid=           0
         NMat0=    1 NMatS0=      1 NMatT0=    0 NMatD0=    1 NMtDS0=    0 NMtDT0=    0
 Petite list used in FoFCou.
 Harris En= -204.818276330936    
 JPrj=0 DoOrth=F DoCkMO=F.
 Initial guess orbital symmetries:
       Occupied  (A') (A') (A') (A') (A') (A') (A') (A') (A") (A')
                 (A") (A')
       Virtual   (A") (A') (A') (A') (A') (A") (A') (A') (A') (A")
                 (A') (A") (A') (A') (A") (A') (A') (A') (A') (A')
                 (A") (A') (A") (A') (A') (A') (A") (A") (A') (A')
                 (A") (A') (A') (A") (A") (A') (A') (A') (A") (A')
                 (A') (A') (A") (A') (A") (A') (A') (A") (A') (A')
                 (A") (A') (A") (A') (A') (A") (A') (A") (A') (A")
                 (A') (A') (A') (A") (A') (A') (A") (A') (A") (A")
                 (A') (A') (A') (A") (A") (A') (A') (A') (A") (A")
                 (A') (A') (A") (A') (A') (A') (A") (A") (A') (A')
                 (A') (A') (A") (A') (A') (A") (A') (A") (A') (A")
                 (A") (A') (A') (A') (A') (A") (A') (A") (A') (A")
                 (A') (A') (A") (A') (A") (A') (A') (A") (A') (A')
                 (A') (A') (A") (A') (A") (A") (A') (A') (A") (A')
                 (A") (A") (A') (A") (A') (A") (A') (A") (A") (A')
                 (A') (A') (A') (A') (A') (A') (A') (A') (A')
 The electronic state of the initial guess is 1-A'.
 Leave Link  401 at Mon Jan 31 11:55:42 2022, MaxMem= 16106127360 cpu:               6.4 elap:               0.3
 (Enter /sw/contrib/gaussian/g16/B01/g16/l502.exe)
 Keep R1 ints in memory in symmetry-blocked form, NReq=128070121.
 FoFCou: FMM=F IPFlag=           0 FMFlag=           0 FMFlg1=           0
         NFxFlg=           0 DoJE=F BraDBF=F KetDBF=F FulRan=T
         wScrn=  0.000000 ICntrl=       600 IOpCl=  0 I1Cent=           0 NGrid=           0
         NMat0=    1 NMatS0=  13041 NMatT0=    0 NMatD0=    1 NMtDS0=    0 NMtDT0=    0
 Petite list used in FoFCou.
 Closed shell SCF:
 Using DIIS extrapolation, IDIIS=  1040.
 NGot= 16106127360 LenX= 16063019402 LenY= 16062982861
 Requested convergence on RMS density matrix=1.00D-08 within 128 cycles.
 Requested convergence on MAX density matrix=1.00D-06.
 Requested convergence on             energy=1.00D-06.
 No special actions if energy rises.

 Cycle   1  Pass 1  IDiag  1:
 E= -204.618259776719    
 DIIS: error= 3.23D-02 at cycle   1 NSaved=   1.
 NSaved= 1 IEnMin= 1 EnMin= -204.618259776719     IErMin= 1 ErrMin= 3.23D-02
 ErrMax= 3.23D-02  0.00D+00 EMaxC= 1.00D-01 BMatC= 3.53D-01 BMatP= 3.53D-01
 IDIUse=3 WtCom= 6.77D-01 WtEn= 3.23D-01
 Coeff-Com:  0.100D+01
 Coeff-En:   0.100D+01
 Coeff:      0.100D+01
 Gap=     0.515 Goal=   None    Shift=    0.000
 GapD=    0.515 DampG=2.000 DampE=0.500 DampFc=1.0000 IDamp=-1.
 RMSDP=2.03D-03 MaxDP=1.21D-01              OVMax= 9.66D-02

 Cycle   2  Pass 1  IDiag  1:
 E= -204.684462728246     Delta-E=       -0.066202951527 Rises=F Damp=F
 DIIS: error= 2.01D-02 at cycle   2 NSaved=   2.
 NSaved= 2 IEnMin= 2 EnMin= -204.684462728246     IErMin= 2 ErrMin= 2.01D-02
 ErrMax= 2.01D-02  0.00D+00 EMaxC= 1.00D-01 BMatC= 6.35D-02 BMatP= 3.53D-01
 IDIUse=3 WtCom= 7.99D-01 WtEn= 2.01D-01
 Coeff-Com:  0.224D+00 0.776D+00
 Coeff-En:   0.726D-01 0.927D+00
 Coeff:      0.194D+00 0.806D+00
 Gap=     0.506 Goal=   None    Shift=    0.000
 RMSDP=9.73D-04 MaxDP=3.72D-02 DE=-6.62D-02 OVMax= 8.28D-02

 Cycle   3  Pass 1  IDiag  1:
 E= -204.715824473724     Delta-E=       -0.031361745478 Rises=F Damp=F
 DIIS: error= 7.26D-03 at cycle   3 NSaved=   3.
 NSaved= 3 IEnMin= 3 EnMin= -204.715824473724     IErMin= 3 ErrMin= 7.26D-03
 ErrMax= 7.26D-03  0.00D+00 EMaxC= 1.00D-01 BMatC= 1.48D-02 BMatP= 6.35D-02
 IDIUse=3 WtCom= 9.27D-01 WtEn= 7.26D-02
 Coeff-Com: -0.359D-01 0.306D+00 0.730D+00
 Coeff-En:   0.000D+00 0.838D-01 0.916D+00
 Coeff:     -0.333D-01 0.290D+00 0.743D+00
 Gap=     0.490 Goal=   None    Shift=    0.000
 RMSDP=3.99D-04 MaxDP=2.18D-02 DE=-3.14D-02 OVMax= 2.57D-02

 Cycle   4  Pass 1  IDiag  1:
 E= -204.725526328760     Delta-E=       -0.009701855036 Rises=F Damp=F
 DIIS: error= 1.46D-03 at cycle   4 NSaved=   4.
 NSaved= 4 IEnMin= 4 EnMin= -204.725526328760     IErMin= 4 ErrMin= 1.46D-03
 ErrMax= 1.46D-03  0.00D+00 EMaxC= 1.00D-01 BMatC= 1.98D-04 BMatP= 1.48D-02
 IDIUse=3 WtCom= 9.85D-01 WtEn= 1.46D-02
 Coeff-Com: -0.424D-02-0.182D-02 0.606D-01 0.945D+00
 Coeff-En:   0.000D+00 0.000D+00 0.000D+00 0.100D+01
 Coeff:     -0.418D-02-0.179D-02 0.597D-01 0.946D+00
 Gap=     0.485 Goal=   None    Shift=    0.000
 RMSDP=8.44D-05 MaxDP=1.79D-03 DE=-9.70D-03 OVMax= 7.96D-03

 Cycle   5  Pass 1  IDiag  1:
 E= -204.725874746165     Delta-E=       -0.000348417404 Rises=F Damp=F
 DIIS: error= 9.67D-04 at cycle   5 NSaved=   5.
 NSaved= 5 IEnMin= 5 EnMin= -204.725874746165     IErMin= 5 ErrMin= 9.67D-04
 ErrMax= 9.67D-04  0.00D+00 EMaxC= 1.00D-01 BMatC= 5.33D-05 BMatP= 1.98D-04
 IDIUse=3 WtCom= 9.90D-01 WtEn= 9.67D-03
 Coeff-Com:  0.645D-02-0.689D-01-0.143D+00 0.244D+00 0.962D+00
 Coeff-En:   0.000D+00 0.000D+00 0.000D+00 0.000D+00 0.100D+01
 Coeff:      0.639D-02-0.682D-01-0.142D+00 0.241D+00 0.962D+00
 Gap=     0.485 Goal=   None    Shift=    0.000
 RMSDP=6.11D-05 MaxDP=1.51D-03 DE=-3.48D-04 OVMax= 8.08D-03

 Cycle   6  Pass 1  IDiag  1:
 E= -204.726018655294     Delta-E=       -0.000143909130 Rises=F Damp=F
 DIIS: error= 2.27D-04 at cycle   6 NSaved=   6.
 NSaved= 6 IEnMin= 6 EnMin= -204.726018655294     IErMin= 6 ErrMin= 2.27D-04
 ErrMax= 2.27D-04  0.00D+00 EMaxC= 1.00D-01 BMatC= 1.14D-05 BMatP= 5.33D-05
 IDIUse=3 WtCom= 9.98D-01 WtEn= 2.27D-03
 Coeff-Com:  0.855D-03-0.181D-02-0.965D-02-0.218D+00 0.983D-01 0.113D+01
 Coeff-En:   0.000D+00 0.000D+00 0.000D+00 0.000D+00 0.000D+00 0.100D+01
 Coeff:      0.853D-03-0.180D-02-0.963D-02-0.218D+00 0.981D-01 0.113D+01
 Gap=     0.486 Goal=   None    Shift=    0.000
 RMSDP=3.61D-05 MaxDP=6.55D-04 DE=-1.44D-04 OVMax= 3.68D-03

 Cycle   7  Pass 1  IDiag  1:
 E= -204.726053904488     Delta-E=       -0.000035249193 Rises=F Damp=F
 DIIS: error= 1.19D-04 at cycle   7 NSaved=   7.
 NSaved= 7 IEnMin= 7 EnMin= -204.726053904488     IErMin= 7 ErrMin= 1.19D-04
 ErrMax= 1.19D-04  0.00D+00 EMaxC= 1.00D-01 BMatC= 1.65D-06 BMatP= 1.14D-05
 IDIUse=3 WtCom= 9.99D-01 WtEn= 1.19D-03
 Coeff-Com: -0.120D-02 0.129D-01 0.312D-01-0.598D-01-0.134D+00-0.654D-01
 Coeff-Com:  0.122D+01
 Coeff-En:   0.000D+00 0.000D+00 0.000D+00 0.000D+00 0.000D+00 0.000D+00
 Coeff-En:   0.100D+01
 Coeff:     -0.120D-02 0.128D-01 0.311D-01-0.597D-01-0.134D+00-0.653D-01
 Coeff:      0.122D+01
 Gap=     0.486 Goal=   None    Shift=    0.000
 RMSDP=1.47D-05 MaxDP=3.23D-04 DE=-3.52D-05 OVMax= 1.73D-03

 Cycle   8  Pass 1  IDiag  1:
 E= -204.726059068966     Delta-E=       -0.000005164478 Rises=F Damp=F
 DIIS: error= 3.96D-05 at cycle   8 NSaved=   8.
 NSaved= 8 IEnMin= 8 EnMin= -204.726059068966     IErMin= 8 ErrMin= 3.96D-05
 ErrMax= 3.96D-05  0.00D+00 EMaxC= 1.00D-01 BMatC= 1.66D-07 BMatP= 1.65D-06
 IDIUse=1 WtCom= 1.00D+00 WtEn= 0.00D+00
 Coeff-Com: -0.531D-04-0.560D-03-0.137D-03 0.213D-01 0.167D-01-0.143D+00
 Coeff-Com: -0.126D+00 0.123D+01
 Coeff:     -0.531D-04-0.560D-03-0.137D-03 0.213D-01 0.167D-01-0.143D+00
 Coeff:     -0.126D+00 0.123D+01
 Gap=     0.486 Goal=   None    Shift=    0.000
 RMSDP=4.64D-06 MaxDP=8.84D-05 DE=-5.16D-06 OVMax= 4.24D-04

 Cycle   9  Pass 1  IDiag  1:
 E= -204.726059529379     Delta-E=       -0.000000460413 Rises=F Damp=F
 DIIS: error= 9.21D-06 at cycle   9 NSaved=   9.
 NSaved= 9 IEnMin= 9 EnMin= -204.726059529379     IErMin= 9 ErrMin= 9.21D-06
 ErrMax= 9.21D-06  0.00D+00 EMaxC= 1.00D-01 BMatC= 1.18D-08 BMatP= 1.66D-07
 IDIUse=1 WtCom= 1.00D+00 WtEn= 0.00D+00
 Coeff-Com:  0.100D-03-0.997D-03-0.234D-02-0.266D-03 0.129D-01 0.316D-01
 Coeff-Com: -0.796D-01-0.255D+00 0.129D+01
 Coeff:      0.100D-03-0.997D-03-0.234D-02-0.266D-03 0.129D-01 0.316D-01
 Coeff:     -0.796D-01-0.255D+00 0.129D+01
 Gap=     0.486 Goal=   None    Shift=    0.000
 RMSDP=1.12D-06 MaxDP=3.36D-05 DE=-4.60D-07 OVMax= 8.30D-05

 Cycle  10  Pass 1  IDiag  1:
 E= -204.726059559910     Delta-E=       -0.000000030531 Rises=F Damp=F
 DIIS: error= 2.31D-06 at cycle  10 NSaved=  10.
 NSaved=10 IEnMin=10 EnMin= -204.726059559910     IErMin=10 ErrMin= 2.31D-06
 ErrMax= 2.31D-06  0.00D+00 EMaxC= 1.00D-01 BMatC= 9.07D-10 BMatP= 1.18D-08
 IDIUse=1 WtCom= 1.00D+00 WtEn= 0.00D+00
 Coeff-Com: -0.205D-04 0.266D-03 0.651D-03-0.201D-02-0.367D-02 0.225D-02
 Coeff-Com:  0.323D-01-0.501D-01-0.257D+00 0.128D+01
 Coeff:     -0.205D-04 0.266D-03 0.651D-03-0.201D-02-0.367D-02 0.225D-02
 Coeff:      0.323D-01-0.501D-01-0.257D+00 0.128D+01
 Gap=     0.486 Goal=   None    Shift=    0.000
 RMSDP=2.82D-07 MaxDP=8.77D-06 DE=-3.05D-08 OVMax= 2.48D-05

 Cycle  11  Pass 1  IDiag  1:
 E= -204.726059562222     Delta-E=       -0.000000002312 Rises=F Damp=F
 DIIS: error= 9.43D-07 at cycle  11 NSaved=  11.
 NSaved=11 IEnMin=11 EnMin= -204.726059562222     IErMin=11 ErrMin= 9.43D-07
 ErrMax= 9.43D-07  0.00D+00 EMaxC= 1.00D-01 BMatC= 8.14D-11 BMatP= 9.07D-10
 IDIUse=1 WtCom= 1.00D+00 WtEn= 0.00D+00
 Coeff-Com: -0.124D-05-0.598D-05-0.181D-04 0.467D-03 0.765D-03-0.405D-02
 Coeff-Com: -0.397D-02 0.388D-01-0.171D-01-0.454D+00 0.144D+01
 Coeff:     -0.124D-05-0.598D-05-0.181D-04 0.467D-03 0.765D-03-0.405D-02
 Coeff:     -0.397D-02 0.388D-01-0.171D-01-0.454D+00 0.144D+01
 Gap=     0.486 Goal=   None    Shift=    0.000
 RMSDP=8.68D-08 MaxDP=3.35D-06 DE=-2.31D-09 OVMax= 8.52D-06

 Cycle  12  Pass 1  IDiag  1:
 E= -204.726059562459     Delta-E=       -0.000000000237 Rises=F Damp=F
 DIIS: error= 1.72D-07 at cycle  12 NSaved=  12.
 NSaved=12 IEnMin=12 EnMin= -204.726059562459     IErMin=12 ErrMin= 1.72D-07
 ErrMax= 1.72D-07  0.00D+00 EMaxC= 1.00D-01 BMatC= 4.91D-12 BMatP= 8.14D-11
 IDIUse=1 WtCom= 1.00D+00 WtEn= 0.00D+00
 Coeff-Com:  0.204D-05-0.208D-04-0.479D-04-0.441D-04 0.155D-03 0.137D-02
 Coeff-Com: -0.171D-02-0.108D-01 0.339D-01 0.440D-01-0.491D+00 0.142D+01
 Coeff:      0.204D-05-0.208D-04-0.479D-04-0.441D-04 0.155D-03 0.137D-02
 Coeff:     -0.171D-02-0.108D-01 0.339D-01 0.440D-01-0.491D+00 0.142D+01
 Gap=     0.486 Goal=   None    Shift=    0.000
 RMSDP=2.64D-08 MaxDP=6.29D-07 DE=-2.37D-10 OVMax= 2.19D-06

 Cycle  13  Pass 1  IDiag  1:
 E= -204.726059562476     Delta-E=       -0.000000000017 Rises=F Damp=F
 DIIS: error= 3.97D-08 at cycle  13 NSaved=  13.
 NSaved=13 IEnMin=13 EnMin= -204.726059562476     IErMin=13 ErrMin= 3.97D-08
 ErrMax= 3.97D-08  0.00D+00 EMaxC= 1.00D-01 BMatC= 1.83D-13 BMatP= 4.91D-12
 IDIUse=1 WtCom= 1.00D+00 WtEn= 0.00D+00
 Coeff-Com: -0.380D-06 0.513D-05 0.121D-04-0.232D-04-0.788D-04-0.547D-04
 Coeff-Com:  0.663D-03-0.177D-03-0.509D-02 0.115D-01 0.339D-01-0.337D+00
 Coeff-Com:  0.130D+01
 Coeff:     -0.380D-06 0.513D-05 0.121D-04-0.232D-04-0.788D-04-0.547D-04
 Coeff:      0.663D-03-0.177D-03-0.509D-02 0.115D-01 0.339D-01-0.337D+00
 Coeff:      0.130D+01
 Gap=     0.486 Goal=   None    Shift=    0.000
 RMSDP=5.22D-09 MaxDP=9.10D-08 DE=-1.74D-11 OVMax= 3.97D-07

 SCF Done:  E(RHF) =  -204.726059562     A.U. after   13 cycles
            NFock= 13  Conv=0.52D-08     -V/T= 2.0019
 KE= 2.043391493457D+02 PE=-6.241369980317D+02 EE= 1.450075758602D+02
 Leave Link  502 at Mon Jan 31 11:55:44 2022, MaxMem= 16106127360 cpu:              35.3 elap:               1.9
 (Enter /sw/contrib/gaussian/g16/B01/g16/l801.exe)
 ExpMin= 2.53D-02 ExpMax= 1.53D+04 ExpMxC= 5.22D+02 IAcc=3 IRadAn=         5 AccDes= 0.00D+00
 HarFok:  IExCor=  205 AccDes= 0.00D+00 IRadAn=         5 IDoV=-2 UseB2=F ITyADJ=14
 ICtDFT= 12500011 ScaDFX=  1.000000  1.000000  1.000000  1.000000
 DSYEVD-2 returned Info=          93 IAlg= 4 N=    46 NDim=    46 NE2=   350131317 trying  DSYEV.
 Largest valence mixing into a core orbital is  2.04D-04
 Largest core mixing into a valence orbital is  3.23D-05
 Range of M.O.s used for correlation:     4   161
 NBasis=   161 NAE=    12 NBE=    12 NFC=     3 NFV=     0
 NROrb=    158 NOA=     9 NOB=     9 NVA=   149 NVB=   149

 **** Warning!!: The largest alpha MO coefficient is  0.19345669D+02

 Leave Link  801 at Mon Jan 31 11:55:44 2022, MaxMem= 16106127360 cpu:               2.0 elap:               0.1
 (Enter /sw/contrib/gaussian/g16/B01/g16/l906.exe)
 Frozen-core derivative calculation, NFC=   3 NFV=   0.
 FulOut=F Deriv=T AODrv=F NAtomX=     4
   MMem=         161  MDisk=           9 MDiskD=           9
  W3Min=      367080 MinDsk=      792425 NBas6D=         190
 NBas2D=       18625    NTT=       18145    LW2=     3500000
    MDV= 16105788687 MDiskM=      423783 NBas2p=       18621
 Fully in-core method, ICMem=   359292905.
 IMap=   1   2   3   4   5   6   7   8   9  10  11  12
 JobTyp=1 Pass  1 fully in-core, NPsUse= 28.
 Compute canonical integrals.
 FoFCou: FMM=F IPFlag=           0 FMFlag=           0 FMFlg1=           0
         NFxFlg=           0 DoJE=F BraDBF=F KetDBF=F FulRan=T
         wScrn=  0.000000 ICntrl=       600 IOpCl=  1 I1Cent=           0 NGrid=           0
         NMat0=    1 NMatS0=  18625 NMatT0=    0 NMatD0=    1 NMtDS0=    0 NMtDT0=    0
 Symmetry not used in FoFCou.
 Spin components of T(2) and E(2):
     alpha-alpha T2 =       0.2492603669D-01 E2=     -0.9024701391D-01
     alpha-beta  T2 =       0.1352758232D+00 E2=     -0.5141885650D+00
     beta-beta   T2 =       0.2492603669D-01 E2=     -0.9024701391D-01
 The integrals were generated   1 times.
 ANorm=    0.1088635796D+01
 E2 =    -0.6946825928D+00 EUMP2 =    -0.20542074215531D+03
 Leave Link  906 at Mon Jan 31 11:55:47 2022, MaxMem= 16106127360 cpu:              87.0 elap:               3.2
 (Enter /sw/contrib/gaussian/g16/B01/g16/l1002.exe)
 Minotr:  Closed shell wavefunction.
          Computing MP2/KS-MP2 derivatives.
          Using Z-Vector for PSCF gradient.
          Skipping F1 and S1 gradient terms here.
          Frozen-core window.
          Direct CPHF calculation.
          Differentiating once with respect to electric field.
                with respect to dipole field.
          Electric field/nuclear overlap derivatives assumed to be zero.
          Using symmetry in CPHF.
          Requested convergence is 1.0D-10 RMS, and 1.0D-09 maximum.
          NewPWx=F KeepS1=T KeepF1=T KeepIn=T MapXYZ=F SortEE=F KeepMc=T.
 Keep R1 ints in memory in symmetry-blocked form, NReq=128071053.
 FoFCou: FMM=F IPFlag=           0 FMFlag=           0 FMFlg1=           0
         NFxFlg=           0 DoJE=F BraDBF=F KetDBF=F FulRan=T
         wScrn=  0.000000 ICntrl=       600 IOpCl=  0 I1Cent=           0 NGrid=           0
         NMat0=    1 NMatS0=  13041 NMatT0=    0 NMatD0=    1 NMtDS0=    0 NMtDT0=    0
 Petite list used in FoFCou.
          MDV=   16106127360 using IRadAn=       5.
          Solving linear equations separately, MaxMat=       0.
          There are     1 degrees of freedom in the 1st order CPHF.  IDoFFX=0 NUNeed=     1.
 LinEq1:  Iter=  0 NonCon=     1 RMS=6.50D-03 Max=1.21D-01 NDo=     1
 AX will form     1 AO Fock derivatives at one time.
 LinEq1:  Iter=  1 NonCon=     1 RMS=2.18D-03 Max=3.77D-02 NDo=     1
 LinEq1:  Iter=  2 NonCon=     1 RMS=8.74D-04 Max=1.14D-02 NDo=     1
 LinEq1:  Iter=  3 NonCon=     1 RMS=4.12D-04 Max=7.76D-03 NDo=     1
 LinEq1:  Iter=  4 NonCon=     1 RMS=1.30D-04 Max=1.43D-03 NDo=     1
 LinEq1:  Iter=  5 NonCon=     1 RMS=5.50D-05 Max=8.52D-04 NDo=     1
 LinEq1:  Iter=  6 NonCon=     1 RMS=2.15D-05 Max=2.43D-04 NDo=     1
 LinEq1:  Iter=  7 NonCon=     1 RMS=5.33D-06 Max=5.90D-05 NDo=     1
 LinEq1:  Iter=  8 NonCon=     1 RMS=1.28D-06 Max=1.56D-05 NDo=     1
 LinEq1:  Iter=  9 NonCon=     1 RMS=2.40D-07 Max=1.85D-06 NDo=     1
 LinEq1:  Iter= 10 NonCon=     1 RMS=4.50D-08 Max=3.62D-07 NDo=     1
 LinEq1:  Iter= 11 NonCon=     1 RMS=7.27D-09 Max=7.29D-08 NDo=     1
 LinEq1:  Iter= 12 NonCon=     1 RMS=9.91D-10 Max=7.75D-09 NDo=     1
 LinEq1:  Iter= 13 NonCon=     1 RMS=2.00D-10 Max=1.84D-09 NDo=     1
 LinEq1:  Iter= 14 NonCon=     0 RMS=3.68D-11 Max=3.05D-10 NDo=     1
 Linear equations converged to 1.000D-10 1.000D-09 after    14 iterations.
 End of Minotr F.D. properties file   721 does not exist.
 End of Minotr F.D. properties file   722 does not exist.
 End of Minotr F.D. properties file   788 does not exist.
 Leave Link 1002 at Mon Jan 31 11:55:49 2022, MaxMem= 16106127360 cpu:              34.4 elap:               2.0
 (Enter /sw/contrib/gaussian/g16/B01/g16/l601.exe)
 Copying SCF densities to generalized density rwf, IOpCl= 0 IROHF=0.

 **********************************************************************

            Population analysis using the MP2 Density.

 **********************************************************************

 Orbital symmetries:
       Occupied  (A') (A') (A') (A') (A') (A') (A') (A') (A") (A')
                 (A") (A')
       Virtual   (A') (A") (A') (A') (A") (A') (A') (A') (A") (A')
                 (A") (A') (A') (A") (A') (A') (A') (A') (A') (A")
                 (A') (A') (A") (A') (A') (A') (A") (A") (A') (A')
                 (A') (A") (A") (A') (A") (A') (A') (A") (A') (A')
                 (A') (A') (A') (A") (A") (A') (A') (A") (A') (A')
                 (A") (A') (A") (A') (A') (A") (A') (A") (A') (A")
                 (A') (A') (A") (A') (A') (A') (A") (A') (A") (A")
                 (A') (A') (A') (A") (A') (A") (A') (A') (A") (A')
                 (A") (A') (A") (A') (A') (A") (A') (A") (A') (A')
                 (A') (A') (A') (A") (A') (A") (A") (A') (A') (A")
                 (A') (A") (A') (A') (A') (A") (A') (A") (A") (A')
                 (A') (A") (A') (A') (A") (A') (A') (A") (A') (A')
                 (A') (A') (A") (A') (A") (A") (A') (A') (A") (A')
                 (A") (A") (A') (A") (A') (A") (A') (A") (A") (A')
                 (A') (A') (A') (A') (A') (A') (A') (A') (A')
 The electronic state is 1-A'.
 Alpha  occ. eigenvalues --  -20.66568 -20.63761 -15.79559  -1.61954  -1.40225
 Alpha  occ. eigenvalues --   -0.94495  -0.78850  -0.73398  -0.68899  -0.62724
 Alpha  occ. eigenvalues --   -0.52946  -0.45754
 Alpha virt. eigenvalues --    0.02857   0.08632   0.09344   0.09770   0.12892
 Alpha virt. eigenvalues --    0.14448   0.15685   0.17244   0.18746   0.19625
 Alpha virt. eigenvalues --    0.20623   0.23323   0.25857   0.29731   0.31024
 Alpha virt. eigenvalues --    0.32994   0.36623   0.38347   0.42526   0.52465
 Alpha virt. eigenvalues --    0.52850   0.54893   0.57385   0.61430   0.64162
 Alpha virt. eigenvalues --    0.64945   0.67538   0.71376   0.71746   0.74922
 Alpha virt. eigenvalues --    0.77514   0.78302   0.81289   0.81481   0.86402
 Alpha virt. eigenvalues --    0.88228   0.92734   0.94013   0.94847   0.99853
 Alpha virt. eigenvalues --    1.05076   1.06630   1.08446   1.10834   1.16239
 Alpha virt. eigenvalues --    1.19827   1.25495   1.27249   1.36319   1.43671
 Alpha virt. eigenvalues --    1.48912   1.52229   1.52527   1.54553   1.55645
 Alpha virt. eigenvalues --    1.61160   1.66040   1.72899   1.75580   1.82291
 Alpha virt. eigenvalues --    1.85772   1.95837   1.98344   1.98931   2.07488
 Alpha virt. eigenvalues --    2.13268   2.13512   2.19744   2.27319   2.31117
 Alpha virt. eigenvalues --    2.33279   2.38467   2.45368   2.47268   2.50070
 Alpha virt. eigenvalues --    2.50392   2.53004   2.54486   2.57971   2.61186
 Alpha virt. eigenvalues --    2.61461   2.67511   2.78378   2.79188   2.84009
 Alpha virt. eigenvalues --    2.94734   2.95371   3.11512   3.15100   3.18460
 Alpha virt. eigenvalues --    3.26367   3.46419   3.83657   3.85733   4.03330
 Alpha virt. eigenvalues --    4.17309   4.21701   4.22177   4.37198   4.37921
 Alpha virt. eigenvalues --    4.59443   4.65894   4.75104   4.81925   4.87603
 Alpha virt. eigenvalues --    4.88640   4.98013   5.00036   5.07509   5.09514
 Alpha virt. eigenvalues --    5.17794   5.25129   5.25832   5.35924   5.37124
 Alpha virt. eigenvalues --    5.38883   5.55655   5.70197   5.81080   6.00425
 Alpha virt. eigenvalues --    6.12409   6.44148   6.50701   6.50916   6.68084
 Alpha virt. eigenvalues --    6.72262   6.74979   6.86432   6.92512   7.07525
 Alpha virt. eigenvalues --    7.12870   7.18351   7.24700   7.26298   7.26417
 Alpha virt. eigenvalues --    7.38233   7.40362   7.44073   7.48540   7.65536
 Alpha virt. eigenvalues --    7.65681   7.71676   7.82595   8.00166   8.07634
 Alpha virt. eigenvalues --    8.43280  14.34778  15.19104  16.57899
          Condensed to atoms (all electrons):
               1          2          3          4
     1  H    0.587642   0.172729  -0.044056   0.012597
     2  O    0.172729   8.309511  -0.145461  -0.061370
     3  N   -0.044056  -0.145461   7.054718  -0.045949
     4  O    0.012597  -0.061370  -0.045949   8.271151
 Mulliken charges:
               1
     1  H    0.271089
     2  O   -0.275409
     3  N    0.180748
     4  O   -0.176428
 Sum of Mulliken charges =  -0.00000
 Mulliken charges with hydrogens summed into heavy atoms:
               1
     2  O   -0.004319
     3  N    0.180748
     4  O   -0.176428
 Electronic spatial extent (au):  <R**2>=            122.3242
 Charge=             -0.0000 electrons
 Dipole moment (field-independent basis, Debye):
    X=              1.6590    Y=              0.6710    Z=              0.0000  Tot=              1.7896
 Quadrupole moment (field-independent basis, Debye-Ang):
   XX=            -13.6588   YY=            -18.6981   ZZ=            -16.4257
   XY=              0.5160   XZ=             -0.0000   YZ=              0.0000
 Traceless Quadrupole moment (field-independent basis, Debye-Ang):
   XX=              2.6021   YY=             -2.4372   ZZ=             -0.1649
   XY=              0.5160   XZ=             -0.0000   YZ=              0.0000
 Octapole moment (field-independent basis, Debye-Ang**2):
  XXX=              9.8133  YYY=             -0.8781  ZZZ=             -0.0000  XYY=             -1.0808
  XXY=             -0.4310  XXZ=              0.0000  XZZ=             -1.0676  YZZ=              0.2631
  YYZ=             -0.0000  XYZ=              0.0000
 Hexadecapole moment (field-independent basis, Debye-Ang**3):
 XXXX=            -70.0079 YYYY=            -40.1649 ZZZZ=            -13.9003 XXXY=             12.1488
 XXXZ=             -0.0000 YYYX=             12.2238 YYYZ=              0.0000 ZZZX=             -0.0000
 ZZZY=              0.0000 XXYY=            -21.9555 XXZZ=            -17.1340 YYZZ=             -8.8473
 XXYZ=              0.0000 YYXZ=             -0.0000 ZZXY=              4.3097
 N-N= 7.006421326322D+01 E-N=-6.247127565317D+02  KE= 2.053247188496D+02
 Symmetry A'   KE= 1.964900117088D+02
 Symmetry A"   KE= 8.834707140735D+00
 No NMR shielding tensors so no spin-rotation constants.
 Leave Link  601 at Mon Jan 31 11:55:49 2022, MaxMem= 16106127360 cpu:               5.8 elap:               0.3
 (Enter /sw/contrib/gaussian/g16/B01/g16/l9999.exe)
 1\1\GINC-N2206\SP\RMP2-FC\Aug-CC-pVTZ\H1N1O2\CGAVINH\31-Jan-2022\0\\#p
  SP mp2/aug-cc-pvtz density=current\\title\\0,1\H\O,1,0.97026274\N,2,1
 .42776435,1,101.62778541\O,3,1.15680217,2,110.70859147,1,180.,0\\Versi
 on=ES64L-G16RevB.01\State=1-A'\HF=-204.7260596\MP2=-205.4207422\RMSD=5
 .218e-09\Dipole=-0.0565739,0.,-0.7017868\Quadrupole=-1.3667926,-0.1225
 729,1.4893655,0.,1.2715961,0.\PG=CS [SG(H1N1O2)]\\@


 IF I HAVE SEEN FARTHER, IT IS BY STANDING ON THE
 SHOULDERS OF GIANTS. -- SIR ISAAC NEWTON
 Job cpu time:       0 days  0 hours  3 minutes  9.7 seconds.
 Elapsed time:       0 days  0 hours  0 minutes  8.7 seconds.
 File lengths (MBytes):  RWF=     16 Int=      0 D2E=      0 Chk=      8 Scr=      1
 Normal termination of Gaussian 16 at Mon Jan 31 11:55:49 2022.
