 Entering Gaussian System, Link 0=g16
 Input=hono_r2_m_01.gjf
 Output=hono_r2_m_01.log
 Initial command:
 /sw/contrib/gaussian/g16/B01/g16/l1.exe "/scr/Gau-7864.inp" -scrdir="/scr/"
 Entering Link 1 = /sw/contrib/gaussian/g16/B01/g16/l1.exe PID=      7865.
  
 Copyright (c) 1988-2017, Gaussian, Inc.  All Rights Reserved.
  
 This is part of the Gaussian(R) 16 program.  It is based on
 the Gaussian(R) 09 system (copyright 2009, Gaussian, Inc.),
 the Gaussian(R) 03 system (copyright 2003, Gaussian, Inc.),
 the Gaussian(R) 98 system (copyright 1998, Gaussian, Inc.),
 the Gaussian(R) 94 system (copyright 1995, Gaussian, Inc.),
 the Gaussian 92(TM) system (copyright 1992, Gaussian, Inc.),
 the Gaussian 90(TM) system (copyright 1990, Gaussian, Inc.),
 the Gaussian 88(TM) system (copyright 1988, Gaussian, Inc.),
 the Gaussian 86(TM) system (copyright 1986, Carnegie Mellon
 University), and the Gaussian 82(TM) system (copyright 1983,
 Carnegie Mellon University). Gaussian is a federally registered
 trademark of Gaussian, Inc.
  
 This software contains proprietary and confidential information,
 including trade secrets, belonging to Gaussian, Inc.
  
 This software is provided under written license and may be
 used, copied, transmitted, or stored only in accord with that
 written license.
  
 The following legend is applicable only to US Government
 contracts under FAR:
  
                    RESTRICTED RIGHTS LEGEND
  
 Use, reproduction and disclosure by the US Government is
 subject to restrictions as set forth in subparagraphs (a)
 and (c) of the Commercial Computer Software - Restricted
 Rights clause in FAR 52.227-19.
  
 Gaussian, Inc.
 340 Quinnipiac St., Bldg. 40, Wallingford CT 06492
  
  
 ---------------------------------------------------------------
 Warning -- This program may not be used in any manner that
 competes with the business of Gaussian, Inc. or will provide
 assistance to any competitor of Gaussian, Inc.  The licensee
 of this program is prohibited from giving any competitor of
 Gaussian, Inc. access to this program.  By using this program,
 the user acknowledges that Gaussian, Inc. is engaged in the
 business of creating and licensing software in the field of
 computational chemistry and represents and warrants to the
 licensee that it is not a competitor of Gaussian, Inc. and that
 it will not use this program in any manner prohibited above.
 ---------------------------------------------------------------
  

 Cite this work as:
 Gaussian 16, Revision B.01,
 M. J. Frisch, G. W. Trucks, H. B. Schlegel, G. E. Scuseria, 
 M. A. Robb, J. R. Cheeseman, G. Scalmani, V. Barone, 
 G. A. Petersson, H. Nakatsuji, X. Li, M. Caricato, A. V. Marenich, 
 J. Bloino, B. G. Janesko, R. Gomperts, B. Mennucci, H. P. Hratchian, 
 J. V. Ortiz, A. F. Izmaylov, J. L. Sonnenberg, D. Williams-Young, 
 F. Ding, F. Lipparini, F. Egidi, J. Goings, B. Peng, A. Petrone, 
 T. Henderson, D. Ranasinghe, V. G. Zakrzewski, J. Gao, N. Rega, 
 G. Zheng, W. Liang, M. Hada, M. Ehara, K. Toyota, R. Fukuda, 
 J. Hasegawa, M. Ishida, T. Nakajima, Y. Honda, O. Kitao, H. Nakai, 
 T. Vreven, K. Throssell, J. A. Montgomery, Jr., J. E. Peralta, 
 F. Ogliaro, M. J. Bearpark, J. J. Heyd, E. N. Brothers, K. N. Kudin, 
 V. N. Staroverov, T. A. Keith, R. Kobayashi, J. Normand, 
 K. Raghavachari, A. P. Rendell, J. C. Burant, S. S. Iyengar, 
 J. Tomasi, M. Cossi, J. M. Millam, M. Klene, C. Adamo, R. Cammi, 
 J. W. Ochterski, R. L. Martin, K. Morokuma, O. Farkas, 
 J. B. Foresman, and D. J. Fox, Gaussian, Inc., Wallingford CT, 2016.
 
 ******************************************
 Gaussian 16:  ES64L-G16RevB.01 20-Dec-2017
                31-Jan-2022 
 ******************************************
 %nproc=28
 Will use up to   28 processors via shared memory.
 %mem=120GB
 %chk=/gscratch/ilahie/mccoygrp/coire_hoono/hono/hono_r2_m_01.chk
 -------------------------------------
 #p SP mp2/aug-cc-pvtz density=current
 -------------------------------------
 1/30=1,38=1,172=1/1;
 2/12=2,17=6,18=5,40=1/2;
 3/5=16,6=1,7=10,11=9,25=1,30=1,71=1/1,2,3;
 4//1;
 5/5=2,38=5/2;
 8/6=4,10=1/1;
 9/15=1,16=-3/6;
 10/5=1,13=10/2;
 6/7=2,8=2,9=2,10=2,22=-1/1;
 99/5=1,9=1/99;
 Leave Link    1 at Mon Jan 31 11:39:23 2022, MaxMem= 16106127360 cpu:               2.3 elap:               0.1
 (Enter /sw/contrib/gaussian/g16/B01/g16/l101.exe)
 -----
 title
 -----
 Symbolic Z-matrix:
 Charge =  0 Multiplicity = 1
 H
 O                    1    r1
 N                    2    r2       1    a1
 O                    3    r3       2    a2       1    d1       0
       Variables:
  r1                    0.97026                  
  r2                    1.41776                  
  r3                    1.1768                   
  a1                  101.62779                  
  a2                  110.70859                  
  d1                  180.                       
 
 ITRead=  0  0  0  0
 MicOpt= -1 -1 -1 -1
 NAtoms=      4 NQM=        4 NQMF=       0 NMMI=      0 NMMIF=      0
                NMic=       0 NMicF=      0.
                    Isotopes and Nuclear Properties:
 (Nuclear quadrupole moments (NQMom) in fm**2, nuclear magnetic moments (NMagM)
  in nuclear magnetons)

  Atom         1           2           3           4
 IAtWgt=           1          16          14          16
 AtmWgt=   1.0078250  15.9949146  14.0030740  15.9949146
 NucSpn=           1           0           2           0
 AtZEff=  -0.0000000  -0.0000000  -0.0000000  -0.0000000
 NQMom=    0.0000000   0.0000000   2.0440000   0.0000000
 NMagM=    2.7928460   0.0000000   0.4037610   0.0000000
 AtZNuc=   1.0000000   8.0000000   7.0000000   8.0000000
 Leave Link  101 at Mon Jan 31 11:39:23 2022, MaxMem= 16106127360 cpu:               2.4 elap:               0.1
 (Enter /sw/contrib/gaussian/g16/B01/g16/l202.exe)
                          Input orientation:                          
 ---------------------------------------------------------------------
 Center     Atomic      Atomic             Coordinates (Angstroms)
 Number     Number       Type             X           Y           Z
 ---------------------------------------------------------------------
      1          1           0        0.000000    0.000000    0.000000
      2          8           0        0.000000    0.000000    0.970263
      3          7           0        1.388668    0.000000    1.256017
      4          8           0        1.574400    0.000000    2.418070
 ---------------------------------------------------------------------
                    Distance matrix (angstroms):
                    1          2          3          4
     1  H    0.000000
     2  O    0.970263   0.000000
     3  N    1.872426   1.417764   0.000000
     4  O    2.885446   2.138897   1.176802   0.000000
 Stoichiometry    HNO2
 Framework group  CS[SG(HNO2)]
 Deg. of freedom     5
 Full point group                 CS      NOp   2
 Largest Abelian subgroup         CS      NOp   2
 Largest concise Abelian subgroup C1      NOp   1
                         Standard orientation:                         
 ---------------------------------------------------------------------
 Center     Atomic      Atomic             Coordinates (Angstroms)
 Number     Number       Type             X           Y           Z
 ---------------------------------------------------------------------
      1          1           0        1.756329   -0.131359    0.000000
      2          8           0        0.896394   -0.580715    0.000000
      3          7           0       -0.000000    0.517708   -0.000000
      4          8           0       -1.115935    0.144140   -0.000000
 ---------------------------------------------------------------------
 Rotational constants (GHZ):          93.1910716          12.6697663          11.1534078
 Leave Link  202 at Mon Jan 31 11:39:23 2022, MaxMem= 16106127360 cpu:               0.3 elap:               0.0
 (Enter /sw/contrib/gaussian/g16/B01/g16/l301.exe)
 Standard basis: Aug-CC-pVTZ (5D, 7F)
 Ernie: Thresh=  0.10000D-02 Tol=  0.10000D-05 Strict=F.
 Ernie:  9 primitive shells out of 101 were deleted.
 There are   129 symmetry adapted cartesian basis functions of A'  symmetry.
 There are    61 symmetry adapted cartesian basis functions of A"  symmetry.
 There are   106 symmetry adapted basis functions of A'  symmetry.
 There are    55 symmetry adapted basis functions of A"  symmetry.
   161 basis functions,   243 primitive gaussians,   190 cartesian basis functions
    12 alpha electrons       12 beta electrons
       nuclear repulsion energy        69.7262645056 Hartrees.
 IExCor=    0 DFT=F Ex=HF Corr=None ExCW=0 ScaHFX=  1.000000
 ScaDFX=  1.000000  1.000000  1.000000  1.000000 ScalE2=  1.000000  1.000000
 IRadAn=      5 IRanWt=     -1 IRanGd=            0 ICorTp=0 IEmpDi=  4
 NAtoms=    4 NActive=    4 NUniq=    4 SFac= 1.00D+00 NAtFMM=   60 NAOKFM=F Big=F
 Integral buffers will be    131072 words long.
 Raffenetti 1 integral format.
 Two-electron integral symmetry is turned on.
 Leave Link  301 at Mon Jan 31 11:39:23 2022, MaxMem= 16106127360 cpu:               2.4 elap:               0.1
 (Enter /sw/contrib/gaussian/g16/B01/g16/l302.exe)
 NPDir=0 NMtPBC=     1 NCelOv=     1 NCel=       1 NClECP=     1 NCelD=      1
         NCelK=      1 NCelE2=     1 NClLst=     1 CellRange=     0.0.
 One-electron integrals computed using PRISM.
 One-electron integral symmetry used in STVInt
 NBasis=   161 RedAO= T EigKep=  1.96D-04  NBF=   106    55
 NBsUse=   161 1.00D-06 EigRej= -1.00D+00 NBFU=   106    55
 Leave Link  302 at Mon Jan 31 11:39:23 2022, MaxMem= 16106127360 cpu:               4.3 elap:               0.2
 (Enter /sw/contrib/gaussian/g16/B01/g16/l303.exe)
 DipDrv:  MaxL=1.
 Leave Link  303 at Mon Jan 31 11:39:23 2022, MaxMem= 16106127360 cpu:               1.4 elap:               0.1
 (Enter /sw/contrib/gaussian/g16/B01/g16/l401.exe)
 ExpMin= 2.53D-02 ExpMax= 1.53D+04 ExpMxC= 5.22D+02 IAcc=3 IRadAn=         5 AccDes= 0.00D+00
 Harris functional with IExCor=  205 and IRadAn=       5 diagonalized for initial guess.
 HarFok:  IExCor=  205 AccDes= 0.00D+00 IRadAn=         5 IDoV= 1 UseB2=F ITyADJ=14
 ICtDFT=  3500011 ScaDFX=  1.000000  1.000000  1.000000  1.000000
 FoFCou: FMM=F IPFlag=           0 FMFlag=      100000 FMFlg1=           0
         NFxFlg=           0 DoJE=T BraDBF=F KetDBF=T FulRan=T
         wScrn=  0.000000 ICntrl=       500 IOpCl=  0 I1Cent=   200000004 NGrid=           0
         NMat0=    1 NMatS0=      1 NMatT0=    0 NMatD0=    1 NMtDS0=    0 NMtDT0=    0
 Petite list used in FoFCou.
 Harris En= -204.818451730741    
 JPrj=0 DoOrth=F DoCkMO=F.
 Initial guess orbital symmetries:
       Occupied  (A') (A') (A') (A') (A') (A') (A') (A') (A") (A')
                 (A") (A')
       Virtual   (A") (A') (A') (A') (A") (A') (A') (A') (A') (A")
                 (A') (A") (A') (A') (A") (A') (A') (A') (A') (A')
                 (A") (A') (A") (A') (A') (A') (A") (A') (A") (A')
                 (A") (A') (A') (A") (A") (A') (A') (A') (A") (A')
                 (A') (A') (A") (A') (A") (A') (A') (A") (A') (A')
                 (A") (A') (A") (A') (A') (A") (A') (A") (A') (A")
                 (A') (A') (A") (A') (A') (A') (A") (A') (A") (A")
                 (A') (A') (A') (A") (A') (A") (A') (A') (A") (A")
                 (A') (A') (A') (A") (A') (A') (A") (A") (A') (A')
                 (A') (A') (A") (A') (A') (A") (A') (A") (A') (A")
                 (A") (A') (A') (A') (A') (A") (A') (A") (A') (A")
                 (A') (A') (A") (A') (A') (A") (A') (A") (A') (A')
                 (A') (A') (A") (A') (A") (A") (A') (A') (A") (A')
                 (A") (A") (A') (A") (A') (A") (A') (A") (A") (A')
                 (A') (A') (A') (A') (A') (A') (A') (A') (A')
 The electronic state of the initial guess is 1-A'.
 Leave Link  401 at Mon Jan 31 11:39:24 2022, MaxMem= 16106127360 cpu:               6.7 elap:               0.3
 (Enter /sw/contrib/gaussian/g16/B01/g16/l502.exe)
 Keep R1 ints in memory in symmetry-blocked form, NReq=128070121.
 FoFCou: FMM=F IPFlag=           0 FMFlag=           0 FMFlg1=           0
         NFxFlg=           0 DoJE=F BraDBF=F KetDBF=F FulRan=T
         wScrn=  0.000000 ICntrl=       600 IOpCl=  0 I1Cent=           0 NGrid=           0
         NMat0=    1 NMatS0=  13041 NMatT0=    0 NMatD0=    1 NMtDS0=    0 NMtDT0=    0
 Petite list used in FoFCou.
 Closed shell SCF:
 Using DIIS extrapolation, IDIIS=  1040.
 NGot= 16106127360 LenX= 16063019402 LenY= 16062982861
 Requested convergence on RMS density matrix=1.00D-08 within 128 cycles.
 Requested convergence on MAX density matrix=1.00D-06.
 Requested convergence on             energy=1.00D-06.
 No special actions if energy rises.

 Cycle   1  Pass 1  IDiag  1:
 E= -204.615390952736    
 DIIS: error= 2.77D-02 at cycle   1 NSaved=   1.
 NSaved= 1 IEnMin= 1 EnMin= -204.615390952736     IErMin= 1 ErrMin= 2.77D-02
 ErrMax= 2.77D-02  0.00D+00 EMaxC= 1.00D-01 BMatC= 3.54D-01 BMatP= 3.54D-01
 IDIUse=3 WtCom= 7.23D-01 WtEn= 2.77D-01
 Coeff-Com:  0.100D+01
 Coeff-En:   0.100D+01
 Coeff:      0.100D+01
 Gap=     0.511 Goal=   None    Shift=    0.000
 GapD=    0.511 DampG=2.000 DampE=0.500 DampFc=1.0000 IDamp=-1.
 RMSDP=2.04D-03 MaxDP=1.21D-01              OVMax= 1.01D-01

 Cycle   2  Pass 1  IDiag  1:
 E= -204.680399669950     Delta-E=       -0.065008717214 Rises=F Damp=F
 DIIS: error= 2.05D-02 at cycle   2 NSaved=   2.
 NSaved= 2 IEnMin= 2 EnMin= -204.680399669950     IErMin= 2 ErrMin= 2.05D-02
 ErrMax= 2.05D-02  0.00D+00 EMaxC= 1.00D-01 BMatC= 6.69D-02 BMatP= 3.54D-01
 IDIUse=3 WtCom= 7.95D-01 WtEn= 2.05D-01
 Coeff-Com:  0.231D+00 0.769D+00
 Coeff-En:   0.992D-01 0.901D+00
 Coeff:      0.204D+00 0.796D+00
 Gap=     0.512 Goal=   None    Shift=    0.000
 RMSDP=9.90D-04 MaxDP=3.56D-02 DE=-6.50D-02 OVMax= 8.79D-02

 Cycle   3  Pass 1  IDiag  1:
 E= -204.713549370218     Delta-E=       -0.033149700268 Rises=F Damp=F
 DIIS: error= 7.31D-03 at cycle   3 NSaved=   3.
 NSaved= 3 IEnMin= 3 EnMin= -204.713549370218     IErMin= 3 ErrMin= 7.31D-03
 ErrMax= 7.31D-03  0.00D+00 EMaxC= 1.00D-01 BMatC= 1.54D-02 BMatP= 6.69D-02
 IDIUse=3 WtCom= 9.27D-01 WtEn= 7.31D-02
 Coeff-Com: -0.359D-01 0.305D+00 0.731D+00
 Coeff-En:   0.000D+00 0.891D-01 0.911D+00
 Coeff:     -0.332D-01 0.290D+00 0.744D+00
 Gap=     0.494 Goal=   None    Shift=    0.000
 RMSDP=4.07D-04 MaxDP=2.23D-02 DE=-3.31D-02 OVMax= 2.63D-02

 Cycle   4  Pass 1  IDiag  1:
 E= -204.723710737439     Delta-E=       -0.010161367221 Rises=F Damp=F
 DIIS: error= 1.55D-03 at cycle   4 NSaved=   4.
 NSaved= 4 IEnMin= 4 EnMin= -204.723710737439     IErMin= 4 ErrMin= 1.55D-03
 ErrMax= 1.55D-03  0.00D+00 EMaxC= 1.00D-01 BMatC= 2.48D-04 BMatP= 1.54D-02
 IDIUse=3 WtCom= 9.84D-01 WtEn= 1.55D-02
 Coeff-Com: -0.810D-02 0.289D-01 0.132D+00 0.848D+00
 Coeff-En:   0.000D+00 0.000D+00 0.000D+00 0.100D+01
 Coeff:     -0.797D-02 0.284D-01 0.130D+00 0.850D+00
 Gap=     0.489 Goal=   None    Shift=    0.000
 RMSDP=8.15D-05 MaxDP=1.80D-03 DE=-1.02D-02 OVMax= 7.94D-03

 Cycle   5  Pass 1  IDiag  1:
 E= -204.724067916207     Delta-E=       -0.000357178768 Rises=F Damp=F
 DIIS: error= 1.02D-03 at cycle   5 NSaved=   5.
 NSaved= 5 IEnMin= 5 EnMin= -204.724067916207     IErMin= 5 ErrMin= 1.02D-03
 ErrMax= 1.02D-03  0.00D+00 EMaxC= 1.00D-01 BMatC= 6.01D-05 BMatP= 2.48D-04
 IDIUse=3 WtCom= 9.90D-01 WtEn= 1.02D-02
 Coeff-Com:  0.689D-02-0.714D-01-0.152D+00 0.198D+00 0.102D+01
 Coeff-En:   0.000D+00 0.000D+00 0.000D+00 0.000D+00 0.100D+01
 Coeff:      0.682D-02-0.706D-01-0.151D+00 0.196D+00 0.102D+01
 Gap=     0.489 Goal=   None    Shift=    0.000
 RMSDP=6.71D-05 MaxDP=1.61D-03 DE=-3.57D-04 OVMax= 8.82D-03

 Cycle   6  Pass 1  IDiag  1:
 E= -204.724236227723     Delta-E=       -0.000168311516 Rises=F Damp=F
 DIIS: error= 2.27D-04 at cycle   6 NSaved=   6.
 NSaved= 6 IEnMin= 6 EnMin= -204.724236227723     IErMin= 6 ErrMin= 2.27D-04
 ErrMax= 2.27D-04  0.00D+00 EMaxC= 1.00D-01 BMatC= 1.09D-05 BMatP= 6.01D-05
 IDIUse=3 WtCom= 9.98D-01 WtEn= 2.27D-03
 Coeff-Com:  0.640D-03 0.816D-04-0.431D-02-0.197D+00-0.146D-02 0.120D+01
 Coeff-En:   0.000D+00 0.000D+00 0.000D+00 0.000D+00 0.000D+00 0.100D+01
 Coeff:      0.639D-03 0.814D-04-0.430D-02-0.197D+00-0.146D-02 0.120D+01
 Gap=     0.490 Goal=   None    Shift=    0.000
 RMSDP=3.68D-05 MaxDP=6.88D-04 DE=-1.68D-04 OVMax= 3.91D-03

 Cycle   7  Pass 1  IDiag  1:
 E= -204.724272800760     Delta-E=       -0.000036573037 Rises=F Damp=F
 DIIS: error= 1.14D-04 at cycle   7 NSaved=   7.
 NSaved= 7 IEnMin= 7 EnMin= -204.724272800760     IErMin= 7 ErrMin= 1.14D-04
 ErrMax= 1.14D-04  0.00D+00 EMaxC= 1.00D-01 BMatC= 1.71D-06 BMatP= 1.09D-05
 IDIUse=3 WtCom= 9.99D-01 WtEn= 1.14D-03
 Coeff-Com: -0.120D-02 0.124D-01 0.311D-01-0.461D-01-0.141D+00-0.699D-01
 Coeff-Com:  0.122D+01
 Coeff-En:   0.000D+00 0.000D+00 0.000D+00 0.000D+00 0.000D+00 0.000D+00
 Coeff-En:   0.100D+01
 Coeff:     -0.120D-02 0.124D-01 0.310D-01-0.461D-01-0.141D+00-0.699D-01
 Coeff:      0.121D+01
 Gap=     0.490 Goal=   None    Shift=    0.000
 RMSDP=1.47D-05 MaxDP=3.19D-04 DE=-3.66D-05 OVMax= 1.74D-03

 Cycle   8  Pass 1  IDiag  1:
 E= -204.724278097623     Delta-E=       -0.000005296863 Rises=F Damp=F
 DIIS: error= 4.33D-05 at cycle   8 NSaved=   8.
 NSaved= 8 IEnMin= 8 EnMin= -204.724278097623     IErMin= 8 ErrMin= 4.33D-05
 ErrMax= 4.33D-05  0.00D+00 EMaxC= 1.00D-01 BMatC= 1.80D-07 BMatP= 1.71D-06
 IDIUse=1 WtCom= 1.00D+00 WtEn= 0.00D+00
 Coeff-Com: -0.453D-04-0.691D-03-0.404D-03 0.193D-01 0.237D-01-0.149D+00
 Coeff-Com: -0.139D+00 0.125D+01
 Coeff:     -0.453D-04-0.691D-03-0.404D-03 0.193D-01 0.237D-01-0.149D+00
 Coeff:     -0.139D+00 0.125D+01
 Gap=     0.490 Goal=   None    Shift=    0.000
 RMSDP=4.87D-06 MaxDP=9.91D-05 DE=-5.30D-06 OVMax= 4.81D-04

 Cycle   9  Pass 1  IDiag  1:
 E= -204.724278627407     Delta-E=       -0.000000529784 Rises=F Damp=F
 DIIS: error= 1.13D-05 at cycle   9 NSaved=   9.
 NSaved= 9 IEnMin= 9 EnMin= -204.724278627407     IErMin= 9 ErrMin= 1.13D-05
 ErrMax= 1.13D-05  0.00D+00 EMaxC= 1.00D-01 BMatC= 1.52D-08 BMatP= 1.80D-07
 IDIUse=1 WtCom= 1.00D+00 WtEn= 0.00D+00
 Coeff-Com:  0.107D-03-0.101D-02-0.243D-02-0.158D-02 0.126D-01 0.382D-01
 Coeff-Com: -0.836D-01-0.288D+00 0.133D+01
 Coeff:      0.107D-03-0.101D-02-0.243D-02-0.158D-02 0.126D-01 0.382D-01
 Coeff:     -0.836D-01-0.288D+00 0.133D+01
 Gap=     0.490 Goal=   None    Shift=    0.000
 RMSDP=1.27D-06 MaxDP=3.43D-05 DE=-5.30D-07 OVMax= 9.63D-05

 Cycle  10  Pass 1  IDiag  1:
 E= -204.724278668404     Delta-E=       -0.000000040997 Rises=F Damp=F
 DIIS: error= 2.77D-06 at cycle  10 NSaved=  10.
 NSaved=10 IEnMin=10 EnMin= -204.724278668404     IErMin=10 ErrMin= 2.77D-06
 ErrMax= 2.77D-06  0.00D+00 EMaxC= 1.00D-01 BMatC= 1.26D-09 BMatP= 1.52D-08
 IDIUse=1 WtCom= 1.00D+00 WtEn= 0.00D+00
 Coeff-Com: -0.258D-04 0.315D-03 0.789D-03-0.188D-02-0.463D-02 0.174D-02
 Coeff-Com:  0.380D-01-0.488D-01-0.289D+00 0.130D+01
 Coeff:     -0.258D-04 0.315D-03 0.789D-03-0.188D-02-0.463D-02 0.174D-02
 Coeff:      0.380D-01-0.488D-01-0.289D+00 0.130D+01
 Gap=     0.490 Goal=   None    Shift=    0.000
 RMSDP=3.34D-07 MaxDP=1.13D-05 DE=-4.10D-08 OVMax= 3.03D-05

 Cycle  11  Pass 1  IDiag  1:
 E= -204.724278671797     Delta-E=       -0.000000003394 Rises=F Damp=F
 DIIS: error= 1.11D-06 at cycle  11 NSaved=  11.
 NSaved=11 IEnMin=11 EnMin= -204.724278671797     IErMin=11 ErrMin= 1.11D-06
 ErrMax= 1.11D-06  0.00D+00 EMaxC= 1.00D-01 BMatC= 1.13D-10 BMatP= 1.26D-09
 IDIUse=1 WtCom= 1.00D+00 WtEn= 0.00D+00
 Coeff-Com: -0.622D-06-0.171D-04-0.407D-04 0.524D-03 0.100D-02-0.441D-02
 Coeff-Com: -0.595D-02 0.448D-01-0.174D-01-0.479D+00 0.146D+01
 Coeff:     -0.622D-06-0.171D-04-0.407D-04 0.524D-03 0.100D-02-0.441D-02
 Coeff:     -0.595D-02 0.448D-01-0.174D-01-0.479D+00 0.146D+01
 Gap=     0.490 Goal=   None    Shift=    0.000
 RMSDP=1.10D-07 MaxDP=4.14D-06 DE=-3.39D-09 OVMax= 1.07D-05

 Cycle  12  Pass 1  IDiag  1:
 E= -204.724278672153     Delta-E=       -0.000000000356 Rises=F Damp=F
 DIIS: error= 1.79D-07 at cycle  12 NSaved=  12.
 NSaved=12 IEnMin=12 EnMin= -204.724278672153     IErMin=12 ErrMin= 1.79D-07
 ErrMax= 1.79D-07  0.00D+00 EMaxC= 1.00D-01 BMatC= 6.38D-12 BMatP= 1.13D-10
 IDIUse=1 WtCom= 1.00D+00 WtEn= 0.00D+00
 Coeff-Com:  0.237D-05-0.230D-04-0.557D-04-0.647D-04 0.185D-03 0.150D-02
 Coeff-Com: -0.185D-02-0.121D-01 0.376D-01 0.366D-01-0.460D+00 0.140D+01
 Coeff:      0.237D-05-0.230D-04-0.557D-04-0.647D-04 0.185D-03 0.150D-02
 Coeff:     -0.185D-02-0.121D-01 0.376D-01 0.366D-01-0.460D+00 0.140D+01
 Gap=     0.490 Goal=   None    Shift=    0.000
 RMSDP=3.02D-08 MaxDP=6.80D-07 DE=-3.56D-10 OVMax= 2.43D-06

 Cycle  13  Pass 1  IDiag  1:
 E= -204.724278672172     Delta-E=       -0.000000000018 Rises=F Damp=F
 DIIS: error= 4.21D-08 at cycle  13 NSaved=  13.
 NSaved=13 IEnMin=13 EnMin= -204.724278672172     IErMin=13 ErrMin= 4.21D-08
 ErrMax= 4.21D-08  0.00D+00 EMaxC= 1.00D-01 BMatC= 1.92D-13 BMatP= 6.38D-12
 IDIUse=1 WtCom= 1.00D+00 WtEn= 0.00D+00
 Coeff-Com: -0.426D-06 0.553D-05 0.133D-04-0.187D-04-0.923D-04-0.493D-04
 Coeff-Com:  0.735D-03-0.277D-03-0.515D-02 0.129D-01 0.221D-01-0.289D+00
 Coeff-Com:  0.126D+01
 Coeff:     -0.426D-06 0.553D-05 0.133D-04-0.187D-04-0.923D-04-0.493D-04
 Coeff:      0.735D-03-0.277D-03-0.515D-02 0.129D-01 0.221D-01-0.289D+00
 Coeff:      0.126D+01
 Gap=     0.490 Goal=   None    Shift=    0.000
 RMSDP=5.20D-09 MaxDP=8.61D-08 DE=-1.85D-11 OVMax= 3.94D-07

 SCF Done:  E(RHF) =  -204.724278672     A.U. after   13 cycles
            NFock= 13  Conv=0.52D-08     -V/T= 2.0023
 KE= 2.042584111821D+02 PE=-6.234069742655D+02 EE= 1.446980199056D+02
 Leave Link  502 at Mon Jan 31 11:39:25 2022, MaxMem= 16106127360 cpu:              34.6 elap:               1.7
 (Enter /sw/contrib/gaussian/g16/B01/g16/l801.exe)
 ExpMin= 2.53D-02 ExpMax= 1.53D+04 ExpMxC= 5.22D+02 IAcc=3 IRadAn=         5 AccDes= 0.00D+00
 HarFok:  IExCor=  205 AccDes= 0.00D+00 IRadAn=         5 IDoV=-2 UseB2=F ITyADJ=14
 ICtDFT= 12500011 ScaDFX=  1.000000  1.000000  1.000000  1.000000
 Largest valence mixing into a core orbital is  2.06D-04
 Largest core mixing into a valence orbital is  3.25D-05
 Range of M.O.s used for correlation:     4   161
 NBasis=   161 NAE=    12 NBE=    12 NFC=     3 NFV=     0
 NROrb=    158 NOA=     9 NOB=     9 NVA=   149 NVB=   149

 **** Warning!!: The largest alpha MO coefficient is  0.19530826D+02

 Leave Link  801 at Mon Jan 31 11:39:25 2022, MaxMem= 16106127360 cpu:               2.5 elap:               0.1
 (Enter /sw/contrib/gaussian/g16/B01/g16/l906.exe)
 Frozen-core derivative calculation, NFC=   3 NFV=   0.
 FulOut=F Deriv=T AODrv=F NAtomX=     4
   MMem=         161  MDisk=           9 MDiskD=           9
  W3Min=      367080 MinDsk=      792425 NBas6D=         190
 NBas2D=       18625    NTT=       18145    LW2=     3500000
    MDV= 16105788687 MDiskM=      423783 NBas2p=       18621
 Fully in-core method, ICMem=   359292905.
 IMap=   1   2   3   4   5   6   7   8   9  10  11  12
 JobTyp=1 Pass  1 fully in-core, NPsUse= 28.
 Compute canonical integrals.
 FoFCou: FMM=F IPFlag=           0 FMFlag=           0 FMFlg1=           0
         NFxFlg=           0 DoJE=F BraDBF=F KetDBF=F FulRan=T
         wScrn=  0.000000 ICntrl=       600 IOpCl=  1 I1Cent=           0 NGrid=           0
         NMat0=    1 NMatS0=  18625 NMatT0=    0 NMatD0=    1 NMtDS0=    0 NMtDT0=    0
 Symmetry not used in FoFCou.
 Spin components of T(2) and E(2):
     alpha-alpha T2 =       0.2520359812D-01 E2=     -0.9055593781D-01
     alpha-beta  T2 =       0.1368144217D+00 E2=     -0.5159322314D+00
     beta-beta   T2 =       0.2520359812D-01 E2=     -0.9055593781D-01
 The integrals were generated   1 times.
 ANorm=    0.1089596998D+01
 E2 =    -0.6970441071D+00 EUMP2 =    -0.20542132277923D+03
 Leave Link  906 at Mon Jan 31 11:39:28 2022, MaxMem= 16106127360 cpu:              84.2 elap:               3.0
 (Enter /sw/contrib/gaussian/g16/B01/g16/l1002.exe)
 Minotr:  Closed shell wavefunction.
          Computing MP2/KS-MP2 derivatives.
          Using Z-Vector for PSCF gradient.
          Skipping F1 and S1 gradient terms here.
          Frozen-core window.
          Direct CPHF calculation.
          Differentiating once with respect to electric field.
                with respect to dipole field.
          Electric field/nuclear overlap derivatives assumed to be zero.
          Using symmetry in CPHF.
          Requested convergence is 1.0D-10 RMS, and 1.0D-09 maximum.
          NewPWx=F KeepS1=T KeepF1=T KeepIn=T MapXYZ=F SortEE=F KeepMc=T.
 Keep R1 ints in memory in symmetry-blocked form, NReq=128071053.
 FoFCou: FMM=F IPFlag=           0 FMFlag=           0 FMFlg1=           0
         NFxFlg=           0 DoJE=F BraDBF=F KetDBF=F FulRan=T
         wScrn=  0.000000 ICntrl=       600 IOpCl=  0 I1Cent=           0 NGrid=           0
         NMat0=    1 NMatS0=  13041 NMatT0=    0 NMatD0=    1 NMtDS0=    0 NMtDT0=    0
 Petite list used in FoFCou.
          MDV=   16106127360 using IRadAn=       5.
          Solving linear equations separately, MaxMat=       0.
          There are     1 degrees of freedom in the 1st order CPHF.  IDoFFX=0 NUNeed=     1.
 LinEq1:  Iter=  0 NonCon=     1 RMS=6.57D-03 Max=1.33D-01 NDo=     1
 AX will form     1 AO Fock derivatives at one time.
 LinEq1:  Iter=  1 NonCon=     1 RMS=2.23D-03 Max=4.02D-02 NDo=     1
 LinEq1:  Iter=  2 NonCon=     1 RMS=8.99D-04 Max=1.12D-02 NDo=     1
 LinEq1:  Iter=  3 NonCon=     1 RMS=4.32D-04 Max=8.58D-03 NDo=     1
 LinEq1:  Iter=  4 NonCon=     1 RMS=1.34D-04 Max=1.44D-03 NDo=     1
 LinEq1:  Iter=  5 NonCon=     1 RMS=6.02D-05 Max=9.78D-04 NDo=     1
 LinEq1:  Iter=  6 NonCon=     1 RMS=2.27D-05 Max=2.64D-04 NDo=     1
 LinEq1:  Iter=  7 NonCon=     1 RMS=5.80D-06 Max=5.90D-05 NDo=     1
 LinEq1:  Iter=  8 NonCon=     1 RMS=1.41D-06 Max=1.60D-05 NDo=     1
 LinEq1:  Iter=  9 NonCon=     1 RMS=2.58D-07 Max=1.95D-06 NDo=     1
 LinEq1:  Iter= 10 NonCon=     1 RMS=4.74D-08 Max=3.61D-07 NDo=     1
 LinEq1:  Iter= 11 NonCon=     1 RMS=7.62D-09 Max=7.49D-08 NDo=     1
 LinEq1:  Iter= 12 NonCon=     1 RMS=1.02D-09 Max=7.59D-09 NDo=     1
 LinEq1:  Iter= 13 NonCon=     1 RMS=2.11D-10 Max=2.21D-09 NDo=     1
 LinEq1:  Iter= 14 NonCon=     0 RMS=4.03D-11 Max=3.61D-10 NDo=     1
 Linear equations converged to 1.000D-10 1.000D-09 after    14 iterations.
 End of Minotr F.D. properties file   721 does not exist.
 End of Minotr F.D. properties file   722 does not exist.
 End of Minotr F.D. properties file   788 does not exist.
 Leave Link 1002 at Mon Jan 31 11:39:30 2022, MaxMem= 16106127360 cpu:              37.9 elap:               1.9
 (Enter /sw/contrib/gaussian/g16/B01/g16/l601.exe)
 Copying SCF densities to generalized density rwf, IOpCl= 0 IROHF=0.

 **********************************************************************

            Population analysis using the MP2 Density.

 **********************************************************************

 Orbital symmetries:
       Occupied  (A') (A') (A') (A') (A') (A') (A') (A') (A") (A')
                 (A") (A')
       Virtual   (A') (A") (A') (A') (A") (A') (A') (A') (A") (A')
                 (A") (A') (A') (A") (A') (A') (A') (A') (A') (A")
                 (A') (A') (A") (A') (A') (A') (A") (A") (A') (A')
                 (A') (A") (A") (A') (A") (A') (A') (A") (A') (A')
                 (A') (A') (A') (A") (A") (A') (A') (A") (A') (A')
                 (A") (A') (A") (A') (A') (A") (A') (A") (A') (A")
                 (A') (A') (A") (A') (A') (A') (A") (A') (A") (A")
                 (A') (A') (A') (A") (A') (A") (A') (A') (A") (A')
                 (A") (A') (A') (A") (A') (A") (A') (A") (A') (A')
                 (A') (A') (A') (A") (A') (A") (A') (A") (A') (A")
                 (A') (A") (A') (A') (A') (A") (A') (A") (A") (A')
                 (A') (A") (A') (A') (A") (A') (A') (A") (A') (A')
                 (A') (A') (A") (A') (A") (A") (A') (A') (A") (A')
                 (A") (A") (A') (A") (A') (A") (A') (A") (A") (A')
                 (A') (A') (A') (A') (A') (A') (A') (A') (A')
 The electronic state is 1-A'.
 Alpha  occ. eigenvalues --  -20.66295 -20.64399 -15.79731  -1.60349  -1.40571
 Alpha  occ. eigenvalues --   -0.94832  -0.78603  -0.73042  -0.68292  -0.62470
 Alpha  occ. eigenvalues --   -0.52853  -0.46188
 Alpha virt. eigenvalues --    0.02775   0.08170   0.09422   0.09759   0.12879
 Alpha virt. eigenvalues --    0.14326   0.15701   0.17195   0.18704   0.19669
 Alpha virt. eigenvalues --    0.20591   0.23395   0.25797   0.29611   0.31188
 Alpha virt. eigenvalues --    0.33018   0.36679   0.38349   0.42374   0.52590
 Alpha virt. eigenvalues --    0.52673   0.54910   0.57356   0.61351   0.63187
 Alpha virt. eigenvalues --    0.64815   0.68022   0.71388   0.71836   0.74774
 Alpha virt. eigenvalues --    0.77538   0.78022   0.81177   0.81276   0.86233
 Alpha virt. eigenvalues --    0.87911   0.92577   0.93887   0.94419   0.99463
 Alpha virt. eigenvalues --    1.05027   1.06404   1.08227   1.10716   1.16132
 Alpha virt. eigenvalues --    1.19760   1.25248   1.26985   1.36034   1.43439
 Alpha virt. eigenvalues --    1.48828   1.52329   1.52547   1.54515   1.55530
 Alpha virt. eigenvalues --    1.61058   1.65901   1.72995   1.75599   1.82477
 Alpha virt. eigenvalues --    1.85826   1.96026   1.97837   1.99897   2.07669
 Alpha virt. eigenvalues --    2.13339   2.13416   2.19111   2.27223   2.30914
 Alpha virt. eigenvalues --    2.33187   2.37990   2.45360   2.47119   2.49865
 Alpha virt. eigenvalues --    2.50359   2.52345   2.54624   2.57042   2.60737
 Alpha virt. eigenvalues --    2.60964   2.66425   2.77376   2.77962   2.84354
 Alpha virt. eigenvalues --    2.94166   2.96496   3.11888   3.15074   3.18225
 Alpha virt. eigenvalues --    3.25134   3.46655   3.83408   3.85892   4.03007
 Alpha virt. eigenvalues --    4.17012   4.18496   4.21703   4.36466   4.37387
 Alpha virt. eigenvalues --    4.58503   4.63663   4.74568   4.82694   4.87256
 Alpha virt. eigenvalues --    4.88758   4.97992   5.00415   5.07550   5.08609
 Alpha virt. eigenvalues --    5.17504   5.24670   5.25966   5.33580   5.37536
 Alpha virt. eigenvalues --    5.38264   5.58439   5.66929   5.79219   5.98417
 Alpha virt. eigenvalues --    6.13079   6.44238   6.50961   6.51205   6.67561
 Alpha virt. eigenvalues --    6.71821   6.74594   6.85243   6.92212   7.07421
 Alpha virt. eigenvalues --    7.12164   7.17882   7.23979   7.25770   7.25771
 Alpha virt. eigenvalues --    7.33466   7.37939   7.43830   7.48103   7.61508
 Alpha virt. eigenvalues --    7.65119   7.70680   7.80150   8.00121   8.08267
 Alpha virt. eigenvalues --    8.42838  14.24175  15.17883  15.99585
          Condensed to atoms (all electrons):
               1          2          3          4
     1  H    0.586200   0.174225  -0.046669   0.013175
     2  O    0.174225   8.289369  -0.140094  -0.059726
     3  N   -0.046669  -0.140094   7.054023  -0.043257
     4  O    0.013175  -0.059726  -0.043257   8.275101
 Mulliken charges:
               1
     1  H    0.273070
     2  O   -0.263773
     3  N    0.175997
     4  O   -0.185294
 Sum of Mulliken charges =  -0.00000
 Mulliken charges with hydrogens summed into heavy atoms:
               1
     2  O    0.009296
     3  N    0.175997
     4  O   -0.185294
 Electronic spatial extent (au):  <R**2>=            122.8097
 Charge=             -0.0000 electrons
 Dipole moment (field-independent basis, Debye):
    X=              1.8148    Y=              0.6310    Z=             -0.0000  Tot=              1.9214
 Quadrupole moment (field-independent basis, Debye-Ang):
   XX=            -13.6542   YY=            -18.6913   ZZ=            -16.4426
   XY=              0.5919   XZ=              0.0000   YZ=              0.0000
 Traceless Quadrupole moment (field-independent basis, Debye-Ang):
   XX=              2.6085   YY=             -2.4286   ZZ=             -0.1799
   XY=              0.5919   XZ=              0.0000   YZ=              0.0000
 Octapole moment (field-independent basis, Debye-Ang**2):
  XXX=             10.2755  YYY=             -1.1011  ZZZ=             -0.0000  XYY=             -0.9247
  XXY=             -0.3079  XXZ=             -0.0000  XZZ=             -0.9639  YZZ=              0.1797
  YYZ=             -0.0000  XYZ=              0.0000
 Hexadecapole moment (field-independent basis, Debye-Ang**3):
 XXXX=            -71.4186 YYYY=            -38.9467 ZZZZ=            -13.8942 XXXY=             11.8391
 XXXZ=              0.0000 YYYX=             11.4593 YYYZ=              0.0000 ZZZX=             -0.0000
 ZZZY=              0.0000 XXYY=            -22.0536 XXZZ=            -17.4078 YYZZ=             -8.6369
 XXYZ=              0.0000 YYXZ=             -0.0000 ZZXY=              4.0637
 N-N= 6.972626450559D+01 E-N=-6.240007282795D+02  KE= 2.052535273432D+02
 Symmetry A'   KE= 1.964237469552D+02
 Symmetry A"   KE= 8.829780387955D+00
 No NMR shielding tensors so no spin-rotation constants.
 Leave Link  601 at Mon Jan 31 11:39:31 2022, MaxMem= 16106127360 cpu:               4.4 elap:               0.2
 (Enter /sw/contrib/gaussian/g16/B01/g16/l9999.exe)
 1\1\GINC-N2207\SP\RMP2-FC\Aug-CC-pVTZ\H1N1O2\CGAVINH\31-Jan-2022\0\\#p
  SP mp2/aug-cc-pvtz density=current\\title\\0,1\H\O,1,0.97026274\N,2,1
 .41776435,1,101.62778541\O,3,1.17680217,2,110.70859147,1,180.,0\\Versi
 on=ES64L-G16RevB.01\State=1-A'\HF=-204.7242787\MP2=-205.4213228\RMSD=5
 .205e-09\Dipole=-0.1106666,0.,-0.7477925\Quadrupole=-1.3636209,-0.1337
 533,1.4973742,0.,1.2858898,0.\PG=CS [SG(H1N1O2)]\\@


 Boundary, n.  In political geography, an imaginary
 line between two nations, separating the imaginary
 rights of one from the imaginary rights of another.
                               -- Ambrose Bierce
 Job cpu time:       0 days  0 hours  3 minutes  5.1 seconds.
 Elapsed time:       0 days  0 hours  0 minutes  8.0 seconds.
 File lengths (MBytes):  RWF=     16 Int=      0 D2E=      0 Chk=      8 Scr=      1
 Normal termination of Gaussian 16 at Mon Jan 31 11:39:31 2022.
