 Entering Gaussian System, Link 0=g16
 Input=hono_r3_m_01.gjf
 Output=hono_r3_m_01.log
 Initial command:
 /sw/contrib/gaussian/g16/B01/g16/l1.exe "/scr/Gau-8776.inp" -scrdir="/scr/"
 Entering Link 1 = /sw/contrib/gaussian/g16/B01/g16/l1.exe PID=      8777.
  
 Copyright (c) 1988-2017, Gaussian, Inc.  All Rights Reserved.
  
 This is part of the Gaussian(R) 16 program.  It is based on
 the Gaussian(R) 09 system (copyright 2009, Gaussian, Inc.),
 the Gaussian(R) 03 system (copyright 2003, Gaussian, Inc.),
 the Gaussian(R) 98 system (copyright 1998, Gaussian, Inc.),
 the Gaussian(R) 94 system (copyright 1995, Gaussian, Inc.),
 the Gaussian 92(TM) system (copyright 1992, Gaussian, Inc.),
 the Gaussian 90(TM) system (copyright 1990, Gaussian, Inc.),
 the Gaussian 88(TM) system (copyright 1988, Gaussian, Inc.),
 the Gaussian 86(TM) system (copyright 1986, Carnegie Mellon
 University), and the Gaussian 82(TM) system (copyright 1983,
 Carnegie Mellon University). Gaussian is a federally registered
 trademark of Gaussian, Inc.
  
 This software contains proprietary and confidential information,
 including trade secrets, belonging to Gaussian, Inc.
  
 This software is provided under written license and may be
 used, copied, transmitted, or stored only in accord with that
 written license.
  
 The following legend is applicable only to US Government
 contracts under FAR:
  
                    RESTRICTED RIGHTS LEGEND
  
 Use, reproduction and disclosure by the US Government is
 subject to restrictions as set forth in subparagraphs (a)
 and (c) of the Commercial Computer Software - Restricted
 Rights clause in FAR 52.227-19.
  
 Gaussian, Inc.
 340 Quinnipiac St., Bldg. 40, Wallingford CT 06492
  
  
 ---------------------------------------------------------------
 Warning -- This program may not be used in any manner that
 competes with the business of Gaussian, Inc. or will provide
 assistance to any competitor of Gaussian, Inc.  The licensee
 of this program is prohibited from giving any competitor of
 Gaussian, Inc. access to this program.  By using this program,
 the user acknowledges that Gaussian, Inc. is engaged in the
 business of creating and licensing software in the field of
 computational chemistry and represents and warrants to the
 licensee that it is not a competitor of Gaussian, Inc. and that
 it will not use this program in any manner prohibited above.
 ---------------------------------------------------------------
  

 Cite this work as:
 Gaussian 16, Revision B.01,
 M. J. Frisch, G. W. Trucks, H. B. Schlegel, G. E. Scuseria, 
 M. A. Robb, J. R. Cheeseman, G. Scalmani, V. Barone, 
 G. A. Petersson, H. Nakatsuji, X. Li, M. Caricato, A. V. Marenich, 
 J. Bloino, B. G. Janesko, R. Gomperts, B. Mennucci, H. P. Hratchian, 
 J. V. Ortiz, A. F. Izmaylov, J. L. Sonnenberg, D. Williams-Young, 
 F. Ding, F. Lipparini, F. Egidi, J. Goings, B. Peng, A. Petrone, 
 T. Henderson, D. Ranasinghe, V. G. Zakrzewski, J. Gao, N. Rega, 
 G. Zheng, W. Liang, M. Hada, M. Ehara, K. Toyota, R. Fukuda, 
 J. Hasegawa, M. Ishida, T. Nakajima, Y. Honda, O. Kitao, H. Nakai, 
 T. Vreven, K. Throssell, J. A. Montgomery, Jr., J. E. Peralta, 
 F. Ogliaro, M. J. Bearpark, J. J. Heyd, E. N. Brothers, K. N. Kudin, 
 V. N. Staroverov, T. A. Keith, R. Kobayashi, J. Normand, 
 K. Raghavachari, A. P. Rendell, J. C. Burant, S. S. Iyengar, 
 J. Tomasi, M. Cossi, J. M. Millam, M. Klene, C. Adamo, R. Cammi, 
 J. W. Ochterski, R. L. Martin, K. Morokuma, O. Farkas, 
 J. B. Foresman, and D. J. Fox, Gaussian, Inc., Wallingford CT, 2016.
 
 ******************************************
 Gaussian 16:  ES64L-G16RevB.01 20-Dec-2017
                31-Jan-2022 
 ******************************************
 %nproc=28
 Will use up to   28 processors via shared memory.
 %mem=120GB
 %chk=/gscratch/ilahie/mccoygrp/coire_hoono/hono/hono_r3_m_01.chk
 -------------------------------------
 #p SP mp2/aug-cc-pvtz density=current
 -------------------------------------
 1/30=1,38=1,172=1/1;
 2/12=2,17=6,18=5,40=1/2;
 3/5=16,6=1,7=10,11=9,25=1,30=1,71=1/1,2,3;
 4//1;
 5/5=2,38=5/2;
 8/6=4,10=1/1;
 9/15=1,16=-3/6;
 10/5=1,13=10/2;
 6/7=2,8=2,9=2,10=2,22=-1/1;
 99/5=1,9=1/99;
 Leave Link    1 at Mon Jan 31 11:39:39 2022, MaxMem= 16106127360 cpu:               3.0 elap:               0.1
 (Enter /sw/contrib/gaussian/g16/B01/g16/l101.exe)
 -----
 title
 -----
 Symbolic Z-matrix:
 Charge =  0 Multiplicity = 1
 H
 O                    1    r1
 N                    2    r2       1    a1
 O                    3    r3       2    a2       1    d1       0
       Variables:
  r1                    0.97026                  
  r2                    1.42776                  
  r3                    1.1668                   
  a1                  101.62779                  
  a2                  110.70859                  
  d1                  180.                       
 
 ITRead=  0  0  0  0
 MicOpt= -1 -1 -1 -1
 NAtoms=      4 NQM=        4 NQMF=       0 NMMI=      0 NMMIF=      0
                NMic=       0 NMicF=      0.
                    Isotopes and Nuclear Properties:
 (Nuclear quadrupole moments (NQMom) in fm**2, nuclear magnetic moments (NMagM)
  in nuclear magnetons)

  Atom         1           2           3           4
 IAtWgt=           1          16          14          16
 AtmWgt=   1.0078250  15.9949146  14.0030740  15.9949146
 NucSpn=           1           0           2           0
 AtZEff=  -0.0000000  -0.0000000  -0.0000000  -0.0000000
 NQMom=    0.0000000   0.0000000   2.0440000   0.0000000
 NMagM=    2.7928460   0.0000000   0.4037610   0.0000000
 AtZNuc=   1.0000000   8.0000000   7.0000000   8.0000000
 Leave Link  101 at Mon Jan 31 11:39:39 2022, MaxMem= 16106127360 cpu:               2.2 elap:               0.1
 (Enter /sw/contrib/gaussian/g16/B01/g16/l202.exe)
                          Input orientation:                          
 ---------------------------------------------------------------------
 Center     Atomic      Atomic             Coordinates (Angstroms)
 Number     Number       Type             X           Y           Z
 ---------------------------------------------------------------------
      1          1           0        0.000000    0.000000    0.000000
      2          8           0        0.000000    0.000000    0.970263
      3          7           0        1.398463    0.000000    1.258033
      4          8           0        1.582616    0.000000    2.410211
 ---------------------------------------------------------------------
                    Distance matrix (angstroms):
                    1          2          3          4
     1  H    0.000000
     2  O    0.970263   0.000000
     3  N    1.881049   1.427764   0.000000
     4  O    2.883365   2.139656   1.166802   0.000000
 Stoichiometry    HNO2
 Framework group  CS[SG(HNO2)]
 Deg. of freedom     5
 Full point group                 CS      NOp   2
 Largest Abelian subgroup         CS      NOp   2
 Largest concise Abelian subgroup C1      NOp   1
                         Standard orientation:                         
 ---------------------------------------------------------------------
 Center     Atomic      Atomic             Coordinates (Angstroms)
 Number     Number       Type             X           Y           Z
 ---------------------------------------------------------------------
      1          1           0        1.755559   -0.155959   -0.000000
      2          8           0        0.890888   -0.596135   -0.000000
      3          7           0        0.000000    0.519585    0.000000
      4          8           0       -1.110333    0.160993    0.000000
 ---------------------------------------------------------------------
 Rotational constants (GHZ):          93.4742855          12.6495940          11.1418068
 Leave Link  202 at Mon Jan 31 11:39:39 2022, MaxMem= 16106127360 cpu:               0.3 elap:               0.0
 (Enter /sw/contrib/gaussian/g16/B01/g16/l301.exe)
 Standard basis: Aug-CC-pVTZ (5D, 7F)
 Ernie: Thresh=  0.10000D-02 Tol=  0.10000D-05 Strict=F.
 Ernie:  9 primitive shells out of 101 were deleted.
 There are   129 symmetry adapted cartesian basis functions of A'  symmetry.
 There are    61 symmetry adapted cartesian basis functions of A"  symmetry.
 There are   106 symmetry adapted basis functions of A'  symmetry.
 There are    55 symmetry adapted basis functions of A"  symmetry.
   161 basis functions,   243 primitive gaussians,   190 cartesian basis functions
    12 alpha electrons       12 beta electrons
       nuclear repulsion energy        69.7820657087 Hartrees.
 IExCor=    0 DFT=F Ex=HF Corr=None ExCW=0 ScaHFX=  1.000000
 ScaDFX=  1.000000  1.000000  1.000000  1.000000 ScalE2=  1.000000  1.000000
 IRadAn=      5 IRanWt=     -1 IRanGd=            0 ICorTp=0 IEmpDi=  4
 NAtoms=    4 NActive=    4 NUniq=    4 SFac= 1.00D+00 NAtFMM=   60 NAOKFM=F Big=F
 Integral buffers will be    131072 words long.
 Raffenetti 1 integral format.
 Two-electron integral symmetry is turned on.
 Leave Link  301 at Mon Jan 31 11:39:39 2022, MaxMem= 16106127360 cpu:               1.5 elap:               0.1
 (Enter /sw/contrib/gaussian/g16/B01/g16/l302.exe)
 NPDir=0 NMtPBC=     1 NCelOv=     1 NCel=       1 NClECP=     1 NCelD=      1
         NCelK=      1 NCelE2=     1 NClLst=     1 CellRange=     0.0.
 One-electron integrals computed using PRISM.
 One-electron integral symmetry used in STVInt
 NBasis=   161 RedAO= T EigKep=  1.95D-04  NBF=   106    55
 NBsUse=   161 1.00D-06 EigRej= -1.00D+00 NBFU=   106    55
 Leave Link  302 at Mon Jan 31 11:39:39 2022, MaxMem= 16106127360 cpu:               4.2 elap:               0.2
 (Enter /sw/contrib/gaussian/g16/B01/g16/l303.exe)
 DipDrv:  MaxL=1.
 Leave Link  303 at Mon Jan 31 11:39:39 2022, MaxMem= 16106127360 cpu:               1.5 elap:               0.1
 (Enter /sw/contrib/gaussian/g16/B01/g16/l401.exe)
 ExpMin= 2.53D-02 ExpMax= 1.53D+04 ExpMxC= 5.22D+02 IAcc=3 IRadAn=         5 AccDes= 0.00D+00
 Harris functional with IExCor=  205 and IRadAn=       5 diagonalized for initial guess.
 HarFok:  IExCor=  205 AccDes= 0.00D+00 IRadAn=         5 IDoV= 1 UseB2=F ITyADJ=14
 ICtDFT=  3500011 ScaDFX=  1.000000  1.000000  1.000000  1.000000
 FoFCou: FMM=F IPFlag=           0 FMFlag=      100000 FMFlg1=           0
         NFxFlg=           0 DoJE=T BraDBF=F KetDBF=T FulRan=T
         wScrn=  0.000000 ICntrl=       500 IOpCl=  0 I1Cent=   200000004 NGrid=           0
         NMat0=    1 NMatS0=      1 NMatT0=    0 NMatD0=    1 NMtDS0=    0 NMtDT0=    0
 Petite list used in FoFCou.
 Harris En= -204.818504997276    
 JPrj=0 DoOrth=F DoCkMO=F.
 Initial guess orbital symmetries:
       Occupied  (A') (A') (A') (A') (A') (A') (A') (A') (A") (A')
                 (A") (A')
       Virtual   (A") (A') (A') (A') (A') (A") (A') (A') (A') (A")
                 (A') (A") (A') (A') (A") (A') (A') (A') (A') (A')
                 (A") (A') (A") (A') (A') (A') (A") (A") (A') (A')
                 (A") (A') (A') (A") (A") (A') (A') (A') (A") (A')
                 (A') (A') (A") (A') (A") (A') (A') (A") (A') (A')
                 (A") (A') (A") (A') (A') (A") (A') (A") (A') (A")
                 (A') (A') (A') (A") (A') (A') (A") (A') (A") (A")
                 (A') (A') (A') (A") (A") (A') (A') (A') (A") (A")
                 (A') (A') (A") (A') (A') (A') (A") (A") (A') (A')
                 (A') (A') (A") (A') (A') (A") (A') (A") (A') (A")
                 (A") (A') (A') (A') (A') (A") (A') (A") (A') (A")
                 (A') (A') (A") (A') (A") (A') (A') (A") (A') (A')
                 (A') (A') (A") (A') (A") (A") (A') (A') (A") (A')
                 (A") (A") (A') (A") (A') (A") (A') (A") (A") (A')
                 (A') (A') (A') (A') (A') (A') (A') (A') (A')
 The electronic state of the initial guess is 1-A'.
 Leave Link  401 at Mon Jan 31 11:39:40 2022, MaxMem= 16106127360 cpu:               6.7 elap:               0.3
 (Enter /sw/contrib/gaussian/g16/B01/g16/l502.exe)
 Keep R1 ints in memory in symmetry-blocked form, NReq=128070121.
 FoFCou: FMM=F IPFlag=           0 FMFlag=           0 FMFlg1=           0
         NFxFlg=           0 DoJE=F BraDBF=F KetDBF=F FulRan=T
         wScrn=  0.000000 ICntrl=       600 IOpCl=  0 I1Cent=           0 NGrid=           0
         NMat0=    1 NMatS0=  13041 NMatT0=    0 NMatD0=    1 NMtDS0=    0 NMtDT0=    0
 Petite list used in FoFCou.
 Closed shell SCF:
 Using DIIS extrapolation, IDIIS=  1040.
 NGot= 16106127360 LenX= 16063019402 LenY= 16062982861
 Requested convergence on RMS density matrix=1.00D-08 within 128 cycles.
 Requested convergence on MAX density matrix=1.00D-06.
 Requested convergence on             energy=1.00D-06.
 No special actions if energy rises.

 Cycle   1  Pass 1  IDiag  1:
 E= -204.616164840153    
 DIIS: error= 3.12D-02 at cycle   1 NSaved=   1.
 NSaved= 1 IEnMin= 1 EnMin= -204.616164840153     IErMin= 1 ErrMin= 3.12D-02
 ErrMax= 3.12D-02  0.00D+00 EMaxC= 1.00D-01 BMatC= 3.54D-01 BMatP= 3.54D-01
 IDIUse=3 WtCom= 6.88D-01 WtEn= 3.12D-01
 Coeff-Com:  0.100D+01
 Coeff-En:   0.100D+01
 Coeff:      0.100D+01
 Gap=     0.512 Goal=   None    Shift=    0.000
 GapD=    0.512 DampG=2.000 DampE=0.500 DampFc=1.0000 IDamp=-1.
 RMSDP=2.04D-03 MaxDP=1.21D-01              OVMax= 9.94D-02

 Cycle   2  Pass 1  IDiag  1:
 E= -204.681669390349     Delta-E=       -0.065504550196 Rises=F Damp=F
 DIIS: error= 2.05D-02 at cycle   2 NSaved=   2.
 NSaved= 2 IEnMin= 2 EnMin= -204.681669390349     IErMin= 2 ErrMin= 2.05D-02
 ErrMax= 2.05D-02  0.00D+00 EMaxC= 1.00D-01 BMatC= 6.58D-02 BMatP= 3.54D-01
 IDIUse=3 WtCom= 7.95D-01 WtEn= 2.05D-01
 Coeff-Com:  0.229D+00 0.771D+00
 Coeff-En:   0.914D-01 0.909D+00
 Coeff:      0.201D+00 0.799D+00
 Gap=     0.509 Goal=   None    Shift=    0.000
 RMSDP=9.85D-04 MaxDP=3.67D-02 DE=-6.55D-02 OVMax= 8.56D-02

 Cycle   3  Pass 1  IDiag  1:
 E= -204.714396017802     Delta-E=       -0.032726627452 Rises=F Damp=F
 DIIS: error= 7.29D-03 at cycle   3 NSaved=   3.
 NSaved= 3 IEnMin= 3 EnMin= -204.714396017802     IErMin= 3 ErrMin= 7.29D-03
 ErrMax= 7.29D-03  0.00D+00 EMaxC= 1.00D-01 BMatC= 1.51D-02 BMatP= 6.58D-02
 IDIUse=3 WtCom= 9.27D-01 WtEn= 7.29D-02
 Coeff-Com: -0.361D-01 0.304D+00 0.732D+00
 Coeff-En:   0.000D+00 0.838D-01 0.916D+00
 Coeff:     -0.334D-01 0.288D+00 0.745D+00
 Gap=     0.492 Goal=   None    Shift=    0.000
 RMSDP=4.04D-04 MaxDP=2.21D-02 DE=-3.27D-02 OVMax= 2.62D-02

 Cycle   4  Pass 1  IDiag  1:
 E= -204.724335923023     Delta-E=       -0.009939905221 Rises=F Damp=F
 DIIS: error= 1.51D-03 at cycle   4 NSaved=   4.
 NSaved= 4 IEnMin= 4 EnMin= -204.724335923023     IErMin= 4 ErrMin= 1.51D-03
 ErrMax= 1.51D-03  0.00D+00 EMaxC= 1.00D-01 BMatC= 2.20D-04 BMatP= 1.51D-02
 IDIUse=3 WtCom= 9.85D-01 WtEn= 1.51D-02
 Coeff-Com: -0.587D-02 0.110D-01 0.911D-01 0.904D+00
 Coeff-En:   0.000D+00 0.000D+00 0.000D+00 0.100D+01
 Coeff:     -0.578D-02 0.109D-01 0.897D-01 0.905D+00
 Gap=     0.487 Goal=   None    Shift=    0.000
 RMSDP=8.38D-05 MaxDP=1.82D-03 DE=-9.94D-03 OVMax= 8.08D-03

 Cycle   5  Pass 1  IDiag  1:
 E= -204.724692961575     Delta-E=       -0.000357038552 Rises=F Damp=F
 DIIS: error= 1.01D-03 at cycle   5 NSaved=   5.
 NSaved= 5 IEnMin= 5 EnMin= -204.724692961575     IErMin= 5 ErrMin= 1.01D-03
 ErrMax= 1.01D-03  0.00D+00 EMaxC= 1.00D-01 BMatC= 5.84D-05 BMatP= 2.20D-04
 IDIUse=3 WtCom= 9.90D-01 WtEn= 1.01D-02
 Coeff-Com:  0.676D-02-0.709D-01-0.149D+00 0.236D+00 0.977D+00
 Coeff-En:   0.000D+00 0.000D+00 0.000D+00 0.000D+00 0.100D+01
 Coeff:      0.669D-02-0.702D-01-0.148D+00 0.234D+00 0.977D+00
 Gap=     0.487 Goal=   None    Shift=    0.000
 RMSDP=6.43D-05 MaxDP=1.57D-03 DE=-3.57D-04 OVMax= 8.50D-03

 Cycle   6  Pass 1  IDiag  1:
 E= -204.724851555437     Delta-E=       -0.000158593861 Rises=F Damp=F
 DIIS: error= 2.28D-04 at cycle   6 NSaved=   6.
 NSaved= 6 IEnMin= 6 EnMin= -204.724851555437     IErMin= 6 ErrMin= 2.28D-04
 ErrMax= 2.28D-04  0.00D+00 EMaxC= 1.00D-01 BMatC= 1.13D-05 BMatP= 5.84D-05
 IDIUse=3 WtCom= 9.98D-01 WtEn= 2.28D-03
 Coeff-Com:  0.715D-03-0.416D-03-0.616D-02-0.213D+00 0.447D-01 0.117D+01
 Coeff-En:   0.000D+00 0.000D+00 0.000D+00 0.000D+00 0.000D+00 0.100D+01
 Coeff:      0.713D-03-0.415D-03-0.615D-02-0.212D+00 0.446D-01 0.117D+01
 Gap=     0.488 Goal=   None    Shift=    0.000
 RMSDP=3.72D-05 MaxDP=6.82D-04 DE=-1.59D-04 OVMax= 3.89D-03

 Cycle   7  Pass 1  IDiag  1:
 E= -204.724888694147     Delta-E=       -0.000037138710 Rises=F Damp=F
 DIIS: error= 1.17D-04 at cycle   7 NSaved=   7.
 NSaved= 7 IEnMin= 7 EnMin= -204.724888694147     IErMin= 7 ErrMin= 1.17D-04
 ErrMax= 1.17D-04  0.00D+00 EMaxC= 1.00D-01 BMatC= 1.71D-06 BMatP= 1.13D-05
 IDIUse=3 WtCom= 9.99D-01 WtEn= 1.17D-03
 Coeff-Com: -0.122D-02 0.127D-01 0.314D-01-0.550D-01-0.134D+00-0.715D-01
 Coeff-Com:  0.122D+01
 Coeff-En:   0.000D+00 0.000D+00 0.000D+00 0.000D+00 0.000D+00 0.000D+00
 Coeff-En:   0.100D+01
 Coeff:     -0.121D-02 0.127D-01 0.314D-01-0.550D-01-0.134D+00-0.714D-01
 Coeff:      0.122D+01
 Gap=     0.488 Goal=   None    Shift=    0.000
 RMSDP=1.49D-05 MaxDP=3.25D-04 DE=-3.71D-05 OVMax= 1.75D-03

 Cycle   8  Pass 1  IDiag  1:
 E= -204.724894031171     Delta-E=       -0.000005337024 Rises=F Damp=F
 DIIS: error= 4.18D-05 at cycle   8 NSaved=   8.
 NSaved= 8 IEnMin= 8 EnMin= -204.724894031171     IErMin= 8 ErrMin= 4.18D-05
 ErrMax= 4.18D-05  0.00D+00 EMaxC= 1.00D-01 BMatC= 1.76D-07 BMatP= 1.71D-06
 IDIUse=1 WtCom= 1.00D+00 WtEn= 0.00D+00
 Coeff-Com: -0.452D-04-0.673D-03-0.376D-03 0.208D-01 0.208D-01-0.147D+00
 Coeff-Com: -0.130D+00 0.124D+01
 Coeff:     -0.452D-04-0.673D-03-0.376D-03 0.208D-01 0.208D-01-0.147D+00
 Coeff:     -0.130D+00 0.124D+01
 Gap=     0.488 Goal=   None    Shift=    0.000
 RMSDP=4.77D-06 MaxDP=9.36D-05 DE=-5.34D-06 OVMax= 4.50D-04

 Cycle   9  Pass 1  IDiag  1:
 E= -204.724894529481     Delta-E=       -0.000000498311 Rises=F Damp=F
 DIIS: error= 1.03D-05 at cycle   9 NSaved=   9.
 NSaved= 9 IEnMin= 9 EnMin= -204.724894529481     IErMin= 9 ErrMin= 1.03D-05
 ErrMax= 1.03D-05  0.00D+00 EMaxC= 1.00D-01 BMatC= 1.35D-08 BMatP= 1.76D-07
 IDIUse=1 WtCom= 1.00D+00 WtEn= 0.00D+00
 Coeff-Com:  0.104D-03-0.997D-03-0.238D-02-0.777D-03 0.124D-01 0.350D-01
 Coeff-Com: -0.823D-01-0.268D+00 0.131D+01
 Coeff:      0.104D-03-0.997D-03-0.238D-02-0.777D-03 0.124D-01 0.350D-01
 Coeff:     -0.823D-01-0.268D+00 0.131D+01
 Gap=     0.488 Goal=   None    Shift=    0.000
 RMSDP=1.20D-06 MaxDP=3.41D-05 DE=-4.98D-07 OVMax= 9.01D-05

 Cycle  10  Pass 1  IDiag  1:
 E= -204.724894565142     Delta-E=       -0.000000035660 Rises=F Damp=F
 DIIS: error= 2.54D-06 at cycle  10 NSaved=  10.
 NSaved=10 IEnMin=10 EnMin= -204.724894565142     IErMin=10 ErrMin= 2.54D-06
 ErrMax= 2.54D-06  0.00D+00 EMaxC= 1.00D-01 BMatC= 1.08D-09 BMatP= 1.35D-08
 IDIUse=1 WtCom= 1.00D+00 WtEn= 0.00D+00
 Coeff-Com: -0.233D-04 0.292D-03 0.721D-03-0.204D-02-0.402D-02 0.207D-02
 Coeff-Com:  0.350D-01-0.507D-01-0.269D+00 0.129D+01
 Coeff:     -0.233D-04 0.292D-03 0.721D-03-0.204D-02-0.402D-02 0.207D-02
 Coeff:      0.350D-01-0.507D-01-0.269D+00 0.129D+01
 Gap=     0.488 Goal=   None    Shift=    0.000
 RMSDP=3.07D-07 MaxDP=1.01D-05 DE=-3.57D-08 OVMax= 2.76D-05

 Cycle  11  Pass 1  IDiag  1:
 E= -204.724894567975     Delta-E=       -0.000000002833 Rises=F Damp=F
 DIIS: error= 1.04D-06 at cycle  11 NSaved=  11.
 NSaved=11 IEnMin=11 EnMin= -204.724894567975     IErMin=11 ErrMin= 1.04D-06
 ErrMax= 1.04D-06  0.00D+00 EMaxC= 1.00D-01 BMatC= 9.93D-11 BMatP= 1.08D-09
 IDIUse=1 WtCom= 1.00D+00 WtEn= 0.00D+00
 Coeff-Com: -0.901D-06-0.119D-04-0.307D-04 0.506D-03 0.909D-03-0.431D-02
 Coeff-Com: -0.476D-02 0.419D-01-0.182D-01-0.468D+00 0.145D+01
 Coeff:     -0.901D-06-0.119D-04-0.307D-04 0.506D-03 0.909D-03-0.431D-02
 Coeff:     -0.476D-02 0.419D-01-0.182D-01-0.468D+00 0.145D+01
 Gap=     0.488 Goal=   None    Shift=    0.000
 RMSDP=9.91D-08 MaxDP=3.77D-06 DE=-2.83D-09 OVMax= 9.73D-06

 Cycle  12  Pass 1  IDiag  1:
 E= -204.724894568276     Delta-E=       -0.000000000301 Rises=F Damp=F
 DIIS: error= 1.79D-07 at cycle  12 NSaved=  12.
 NSaved=12 IEnMin=12 EnMin= -204.724894568276     IErMin=12 ErrMin= 1.79D-07
 ErrMax= 1.79D-07  0.00D+00 EMaxC= 1.00D-01 BMatC= 5.82D-12 BMatP= 9.93D-11
 IDIUse=1 WtCom= 1.00D+00 WtEn= 0.00D+00
 Coeff-Com:  0.222D-05-0.220D-04-0.518D-04-0.497D-04 0.148D-03 0.148D-02
 Coeff-Com: -0.185D-02-0.115D-01 0.362D-01 0.417D-01-0.482D+00 0.142D+01
 Coeff:      0.222D-05-0.220D-04-0.518D-04-0.497D-04 0.148D-03 0.148D-02
 Coeff:     -0.185D-02-0.115D-01 0.362D-01 0.417D-01-0.482D+00 0.142D+01
 Gap=     0.488 Goal=   None    Shift=    0.000
 RMSDP=2.89D-08 MaxDP=6.61D-07 DE=-3.01D-10 OVMax= 2.39D-06

 Cycle  13  Pass 1  IDiag  1:
 E= -204.724894568295     Delta-E=       -0.000000000019 Rises=F Damp=F
 DIIS: error= 4.21D-08 at cycle  13 NSaved=  13.
 NSaved=13 IEnMin=13 EnMin= -204.724894568295     IErMin=13 ErrMin= 4.21D-08
 ErrMax= 4.21D-08  0.00D+00 EMaxC= 1.00D-01 BMatC= 1.96D-13 BMatP= 5.82D-12
 IDIUse=1 WtCom= 1.00D+00 WtEn= 0.00D+00
 Coeff-Com: -0.411D-06 0.542D-05 0.129D-04-0.228D-04-0.825D-04-0.570D-04
 Coeff-Com:  0.706D-03-0.214D-03-0.518D-02 0.120D-01 0.296D-01-0.316D+00
 Coeff-Com:  0.128D+01
 Coeff:     -0.411D-06 0.542D-05 0.129D-04-0.228D-04-0.825D-04-0.570D-04
 Coeff:      0.706D-03-0.214D-03-0.518D-02 0.120D-01 0.296D-01-0.316D+00
 Coeff:      0.128D+01
 Gap=     0.488 Goal=   None    Shift=    0.000
 RMSDP=5.34D-09 MaxDP=9.19D-08 DE=-1.88D-11 OVMax= 4.09D-07

 SCF Done:  E(RHF) =  -204.724894568     A.U. after   13 cycles
            NFock= 13  Conv=0.53D-08     -V/T= 2.0021
 KE= 2.042885269041D+02 PE=-6.235397016224D+02 EE= 1.447442144413D+02
 Leave Link  502 at Mon Jan 31 11:39:41 2022, MaxMem= 16106127360 cpu:              35.1 elap:               1.7
 (Enter /sw/contrib/gaussian/g16/B01/g16/l801.exe)
 ExpMin= 2.53D-02 ExpMax= 1.53D+04 ExpMxC= 5.22D+02 IAcc=3 IRadAn=         5 AccDes= 0.00D+00
 HarFok:  IExCor=  205 AccDes= 0.00D+00 IRadAn=         5 IDoV=-2 UseB2=F ITyADJ=14
 ICtDFT= 12500011 ScaDFX=  1.000000  1.000000  1.000000  1.000000
 DSYEVD-2 returned Info=          93 IAlg= 4 N=    46 NDim=    46 NE2=   350131317 trying  DSYEV.
 Largest valence mixing into a core orbital is  2.05D-04
 Largest core mixing into a valence orbital is  3.27D-05
 Range of M.O.s used for correlation:     4   161
 NBasis=   161 NAE=    12 NBE=    12 NFC=     3 NFV=     0
 NROrb=    158 NOA=     9 NOB=     9 NVA=   149 NVB=   149

 **** Warning!!: The largest alpha MO coefficient is  0.19424687D+02

 Leave Link  801 at Mon Jan 31 11:39:42 2022, MaxMem= 16106127360 cpu:               2.0 elap:               0.1
 (Enter /sw/contrib/gaussian/g16/B01/g16/l906.exe)
 Frozen-core derivative calculation, NFC=   3 NFV=   0.
 FulOut=F Deriv=T AODrv=F NAtomX=     4
   MMem=         161  MDisk=           9 MDiskD=           9
  W3Min=      367080 MinDsk=      792425 NBas6D=         190
 NBas2D=       18625    NTT=       18145    LW2=     3500000
    MDV= 16105788701 MDiskM=      423783 NBas2p=       18621
 Fully in-core method, ICMem=   359292905.
 IMap=   1   2   3   4   5   6   7   8   9  10  11  12
 JobTyp=1 Pass  1 fully in-core, NPsUse= 28.
 Compute canonical integrals.
 FoFCou: FMM=F IPFlag=           0 FMFlag=           0 FMFlg1=           0
         NFxFlg=           0 DoJE=F BraDBF=F KetDBF=F FulRan=T
         wScrn=  0.000000 ICntrl=       600 IOpCl=  1 I1Cent=           0 NGrid=           0
         NMat0=    1 NMatS0=  18625 NMatT0=    0 NMatD0=    1 NMtDS0=    0 NMtDT0=    0
 Symmetry not used in FoFCou.
 Spin components of T(2) and E(2):
     alpha-alpha T2 =       0.2511963727D-01 E2=     -0.9045009965D-01
     alpha-beta  T2 =       0.1363682811D+00 E2=     -0.5154075090D+00
     beta-beta   T2 =       0.2511963727D-01 E2=     -0.9045009965D-01
 The integrals were generated   1 times.
 ANorm=    0.1089315177D+01
 E2 =    -0.6963077083D+00 EUMP2 =    -0.20542120227655D+03
 Leave Link  906 at Mon Jan 31 11:39:45 2022, MaxMem= 16106127360 cpu:              86.2 elap:               3.1
 (Enter /sw/contrib/gaussian/g16/B01/g16/l1002.exe)
 Minotr:  Closed shell wavefunction.
          Computing MP2/KS-MP2 derivatives.
          Using Z-Vector for PSCF gradient.
          Skipping F1 and S1 gradient terms here.
          Frozen-core window.
          Direct CPHF calculation.
          Differentiating once with respect to electric field.
                with respect to dipole field.
          Electric field/nuclear overlap derivatives assumed to be zero.
          Using symmetry in CPHF.
          Requested convergence is 1.0D-10 RMS, and 1.0D-09 maximum.
          NewPWx=F KeepS1=T KeepF1=T KeepIn=T MapXYZ=F SortEE=F KeepMc=T.
 Keep R1 ints in memory in symmetry-blocked form, NReq=128071053.
 FoFCou: FMM=F IPFlag=           0 FMFlag=           0 FMFlg1=           0
         NFxFlg=           0 DoJE=F BraDBF=F KetDBF=F FulRan=T
         wScrn=  0.000000 ICntrl=       600 IOpCl=  0 I1Cent=           0 NGrid=           0
         NMat0=    1 NMatS0=  13041 NMatT0=    0 NMatD0=    1 NMtDS0=    0 NMtDT0=    0
 Petite list used in FoFCou.
          MDV=   16106127360 using IRadAn=       5.
          Solving linear equations separately, MaxMat=       0.
          There are     1 degrees of freedom in the 1st order CPHF.  IDoFFX=0 NUNeed=     1.
 LinEq1:  Iter=  0 NonCon=     1 RMS=6.56D-03 Max=1.27D-01 NDo=     1
 AX will form     1 AO Fock derivatives at one time.
 LinEq1:  Iter=  1 NonCon=     1 RMS=2.22D-03 Max=3.92D-02 NDo=     1
 LinEq1:  Iter=  2 NonCon=     1 RMS=8.95D-04 Max=1.17D-02 NDo=     1
 LinEq1:  Iter=  3 NonCon=     1 RMS=4.26D-04 Max=8.22D-03 NDo=     1
 LinEq1:  Iter=  4 NonCon=     1 RMS=1.33D-04 Max=1.48D-03 NDo=     1
 LinEq1:  Iter=  5 NonCon=     1 RMS=5.81D-05 Max=9.21D-04 NDo=     1
 LinEq1:  Iter=  6 NonCon=     1 RMS=2.24D-05 Max=2.58D-04 NDo=     1
 LinEq1:  Iter=  7 NonCon=     1 RMS=5.63D-06 Max=6.03D-05 NDo=     1
 LinEq1:  Iter=  8 NonCon=     1 RMS=1.36D-06 Max=1.61D-05 NDo=     1
 LinEq1:  Iter=  9 NonCon=     1 RMS=2.53D-07 Max=1.95D-06 NDo=     1
 LinEq1:  Iter= 10 NonCon=     1 RMS=4.70D-08 Max=3.79D-07 NDo=     1
 LinEq1:  Iter= 11 NonCon=     1 RMS=7.62D-09 Max=7.73D-08 NDo=     1
 LinEq1:  Iter= 12 NonCon=     1 RMS=1.03D-09 Max=7.55D-09 NDo=     1
 LinEq1:  Iter= 13 NonCon=     1 RMS=2.11D-10 Max=2.09D-09 NDo=     1
 LinEq1:  Iter= 14 NonCon=     0 RMS=3.96D-11 Max=3.42D-10 NDo=     1
 Linear equations converged to 1.000D-10 1.000D-09 after    14 iterations.
 End of Minotr F.D. properties file   721 does not exist.
 End of Minotr F.D. properties file   722 does not exist.
 End of Minotr F.D. properties file   788 does not exist.
 Leave Link 1002 at Mon Jan 31 11:39:47 2022, MaxMem= 16106127360 cpu:              37.3 elap:               1.9
 (Enter /sw/contrib/gaussian/g16/B01/g16/l601.exe)
 Copying SCF densities to generalized density rwf, IOpCl= 0 IROHF=0.

 **********************************************************************

            Population analysis using the MP2 Density.

 **********************************************************************

 Orbital symmetries:
       Occupied  (A') (A') (A') (A') (A') (A') (A') (A') (A") (A')
                 (A") (A')
       Virtual   (A') (A") (A') (A') (A") (A') (A') (A') (A") (A')
                 (A") (A') (A') (A") (A') (A') (A') (A') (A') (A")
                 (A') (A') (A") (A') (A') (A') (A") (A") (A') (A')
                 (A') (A") (A") (A') (A") (A') (A') (A") (A') (A')
                 (A') (A') (A') (A") (A") (A') (A') (A") (A') (A')
                 (A") (A') (A") (A') (A') (A") (A') (A") (A') (A")
                 (A') (A') (A") (A') (A') (A') (A") (A') (A") (A")
                 (A') (A') (A') (A") (A') (A") (A') (A') (A") (A')
                 (A") (A') (A") (A') (A') (A") (A') (A") (A') (A')
                 (A') (A') (A') (A") (A') (A") (A') (A") (A') (A")
                 (A') (A") (A') (A') (A') (A") (A') (A") (A") (A')
                 (A') (A") (A') (A') (A") (A') (A') (A") (A') (A')
                 (A') (A') (A") (A') (A") (A") (A') (A') (A") (A')
                 (A") (A") (A') (A") (A') (A") (A') (A") (A") (A')
                 (A') (A') (A') (A') (A') (A') (A') (A') (A')
 The electronic state is 1-A'.
 Alpha  occ. eigenvalues --  -20.66549 -20.64002 -15.79718  -1.61102  -1.40251
 Alpha  occ. eigenvalues --   -0.94673  -0.78625  -0.73187  -0.68516  -0.62639
 Alpha  occ. eigenvalues --   -0.52908  -0.45967
 Alpha virt. eigenvalues --    0.02828   0.08339   0.09371   0.09763   0.12889
 Alpha virt. eigenvalues --    0.14406   0.15687   0.17228   0.18735   0.19642
 Alpha virt. eigenvalues --    0.20589   0.23335   0.25824   0.29682   0.30904
 Alpha virt. eigenvalues --    0.32988   0.36599   0.38296   0.42458   0.52498
 Alpha virt. eigenvalues --    0.52753   0.54854   0.57359   0.61383   0.63631
 Alpha virt. eigenvalues --    0.64875   0.67783   0.71397   0.71768   0.74859
 Alpha virt. eigenvalues --    0.77502   0.78230   0.81222   0.81330   0.86259
 Alpha virt. eigenvalues --    0.88048   0.92653   0.93956   0.94673   0.99679
 Alpha virt. eigenvalues --    1.05014   1.06462   1.08275   1.10711   1.16163
 Alpha virt. eigenvalues --    1.19723   1.25356   1.27055   1.36241   1.43516
 Alpha virt. eigenvalues --    1.48897   1.52273   1.52481   1.54489   1.55529
 Alpha virt. eigenvalues --    1.61060   1.65931   1.72890   1.75523   1.82272
 Alpha virt. eigenvalues --    1.85682   1.96004   1.97991   1.99317   2.07466
 Alpha virt. eigenvalues --    2.13275   2.13410   2.19298   2.27199   2.30976
 Alpha virt. eigenvalues --    2.33099   2.38278   2.45244   2.47136   2.49968
 Alpha virt. eigenvalues --    2.50339   2.52571   2.54454   2.57441   2.60959
 Alpha virt. eigenvalues --    2.61125   2.66857   2.78090   2.78167   2.83963
 Alpha virt. eigenvalues --    2.94272   2.95296   3.11524   3.14898   3.18384
 Alpha virt. eigenvalues --    3.25502   3.46284   3.83416   3.85600   4.03113
 Alpha virt. eigenvalues --    4.17161   4.20247   4.21515   4.36748   4.37584
 Alpha virt. eigenvalues --    4.58792   4.64609   4.74899   4.81858   4.87411
 Alpha virt. eigenvalues --    4.88683   4.98016   5.00118   5.07445   5.09108
 Alpha virt. eigenvalues --    5.17480   5.24885   5.25817   5.34652   5.37029
 Alpha virt. eigenvalues --    5.38099   5.56758   5.68467   5.80160   5.99590
 Alpha virt. eigenvalues --    6.12166   6.43818   6.50702   6.50962   6.67761
 Alpha virt. eigenvalues --    6.71900   6.74762   6.85591   6.92096   7.07212
 Alpha virt. eigenvalues --    7.12394   7.18160   7.24046   7.25963   7.26109
 Alpha virt. eigenvalues --    7.35740   7.39136   7.43647   7.48164   7.63117
 Alpha virt. eigenvalues --    7.65239   7.70773   7.80852   7.99162   8.07355
 Alpha virt. eigenvalues --    8.42865  14.27813  15.15999  16.26536
          Condensed to atoms (all electrons):
               1          2          3          4
     1  H    0.586918   0.172863  -0.044099   0.012683
     2  O    0.172863   8.300500  -0.141124  -0.059297
     3  N   -0.044099  -0.141124   7.049216  -0.044273
     4  O    0.012683  -0.059297  -0.044273   8.269858
 Mulliken charges:
               1
     1  H    0.271634
     2  O   -0.272943
     3  N    0.180280
     4  O   -0.178972
 Sum of Mulliken charges =  -0.00000
 Mulliken charges with hydrogens summed into heavy atoms:
               1
     2  O   -0.001308
     3  N    0.180280
     4  O   -0.178972
 Electronic spatial extent (au):  <R**2>=            122.9076
 Charge=             -0.0000 electrons
 Dipole moment (field-independent basis, Debye):
    X=              1.7083    Y=              0.6628    Z=              0.0000  Tot=              1.8324
 Quadrupole moment (field-independent basis, Debye-Ang):
   XX=            -13.6555   YY=            -18.6984   ZZ=            -16.4419
   XY=              0.5481   XZ=              0.0000   YZ=             -0.0000
 Traceless Quadrupole moment (field-independent basis, Debye-Ang):
   XX=              2.6098   YY=             -2.4332   ZZ=             -0.1766
   XY=              0.5481   XZ=              0.0000   YZ=             -0.0000
 Octapole moment (field-independent basis, Debye-Ang**2):
  XXX=              9.9899  YYY=             -0.9525  ZZZ=              0.0000  XYY=             -1.0253
  XXY=             -0.3902  XXZ=              0.0000  XZZ=             -1.0356  YZZ=              0.2357
  YYZ=              0.0000  XYZ=             -0.0000
 Hexadecapole moment (field-independent basis, Debye-Ang**3):
 XXXX=            -70.7938 YYYY=            -39.8203 ZZZZ=            -13.9130 XXXY=             12.1013
 XXXZ=              0.0000 YYYX=             12.0344 YYYZ=             -0.0000 ZZZX=              0.0000
 ZZZY=             -0.0000 XXYY=            -22.0777 XXZZ=            -17.3011 YYZZ=             -8.7904
 XXYZ=             -0.0000 YYXZ=              0.0000 ZZXY=              4.2492
 N-N= 6.978206570870D+01 E-N=-6.241274308758D+02  KE= 2.052806055376D+02
 Symmetry A'   KE= 1.964506192284D+02
 Symmetry A"   KE= 8.829986309231D+00
 No NMR shielding tensors so no spin-rotation constants.
 Leave Link  601 at Mon Jan 31 11:39:47 2022, MaxMem= 16106127360 cpu:               4.5 elap:               0.2
 (Enter /sw/contrib/gaussian/g16/B01/g16/l9999.exe)
 1\1\GINC-N2207\SP\RMP2-FC\Aug-CC-pVTZ\H1N1O2\CGAVINH\31-Jan-2022\0\\#p
  SP mp2/aug-cc-pvtz density=current\\title\\0,1\H\O,1,0.97026274\N,2,1
 .42776435,1,101.62778541\O,3,1.16680217,2,110.70859147,1,180.,0\\Versi
 on=ES64L-G16RevB.01\State=1-A'\HF=-204.7248946\MP2=-205.4212023\RMSD=5
 .339e-09\Dipole=-0.0725387,0.,-0.7172667\Quadrupole=-1.3668449,-0.1313
 044,1.4981493,0.,1.2760509,0.\PG=CS [SG(H1N1O2)]\\@


 Fatherhood is pretending the present you love most is soap-on-a-rope.
 -- Bill Cosby
 Job cpu time:       0 days  0 hours  3 minutes  7.7 seconds.
 Elapsed time:       0 days  0 hours  0 minutes  8.2 seconds.
 File lengths (MBytes):  RWF=     16 Int=      0 D2E=      0 Chk=      8 Scr=      1
 Normal termination of Gaussian 16 at Mon Jan 31 11:39:47 2022.
