title                                                                   
SP        RMP2-FC                                                     Aug-CC-pVTZ         
Number of atoms                            I                4
Info1-9                                    I   N=           9
          29          20           0           0           0         110
           1           2           1
Full Title                                 C   N=           1
title       
Route                                      C   N=           4
#p SP mp2/aug-cc-pvtz density=current           
Charge                                     I                0
Multiplicity                               I                1
Number of electrons                        I               24
Number of alpha electrons                  I               12
Number of beta electrons                   I               12
Number of basis functions                  I              161
Number of independent functions            I              161
Number of point charges in /Mol/           I                0
Number of translation vectors              I                0
Atomic numbers                             I   N=           4
           1           8           7           8
Nuclear charges                            R   N=           4
  1.00000000E+00  8.00000000E+00  7.00000000E+00  8.00000000E+00
Current cartesian coordinates              R   N=          12
  3.35705129E+00 -2.60678844E-01  8.09422696E-32  1.69336163E+00 -1.11741412E+00
  1.17595470E-31 -1.11160182E-16  9.83105218E-01  1.63893362E-32 -2.11299304E+00
  2.89781907E-01  3.98403804E-31
Number of symbols in /Mol/                 I                0
Force Field                                I                0
Atom Types                                 C   N=           4
                                                
Int Atom Types                             I   N=           4
           0           0           0           0
MM charges                                 R   N=           4
  0.00000000E+00  0.00000000E+00  0.00000000E+00  0.00000000E+00
Integer atomic weights                     I   N=           4
           1          16          14          16
Real atomic weights                        R   N=           4
  1.00782504E+00  1.59949146E+01  1.40030740E+01  1.59949146E+01
Atom fragment info                         I   N=           4
           0           0           0           0
Atom residue num                           I   N=           4
           0           0           0           0
Nuclear spins                              I   N=           4
           1           0           2           0
Nuclear ZEff                               R   N=           4
 -1.00000000E+00 -5.60000000E+00 -4.55000000E+00 -5.60000000E+00
Nuclear ZNuc                               R   N=           4
  1.00000000E+00  8.00000000E+00  7.00000000E+00  8.00000000E+00
Nuclear QMom                               R   N=           4
  0.00000000E+00  0.00000000E+00  2.04400000E+00  0.00000000E+00
Nuclear GFac                               R   N=           4
  2.79284600E+00  0.00000000E+00  4.03761000E-01  0.00000000E+00
MicOpt                                     I   N=           4
          -1          -1          -1          -1
Number of residues                         I                0
Number of secondary structures             I                0
SymInf integers                            I   N=          26
           1           2           1           1           1           1
           1          -1           0           0           0           0
           0           0           0           0           0           0
           0           0           0           0           0           0
           0           0
RotTr to input orientation                 R   N=          12
 -4.57822721E-01 -3.06894347E-16 -8.89043506E-01  8.89043506E-01 -9.10405326E-16
 -4.57822721E-01 -6.68886738E-16 -1.00000000E+00  6.89646671E-16  1.76868919E+00
  0.00000000E+00  2.86521995E+00
Number of contracted shells                I               51
Number of primitive shells                 I               92
Pure/Cartesian d shells                    I                0
Pure/Cartesian f shells                    I                0
Highest angular momentum                   I                3
Largest degree of contraction              I                7
Shell types                                I   N=          51
           0           0           0           0           1           1
           1          -2          -2           0           0           0
           0           0           1           1           1           1
          -2          -2          -2          -3          -3           0
           0           0           0           0           1           1
           1           1          -2          -2          -2          -3
          -3           0           0           0           0           0
           1           1           1           1          -2          -2
          -2          -3          -3
Number of primitives per shell             I   N=          51
           3           1           1           1           1           1
           1           1           1           7           6           1
           1           1           3           1           1           1
           1           1           1           1           1           7
           6           1           1           1           3           1
           1           1           1           1           1           1
           1           7           6           1           1           1
           3           1           1           1           1           1
           1           1           1
Shell to atom map                          I   N=          51
           1           1           1           1           1           1
           1           1           1           2           2           2
           2           2           2           2           2           2
           2           2           2           2           2           3
           3           3           3           3           3           3
           3           3           3           3           3           3
           3           4           4           4           4           4
           4           4           4           4           4           4
           4           4           4
Primitive exponents                        R   N=          92
  3.38700000E+01  5.09500000E+00  1.15900000E+00  3.25800000E-01  1.02700000E-01
  2.52600000E-02  1.40700000E+00  3.88000000E-01  1.02000000E-01  1.05700000E+00
  2.47000000E-01  1.53300000E+04  2.29900000E+03  5.22400000E+02  1.47300000E+02
  4.75500000E+01  1.67600000E+01  6.20700000E+00  5.22400000E+02  1.47300000E+02
  4.75500000E+01  1.67600000E+01  6.20700000E+00  6.88200000E-01  1.75200000E+00
  2.38400000E-01  7.37600000E-02  3.44600000E+01  7.74900000E+00  2.28000000E+00
  7.15600000E-01  2.14000000E-01  5.97400000E-02  2.31400000E+00  6.45000000E-01
  2.14000000E-01  1.42800000E+00  5.00000000E-01  1.14200000E+04  1.71200000E+03
  3.89300000E+02  1.10000000E+02  3.55700000E+01  1.25400000E+01  4.64400000E+00
  3.89300000E+02  1.10000000E+02  3.55700000E+01  1.25400000E+01  4.64400000E+00
  5.11800000E-01  1.29300000E+00  1.78700000E-01  5.76000000E-02  2.66300000E+01
  5.94800000E+00  1.74200000E+00  5.55000000E-01  1.72500000E-01  4.91000000E-02
  1.65400000E+00  4.69000000E-01  1.51000000E-01  1.09300000E+00  3.64000000E-01
  1.53300000E+04  2.29900000E+03  5.22400000E+02  1.47300000E+02  4.75500000E+01
  1.67600000E+01  6.20700000E+00  5.22400000E+02  1.47300000E+02  4.75500000E+01
  1.67600000E+01  6.20700000E+00  6.88200000E-01  1.75200000E+00  2.38400000E-01
  7.37600000E-02  3.44600000E+01  7.74900000E+00  2.28000000E+00  7.15600000E-01
  2.14000000E-01  5.97400000E-02  2.31400000E+00  6.45000000E-01  2.14000000E-01
  1.42800000E+00  5.00000000E-01
Contraction coefficients                   R   N=          92
  2.54948632E-02  1.90362766E-01  8.52162022E-01  1.00000000E+00  1.00000000E+00
  1.00000000E+00  1.00000000E+00  1.00000000E+00  1.00000000E+00  1.00000000E+00
  1.00000000E+00  5.19808943E-04  4.02025621E-03  2.07128267E-02  8.10105536E-02
  2.35962985E-01  4.42653446E-01  3.57064423E-01 -4.42115008E-05 -1.22591041E-03
 -1.05517725E-02 -6.74452633E-02 -1.71198607E-01  1.07329856E+00  1.00000000E+00
  1.00000000E+00  1.00000000E+00  4.11634896E-02  2.57762836E-01  8.02419274E-01
  1.00000000E+00  1.00000000E+00  1.00000000E+00  1.00000000E+00  1.00000000E+00
  1.00000000E+00  1.00000000E+00  1.00000000E+00  5.34563860E-04  4.13435660E-03
  2.12335358E-02  8.25006224E-02  2.38138871E-01  4.42551547E-01  3.53757422E-01
 -4.89867350E-05 -1.19527323E-03 -1.03490714E-02 -6.48680190E-02 -1.71552477E-01
  1.07289568E+00  1.00000000E+00  1.00000000E+00  1.00000000E+00  3.98072123E-02
  2.49002660E-01  8.10479727E-01  1.00000000E+00  1.00000000E+00  1.00000000E+00
  1.00000000E+00  1.00000000E+00  1.00000000E+00  1.00000000E+00  1.00000000E+00
  5.19808943E-04  4.02025621E-03  2.07128267E-02  8.10105536E-02  2.35962985E-01
  4.42653446E-01  3.57064423E-01 -4.42115008E-05 -1.22591041E-03 -1.05517725E-02
 -6.74452633E-02 -1.71198607E-01  1.07329856E+00  1.00000000E+00  1.00000000E+00
  1.00000000E+00  4.11634896E-02  2.57762836E-01  8.02419274E-01  1.00000000E+00
  1.00000000E+00  1.00000000E+00  1.00000000E+00  1.00000000E+00  1.00000000E+00
  1.00000000E+00  1.00000000E+00
Coordinates of each shell                  R   N=         153
  3.35705129E+00 -2.60678844E-01 -1.41266250E-31  3.35705129E+00 -2.60678844E-01
 -1.41266250E-31  3.35705129E+00 -2.60678844E-01 -1.41266250E-31  3.35705129E+00
 -2.60678844E-01 -1.41266250E-31  3.35705129E+00 -2.60678844E-01 -1.41266250E-31
  3.35705129E+00 -2.60678844E-01 -1.41266250E-31  3.35705129E+00 -2.60678844E-01
 -1.41266250E-31  3.35705129E+00 -2.60678844E-01 -1.41266250E-31  3.35705129E+00
 -2.60678844E-01 -1.41266250E-31  1.69336163E+00 -1.11741412E+00 -4.90027864E-32
  1.69336163E+00 -1.11741412E+00 -4.90027864E-32  1.69336163E+00 -1.11741412E+00
 -4.90027864E-32  1.69336163E+00 -1.11741412E+00 -4.90027864E-32  1.69336163E+00
 -1.11741412E+00 -4.90027864E-32  1.69336163E+00 -1.11741412E+00 -4.90027864E-32
  1.69336163E+00 -1.11741412E+00 -4.90027864E-32  1.69336163E+00 -1.11741412E+00
 -4.90027864E-32  1.69336163E+00 -1.11741412E+00 -4.90027864E-32  1.69336163E+00
 -1.11741412E+00 -4.90027864E-32  1.69336163E+00 -1.11741412E+00 -4.90027864E-32
  1.69336163E+00 -1.11741412E+00 -4.90027864E-32  1.69336163E+00 -1.11741412E+00
 -4.90027864E-32  1.69336163E+00 -1.11741412E+00 -4.90027864E-32 -1.55484278E-17
  9.83105218E-01 -2.21910471E-32 -1.55484278E-17  9.83105218E-01 -2.21910471E-32
 -1.55484278E-17  9.83105218E-01 -2.21910471E-32 -1.55484278E-17  9.83105218E-01
 -2.21910471E-32 -1.55484278E-17  9.83105218E-01 -2.21910471E-32 -1.55484278E-17
  9.83105218E-01 -2.21910471E-32 -1.55484278E-17  9.83105218E-01 -2.21910471E-32
 -1.55484278E-17  9.83105218E-01 -2.21910471E-32 -1.55484278E-17  9.83105218E-01
 -2.21910471E-32 -1.55484278E-17  9.83105218E-01 -2.21910471E-32 -1.55484278E-17
  9.83105218E-01 -2.21910471E-32 -1.55484278E-17  9.83105218E-01 -2.21910471E-32
 -1.55484278E-17  9.83105218E-01 -2.21910471E-32 -1.55484278E-17  9.83105218E-01
 -2.21910471E-32 -2.11299304E+00  2.89781907E-01  8.60782339E-32 -2.11299304E+00
  2.89781907E-01  8.60782339E-32 -2.11299304E+00  2.89781907E-01  8.60782339E-32
 -2.11299304E+00  2.89781907E-01  8.60782339E-32 -2.11299304E+00  2.89781907E-01
  8.60782339E-32 -2.11299304E+00  2.89781907E-01  8.60782339E-32 -2.11299304E+00
  2.89781907E-01  8.60782339E-32 -2.11299304E+00  2.89781907E-01  8.60782339E-32
 -2.11299304E+00  2.89781907E-01  8.60782339E-32 -2.11299304E+00  2.89781907E-01
  8.60782339E-32 -2.11299304E+00  2.89781907E-01  8.60782339E-32 -2.11299304E+00
  2.89781907E-01  8.60782339E-32 -2.11299304E+00  2.89781907E-01  8.60782339E-32
 -2.11299304E+00  2.89781907E-01  8.60782339E-32
Num ILSW                                   I              100
ILSW                                       I   N=         100
           0           0           0           0           2           0
           0           0           0           0           0          -1
           5           0           0           0           0           0
           0           0           0           0           0           0
           1           0           0           0           0           0
           0           0      100000           0          -1           0
           0           0           0           0           0           0
           0           0           0           1           0           0
           0 -2000000000           1           0           0           0
           0           0           4          52           0           0
           0           0           0           0           0           0
           0           0           0           4           0           1
           0           0           0           0           0           0
           0           0           0           0           0           0
           0           0           0           0           0           0
           0           0           0           0           0           0
           0           0           0           0
Num RLSW                                   I               52
RLSW                                       R   N=          52
  1.00000000E+00  1.00000000E+00  1.00000000E+00  1.00000000E+00  1.00000000E+00
  0.00000000E+00  0.00000000E+00  1.00000000E+00  0.00000000E+00  0.00000000E+00
  0.00000000E+00  0.00000000E+00  1.00000000E+00  0.00000000E+00  0.00000000E+00
  0.00000000E+00  0.00000000E+00  1.00000000E+00  0.00000000E+00  0.00000000E+00
  0.00000000E+00  0.00000000E+00  1.00000000E+00  0.00000000E+00  0.00000000E+00
  0.00000000E+00  0.00000000E+00  1.00000000E+00  0.00000000E+00  0.00000000E+00
  0.00000000E+00  0.00000000E+00  1.00000000E+00  0.00000000E+00  0.00000000E+00
  0.00000000E+00  0.00000000E+00  0.00000000E+00  1.00000000E+00  1.00000000E+00
  0.00000000E+00  1.00000000E+00  0.00000000E+00  0.00000000E+00  0.00000000E+00
  0.00000000E+00  0.00000000E+00  0.00000000E+00  0.00000000E+00  0.00000000E+00
  0.00000000E+00  0.00000000E+00
MxBond                                     I                2
NBond                                      I   N=           4
           1           2           2           1
IBond                                      I   N=           8
           2           0           1           3           2           4
           3           0
RBond                                      R   N=           8
  1.00000000E+00  0.00000000E+00  1.00000000E+00  1.00000000E+00  1.00000000E+00
  2.00000000E+00  2.00000000E+00  0.00000000E+00
Virial Ratio                               R      2.002538793434710E+00
SCF Energy                                 R     -2.047220466165355E+02
MP2 Energy                                 R     -2.054210090442529E+02
Total Energy                               R     -2.054210090442529E+02
Post-SCF wavefunction norm                 R      1.090389521150694E+00
RMS Density                                R      5.631377442510726E-09
Job Status                                 I                1
Nuclear derivative order                   I                0
External E-field                           R   N=          35
  0.00000000E+00  0.00000000E+00  0.00000000E+00  0.00000000E+00  0.00000000E+00
  0.00000000E+00  0.00000000E+00  0.00000000E+00  0.00000000E+00  0.00000000E+00
  0.00000000E+00  0.00000000E+00  0.00000000E+00  0.00000000E+00  0.00000000E+00
  0.00000000E+00  0.00000000E+00  0.00000000E+00  0.00000000E+00  0.00000000E+00
  0.00000000E+00  0.00000000E+00  0.00000000E+00  0.00000000E+00  0.00000000E+00
  0.00000000E+00  0.00000000E+00  0.00000000E+00  0.00000000E+00  0.00000000E+00
  0.00000000E+00  0.00000000E+00  0.00000000E+00  0.00000000E+00  0.00000000E+00
IOpCl                                      I                0
IROHF                                      I                0
Alpha Orbital Energies                     R   N=         161
 -2.06648816E+01 -2.06439495E+01 -1.57982859E+01 -1.60208938E+00 -1.39831268E+00
 -9.46538771E-01 -7.80901688E-01 -7.29224799E-01 -6.81047143E-01 -6.22675534E-01
 -5.27815856E-01 -4.61204100E-01  2.76113990E-02  8.08047001E-02  9.40517894E-02
  9.76700216E-02  1.29044618E-01  1.42313612E-01  1.57033230E-01  1.72087006E-01
  1.87533103E-01  1.96759360E-01  2.05659364E-01  2.33307143E-01  2.56577704E-01
  2.95589283E-01  3.08161182E-01  3.29858252E-01  3.66435994E-01  3.81637323E-01
  4.18708086E-01  5.25565759E-01  5.26361731E-01  5.48039210E-01  5.73357493E-01
  6.13515518E-01  6.31503465E-01  6.46272223E-01  6.80339901E-01  7.13894376E-01
  7.17491466E-01  7.47549289E-01  7.74587923E-01  7.81938422E-01  8.12031367E-01
  8.12066345E-01  8.60966231E-01  8.77967109E-01  9.22823873E-01  9.38223586E-01
  9.43815184E-01  9.93579597E-01  1.04812752E+00  1.05933310E+00  1.07982136E+00
  1.10400048E+00  1.15925005E+00  1.19657850E+00  1.25244686E+00  1.26826459E+00
  1.35888504E+00  1.43186422E+00  1.48244316E+00  1.52377861E+00  1.52475387E+00
  1.54173588E+00  1.55229888E+00  1.60817884E+00  1.65835300E+00  1.72754641E+00
  1.75600738E+00  1.82278937E+00  1.85506933E+00  1.95024437E+00  1.97574816E+00
  1.99614987E+00  2.07255468E+00  2.13241225E+00  2.13370275E+00  2.18485514E+00
  2.26904841E+00  2.30465044E+00  2.32877738E+00  2.37924085E+00  2.44955264E+00
  2.47224080E+00  2.50014548E+00  2.50318710E+00  2.51927839E+00  2.54197643E+00
  2.56619214E+00  2.60776175E+00  2.60917235E+00  2.66032340E+00  2.77571451E+00
  2.77635468E+00  2.84877924E+00  2.93618479E+00  2.95581190E+00  3.11390947E+00
  3.14417783E+00  3.18455728E+00  3.24549829E+00  3.45574789E+00  3.80652296E+00
  3.85264982E+00  4.02323543E+00  4.15277760E+00  4.17894403E+00  4.20810091E+00
  4.34549033E+00  4.36485275E+00  4.57572912E+00  4.63194083E+00  4.71904816E+00
  4.81523852E+00  4.86394180E+00  4.88601975E+00  4.96339032E+00  4.99941613E+00
  5.06015500E+00  5.06904295E+00  5.16263238E+00  5.22547592E+00  5.25293548E+00
  5.32025308E+00  5.34124647E+00  5.35564795E+00  5.57240771E+00  5.66823044E+00
  5.78380417E+00  5.98413363E+00  6.12628834E+00  6.43390549E+00  6.50678725E+00
  6.50913236E+00  6.67414620E+00  6.71285925E+00  6.74470577E+00  6.84458537E+00
  6.91724469E+00  7.05235506E+00  7.12029553E+00  7.13856181E+00  7.22954102E+00
  7.24225328E+00  7.25345349E+00  7.33237660E+00  7.37151795E+00  7.43203340E+00
  7.47897303E+00  7.60368140E+00  7.63934845E+00  7.69142800E+00  7.78313123E+00
  7.97363342E+00  8.06447745E+00  8.39206933E+00  1.41041688E+01  1.49324794E+01
  1.59546252E+01
Alpha MO coefficients                      R   N=       25921
  5.26633696E-05  2.07946164E-04 -3.42910048E-04  5.68940093E-06 -5.48444846E-05
  1.03275070E-05  0.00000000E+00  4.00619695E-05  5.54577640E-05  0.00000000E+00
  2.55873996E-04  1.49668000E-05  0.00000000E+00  1.90050691E-05  0.00000000E+00
  0.00000000E+00  1.58778124E-05  6.10740840E-06  5.22702063E-05  0.00000000E+00
  0.00000000E+00 -3.52031304E-05  1.44931029E-05 -8.80323629E-04  8.04410074E-05
 -6.48212707E-05 -8.40740493E-05  1.94660999E-04  1.78322467E-05 -1.75707466E-05
  0.00000000E+00 -8.67353368E-05  4.61686355E-05  0.00000000E+00 -1.60948458E-04
  4.83928135E-05  0.00000000E+00 -1.18656762E-04  4.88013680E-05  0.00000000E+00
 -9.05201611E-06  0.00000000E+00  0.00000000E+00  2.70079491E-05  1.06699396E-05
  1.51929895E-06  0.00000000E+00  0.00000000E+00 -9.54092379E-05 -1.21097438E-04
 -1.46679602E-05  0.00000000E+00  0.00000000E+00 -7.90315161E-05 -2.40707214E-04
  0.00000000E+00  3.38263190E-06  1.71077330E-06  0.00000000E+00  0.00000000E+00
 -7.56064503E-06 -1.34853142E-05  0.00000000E+00 -1.87030458E-05 -1.73829205E-05
  0.00000000E+00  0.00000000E+00  1.92140702E-04 -4.97124737E-05  2.49451212E-04
  1.41920173E-03 -1.01799727E-04 -1.55203902E-03  3.82107543E-04 -1.13306216E-04
 -6.47199396E-05  0.00000000E+00 -2.04126905E-03 -5.53926137E-04  0.00000000E+00
  1.12223379E-03 -5.97280360E-05  0.00000000E+00 -1.13851696E-04 -9.36391150E-05
  0.00000000E+00 -1.25256615E-04  0.00000000E+00  0.00000000E+00  2.13867274E-04
  1.43852812E-04 -4.37883034E-04  0.00000000E+00  0.00000000E+00  5.55669095E-04
  7.90640478E-04  1.89413705E-07  0.00000000E+00  0.00000000E+00 -1.64054850E-04
 -1.46905299E-04  0.00000000E+00  1.24064798E-05 -1.30369933E-05  0.00000000E+00
  0.00000000E+00  1.66499819E-05  1.47799277E-05  0.00000000E+00  1.45319313E-04
  1.28335609E-04  0.00000000E+00  0.00000000E+00 -2.53961894E-05 -2.92063120E-04
  9.76650536E-01 -9.86507535E-03  4.35627196E-02  4.27542348E-03 -5.29779456E-04
  2.10858927E-03  5.61693430E-04  0.00000000E+00 -2.41152356E-03 -5.81949913E-04
  0.00000000E+00  9.89931039E-04  5.47380983E-04  0.00000000E+00 -5.15640096E-05
  2.99519553E-05  0.00000000E+00 -2.28957128E-04  0.00000000E+00  0.00000000E+00
  7.71108555E-05  5.54998767E-05  3.87434018E-04  0.00000000E+00  0.00000000E+00
 -8.27371262E-04 -4.38020101E-04 -1.60750808E-04  0.00000000E+00  0.00000000E+00
  1.78581415E-04  2.47216261E-04  0.00000000E+00  5.51630993E-05  1.06026001E-05
  0.00000000E+00  0.00000000E+00 -1.72348171E-05 -2.41717476E-05  0.00000000E+00
  1.23982555E-04  4.63408958E-05  0.00000000E+00  0.00000000E+00 -1.61056651E-04
 -1.52019574E-04  4.26217852E-04  2.88516905E-03  6.09726843E-04  5.92031269E-06
 -2.70460900E-04 -1.32581923E-04  0.00000000E+00 -1.19531843E-03 -9.63742034E-04
  0.00000000E+00 -1.63361724E-04 -4.60251261E-04  0.00000000E+00 -3.02628006E-05
  0.00000000E+00  0.00000000E+00 -6.76003604E-06  6.41655817E-06 -1.67683002E-04
  0.00000000E+00  0.00000000E+00  1.75542310E-04  4.32182158E-04  9.76764446E-01
 -9.30205476E-03  4.35378468E-02  5.14067003E-04 -1.11447950E-03  4.13150279E-04
  1.84256014E-03  0.00000000E+00 -3.27313413E-04 -1.89623316E-03  0.00000000E+00
 -1.75353543E-03  2.44861368E-04  0.00000000E+00 -9.05685437E-05  6.84604015E-06
  0.00000000E+00 -3.27892370E-05  0.00000000E+00  0.00000000E+00  2.87188972E-05
  3.40930572E-05  6.83038898E-04  0.00000000E+00  0.00000000E+00 -3.45689276E-04
  1.98010705E-04 -6.55693335E-05  0.00000000E+00  0.00000000E+00 -3.09738216E-04
 -4.26234632E-04  0.00000000E+00 -1.96754412E-05  5.11116091E-05  0.00000000E+00
  0.00000000E+00 -1.53661734E-05 -2.07167041E-05  0.00000000E+00  9.48396421E-05
  5.25053699E-05  0.00000000E+00  0.00000000E+00 -2.24107679E-04 -2.30349078E-04
  5.98612164E-05  1.64320543E-04 -3.17573595E-04 -4.74679677E-04  8.78862156E-04
 -8.34759330E-05  7.65802429E-05  0.00000000E+00  7.17809281E-04 -6.48404554E-04
  0.00000000E+00 -4.44093273E-04  6.06581747E-04  0.00000000E+00  1.80074748E-04
 -1.82176290E-04  0.00000000E+00 -3.49406919E-05  0.00000000E+00  0.00000000E+00
 -3.38002125E-05 -4.96701615E-05 -3.93434512E-04  0.00000000E+00  0.00000000E+00
 -1.72750251E-04 -9.27770930E-04 -1.83471993E-04  0.00000000E+00  0.00000000E+00
  5.66117797E-04 -5.52061049E-05  0.00000000E+00 -8.74117319E-05  9.85050875E-05
  0.00000000E+00  0.00000000E+00 -1.46569143E-04 -5.57767688E-05  0.00000000E+00
 -4.47729249E-05  1.18661387E-04  0.00000000E+00  0.00000000E+00 -4.31124645E-04
  3.03355121E-05  9.14796281E-04  4.71141967E-05  2.35851731E-05 -2.68855033E-04
 -1.66214097E-04 -1.53748441E-05  2.18793438E-05  0.00000000E+00  1.15919562E-04
 -1.25568043E-04  0.00000000E+00  4.39362984E-04 -4.46279441E-04  0.00000000E+00
 -3.61721690E-06  8.22650091E-06  0.00000000E+00 -5.75446182E-06  0.00000000E+00
  0.00000000E+00 -1.35166925E-05 -1.07094068E-05  1.58734185E-06  0.00000000E+00
  0.00000000E+00  1.44836138E-04 -3.17036564E-05 -6.81434214E-05  0.00000000E+00
  0.00000000E+00  2.66311015E-04 -2.08015174E-05  0.00000000E+00  2.88514688E-06
  9.57046928E-06  0.00000000E+00  0.00000000E+00 -1.26308488E-05 -9.74716493E-06
  0.00000000E+00  1.25091969E-05 -4.96881303E-05  0.00000000E+00  0.00000000E+00
  1.18091726E-04  7.61649110E-05 -6.75199484E-05 -5.05391753E-04 -3.30302944E-04
  2.02314634E-04  3.53791199E-05  3.88976335E-05  0.00000000E+00  5.05192599E-04
 -3.45128636E-04  0.00000000E+00  3.24819111E-04 -3.34552181E-04  0.00000000E+00
 -8.30087058E-06  0.00000000E+00  0.00000000E+00 -4.46178486E-05  2.84706811E-05
  1.15516733E-04  0.00000000E+00  0.00000000E+00 -5.96072364E-05  1.82497337E-04
 -1.26142745E-04 -2.09913530E-04 -2.08189937E-04  4.98612074E-03  3.22869953E-03
  9.08559088E-06 -4.04918043E-05  0.00000000E+00 -5.15549816E-04  8.55996923E-04
  0.00000000E+00 -2.39802746E-03  3.11323461E-03  0.00000000E+00 -8.30254268E-04
  5.60354650E-04  0.00000000E+00  2.00160071E-07  0.00000000E+00  0.00000000E+00
 -3.04969276E-05 -4.38998618E-05 -4.48217233E-04  0.00000000E+00  0.00000000E+00
 -3.97597383E-05 -5.22168900E-04 -6.03926344E-04  0.00000000E+00  0.00000000E+00
 -3.19387505E-04 -9.27712391E-04  0.00000000E+00  1.83135788E-05 -2.10223691E-05
  0.00000000E+00  0.00000000E+00  4.03510619E-05  3.23026215E-05  0.00000000E+00
  9.44998335E-05 -1.46582340E-04  0.00000000E+00  0.00000000E+00  1.93655800E-05
  2.30806187E-04  9.78281546E-01 -8.39683595E-03  4.17872918E-02 -5.51145522E-03
 -3.02734492E-03 -1.10344862E-03 -3.03647338E-03  0.00000000E+00 -9.64504745E-05
  2.98003255E-03  0.00000000E+00  4.52136369E-04  3.06963550E-03  0.00000000E+00
 -2.48539872E-05  5.39737859E-04  0.00000000E+00 -4.39930571E-04  0.00000000E+00
  0.00000000E+00  2.40554382E-04  2.28732875E-04  1.03219559E-03  0.00000000E+00
  0.00000000E+00 -1.75643918E-04  3.02792891E-04  3.63062765E-04  0.00000000E+00
  0.00000000E+00  1.14338351E-04  5.05324728E-05  0.00000000E+00  9.04966377E-05
 -6.90538295E-05  0.00000000E+00  0.00000000E+00 -6.10963745E-05 -1.01447220E-05
  0.00000000E+00 -2.28845927E-04 -2.27925567E-04  0.00000000E+00  0.00000000E+00
  4.63143431E-04  2.54078154E-04 -1.88782433E-04  9.22108835E-04  1.57800918E-04
  3.03403991E-03  8.81689371E-04  2.62329731E-04  1.23092164E-04  0.00000000E+00
  8.78138198E-04  2.74003461E-04  0.00000000E+00  1.23144354E-03 -1.35554446E-04
  0.00000000E+00  1.06532356E-07  4.17319079E-05  0.00000000E+00 -3.97703602E-05
  0.00000000E+00  0.00000000E+00  7.23240779E-05  8.40510814E-05  7.37489182E-05
  0.00000000E+00  0.00000000E+00 -3.07452068E-06 -2.72745022E-04 -3.58922921E-05
  0.00000000E+00  0.00000000E+00  2.81790522E-04 -1.37549454E-04  0.00000000E+00
  9.24661737E-05  3.65955301E-05  0.00000000E+00  0.00000000E+00 -5.49675749E-05
 -1.12322809E-04  0.00000000E+00  1.58930606E-04  1.23373091E-04  0.00000000E+00
  0.00000000E+00  2.12890103E-05 -3.55101634E-04  1.96614382E-02  1.59623878E-02
 -9.82239151E-04  4.99371809E-04 -3.00462702E-03 -8.00044392E-04  0.00000000E+00
 -2.40486902E-03 -1.10858430E-03  0.00000000E+00  2.14213572E-03  2.35452808E-05
  0.00000000E+00 -1.94588373E-04  0.00000000E+00  0.00000000E+00  3.53974208E-04
  2.30188732E-04  2.15656398E-04  0.00000000E+00  0.00000000E+00  3.14101202E-04
  6.27786475E-04 -6.53422695E-02  1.58424110E-01  4.22054324E-02  9.21511689E-02
  7.44347227E-03 -1.56504618E-02  2.30793853E-02  0.00000000E+00 -2.07413554E-02
  3.33133268E-02  0.00000000E+00 -1.17917056E-02  1.09545015E-02  0.00000000E+00
 -2.09687703E-03 -1.83712429E-03  0.00000000E+00 -1.78671911E-03  0.00000000E+00
  0.00000000E+00  5.42968284E-05 -1.87272593E-03 -4.10749413E-03  0.00000000E+00
  0.00000000E+00  8.13077684E-04 -4.28985849E-03  9.50173150E-04  0.00000000E+00
  0.00000000E+00  1.22029454E-04 -1.43284117E-03  0.00000000E+00  4.62173741E-04
 -8.73647435E-04  0.00000000E+00  0.00000000E+00  7.16102127E-04  1.29518599E-03
  0.00000000E+00 -2.74426387E-04  5.16716625E-04  0.00000000E+00  0.00000000E+00
 -3.01801027E-04  2.52391064E-04 -1.30158947E-01  3.07645286E-01  8.10369022E-02
  6.32486224E-02  3.88468558E-04 -7.39453765E-02 -4.69624255E-02  0.00000000E+00
 -7.75709457E-02 -6.46835081E-02  0.00000000E+00 -3.50972914E-03  8.97953165E-03
  0.00000000E+00 -1.77436819E-05  3.17961022E-03  0.00000000E+00 -9.29393812E-03
  0.00000000E+00  0.00000000E+00  8.55987675E-03  6.34362567E-03 -1.14519567E-02
  0.00000000E+00  0.00000000E+00  9.31484421E-03  6.05282435E-03  6.20688766E-03
  0.00000000E+00  0.00000000E+00 -1.99525468E-04  6.15227792E-04  0.00000000E+00
  2.50854345E-03  2.42751441E-03  0.00000000E+00  0.00000000E+00 -4.87509939E-03
 -5.45386130E-03  0.00000000E+00 -1.37646906E-03 -4.35460688E-04  0.00000000E+00
  0.00000000E+00  9.09526282E-04 -7.03206828E-05 -1.50570097E-01  3.60115464E-01
  9.65298839E-02  1.79794878E-01 -1.50231204E-02  7.99718816E-02  2.18477927E-02
  0.00000000E+00  1.01417647E-01  2.74096652E-02  0.00000000E+00  1.76508774E-02
  3.27837434E-03  0.00000000E+00 -8.60627736E-03 -2.38304457E-03  0.00000000E+00
 -5.16934561E-03  0.00000000E+00  0.00000000E+00  7.31553827E-03  4.46215048E-03
 -9.50259263E-03  0.00000000E+00  0.00000000E+00  1.51142259E-02  9.37438213E-03
  2.50011629E-03  0.00000000E+00  0.00000000E+00 -3.67568188E-03 -2.62029522E-03
  0.00000000E+00 -3.15563369E-03 -8.65790696E-04  0.00000000E+00  0.00000000E+00
  3.34688305E-03  3.60800608E-03  0.00000000E+00 -1.10666055E-04 -2.71263010E-04
  0.00000000E+00  0.00000000E+00  1.03735231E-03  1.89930574E-03  7.62841639E-02
  7.53492964E-02 -1.89686021E-02 -2.75041436E-03 -1.10892264E-02 -4.47257736E-03
  0.00000000E+00 -1.47087277E-02 -1.54333787E-03  0.00000000E+00  7.04270709E-03
  1.90771062E-03  0.00000000E+00 -1.23601984E-03  0.00000000E+00  0.00000000E+00
  2.13748813E-03  1.01698957E-03  1.15214782E-04  0.00000000E+00  0.00000000E+00
  2.41516566E-03 -1.03835483E-03 -1.81779957E-01  4.43365796E-01  1.20952947E-01
  2.61343512E-01  1.10035994E-02  1.33893976E-02  3.73427249E-02  0.00000000E+00