 Entering Gaussian System, Link 0=g16
 Input=hono_a1_m_10.gjf
 Output=hono_a1_m_10.log
 Initial command:
 /sw/contrib/gaussian/g16/B01/g16/l1.exe "/scr/Gau-9544.inp" -scrdir="/scr/"
 Entering Link 1 = /sw/contrib/gaussian/g16/B01/g16/l1.exe PID=      9545.
  
 Copyright (c) 1988-2017, Gaussian, Inc.  All Rights Reserved.
  
 This is part of the Gaussian(R) 16 program.  It is based on
 the Gaussian(R) 09 system (copyright 2009, Gaussian, Inc.),
 the Gaussian(R) 03 system (copyright 2003, Gaussian, Inc.),
 the Gaussian(R) 98 system (copyright 1998, Gaussian, Inc.),
 the Gaussian(R) 94 system (copyright 1995, Gaussian, Inc.),
 the Gaussian 92(TM) system (copyright 1992, Gaussian, Inc.),
 the Gaussian 90(TM) system (copyright 1990, Gaussian, Inc.),
 the Gaussian 88(TM) system (copyright 1988, Gaussian, Inc.),
 the Gaussian 86(TM) system (copyright 1986, Carnegie Mellon
 University), and the Gaussian 82(TM) system (copyright 1983,
 Carnegie Mellon University). Gaussian is a federally registered
 trademark of Gaussian, Inc.
  
 This software contains proprietary and confidential information,
 including trade secrets, belonging to Gaussian, Inc.
  
 This software is provided under written license and may be
 used, copied, transmitted, or stored only in accord with that
 written license.
  
 The following legend is applicable only to US Government
 contracts under FAR:
  
                    RESTRICTED RIGHTS LEGEND
  
 Use, reproduction and disclosure by the US Government is
 subject to restrictions as set forth in subparagraphs (a)
 and (c) of the Commercial Computer Software - Restricted
 Rights clause in FAR 52.227-19.
  
 Gaussian, Inc.
 340 Quinnipiac St., Bldg. 40, Wallingford CT 06492
  
  
 ---------------------------------------------------------------
 Warning -- This program may not be used in any manner that
 competes with the business of Gaussian, Inc. or will provide
 assistance to any competitor of Gaussian, Inc.  The licensee
 of this program is prohibited from giving any competitor of
 Gaussian, Inc. access to this program.  By using this program,
 the user acknowledges that Gaussian, Inc. is engaged in the
 business of creating and licensing software in the field of
 computational chemistry and represents and warrants to the
 licensee that it is not a competitor of Gaussian, Inc. and that
 it will not use this program in any manner prohibited above.
 ---------------------------------------------------------------
  

 Cite this work as:
 Gaussian 16, Revision B.01,
 M. J. Frisch, G. W. Trucks, H. B. Schlegel, G. E. Scuseria, 
 M. A. Robb, J. R. Cheeseman, G. Scalmani, V. Barone, 
 G. A. Petersson, H. Nakatsuji, X. Li, M. Caricato, A. V. Marenich, 
 J. Bloino, B. G. Janesko, R. Gomperts, B. Mennucci, H. P. Hratchian, 
 J. V. Ortiz, A. F. Izmaylov, J. L. Sonnenberg, D. Williams-Young, 
 F. Ding, F. Lipparini, F. Egidi, J. Goings, B. Peng, A. Petrone, 
 T. Henderson, D. Ranasinghe, V. G. Zakrzewski, J. Gao, N. Rega, 
 G. Zheng, W. Liang, M. Hada, M. Ehara, K. Toyota, R. Fukuda, 
 J. Hasegawa, M. Ishida, T. Nakajima, Y. Honda, O. Kitao, H. Nakai, 
 T. Vreven, K. Throssell, J. A. Montgomery, Jr., J. E. Peralta, 
 F. Ogliaro, M. J. Bearpark, J. J. Heyd, E. N. Brothers, K. N. Kudin, 
 V. N. Staroverov, T. A. Keith, R. Kobayashi, J. Normand, 
 K. Raghavachari, A. P. Rendell, J. C. Burant, S. S. Iyengar, 
 J. Tomasi, M. Cossi, J. M. Millam, M. Klene, C. Adamo, R. Cammi, 
 J. W. Ochterski, R. L. Martin, K. Morokuma, O. Farkas, 
 J. B. Foresman, and D. J. Fox, Gaussian, Inc., Wallingford CT, 2016.
 
 ******************************************
 Gaussian 16:  ES64L-G16RevB.01 20-Dec-2017
                31-Jan-2022 
 ******************************************
 %nproc=28
 Will use up to   28 processors via shared memory.
 %mem=120GB
 %chk=/gscratch/ilahie/mccoygrp/coire_hoono/hono/hono_a1_m_10.chk
 -------------------------------------
 #p SP mp2/aug-cc-pvtz density=current
 -------------------------------------
 1/30=1,38=1,172=1/1;
 2/12=2,17=6,18=5,40=1/2;
 3/5=16,6=1,7=10,11=9,25=1,30=1,71=1/1,2,3;
 4//1;
 5/5=2,38=5/2;
 8/6=4,10=1/1;
 9/15=1,16=-3/6;
 10/5=1,13=10/2;
 6/7=2,8=2,9=2,10=2,22=-1/1;
 99/5=1,9=1/99;
 Leave Link    1 at Mon Jan 31 11:39:56 2022, MaxMem= 16106127360 cpu:               2.9 elap:               0.1
 (Enter /sw/contrib/gaussian/g16/B01/g16/l101.exe)
 -----
 title
 -----
 Symbolic Z-matrix:
 Charge =  0 Multiplicity = 1
 H
 O                    1    r1
 N                    2    r2       1    a1
 O                    3    r3       2    a2       1    d1       0
       Variables:
  r1                    0.97026                  
  r2                    1.42776                  
  r3                    1.1768                   
  a1                  100.62779                  
  a2                  110.70859                  
  d1                  180.                       
 
 ITRead=  0  0  0  0
 MicOpt= -1 -1 -1 -1
 NAtoms=      4 NQM=        4 NQMF=       0 NMMI=      0 NMMIF=      0
                NMic=       0 NMicF=      0.
                    Isotopes and Nuclear Properties:
 (Nuclear quadrupole moments (NQMom) in fm**2, nuclear magnetic moments (NMagM)
  in nuclear magnetons)

  Atom         1           2           3           4
 IAtWgt=           1          16          14          16
 AtmWgt=   1.0078250  15.9949146  14.0030740  15.9949146
 NucSpn=           1           0           2           0
 AtZEff=  -0.0000000  -0.0000000  -0.0000000  -0.0000000
 NQMom=    0.0000000   0.0000000   2.0440000   0.0000000
 NMagM=    2.7928460   0.0000000   0.4037610   0.0000000
 AtZNuc=   1.0000000   8.0000000   7.0000000   8.0000000
 Leave Link  101 at Mon Jan 31 11:39:56 2022, MaxMem= 16106127360 cpu:               3.1 elap:               0.1
 (Enter /sw/contrib/gaussian/g16/B01/g16/l202.exe)
                          Input orientation:                          
 ---------------------------------------------------------------------
 Center     Atomic      Atomic             Coordinates (Angstroms)
 Number     Number       Type             X           Y           Z
 ---------------------------------------------------------------------
      1          1           0        0.000000    0.000000    0.000000
      2          8           0        0.000000    0.000000    0.970263
      3          7           0        1.403273    0.000000    1.233582
      4          8           0        1.609256    0.000000    2.392217
 ---------------------------------------------------------------------
                    Distance matrix (angstroms):
                    1          2          3          4
     1  H    0.000000
     2  O    0.970263   0.000000
     3  N    1.868395   1.427764   0.000000
     4  O    2.883125   2.147478   1.176802   0.000000
 Stoichiometry    HNO2
 Framework group  CS[SG(HNO2)]
 Deg. of freedom     5
 Full point group                 CS      NOp   2
 Largest Abelian subgroup         CS      NOp   2
 Largest concise Abelian subgroup C1      NOp   1
                         Standard orientation:                         
 ---------------------------------------------------------------------
 Center     Atomic      Atomic             Coordinates (Angstroms)
 Number     Number       Type             X           Y           Z
 ---------------------------------------------------------------------
      1          1           0        1.752148   -0.128755    0.000000
      2          8           0        0.898372   -0.589707    0.000000
      3          7           0       -0.000000    0.519995   -0.000000
      4          8           0       -1.117391    0.150805   -0.000000
 ---------------------------------------------------------------------
 Rotational constants (GHZ):          92.4552683          12.5803498          11.0735733
 Leave Link  202 at Mon Jan 31 11:39:56 2022, MaxMem= 16106127360 cpu:               0.2 elap:               0.0
 (Enter /sw/contrib/gaussian/g16/B01/g16/l301.exe)
 Standard basis: Aug-CC-pVTZ (5D, 7F)
 Ernie: Thresh=  0.10000D-02 Tol=  0.10000D-05 Strict=F.
 Ernie:  9 primitive shells out of 101 were deleted.
 There are   129 symmetry adapted cartesian basis functions of A'  symmetry.
 There are    61 symmetry adapted cartesian basis functions of A"  symmetry.
 There are   106 symmetry adapted basis functions of A'  symmetry.
 There are    55 symmetry adapted basis functions of A"  symmetry.
   161 basis functions,   243 primitive gaussians,   190 cartesian basis functions
    12 alpha electrons       12 beta electrons
       nuclear repulsion energy        69.5220538630 Hartrees.
 IExCor=    0 DFT=F Ex=HF Corr=None ExCW=0 ScaHFX=  1.000000
 ScaDFX=  1.000000  1.000000  1.000000  1.000000 ScalE2=  1.000000  1.000000
 IRadAn=      5 IRanWt=     -1 IRanGd=            0 ICorTp=0 IEmpDi=  4
 NAtoms=    4 NActive=    4 NUniq=    4 SFac= 1.00D+00 NAtFMM=   60 NAOKFM=F Big=F
 Integral buffers will be    131072 words long.
 Raffenetti 1 integral format.
 Two-electron integral symmetry is turned on.
 Leave Link  301 at Mon Jan 31 11:39:56 2022, MaxMem= 16106127360 cpu:               2.3 elap:               0.1
 (Enter /sw/contrib/gaussian/g16/B01/g16/l302.exe)
 NPDir=0 NMtPBC=     1 NCelOv=     1 NCel=       1 NClECP=     1 NCelD=      1
         NCelK=      1 NCelE2=     1 NClLst=     1 CellRange=     0.0.
 One-electron integrals computed using PRISM.
 One-electron integral symmetry used in STVInt
 NBasis=   161 RedAO= T EigKep=  1.98D-04  NBF=   106    55
 NBsUse=   161 1.00D-06 EigRej= -1.00D+00 NBFU=   106    55
 Leave Link  302 at Mon Jan 31 11:39:56 2022, MaxMem= 16106127360 cpu:               4.1 elap:               0.2
 (Enter /sw/contrib/gaussian/g16/B01/g16/l303.exe)
 DipDrv:  MaxL=1.
 Leave Link  303 at Mon Jan 31 11:39:56 2022, MaxMem= 16106127360 cpu:               0.8 elap:               0.1
 (Enter /sw/contrib/gaussian/g16/B01/g16/l401.exe)
 ExpMin= 2.53D-02 ExpMax= 1.53D+04 ExpMxC= 5.22D+02 IAcc=3 IRadAn=         5 AccDes= 0.00D+00
 Harris functional with IExCor=  205 and IRadAn=       5 diagonalized for initial guess.
 HarFok:  IExCor=  205 AccDes= 0.00D+00 IRadAn=         5 IDoV= 1 UseB2=F ITyADJ=14
 ICtDFT=  3500011 ScaDFX=  1.000000  1.000000  1.000000  1.000000
 FoFCou: FMM=F IPFlag=           0 FMFlag=      100000 FMFlg1=           0
         NFxFlg=           0 DoJE=T BraDBF=F KetDBF=T FulRan=T
         wScrn=  0.000000 ICntrl=       500 IOpCl=  0 I1Cent=   200000004 NGrid=           0
         NMat0=    1 NMatS0=      1 NMatT0=    0 NMatD0=    1 NMtDS0=    0 NMtDT0=    0
 Petite list used in FoFCou.
 Harris En= -204.818264028288    
 JPrj=0 DoOrth=F DoCkMO=F.
 Initial guess orbital symmetries:
       Occupied  (A') (A') (A') (A') (A') (A') (A') (A') (A") (A')
                 (A") (A')
       Virtual   (A") (A') (A') (A') (A') (A") (A') (A') (A') (A")
                 (A') (A") (A') (A') (A") (A') (A') (A') (A') (A')
                 (A") (A') (A") (A') (A') (A') (A") (A") (A') (A')
                 (A") (A') (A') (A") (A") (A') (A') (A') (A") (A')
                 (A') (A') (A") (A') (A") (A') (A') (A") (A') (A')
                 (A") (A') (A") (A') (A') (A") (A') (A") (A') (A")
                 (A') (A') (A") (A') (A') (A') (A") (A') (A") (A")
                 (A') (A') (A') (A") (A') (A") (A') (A') (A") (A")
                 (A') (A') (A') (A") (A') (A') (A") (A") (A') (A')
                 (A') (A') (A") (A') (A') (A") (A') (A") (A') (A")
                 (A") (A') (A') (A') (A') (A") (A') (A") (A') (A")
                 (A') (A') (A") (A') (A') (A") (A') (A") (A') (A')
                 (A') (A') (A") (A') (A") (A") (A') (A') (A") (A')
                 (A") (A") (A') (A") (A') (A") (A') (A") (A") (A')
                 (A') (A') (A') (A') (A') (A') (A') (A') (A')
 The electronic state of the initial guess is 1-A'.
 Leave Link  401 at Mon Jan 31 11:39:56 2022, MaxMem= 16106127360 cpu:               8.6 elap:               0.4
 (Enter /sw/contrib/gaussian/g16/B01/g16/l502.exe)
 Keep R1 ints in memory in symmetry-blocked form, NReq=128070121.
 FoFCou: FMM=F IPFlag=           0 FMFlag=           0 FMFlg1=           0
         NFxFlg=           0 DoJE=F BraDBF=F KetDBF=F FulRan=T
         wScrn=  0.000000 ICntrl=       600 IOpCl=  0 I1Cent=           0 NGrid=           0
         NMat0=    1 NMatS0=  13041 NMatT0=    0 NMatD0=    1 NMtDS0=    0 NMtDT0=    0
 Petite list used in FoFCou.
 Closed shell SCF:
 Using DIIS extrapolation, IDIIS=  1040.
 NGot= 16106127360 LenX= 16063019402 LenY= 16062982861
 Requested convergence on RMS density matrix=1.00D-08 within 128 cycles.
 Requested convergence on MAX density matrix=1.00D-06.
 Requested convergence on             energy=1.00D-06.
 No special actions if energy rises.

 Cycle   1  Pass 1  IDiag  1:
 E= -204.613435966432    
 DIIS: error= 3.21D-02 at cycle   1 NSaved=   1.
 NSaved= 1 IEnMin= 1 EnMin= -204.613435966432     IErMin= 1 ErrMin= 3.21D-02
 ErrMax= 3.21D-02  0.00D+00 EMaxC= 1.00D-01 BMatC= 3.55D-01 BMatP= 3.55D-01
 IDIUse=3 WtCom= 6.79D-01 WtEn= 3.21D-01
 Coeff-Com:  0.100D+01
 Coeff-En:   0.100D+01
 Coeff:      0.100D+01
 Gap=     0.509 Goal=   None    Shift=    0.000
 GapD=    0.509 DampG=2.000 DampE=0.500 DampFc=1.0000 IDamp=-1.
 RMSDP=2.05D-03 MaxDP=1.22D-01              OVMax= 1.02D-01

 Cycle   2  Pass 1  IDiag  1:
 E= -204.678080433559     Delta-E=       -0.064644467127 Rises=F Damp=F
 DIIS: error= 2.10D-02 at cycle   2 NSaved=   2.
 NSaved= 2 IEnMin= 2 EnMin= -204.678080433559     IErMin= 2 ErrMin= 2.10D-02
 ErrMax= 2.10D-02  0.00D+00 EMaxC= 1.00D-01 BMatC= 6.85D-02 BMatP= 3.55D-01
 IDIUse=3 WtCom= 7.90D-01 WtEn= 2.10D-01
 Coeff-Com:  0.235D+00 0.765D+00
 Coeff-En:   0.112D+00 0.888D+00
 Coeff:      0.209D+00 0.791D+00
 Gap=     0.511 Goal=   None    Shift=    0.000
 RMSDP=9.99D-04 MaxDP=3.63D-02 DE=-6.46D-02 OVMax= 8.84D-02

 Cycle   3  Pass 1  IDiag  1:
 E= -204.712416195277     Delta-E=       -0.034335761718 Rises=F Damp=F
 DIIS: error= 7.28D-03 at cycle   3 NSaved=   3.
 NSaved= 3 IEnMin= 3 EnMin= -204.712416195277     IErMin= 3 ErrMin= 7.28D-03
 ErrMax= 7.28D-03  0.00D+00 EMaxC= 1.00D-01 BMatC= 1.54D-02 BMatP= 6.85D-02
 IDIUse=3 WtCom= 9.27D-01 WtEn= 7.28D-02
 Coeff-Com: -0.363D-01 0.302D+00 0.734D+00
 Coeff-En:   0.000D+00 0.838D-01 0.916D+00
 Coeff:     -0.336D-01 0.286D+00 0.747D+00
 Gap=     0.494 Goal=   None    Shift=    0.000
 RMSDP=4.09D-04 MaxDP=2.24D-02 DE=-3.43D-02 OVMax= 2.65D-02

 Cycle   4  Pass 1  IDiag  1:
 E= -204.722631481898     Delta-E=       -0.010215286621 Rises=F Damp=F
 DIIS: error= 1.55D-03 at cycle   4 NSaved=   4.
 NSaved= 4 IEnMin= 4 EnMin= -204.722631481898     IErMin= 4 ErrMin= 1.55D-03
 ErrMax= 1.55D-03  0.00D+00 EMaxC= 1.00D-01 BMatC= 2.43D-04 BMatP= 1.54D-02
 IDIUse=3 WtCom= 9.84D-01 WtEn= 1.55D-02
 Coeff-Com: -0.730D-02 0.216D-01 0.117D+00 0.869D+00
 Coeff-En:   0.000D+00 0.000D+00 0.000D+00 0.100D+01
 Coeff:     -0.719D-02 0.213D-01 0.115D+00 0.871D+00
 Gap=     0.489 Goal=   None    Shift=    0.000
 RMSDP=8.37D-05 MaxDP=1.85D-03 DE=-1.02D-02 OVMax= 8.21D-03

 Cycle   5  Pass 1  IDiag  1:
 E= -204.723001083565     Delta-E=       -0.000369601667 Rises=F Damp=F
 DIIS: error= 1.04D-03 at cycle   5 NSaved=   5.
 NSaved= 5 IEnMin= 5 EnMin= -204.723001083565     IErMin= 5 ErrMin= 1.04D-03
 ErrMax= 1.04D-03  0.00D+00 EMaxC= 1.00D-01 BMatC= 6.24D-05 BMatP= 2.43D-04
 IDIUse=3 WtCom= 9.90D-01 WtEn= 1.04D-02
 Coeff-Com:  0.704D-02-0.722D-01-0.155D+00 0.221D+00 0.999D+00
 Coeff-En:   0.000D+00 0.000D+00 0.000D+00 0.000D+00 0.100D+01
 Coeff:      0.697D-02-0.714D-01-0.153D+00 0.219D+00 0.999D+00
 Gap=     0.489 Goal=   None    Shift=    0.000
 RMSDP=6.75D-05 MaxDP=1.63D-03 DE=-3.70D-04 OVMax= 8.92D-03

 Cycle   6  Pass 1  IDiag  1:
 E= -204.723174097865     Delta-E=       -0.000173014300 Rises=F Damp=F
 DIIS: error= 2.32D-04 at cycle   6 NSaved=   6.
 NSaved= 6 IEnMin= 6 EnMin= -204.723174097865     IErMin= 6 ErrMin= 2.32D-04
 ErrMax= 2.32D-04  0.00D+00 EMaxC= 1.00D-01 BMatC= 1.14D-05 BMatP= 6.24D-05
 IDIUse=3 WtCom= 9.98D-01 WtEn= 2.32D-03
 Coeff-Com:  0.574D-03 0.935D-03-0.264D-02-0.207D+00 0.968D-03 0.121D+01
 Coeff-En:   0.000D+00 0.000D+00 0.000D+00 0.000D+00 0.000D+00 0.100D+01
 Coeff:      0.573D-03 0.933D-03-0.263D-02-0.207D+00 0.965D-03 0.121D+01
 Gap=     0.490 Goal=   None    Shift=    0.000
 RMSDP=3.82D-05 MaxDP=7.16D-04 DE=-1.73D-04 OVMax= 4.06D-03

 Cycle   7  Pass 1  IDiag  1:
 E= -204.723213003778     Delta-E=       -0.000038905913 Rises=F Damp=F
 DIIS: error= 1.16D-04 at cycle   7 NSaved=   7.
 NSaved= 7 IEnMin= 7 EnMin= -204.723213003778     IErMin= 7 ErrMin= 1.16D-04
 ErrMax= 1.16D-04  0.00D+00 EMaxC= 1.00D-01 BMatC= 1.77D-06 BMatP= 1.14D-05
 IDIUse=3 WtCom= 9.99D-01 WtEn= 1.16D-03
 Coeff-Com: -0.123D-02 0.126D-01 0.316D-01-0.499D-01-0.136D+00-0.765D-01
 Coeff-Com:  0.122D+01
 Coeff-En:   0.000D+00 0.000D+00 0.000D+00 0.000D+00 0.000D+00 0.000D+00
 Coeff-En:   0.100D+01
 Coeff:     -0.123D-02 0.125D-01 0.316D-01-0.498D-01-0.136D+00-0.764D-01
 Coeff:      0.122D+01
 Gap=     0.490 Goal=   None    Shift=    0.000
 RMSDP=1.51D-05 MaxDP=3.28D-04 DE=-3.89D-05 OVMax= 1.78D-03

 Cycle   8  Pass 1  IDiag  1:
 E= -204.723218535006     Delta-E=       -0.000005531227 Rises=F Damp=F
 DIIS: error= 4.44D-05 at cycle   8 NSaved=   8.
 NSaved= 8 IEnMin= 8 EnMin= -204.723218535006     IErMin= 8 ErrMin= 4.44D-05
 ErrMax= 4.44D-05  0.00D+00 EMaxC= 1.00D-01 BMatC= 1.87D-07 BMatP= 1.77D-06
 IDIUse=1 WtCom= 1.00D+00 WtEn= 0.00D+00
 Coeff-Com: -0.364D-04-0.793D-03-0.639D-03 0.204D-01 0.243D-01-0.151D+00
 Coeff-Com: -0.134D+00 0.124D+01
 Coeff:     -0.364D-04-0.793D-03-0.639D-03 0.204D-01 0.243D-01-0.151D+00
 Coeff:     -0.134D+00 0.124D+01
 Gap=     0.490 Goal=   None    Shift=    0.000
 RMSDP=4.92D-06 MaxDP=9.90D-05 DE=-5.53D-06 OVMax= 4.78D-04

 Cycle   9  Pass 1  IDiag  1:
 E= -204.723219077083     Delta-E=       -0.000000542078 Rises=F Damp=F
 DIIS: error= 1.15D-05 at cycle   9 NSaved=   9.
 NSaved= 9 IEnMin= 9 EnMin= -204.723219077083     IErMin= 9 ErrMin= 1.15D-05
 ErrMax= 1.15D-05  0.00D+00 EMaxC= 1.00D-01 BMatC= 1.55D-08 BMatP= 1.87D-07
 IDIUse=1 WtCom= 1.00D+00 WtEn= 0.00D+00
 Coeff-Com:  0.107D-03-0.994D-03-0.242D-02-0.133D-02 0.121D-01 0.382D-01
 Coeff-Com: -0.856D-01-0.281D+00 0.132D+01
 Coeff:      0.107D-03-0.994D-03-0.242D-02-0.133D-02 0.121D-01 0.382D-01
 Coeff:     -0.856D-01-0.281D+00 0.132D+01
 Gap=     0.490 Goal=   None    Shift=    0.000
 RMSDP=1.28D-06 MaxDP=3.44D-05 DE=-5.42D-07 OVMax= 9.77D-05

 Cycle  10  Pass 1  IDiag  1:
 E= -204.723219118960     Delta-E=       -0.000000041876 Rises=F Damp=F
 DIIS: error= 2.77D-06 at cycle  10 NSaved=  10.
 NSaved=10 IEnMin=10 EnMin= -204.723219118960     IErMin=10 ErrMin= 2.77D-06
 ErrMax= 2.77D-06  0.00D+00 EMaxC= 1.00D-01 BMatC= 1.29D-09 BMatP= 1.55D-08
 IDIUse=1 WtCom= 1.00D+00 WtEn= 0.00D+00
 Coeff-Com: -0.264D-04 0.320D-03 0.800D-03-0.207D-02-0.445D-02 0.198D-02
 Coeff-Com:  0.378D-01-0.512D-01-0.282D+00 0.130D+01
 Coeff:     -0.264D-04 0.320D-03 0.800D-03-0.207D-02-0.445D-02 0.198D-02
 Coeff:      0.378D-01-0.512D-01-0.282D+00 0.130D+01
 Gap=     0.490 Goal=   None    Shift=    0.000
 RMSDP=3.36D-07 MaxDP=1.14D-05 DE=-4.19D-08 OVMax= 3.06D-05

 Cycle  11  Pass 1  IDiag  1:
 E= -204.723219122437     Delta-E=       -0.000000003477 Rises=F Damp=F
 DIIS: error= 1.14D-06 at cycle  11 NSaved=  11.
 NSaved=11 IEnMin=11 EnMin= -204.723219122437     IErMin=11 ErrMin= 1.14D-06
 ErrMax= 1.14D-06  0.00D+00 EMaxC= 1.00D-01 BMatC= 1.20D-10 BMatP= 1.29D-09
 IDIUse=1 WtCom= 1.00D+00 WtEn= 0.00D+00
 Coeff-Com: -0.461D-06-0.188D-04-0.455D-04 0.552D-03 0.105D-02-0.460D-02
 Coeff-Com: -0.553D-02 0.449D-01-0.194D-01-0.481D+00 0.146D+01
 Coeff:     -0.461D-06-0.188D-04-0.455D-04 0.552D-03 0.105D-02-0.460D-02
 Coeff:     -0.553D-02 0.449D-01-0.194D-01-0.481D+00 0.146D+01
 Gap=     0.490 Goal=   None    Shift=    0.000
 RMSDP=1.13D-07 MaxDP=4.22D-06 DE=-3.48D-09 OVMax= 1.11D-05

 Cycle  12  Pass 1  IDiag  1:
 E= -204.723219122815     Delta-E=       -0.000000000379 Rises=F Damp=F
 DIIS: error= 1.87D-07 at cycle  12 NSaved=  12.
 NSaved=12 IEnMin=12 EnMin= -204.723219122815     IErMin=12 ErrMin= 1.87D-07
 ErrMax= 1.87D-07  0.00D+00 EMaxC= 1.00D-01 BMatC= 6.85D-12 BMatP= 1.20D-10
 IDIUse=1 WtCom= 1.00D+00 WtEn= 0.00D+00
 Coeff-Com:  0.239D-05-0.231D-04-0.554D-04-0.595D-04 0.150D-03 0.158D-02
 Coeff-Com: -0.201D-02-0.122D-01 0.384D-01 0.392D-01-0.473D+00 0.141D+01
 Coeff:      0.239D-05-0.231D-04-0.554D-04-0.595D-04 0.150D-03 0.158D-02
 Coeff:     -0.201D-02-0.122D-01 0.384D-01 0.392D-01-0.473D+00 0.141D+01
 Gap=     0.490 Goal=   None    Shift=    0.000
 RMSDP=3.14D-08 MaxDP=7.24D-07 DE=-3.79D-10 OVMax= 2.60D-06

 Cycle  13  Pass 1  IDiag  1:
 E= -204.723219122838     Delta-E=       -0.000000000023 Rises=F Damp=F
 DIIS: error= 4.45D-08 at cycle  13 NSaved=  13.
 NSaved=13 IEnMin=13 EnMin= -204.723219122838     IErMin=13 ErrMin= 4.45D-08
 ErrMax= 4.45D-08  0.00D+00 EMaxC= 1.00D-01 BMatC= 2.10D-13 BMatP= 6.85D-12
 IDIUse=1 WtCom= 1.00D+00 WtEn= 0.00D+00
 Coeff-Com: -0.443D-06 0.568D-05 0.137D-04-0.219D-04-0.875D-04-0.561D-04
 Coeff-Com:  0.747D-03-0.257D-03-0.524D-02 0.124D-01 0.254D-01-0.296D+00
 Coeff-Com:  0.126D+01
 Coeff:     -0.443D-06 0.568D-05 0.137D-04-0.219D-04-0.875D-04-0.561D-04
 Coeff:      0.747D-03-0.257D-03-0.524D-02 0.124D-01 0.254D-01-0.296D+00
 Coeff:      0.126D+01
 Gap=     0.490 Goal=   None    Shift=    0.000
 RMSDP=5.44D-09 MaxDP=9.30D-08 DE=-2.29D-11 OVMax= 4.16D-07

 SCF Done:  E(RHF) =  -204.723219123     A.U. after   13 cycles
            NFock= 13  Conv=0.54D-08     -V/T= 2.0024
 KE= 2.042430863069D+02 PE=-6.229864297552D+02 EE= 1.444980704625D+02
 Leave Link  502 at Mon Jan 31 11:39:58 2022, MaxMem= 16106127360 cpu:              34.2 elap:               1.7
 (Enter /sw/contrib/gaussian/g16/B01/g16/l801.exe)
 ExpMin= 2.53D-02 ExpMax= 1.53D+04 ExpMxC= 5.22D+02 IAcc=3 IRadAn=         5 AccDes= 0.00D+00
 HarFok:  IExCor=  205 AccDes= 0.00D+00 IRadAn=         5 IDoV=-2 UseB2=F ITyADJ=14
 ICtDFT= 12500011 ScaDFX=  1.000000  1.000000  1.000000  1.000000
 Largest valence mixing into a core orbital is  2.06D-04
 Largest core mixing into a valence orbital is  3.32D-05
 Range of M.O.s used for correlation:     4   161
 NBasis=   161 NAE=    12 NBE=    12 NFC=     3 NFV=     0
 NROrb=    158 NOA=     9 NOB=     9 NVA=   149 NVB=   149

 **** Warning!!: The largest alpha MO coefficient is  0.19321529D+02

 Leave Link  801 at Mon Jan 31 11:39:58 2022, MaxMem= 16106127360 cpu:               3.2 elap:               0.2
 (Enter /sw/contrib/gaussian/g16/B01/g16/l906.exe)
 Frozen-core derivative calculation, NFC=   3 NFV=   0.
 FulOut=F Deriv=T AODrv=F NAtomX=     4
   MMem=         161  MDisk=           9 MDiskD=           9
  W3Min=      367080 MinDsk=      792425 NBas6D=         190
 NBas2D=       18625    NTT=       18145    LW2=     3500000
    MDV= 16105788715 MDiskM=      423783 NBas2p=       18621
 Fully in-core method, ICMem=   359292905.
 IMap=   1   2   3   4   5   6   7   8   9  10  11  12
 JobTyp=1 Pass  1 fully in-core, NPsUse= 28.
 Compute canonical integrals.
 FoFCou: FMM=F IPFlag=           0 FMFlag=           0 FMFlg1=           0
         NFxFlg=           0 DoJE=F BraDBF=F KetDBF=F FulRan=T
         wScrn=  0.000000 ICntrl=       600 IOpCl=  1 I1Cent=           0 NGrid=           0
         NMat0=    1 NMatS0=  18625 NMatT0=    0 NMatD0=    1 NMtDS0=    0 NMtDT0=    0
 Symmetry not used in FoFCou.
 Spin components of T(2) and E(2):
     alpha-alpha T2 =       0.2532760716D-01 E2=     -0.9068161146D-01
     alpha-beta  T2 =       0.1375328071D+00 E2=     -0.5167436604D+00
     beta-beta   T2 =       0.2532760716D-01 E2=     -0.9068161146D-01
 The integrals were generated   1 times.
 ANorm=    0.1090040376D+01
 E2 =    -0.6981068833D+00 EUMP2 =    -0.20542132600617D+03
 Leave Link  906 at Mon Jan 31 11:40:02 2022, MaxMem= 16106127360 cpu:              88.4 elap:               3.2
 (Enter /sw/contrib/gaussian/g16/B01/g16/l1002.exe)
 Minotr:  Closed shell wavefunction.
          Computing MP2/KS-MP2 derivatives.
          Using Z-Vector for PSCF gradient.
          Skipping F1 and S1 gradient terms here.
          Frozen-core window.
          Direct CPHF calculation.
          Differentiating once with respect to electric field.
                with respect to dipole field.
          Electric field/nuclear overlap derivatives assumed to be zero.
          Using symmetry in CPHF.
          Requested convergence is 1.0D-10 RMS, and 1.0D-09 maximum.
          NewPWx=F KeepS1=T KeepF1=T KeepIn=T MapXYZ=F SortEE=F KeepMc=T.
 Keep R1 ints in memory in symmetry-blocked form, NReq=128071053.
 FoFCou: FMM=F IPFlag=           0 FMFlag=           0 FMFlg1=           0
         NFxFlg=           0 DoJE=F BraDBF=F KetDBF=F FulRan=T
         wScrn=  0.000000 ICntrl=       600 IOpCl=  0 I1Cent=           0 NGrid=           0
         NMat0=    1 NMatS0=  13041 NMatT0=    0 NMatD0=    1 NMtDS0=    0 NMtDT0=    0
 Petite list used in FoFCou.
          MDV=   16106127360 using IRadAn=       5.
          Solving linear equations separately, MaxMat=       0.
          There are     1 degrees of freedom in the 1st order CPHF.  IDoFFX=0 NUNeed=     1.
 LinEq1:  Iter=  0 NonCon=     1 RMS=6.63D-03 Max=1.33D-01 NDo=     1
 AX will form     1 AO Fock derivatives at one time.
 LinEq1:  Iter=  1 NonCon=     1 RMS=2.26D-03 Max=4.08D-02 NDo=     1
 LinEq1:  Iter=  2 NonCon=     1 RMS=9.17D-04 Max=1.19D-02 NDo=     1
 LinEq1:  Iter=  3 NonCon=     1 RMS=4.41D-04 Max=8.63D-03 NDo=     1
 LinEq1:  Iter=  4 NonCon=     1 RMS=1.37D-04 Max=1.51D-03 NDo=     1
 LinEq1:  Iter=  5 NonCon=     1 RMS=6.11D-05 Max=9.92D-04 NDo=     1
 LinEq1:  Iter=  6 NonCon=     1 RMS=2.33D-05 Max=2.70D-04 NDo=     1
 LinEq1:  Iter=  7 NonCon=     1 RMS=5.93D-06 Max=6.13D-05 NDo=     1
 LinEq1:  Iter=  8 NonCon=     1 RMS=1.44D-06 Max=1.67D-05 NDo=     1
 LinEq1:  Iter=  9 NonCon=     1 RMS=2.66D-07 Max=2.00D-06 NDo=     1
 LinEq1:  Iter= 10 NonCon=     1 RMS=4.90D-08 Max=3.90D-07 NDo=     1
 LinEq1:  Iter= 11 NonCon=     1 RMS=7.94D-09 Max=8.13D-08 NDo=     1
 LinEq1:  Iter= 12 NonCon=     1 RMS=1.07D-09 Max=7.54D-09 NDo=     1
 LinEq1:  Iter= 13 NonCon=     1 RMS=2.23D-10 Max=2.31D-09 NDo=     1
 LinEq1:  Iter= 14 NonCon=     0 RMS=4.29D-11 Max=3.73D-10 NDo=     1
 Linear equations converged to 1.000D-10 1.000D-09 after    14 iterations.
 End of Minotr F.D. properties file   721 does not exist.
 End of Minotr F.D. properties file   722 does not exist.
 End of Minotr F.D. properties file   788 does not exist.
 Leave Link 1002 at Mon Jan 31 11:40:04 2022, MaxMem= 16106127360 cpu:              51.2 elap:               2.5
 (Enter /sw/contrib/gaussian/g16/B01/g16/l601.exe)
 Copying SCF densities to generalized density rwf, IOpCl= 0 IROHF=0.

 **********************************************************************

            Population analysis using the MP2 Density.

 **********************************************************************

 Orbital symmetries:
       Occupied  (A') (A') (A') (A') (A') (A') (A') (A') (A") (A')
                 (A") (A')
       Virtual   (A') (A") (A') (A') (A") (A') (A') (A') (A") (A')
                 (A") (A') (A') (A") (A') (A') (A') (A') (A') (A")
                 (A') (A') (A") (A') (A') (A') (A") (A") (A') (A')
                 (A') (A") (A") (A') (A") (A') (A') (A") (A') (A')
                 (A') (A') (A') (A") (A") (A') (A') (A") (A') (A')
                 (A") (A') (A") (A') (A') (A") (A') (A") (A') (A")
                 (A') (A') (A") (A') (A') (A') (A") (A') (A") (A")
                 (A') (A') (A') (A") (A') (A") (A') (A') (A") (A')
                 (A") (A') (A') (A") (A') (A") (A') (A") (A') (A')
                 (A') (A') (A') (A") (A') (A") (A') (A") (A') (A")
                 (A') (A") (A') (A') (A') (A") (A') (A") (A") (A')
                 (A') (A") (A') (A') (A") (A') (A') (A") (A') (A')
                 (A') (A') (A") (A') (A") (A") (A') (A') (A") (A')
                 (A") (A") (A') (A") (A') (A") (A') (A") (A") (A')
                 (A') (A') (A') (A') (A') (A') (A') (A') (A')
 The electronic state is 1-A'.
 Alpha  occ. eigenvalues --  -20.66529 -20.64283 -15.79870  -1.60297  -1.40325
 Alpha  occ. eigenvalues --   -0.94796  -0.78377  -0.73026  -0.68173  -0.62620
 Alpha  occ. eigenvalues --   -0.52873  -0.46191
 Alpha virt. eigenvalues --    0.02806   0.08029   0.09389   0.09742   0.12875
 Alpha virt. eigenvalues --    0.14366   0.15695   0.17228   0.18732   0.19641
 Alpha virt. eigenvalues --    0.20550   0.23360   0.25743   0.29644   0.30771
 Alpha virt. eigenvalues --    0.32951   0.36646   0.38244   0.42364   0.52505
 Alpha virt. eigenvalues --    0.52641   0.54923   0.57386   0.61271   0.63104
 Alpha virt. eigenvalues --    0.64794   0.68007   0.71436   0.71791   0.74762
 Alpha virt. eigenvalues --    0.77416   0.78263   0.81139   0.81247   0.86117
 Alpha virt. eigenvalues --    0.88076   0.92568   0.93884   0.94488   0.99557
 Alpha virt. eigenvalues --    1.05060   1.06412   1.08197   1.10639   1.16141
 Alpha virt. eigenvalues --    1.19826   1.24904   1.26989   1.36017   1.43285
 Alpha virt. eigenvalues --    1.48646   1.52260   1.52308   1.54431   1.55257
 Alpha virt. eigenvalues --    1.61099   1.65850   1.72982   1.75505   1.82172
 Alpha virt. eigenvalues --    1.85728   1.96003   1.97858   1.99877   2.07532
 Alpha virt. eigenvalues --    2.13228   2.13228   2.19421   2.27097   2.30689
 Alpha virt. eigenvalues --    2.32971   2.38142   2.45138   2.47176   2.49663
 Alpha virt. eigenvalues --    2.50286   2.52093   2.54423   2.57282   2.60677
 Alpha virt. eigenvalues --    2.60863   2.66205   2.77317   2.77330   2.83995
 Alpha virt. eigenvalues --    2.93770   2.95284   3.11444   3.13974   3.18155
 Alpha virt. eigenvalues --    3.24990   3.46751   3.82873   3.85605   4.02713
 Alpha virt. eigenvalues --    4.16783   4.18665   4.21273   4.35724   4.37233
 Alpha virt. eigenvalues --    4.58668   4.63655   4.74550   4.81799   4.87408
 Alpha virt. eigenvalues --    4.88693   4.97152   5.00046   5.07225   5.08572
 Alpha virt. eigenvalues --    5.17246   5.24668   5.26050   5.33567   5.37057
 Alpha virt. eigenvalues --    5.37552   5.57987   5.66752   5.79419   5.98710
 Alpha virt. eigenvalues --    6.12956   6.43194   6.50648   6.50961   6.67560
 Alpha virt. eigenvalues --    6.71446   6.74801   6.84906   6.91658   7.06420
 Alpha virt. eigenvalues --    7.12001   7.17945   7.23236   7.25771   7.25895
 Alpha virt. eigenvalues --    7.33202   7.38032   7.43008   7.47936   7.60937
 Alpha virt. eigenvalues --    7.64929   7.69575   7.79772   7.98820   8.06431
 Alpha virt. eigenvalues --    8.42204  14.21160  15.11827  15.97872
          Condensed to atoms (all electrons):
               1          2          3          4
     1  H    0.585458   0.173353  -0.046000   0.012993
     2  O    0.173353   8.292031  -0.136340  -0.058209
     3  N   -0.046000  -0.136340   7.045455  -0.041837
     4  O    0.012993  -0.058209  -0.041837   8.269134
 Mulliken charges:
               1
     1  H    0.274195
     2  O   -0.270835
     3  N    0.178722
     4  O   -0.182082
 Sum of Mulliken charges =  -0.00000
 Mulliken charges with hydrogens summed into heavy atoms:
               1
     2  O    0.003360
     3  N    0.178722
     4  O   -0.182082
 Electronic spatial extent (au):  <R**2>=            123.4190
 Charge=             -0.0000 electrons
 Dipole moment (field-independent basis, Debye):
    X=              1.7424    Y=              0.6723    Z=              0.0000  Tot=              1.8676
 Quadrupole moment (field-independent basis, Debye-Ang):
   XX=            -13.7149   YY=            -18.6886   ZZ=            -16.4567
   XY=              0.6323   XZ=             -0.0000   YZ=             -0.0000
 Traceless Quadrupole moment (field-independent basis, Debye-Ang):
   XX=              2.5718   YY=             -2.4018   ZZ=             -0.1700
   XY=              0.6323   XZ=             -0.0000   YZ=             -0.0000
 Octapole moment (field-independent basis, Debye-Ang**2):
  XXX=             10.0054  YYY=             -1.0363  ZZZ=             -0.0000  XYY=             -0.9771
  XXY=             -0.2411  XXZ=              0.0000  XZZ=             -1.0049  YZZ=              0.2063
  YYZ=             -0.0000  XYZ=              0.0000
 Hexadecapole moment (field-independent basis, Debye-Ang**3):
 XXXX=            -71.9477 YYYY=            -39.3932 ZZZZ=            -13.9225 XXXY=             12.2099
 XXXZ=             -0.0000 YYYX=             11.7755 YYYZ=              0.0000 ZZZX=             -0.0000
 ZZZY=              0.0000 XXYY=            -22.2033 XXZZ=            -17.4618 YYZZ=             -8.7215
 XXYZ=              0.0000 YYXZ=             -0.0000 ZZXY=              4.1671
 N-N= 6.952205386296D+01 E-N=-6.235868033434D+02  KE= 2.052416578358D+02
 Symmetry A'   KE= 1.964161215647D+02
 Symmetry A"   KE= 8.825536271097D+00
 No NMR shielding tensors so no spin-rotation constants.
 Leave Link  601 at Mon Jan 31 11:40:04 2022, MaxMem= 16106127360 cpu:               4.5 elap:               0.2
 (Enter /sw/contrib/gaussian/g16/B01/g16/l9999.exe)
 1\1\GINC-N2207\SP\RMP2-FC\Aug-CC-pVTZ\H1N1O2\CGAVINH\31-Jan-2022\0\\#p
  SP mp2/aug-cc-pvtz density=current\\title\\0,1\H\O,1,0.97026274\N,2,1
 .42776435,1,100.62778541\O,3,1.17680217,2,110.70859147,1,180.,0\\Versi
 on=ES64L-G16RevB.01\State=1-A'\HF=-204.7232191\MP2=-205.421326\RMSD=5.
 442e-09\Dipole=-0.0929226,0.,-0.7288708\Quadrupole=-1.3441535,-0.12638
 17,1.4705352,0.,1.2879332,0.\PG=CS [SG(H1N1O2)]\\@


 REALITY IS FOR PEOPLE WHO CAN'T FACE SCIENCE FICTION.
 Job cpu time:       0 days  0 hours  3 minutes 25.0 seconds.
 Elapsed time:       0 days  0 hours  0 minutes  8.8 seconds.
 File lengths (MBytes):  RWF=     16 Int=      0 D2E=      0 Chk=      8 Scr=      1
 Normal termination of Gaussian 16 at Mon Jan 31 11:40:04 2022.
