title                                                                   
SP        RMP2-FC                                                     Aug-CC-pVTZ         
Number of atoms                            I                4
Info1-9                                    I   N=           9
          29          20           0           0           0         110
           1           2           1
Full Title                                 C   N=           1
title       
Route                                      C   N=           4
#p SP mp2/aug-cc-pvtz density=current           
Charge                                     I                0
Multiplicity                               I                1
Number of electrons                        I               24
Number of alpha electrons                  I               12
Number of beta electrons                   I               12
Number of basis functions                  I              161
Number of independent functions            I              161
Number of point charges in /Mol/           I                0
Number of translation vectors              I                0
Atomic numbers                             I   N=           4
           1           8           7           8
Nuclear charges                            R   N=           4
  1.00000000E+00  8.00000000E+00  7.00000000E+00  8.00000000E+00
Current cartesian coordinates              R   N=          12
  3.33319024E+00 -2.69557526E-01 -5.25673096E-32  1.69560294E+00 -1.11506399E+00
 -1.38545707E-32 -2.11633336E-16  9.83646503E-01  4.44480571E-33 -2.11225172E+00
  2.88067993E-01  9.60299594E-33
Number of symbols in /Mol/                 I                0
Force Field                                I                0
Atom Types                                 C   N=           4
                                                
Int Atom Types                             I   N=           4
           0           0           0           0
MM charges                                 R   N=           4
  0.00000000E+00  0.00000000E+00  0.00000000E+00  0.00000000E+00
Integer atomic weights                     I   N=           4
           1          16          14          16
Real atomic weights                        R   N=           4
  1.00782504E+00  1.59949146E+01  1.40030740E+01  1.59949146E+01
Atom fragment info                         I   N=           4
           0           0           0           0
Atom residue num                           I   N=           4
           0           0           0           0
Nuclear spins                              I   N=           4
           1           0           2           0
Nuclear ZEff                               R   N=           4
 -1.00000000E+00 -5.60000000E+00 -4.55000000E+00 -5.60000000E+00
Nuclear ZNuc                               R   N=           4
  1.00000000E+00  8.00000000E+00  7.00000000E+00  8.00000000E+00
Nuclear QMom                               R   N=           4
  0.00000000E+00  0.00000000E+00  2.04400000E+00  0.00000000E+00
Nuclear GFac                               R   N=           4
  2.79284600E+00  0.00000000E+00  4.03761000E-01  0.00000000E+00
MicOpt                                     I   N=           4
          -1          -1          -1          -1
Number of residues                         I                0
Number of secondary structures             I                0
SymInf integers                            I   N=          26
           1           2           1           1           1           1
           1          -1           0           0           0           0
           0           0           0           0           0           0
           0           0           0           0           0           0
           0           0
RotTr to input orientation                 R   N=          12
 -4.58771503E-01 -1.15583317E-16 -8.88554280E-01  8.88554280E-01  4.04733826E-17
 -4.58771503E-01  8.89891294E-17 -1.00000000E+00  8.41340162E-17  1.76868919E+00
  0.00000000E+00  2.83805514E+00
Number of contracted shells                I               51
Number of primitive shells                 I               92
Pure/Cartesian d shells                    I                0
Pure/Cartesian f shells                    I                0
Highest angular momentum                   I                3
Largest degree of contraction              I                7
Shell types                                I   N=          51
           0           0           0           0           1           1
           1          -2          -2           0           0           0
           0           0           1           1           1           1
          -2          -2          -2          -3          -3           0
           0           0           0           0           1           1
           1           1          -2          -2          -2          -3
          -3           0           0           0           0           0
           1           1           1           1          -2          -2
          -2          -3          -3
Number of primitives per shell             I   N=          51
           3           1           1           1           1           1
           1           1           1           7           6           1
           1           1           3           1           1           1
           1           1           1           1           1           7
           6           1           1           1           3           1
           1           1           1           1           1           1
           1           7           6           1           1           1
           3           1           1           1           1           1
           1           1           1
Shell to atom map                          I   N=          51
           1           1           1           1           1           1
           1           1           1           2           2           2
           2           2           2           2           2           2
           2           2           2           2           2           3
           3           3           3           3           3           3
           3           3           3           3           3           3
           3           4           4           4           4           4
           4           4           4           4           4           4
           4           4           4
Primitive exponents                        R   N=          92
  3.38700000E+01  5.09500000E+00  1.15900000E+00  3.25800000E-01  1.02700000E-01
  2.52600000E-02  1.40700000E+00  3.88000000E-01  1.02000000E-01  1.05700000E+00
  2.47000000E-01  1.53300000E+04  2.29900000E+03  5.22400000E+02  1.47300000E+02
  4.75500000E+01  1.67600000E+01  6.20700000E+00  5.22400000E+02  1.47300000E+02
  4.75500000E+01  1.67600000E+01  6.20700000E+00  6.88200000E-01  1.75200000E+00
  2.38400000E-01  7.37600000E-02  3.44600000E+01  7.74900000E+00  2.28000000E+00
  7.15600000E-01  2.14000000E-01  5.97400000E-02  2.31400000E+00  6.45000000E-01
  2.14000000E-01  1.42800000E+00  5.00000000E-01  1.14200000E+04  1.71200000E+03
  3.89300000E+02  1.10000000E+02  3.55700000E+01  1.25400000E+01  4.64400000E+00
  3.89300000E+02  1.10000000E+02  3.55700000E+01  1.25400000E+01  4.64400000E+00
  5.11800000E-01  1.29300000E+00  1.78700000E-01  5.76000000E-02  2.66300000E+01
  5.94800000E+00  1.74200000E+00  5.55000000E-01  1.72500000E-01  4.91000000E-02
  1.65400000E+00  4.69000000E-01  1.51000000E-01  1.09300000E+00  3.64000000E-01
  1.53300000E+04  2.29900000E+03  5.22400000E+02  1.47300000E+02  4.75500000E+01
  1.67600000E+01  6.20700000E+00  5.22400000E+02  1.47300000E+02  4.75500000E+01
  1.67600000E+01  6.20700000E+00  6.88200000E-01  1.75200000E+00  2.38400000E-01
  7.37600000E-02  3.44600000E+01  7.74900000E+00  2.28000000E+00  7.15600000E-01
  2.14000000E-01  5.97400000E-02  2.31400000E+00  6.45000000E-01  2.14000000E-01
  1.42800000E+00  5.00000000E-01
Contraction coefficients                   R   N=          92
  2.54948632E-02  1.90362766E-01  8.52162022E-01  1.00000000E+00  1.00000000E+00
  1.00000000E+00  1.00000000E+00  1.00000000E+00  1.00000000E+00  1.00000000E+00
  1.00000000E+00  5.19808943E-04  4.02025621E-03  2.07128267E-02  8.10105536E-02
  2.35962985E-01  4.42653446E-01  3.57064423E-01 -4.42115008E-05 -1.22591041E-03
 -1.05517725E-02 -6.74452633E-02 -1.71198607E-01  1.07329856E+00  1.00000000E+00
  1.00000000E+00  1.00000000E+00  4.11634896E-02  2.57762836E-01  8.02419274E-01
  1.00000000E+00  1.00000000E+00  1.00000000E+00  1.00000000E+00  1.00000000E+00
  1.00000000E+00  1.00000000E+00  1.00000000E+00  5.34563860E-04  4.13435660E-03
  2.12335358E-02  8.25006224E-02  2.38138871E-01  4.42551547E-01  3.53757422E-01
 -4.89867350E-05 -1.19527323E-03 -1.03490714E-02 -6.48680190E-02 -1.71552477E-01
  1.07289568E+00  1.00000000E+00  1.00000000E+00  1.00000000E+00  3.98072123E-02
  2.49002660E-01  8.10479727E-01  1.00000000E+00  1.00000000E+00  1.00000000E+00
  1.00000000E+00  1.00000000E+00  1.00000000E+00  1.00000000E+00  1.00000000E+00
  5.19808943E-04  4.02025621E-03  2.07128267E-02  8.10105536E-02  2.35962985E-01
  4.42653446E-01  3.57064423E-01 -4.42115008E-05 -1.22591041E-03 -1.05517725E-02
 -6.74452633E-02 -1.71198607E-01  1.07329856E+00  1.00000000E+00  1.00000000E+00
  1.00000000E+00  4.11634896E-02  2.57762836E-01  8.02419274E-01  1.00000000E+00
  1.00000000E+00  1.00000000E+00  1.00000000E+00  1.00000000E+00  1.00000000E+00
  1.00000000E+00  1.00000000E+00
Coordinates of each shell                  R   N=         153
  3.33319024E+00 -2.69557526E-01  3.49817304E-32  3.33319024E+00 -2.69557526E-01
  3.49817304E-32  3.33319024E+00 -2.69557526E-01  3.49817304E-32  3.33319024E+00
 -2.69557526E-01  3.49817304E-32  3.33319024E+00 -2.69557526E-01  3.49817304E-32
  3.33319024E+00 -2.69557526E-01  3.49817304E-32  3.33319024E+00 -2.69557526E-01
  3.49817304E-32  3.33319024E+00 -2.69557526E-01  3.49817304E-32  3.33319024E+00
 -2.69557526E-01  3.49817304E-32  1.69560294E+00 -1.11506399E+00  1.22652545E-32
  1.69560294E+00 -1.11506399E+00  1.22652545E-32  1.69560294E+00 -1.11506399E+00
  1.22652545E-32  1.69560294E+00 -1.11506399E+00  1.22652545E-32  1.69560294E+00
 -1.11506399E+00  1.22652545E-32  1.69560294E+00 -1.11506399E+00  1.22652545E-32
  1.69560294E+00 -1.11506399E+00  1.22652545E-32  1.69560294E+00 -1.11506399E+00
  1.22652545E-32  1.69560294E+00 -1.11506399E+00  1.22652545E-32  1.69560294E+00
 -1.11506399E+00  1.22652545E-32  1.69560294E+00 -1.11506399E+00  1.22652545E-32
  1.69560294E+00 -1.11506399E+00  1.22652545E-32  1.69560294E+00 -1.11506399E+00
  1.22652545E-32  1.69560294E+00 -1.11506399E+00  1.22652545E-32 -1.33255387E-16
  9.83646503E-01  5.56231969E-33 -1.33255387E-16  9.83646503E-01  5.56231969E-33
 -1.33255387E-16  9.83646503E-01  5.56231969E-33 -1.33255387E-16  9.83646503E-01
  5.56231969E-33 -1.33255387E-16  9.83646503E-01  5.56231969E-33 -1.33255387E-16
  9.83646503E-01  5.56231969E-33 -1.33255387E-16  9.83646503E-01  5.56231969E-33
 -1.33255387E-16  9.83646503E-01  5.56231969E-33 -1.33255387E-16  9.83646503E-01
  5.56231969E-33 -1.33255387E-16  9.83646503E-01  5.56231969E-33 -1.33255387E-16
  9.83646503E-01  5.56231969E-33 -1.33255387E-16  9.83646503E-01  5.56231969E-33
 -1.33255387E-16  9.83646503E-01  5.56231969E-33 -1.33255387E-16  9.83646503E-01
  5.56231969E-33 -2.11225172E+00  2.88067993E-01 -2.15050005E-32 -2.11225172E+00
  2.88067993E-01 -2.15050005E-32 -2.11225172E+00  2.88067993E-01 -2.15050005E-32
 -2.11225172E+00  2.88067993E-01 -2.15050005E-32 -2.11225172E+00  2.88067993E-01
 -2.15050005E-32 -2.11225172E+00  2.88067993E-01 -2.15050005E-32 -2.11225172E+00
  2.88067993E-01 -2.15050005E-32 -2.11225172E+00  2.88067993E-01 -2.15050005E-32
 -2.11225172E+00  2.88067993E-01 -2.15050005E-32 -2.11225172E+00  2.88067993E-01
 -2.15050005E-32 -2.11225172E+00  2.88067993E-01 -2.15050005E-32 -2.11225172E+00
  2.88067993E-01 -2.15050005E-32 -2.11225172E+00  2.88067993E-01 -2.15050005E-32
 -2.11225172E+00  2.88067993E-01 -2.15050005E-32
Num ILSW                                   I              100
ILSW                                       I   N=         100
           0           0           0           0           2           0
           0           0           0           0           0          -1
           5           0           0           0           0           0
           0           0           0           0           0           0
           1           0           0           0           0           0
           0           0      100000           0          -1           0
           0           0           0           0           0           0
           0           0           0           1           0           0
           0 -2000000000           1           0           0           0
           0           0           4          52           0           0
           0           0           0           0           0           0
           0           0           0           4           0           1
           0           0           0           0           0           0
           0           0           0           0           0           0
           0           0           0           0           0           0
           0           0           0           0           0           0
           0           0           0           0
Num RLSW                                   I               52
RLSW                                       R   N=          52
  1.00000000E+00  1.00000000E+00  1.00000000E+00  1.00000000E+00  1.00000000E+00
  0.00000000E+00  0.00000000E+00  1.00000000E+00  0.00000000E+00  0.00000000E+00
  0.00000000E+00  0.00000000E+00  1.00000000E+00  0.00000000E+00  0.00000000E+00
  0.00000000E+00  0.00000000E+00  1.00000000E+00  0.00000000E+00  0.00000000E+00
  0.00000000E+00  0.00000000E+00  1.00000000E+00  0.00000000E+00  0.00000000E+00
  0.00000000E+00  0.00000000E+00  1.00000000E+00  0.00000000E+00  0.00000000E+00
  0.00000000E+00  0.00000000E+00  1.00000000E+00  0.00000000E+00  0.00000000E+00
  0.00000000E+00  0.00000000E+00  0.00000000E+00  1.00000000E+00  1.00000000E+00
  0.00000000E+00  1.00000000E+00  0.00000000E+00  0.00000000E+00  0.00000000E+00
  0.00000000E+00  0.00000000E+00  0.00000000E+00  0.00000000E+00  0.00000000E+00
  0.00000000E+00  0.00000000E+00
MxBond                                     I                2
NBond                                      I   N=           4
           1           2           2           1
IBond                                      I   N=           8
           2           0           1           3           2           4
           3           0
RBond                                      R   N=           8
  1.00000000E+00  0.00000000E+00  1.00000000E+00  1.00000000E+00  1.00000000E+00
  2.00000000E+00  2.00000000E+00  0.00000000E+00
Virial Ratio                               R      2.002411188599629E+00
SCF Energy                                 R     -2.047231248282527E+02
MP2 Energy                                 R     -2.054213323093252E+02
Total Energy                               R     -2.054213323093252E+02
Post-SCF wavefunction norm                 R      1.090103115649894E+00
RMS Density                                R      5.513037160977440E-09
Job Status                                 I                1
Nuclear derivative order                   I                0
External E-field                           R   N=          35
  0.00000000E+00  0.00000000E+00  0.00000000E+00  0.00000000E+00  0.00000000E+00
  0.00000000E+00  0.00000000E+00  0.00000000E+00  0.00000000E+00  0.00000000E+00
  0.00000000E+00  0.00000000E+00  0.00000000E+00  0.00000000E+00  0.00000000E+00
  0.00000000E+00  0.00000000E+00  0.00000000E+00  0.00000000E+00  0.00000000E+00
  0.00000000E+00  0.00000000E+00  0.00000000E+00  0.00000000E+00  0.00000000E+00
  0.00000000E+00  0.00000000E+00  0.00000000E+00  0.00000000E+00  0.00000000E+00
  0.00000000E+00  0.00000000E+00  0.00000000E+00  0.00000000E+00  0.00000000E+00
IOpCl                                      I                0
IROHF                                      I                0
Alpha Orbital Energies                     R   N=         161
 -2.06652011E+01 -2.06427809E+01 -1.57986377E+01 -1.60261187E+00 -1.40153260E+00
 -9.48023050E-01 -7.83324648E-01 -7.29659330E-01 -6.81422881E-01 -6.24757450E-01
 -5.28376128E-01 -4.61615739E-01  2.78975537E-02  8.05376052E-02  9.39835939E-02
  9.75863645E-02  1.28932022E-01  1.43325554E-01  1.56929322E-01  1.72117106E-01
  1.87307753E-01  1.96640570E-01  2.05599519E-01  2.33429779E-01  2.57579036E-01
  2.96147145E-01  3.07921116E-01  3.29808430E-01  3.65934274E-01  3.82263671E-01
  4.22604663E-01  5.25364397E-01  5.26327911E-01  5.48044743E-01  5.73323646E-01
  6.13127231E-01  6.31348097E-01  6.47609927E-01  6.80238380E-01  7.14151699E-01
  7.17824150E-01  7.47872854E-01  7.74787308E-01  7.81670265E-01  8.11659350E-01
  8.11887451E-01  8.61105862E-01  8.78607536E-01  9.24983789E-01  9.38813287E-01
  9.44786598E-01  9.94720425E-01  1.04921565E+00  1.06206598E+00  1.08084220E+00
  1.10541116E+00  1.16048631E+00  1.19637408E+00  1.25226801E+00  1.26853295E+00
  1.36096414E+00  1.43318809E+00  1.48719699E+00  1.52323338E+00  1.52444895E+00
  1.54372697E+00  1.55354830E+00  1.60919596E+00  1.65822677E+00  1.72845616E+00
  1.75498491E+00  1.82259381E+00  1.85573642E+00  1.95864699E+00  1.97622202E+00
  1.99728243E+00  2.07392705E+00  2.13264547E+00  2.13326304E+00  2.18763362E+00
  2.27035799E+00  2.30741978E+00  2.32909606E+00  2.38052657E+00  2.45087041E+00
  2.47061016E+00  2.49911624E+00  2.50280364E+00  2.52099384E+00  2.54349974E+00
  2.56849877E+00  2.60762433E+00  2.60804324E+00  2.66147905E+00  2.77280439E+00
  2.77765426E+00  2.84153361E+00  2.93765577E+00  2.95308670E+00  3.11496205E+00
  3.14610479E+00  3.18323901E+00  3.24660493E+00  3.45983261E+00  3.82538976E+00
  3.85400601E+00  4.02735174E+00  4.16576313E+00  4.18191906E+00  4.21191948E+00
  4.35887772E+00  4.37049402E+00  4.58018667E+00  4.63313927E+00  4.74041263E+00
  4.81719743E+00  4.87014023E+00  4.88706049E+00  4.97611205E+00  5.00137676E+00
  5.07268666E+00  5.08045340E+00  5.16817261E+00  5.24190988E+00  5.25676312E+00
  5.32975148E+00  5.36122279E+00  5.36913627E+00  5.57781235E+00  5.66790539E+00
  5.79113661E+00  5.98712749E+00  6.12090010E+00  6.43456786E+00  6.50697521E+00
  6.50983965E+00  6.67431627E+00  6.71484977E+00  6.74531527E+00  6.84676355E+00
  6.91686189E+00  7.06503691E+00  7.11968877E+00  7.16975499E+00  7.23273677E+00
  7.25388736E+00  7.25499013E+00  7.33195923E+00  7.37759056E+00  7.43265012E+00
  7.47881029E+00  7.60684859E+00  7.64555699E+00  7.69674943E+00  7.78920795E+00
  7.97960105E+00  8.06929778E+00  8.41646572E+00  1.41802032E+01  1.50749521E+01
  1.59665319E+01
Alpha MO coefficients                      R   N=       25921
  5.59201213E-05  1.98497274E-04 -3.65657983E-04  4.89637147E-06 -5.48524989E-05
  1.04692499E-05  0.00000000E+00  4.42678430E-05  5.79649269E-05  0.00000000E+00
  2.61682342E-04  1.61334051E-05  0.00000000E+00  2.03891823E-05  0.00000000E+00
  0.00000000E+00  1.39179416E-05  7.00130197E-06  5.22690837E-05  0.00000000E+00
  0.00000000E+00 -3.28813671E-05  1.69676078E-05 -8.23200429E-04  7.96913693E-05
 -6.16081719E-05 -8.84700089E-05  2.13323739E-04  1.82300153E-05 -1.74079822E-05
  0.00000000E+00 -8.85472530E-05  4.59149612E-05  0.00000000E+00 -1.50716622E-04
  4.26118753E-05  0.00000000E+00 -1.18339834E-04  5.13622472E-05  0.00000000E+00
 -8.94496839E-06  0.00000000E+00  0.00000000E+00  2.70371139E-05  1.05323108E-05
  1.89806279E-06  0.00000000E+00  0.00000000E+00 -9.63546288E-05 -1.21698531E-04
 -1.60292365E-05  0.00000000E+00  0.00000000E+00 -7.48214095E-05 -2.38789034E-04
  0.00000000E+00  3.77645149E-06  1.81560028E-06  0.00000000E+00  0.00000000E+00
 -7.82002161E-06 -1.39821760E-05  0.00000000E+00 -1.98656805E-05 -1.75472188E-05
  0.00000000E+00  0.00000000E+00  1.92567951E-04 -4.99999496E-05  2.49377424E-04
  1.41903440E-03 -1.01691406E-04 -1.53768183E-03  3.79729678E-04 -1.13104148E-04
 -6.45975574E-05  0.00000000E+00 -2.04241132E-03 -5.57563408E-04  0.00000000E+00
  1.13456140E-03 -6.47358953E-05  0.00000000E+00 -1.14144260E-04 -9.28372649E-05
  0.00000000E+00 -1.25279919E-04  0.00000000E+00  0.00000000E+00  2.13712505E-04
  1.44467893E-04 -4.38351754E-04  0.00000000E+00  0.00000000E+00  5.53202206E-04
  7.91316701E-04 -1.02432578E-06  0.00000000E+00  0.00000000E+00 -1.63201732E-04
 -1.50349423E-04  0.00000000E+00  1.26208866E-05 -1.29152085E-05  0.00000000E+00
  0.00000000E+00  1.62328773E-05  1.49991029E-05  0.00000000E+00  1.44376553E-04
  1.28526314E-04  0.00000000E+00  0.00000000E+00 -2.34919146E-05 -2.92214034E-04
  9.76650699E-01 -9.86489934E-03  4.35628259E-02  4.27721927E-03 -5.30113985E-04
  2.10844775E-03  5.64670475E-04  0.00000000E+00 -2.41167409E-03 -5.84780310E-04
  0.00000000E+00  9.88289260E-04  5.49434202E-04  0.00000000E+00 -5.16815412E-05
  2.97302224E-05  0.00000000E+00 -2.29107871E-04  0.00000000E+00  0.00000000E+00
  7.69823421E-05  5.55805514E-05  3.87427980E-04  0.00000000E+00  0.00000000E+00
 -8.27072405E-04 -4.40175799E-04 -1.60018323E-04  0.00000000E+00  0.00000000E+00
  1.77706310E-04  2.47903493E-04  0.00000000E+00  5.52321358E-05  1.06705329E-05
  0.00000000E+00  0.00000000E+00 -1.71740957E-05 -2.42694796E-05  0.00000000E+00
  1.23991942E-04  4.65665104E-05  0.00000000E+00  0.00000000E+00 -1.60552802E-04
 -1.52813856E-04  4.62530759E-04  2.58418351E-03  4.16327428E-04 -3.97413869E-06
 -2.36744216E-04 -1.13709429E-04  0.00000000E+00 -1.04448126E-03 -8.96748244E-04
  0.00000000E+00 -1.11370800E-04 -4.33971026E-04  0.00000000E+00  1.07327338E-06
  0.00000000E+00  0.00000000E+00 -3.71263179E-05 -3.93158245E-05 -1.58448988E-04
  0.00000000E+00  0.00000000E+00  1.68861305E-04  4.20226216E-04  9.76757016E-01
 -9.26723786E-03  4.35504468E-02  7.43225882E-04 -9.60798557E-04  4.12959137E-04
  1.84194095E-03  0.00000000E+00 -2.42179823E-04 -1.85171324E-03  0.00000000E+00
 -1.57154677E-03  3.03551795E-04  0.00000000E+00 -6.67066768E-05  2.48243101E-05
  0.00000000E+00 -3.97004752E-05  0.00000000E+00  0.00000000E+00  3.41399838E-05
  4.32537390E-05  6.59040499E-04  0.00000000E+00  0.00000000E+00 -3.16539684E-04
  2.35730527E-04 -8.37452531E-05  0.00000000E+00  0.00000000E+00 -2.90045700E-04
 -3.90556007E-04  0.00000000E+00 -2.78961603E-05  4.70240024E-05  0.00000000E+00
  0.00000000E+00 -1.38484902E-05 -8.11609588E-06  0.00000000E+00  9.33478215E-05
  5.34231200E-05  0.00000000E+00  0.00000000E+00 -2.23552691E-04 -2.29399981E-04
  5.97004107E-05  1.62974074E-04 -3.19217449E-04 -3.94468304E-04  8.71357834E-04
 -8.36079802E-05  7.72196088E-05  0.00000000E+00  7.12284975E-04 -6.53090892E-04
  0.00000000E+00 -4.20250911E-04  5.63437855E-04  0.00000000E+00  1.66424513E-04
 -1.76872381E-04  0.00000000E+00 -3.47661460E-05  0.00000000E+00  0.00000000E+00
 -3.44795294E-05 -4.96978779E-05 -3.98236370E-04  0.00000000E+00  0.00000000E+00
 -1.66221694E-04 -9.29804958E-04 -1.86516632E-04  0.00000000E+00  0.00000000E+00
  5.56384503E-04 -5.75201994E-05  0.00000000E+00 -8.72526194E-05  9.87370937E-05
  0.00000000E+00  0.00000000E+00 -1.47400075E-04 -5.75989896E-05  0.00000000E+00
 -5.06815056E-05  1.19267507E-04  0.00000000E+00  0.00000000E+00 -4.27872099E-04
  2.37998517E-05  8.57479443E-04  4.70036763E-05  2.15554218E-05 -2.80621036E-04
 -1.83709643E-04 -1.52542669E-05  2.21695566E-05  0.00000000E+00  1.12780888E-04
 -1.26722466E-04  0.00000000E+00  4.23095734E-04 -4.36134203E-04  0.00000000E+00
 -5.72944520E-06  4.04558403E-06  0.00000000E+00 -5.41474372E-06  0.00000000E+00
  0.00000000E+00 -1.32377412E-05 -1.07562977E-05  1.23032095E-06  0.00000000E+00
  0.00000000E+00  1.41586049E-04 -3.27660368E-05 -6.69877661E-05  0.00000000E+00
  0.00000000E+00  2.62123704E-04 -1.94601270E-05  0.00000000E+00  2.95296730E-06
  9.91623213E-06  0.00000000E+00  0.00000000E+00 -1.29527730E-05 -9.91905852E-06
  0.00000000E+00  1.22605570E-05 -5.06943102E-05  0.00000000E+00  0.00000000E+00
  1.17291376E-04  7.52323705E-05 -7.37508107E-05 -5.01755524E-04 -3.32978402E-04
  2.05692781E-04  3.56027515E-05  3.46461247E-05  0.00000000E+00  4.82894659E-04
 -3.37638505E-04  0.00000000E+00  3.15655150E-04 -3.24686941E-04  0.00000000E+00
 -1.21464087E-05  0.00000000E+00  0.00000000E+00 -4.07275414E-05  2.97506831E-05
  1.13361730E-04  0.00000000E+00  0.00000000E+00 -3.97401232E-05  1.77653134E-04
 -1.26146181E-04 -2.10157390E-04 -2.08019749E-04  4.96510541E-03  3.24393755E-03
  9.22970189E-06 -4.07834774E-05  0.00000000E+00 -5.21845717E-04  8.56224349E-04
  0.00000000E+00 -2.38883379E-03  3.08255512E-03  0.00000000E+00 -8.25528618E-04
  5.62824687E-04  0.00000000E+00  1.68879452E-07  0.00000000E+00  0.00000000E+00
 -3.09618939E-05 -4.37382156E-05 -4.46634178E-04  0.00000000E+00  0.00000000E+00
 -3.90674979E-05 -5.24283878E-04 -6.05604823E-04  0.00000000E+00  0.00000000E+00
 -3.02105648E-04 -9.34544621E-04  0.00000000E+00  1.87629956E-05 -2.12495568E-05
  0.00000000E+00  0.00000000E+00  3.93199250E-05  3.24282044E-05  0.00000000E+00
  9.37625163E-05 -1.44883830E-04  0.00000000E+00  0.00000000E+00  2.26954303E-05
  2.30872741E-04  9.78281203E-01 -8.39925670E-03  4.17864759E-02 -5.49567806E-03
 -3.04391316E-03 -1.09979957E-03 -3.03764708E-03  0.00000000E+00 -9.67479739E-05
  2.98064864E-03  0.00000000E+00  4.47534226E-04  3.07209339E-03  0.00000000E+00
 -3.46683894E-05  5.43271136E-04  0.00000000E+00 -4.39560705E-04  0.00000000E+00
  0.00000000E+00  2.40075764E-04  2.29238074E-04  1.03089686E-03  0.00000000E+00
  0.00000000E+00 -1.73383333E-04  3.01503615E-04  3.61099378E-04  0.00000000E+00
  0.00000000E+00  1.19366354E-04  4.71286124E-05  0.00000000E+00  9.00708220E-05
 -6.88572542E-05  0.00000000E+00  0.00000000E+00 -6.04543434E-05 -1.03187356E-05
  0.00000000E+00 -2.26231281E-04 -2.28231946E-04  0.00000000E+00  0.00000000E+00
  4.60760016E-04  2.56255643E-04 -1.89043047E-04  9.20527264E-04  1.57583115E-04
  3.02733575E-03  8.86402137E-04  2.62191633E-04  1.23403317E-04  0.00000000E+00
  8.76974544E-04  2.74420075E-04  0.00000000E+00  1.23514411E-03 -1.39687320E-04
  0.00000000E+00  5.44948345E-06  3.85457939E-05  0.00000000E+00 -3.97504887E-05
  0.00000000E+00  0.00000000E+00  7.19437414E-05  8.42893325E-05  7.36599909E-05
  0.00000000E+00  0.00000000E+00 -1.27331751E-06 -2.72938272E-04 -3.61863350E-05
  0.00000000E+00  0.00000000E+00  2.86283939E-04 -1.38187895E-04  0.00000000E+00
  9.23771880E-05  3.65159318E-05  0.00000000E+00  0.00000000E+00 -5.47893887E-05
 -1.12275965E-04  0.00000000E+00  1.58471954E-04  1.24047958E-04  0.00000000E+00
  0.00000000E+00  2.39242003E-05 -3.54999197E-04  2.07540192E-02  1.68658401E-02
 -1.45356743E-03  4.70478228E-04 -3.17281514E-03 -8.71349229E-04  0.00000000E+00
 -2.54299727E-03 -1.05400276E-03  0.00000000E+00  2.31874135E-03  1.47766900E-04
  0.00000000E+00 -2.27626136E-04  0.00000000E+00  0.00000000E+00  3.93440083E-04
  2.70969376E-04  2.63637894E-04  0.00000000E+00  0.00000000E+00  3.51782492E-04
  5.65292945E-04 -6.60752390E-02  1.60119290E-01  4.26604526E-02  9.25510972E-02
  7.69250426E-03 -1.52190601E-02  2.33469544E-02  0.00000000E+00 -2.03702451E-02
  3.36192778E-02  0.00000000E+00 -1.18341998E-02  1.06881627E-02  0.00000000E+00
 -2.04823114E-03 -1.82871650E-03  0.00000000E+00 -1.81747689E-03  0.00000000E+00
  0.00000000E+00  7.75378200E-05 -1.82706416E-03 -4.11615902E-03  0.00000000E+00
  0.00000000E+00  7.86191813E-04 -4.29893411E-03  1.00939794E-03  0.00000000E+00
  0.00000000E+00  1.48497798E-04 -1.54508764E-03  0.00000000E+00  4.59584062E-04
 -8.82356897E-04  0.00000000E+00  0.00000000E+00  7.11998854E-04  1.30553185E-03
  0.00000000E+00 -2.62460739E-04  5.33527141E-04  0.00000000E+00  0.00000000E+00
 -2.68544990E-04  1.95499460E-04 -1.30112321E-01  3.07537537E-01  8.10027019E-02
  6.34205425E-02  4.52477922E-04 -7.36060192E-02 -4.70714357E-02  0.00000000E+00
 -7.71700490E-02 -6.48360283E-02  0.00000000E+00 -3.31909316E-03  8.90155652E-03
  0.00000000E+00 -4.29872573E-05  3.17603238E-03  0.00000000E+00 -9.29065950E-03
  0.00000000E+00  0.00000000E+00  8.52996070E-03  6.32642709E-03 -1.14669192E-02
  0.00000000E+00  0.00000000E+00  9.26263037E-03  6.00587019E-03  6.17958595E-03
  0.00000000E+00  0.00000000E+00 -1.69954318E-04  5.56299161E-04  0.00000000E+00
  2.49772649E-03  2.43198489E-03  0.00000000E+00  0.00000000E+00 -4.85500249E-03
 -5.46741003E-03  0.00000000E+00 -1.37683102E-03 -4.31348727E-04  0.00000000E+00
  0.00000000E+00  9.08872676E-04 -5.31539307E-05 -1.50278239E-01  3.59421352E-01
  9.63447879E-02  1.79426963E-01 -1.50610188E-02  7.98333544E-02  2.18767573E-02
  0.00000000E+00  1.01236773E-01  2.74554677E-02  0.00000000E+00  1.76054923E-02
  3.26815450E-03  0.00000000E+00 -8.59212702E-03 -2.40061912E-03  0.00000000E+00
 -5.16214361E-03  0.00000000E+00  0.00000000E+00  7.29627174E-03  4.46791651E-03
 -9.48147063E-03  0.00000000E+00  0.00000000E+00  1.50687149E-02  9.39323396E-03
  2.50746999E-03  0.00000000E+00  0.00000000E+00 -3.66041983E-03 -2.62405641E-03
  0.00000000E+00 -3.14852628E-03 -8.68000099E-04  0.00000000E+00  0.00000000E+00
  3.32941158E-03  3.61192403E-03  0.00000000E+00 -1.05514673E-04 -2.69547231E-04
  0.00000000E+00  0.00000000E+00  1.03256153E-03  1.90431828E-03  7.92596791E-02
  7.79521072E-02 -2.02591099E-02 -2.85056433E-03 -1.15913820E-02 -4.69442147E-03
  0.00000000E+00 -1.47704113E-02 -1.40915046E-03  0.00000000E+00  7.51223314E-03
  2.20929472E-03  0.00000000E+00 -1.30348914E-03  0.00000000E+00  0.00000000E+00
  2.21634872E-03  1.15186189E-03  3.19200273E-04  0.00000000E+00  0.00000000E+00
  2.26356575E-03 -1.28467527E-03 -1.81527688E-01  4.42364689E-01  1.20695587E-01
  2.58732698E-01  1.13518122E-02  1.52865802E-02  3.78476383E-02  0.00000000E+00