 Entering Gaussian System, Link 0=g16
 Input=hono_a2_m_10.gjf
 Output=hono_a2_m_10.log
 Initial command:
 /sw/contrib/gaussian/g16/B01/g16/l1.exe "/scr/Gau-10297.inp" -scrdir="/scr/"
 Entering Link 1 = /sw/contrib/gaussian/g16/B01/g16/l1.exe PID=     10298.
  
 Copyright (c) 1988-2017, Gaussian, Inc.  All Rights Reserved.
  
 This is part of the Gaussian(R) 16 program.  It is based on
 the Gaussian(R) 09 system (copyright 2009, Gaussian, Inc.),
 the Gaussian(R) 03 system (copyright 2003, Gaussian, Inc.),
 the Gaussian(R) 98 system (copyright 1998, Gaussian, Inc.),
 the Gaussian(R) 94 system (copyright 1995, Gaussian, Inc.),
 the Gaussian 92(TM) system (copyright 1992, Gaussian, Inc.),
 the Gaussian 90(TM) system (copyright 1990, Gaussian, Inc.),
 the Gaussian 88(TM) system (copyright 1988, Gaussian, Inc.),
 the Gaussian 86(TM) system (copyright 1986, Carnegie Mellon
 University), and the Gaussian 82(TM) system (copyright 1983,
 Carnegie Mellon University). Gaussian is a federally registered
 trademark of Gaussian, Inc.
  
 This software contains proprietary and confidential information,
 including trade secrets, belonging to Gaussian, Inc.
  
 This software is provided under written license and may be
 used, copied, transmitted, or stored only in accord with that
 written license.
  
 The following legend is applicable only to US Government
 contracts under FAR:
  
                    RESTRICTED RIGHTS LEGEND
  
 Use, reproduction and disclosure by the US Government is
 subject to restrictions as set forth in subparagraphs (a)
 and (c) of the Commercial Computer Software - Restricted
 Rights clause in FAR 52.227-19.
  
 Gaussian, Inc.
 340 Quinnipiac St., Bldg. 40, Wallingford CT 06492
  
  
 ---------------------------------------------------------------
 Warning -- This program may not be used in any manner that
 competes with the business of Gaussian, Inc. or will provide
 assistance to any competitor of Gaussian, Inc.  The licensee
 of this program is prohibited from giving any competitor of
 Gaussian, Inc. access to this program.  By using this program,
 the user acknowledges that Gaussian, Inc. is engaged in the
 business of creating and licensing software in the field of
 computational chemistry and represents and warrants to the
 licensee that it is not a competitor of Gaussian, Inc. and that
 it will not use this program in any manner prohibited above.
 ---------------------------------------------------------------
  

 Cite this work as:
 Gaussian 16, Revision B.01,
 M. J. Frisch, G. W. Trucks, H. B. Schlegel, G. E. Scuseria, 
 M. A. Robb, J. R. Cheeseman, G. Scalmani, V. Barone, 
 G. A. Petersson, H. Nakatsuji, X. Li, M. Caricato, A. V. Marenich, 
 J. Bloino, B. G. Janesko, R. Gomperts, B. Mennucci, H. P. Hratchian, 
 J. V. Ortiz, A. F. Izmaylov, J. L. Sonnenberg, D. Williams-Young, 
 F. Ding, F. Lipparini, F. Egidi, J. Goings, B. Peng, A. Petrone, 
 T. Henderson, D. Ranasinghe, V. G. Zakrzewski, J. Gao, N. Rega, 
 G. Zheng, W. Liang, M. Hada, M. Ehara, K. Toyota, R. Fukuda, 
 J. Hasegawa, M. Ishida, T. Nakajima, Y. Honda, O. Kitao, H. Nakai, 
 T. Vreven, K. Throssell, J. A. Montgomery, Jr., J. E. Peralta, 
 F. Ogliaro, M. J. Bearpark, J. J. Heyd, E. N. Brothers, K. N. Kudin, 
 V. N. Staroverov, T. A. Keith, R. Kobayashi, J. Normand, 
 K. Raghavachari, A. P. Rendell, J. C. Burant, S. S. Iyengar, 
 J. Tomasi, M. Cossi, J. M. Millam, M. Klene, C. Adamo, R. Cammi, 
 J. W. Ochterski, R. L. Martin, K. Morokuma, O. Farkas, 
 J. B. Foresman, and D. J. Fox, Gaussian, Inc., Wallingford CT, 2016.
 
 ******************************************
 Gaussian 16:  ES64L-G16RevB.01 20-Dec-2017
                31-Jan-2022 
 ******************************************
 %nproc=28
 Will use up to   28 processors via shared memory.
 %mem=120GB
 %chk=/gscratch/ilahie/mccoygrp/coire_hoono/hono/hono_a2_m_10.chk
 -------------------------------------
 #p SP mp2/aug-cc-pvtz density=current
 -------------------------------------
 1/30=1,38=1,172=1/1;
 2/12=2,17=6,18=5,40=1/2;
 3/5=16,6=1,7=10,11=9,25=1,30=1,71=1/1,2,3;
 4//1;
 5/5=2,38=5/2;
 8/6=4,10=1/1;
 9/15=1,16=-3/6;
 10/5=1,13=10/2;
 6/7=2,8=2,9=2,10=2,22=-1/1;
 99/5=1,9=1/99;
 Leave Link    1 at Mon Jan 31 11:40:13 2022, MaxMem= 16106127360 cpu:               2.8 elap:               0.1
 (Enter /sw/contrib/gaussian/g16/B01/g16/l101.exe)
 -----
 title
 -----
 Symbolic Z-matrix:
 Charge =  0 Multiplicity = 1
 H
 O                    1    r1
 N                    2    r2       1    a1
 O                    3    r3       2    a2       1    d1       0
       Variables:
  r1                    0.97026                  
  r2                    1.42776                  
  r3                    1.1768                   
  a1                  101.62779                  
  a2                  109.70859                  
  d1                  180.                       
 
 ITRead=  0  0  0  0
 MicOpt= -1 -1 -1 -1
 NAtoms=      4 NQM=        4 NQMF=       0 NMMI=      0 NMMIF=      0
                NMic=       0 NMicF=      0.
                    Isotopes and Nuclear Properties:
 (Nuclear quadrupole moments (NQMom) in fm**2, nuclear magnetic moments (NMagM)
  in nuclear magnetons)

  Atom         1           2           3           4
 IAtWgt=           1          16          14          16
 AtmWgt=   1.0078250  15.9949146  14.0030740  15.9949146
 NucSpn=           1           0           2           0
 AtZEff=  -0.0000000  -0.0000000  -0.0000000  -0.0000000
 NQMom=    0.0000000   0.0000000   2.0440000   0.0000000
 NMagM=    2.7928460   0.0000000   0.4037610   0.0000000
 AtZNuc=   1.0000000   8.0000000   7.0000000   8.0000000
 Leave Link  101 at Mon Jan 31 11:40:13 2022, MaxMem= 16106127360 cpu:               2.9 elap:               0.1
 (Enter /sw/contrib/gaussian/g16/B01/g16/l202.exe)
                          Input orientation:                          
 ---------------------------------------------------------------------
 Center     Atomic      Atomic             Coordinates (Angstroms)
 Number     Number       Type             X           Y           Z
 ---------------------------------------------------------------------
      1          1           0        0.000000    0.000000    0.000000
      2          8           0        0.000000    0.000000    0.970263
      3          7           0        1.398463    0.000000    1.258033
      4          8           0        1.563886    0.000000    2.423150
 ---------------------------------------------------------------------
                    Distance matrix (angstroms):
                    1          2          3          4
     1  H    0.000000
     2  O    0.970263   0.000000
     3  N    1.881049   1.427764   0.000000
     4  O    2.883990   2.134624   1.176802   0.000000
 Stoichiometry    HNO2
 Framework group  CS[SG(HNO2)]
 Deg. of freedom     5
 Full point group                 CS      NOp   2
 Largest Abelian subgroup         CS      NOp   2
 Largest concise Abelian subgroup C1      NOp   1
                         Standard orientation:                         
 ---------------------------------------------------------------------
 Center     Atomic      Atomic             Coordinates (Angstroms)
 Number     Number       Type             X           Y           Z
 ---------------------------------------------------------------------
      1          1           0        1.756851   -0.145068   -0.000000
      2          8           0        0.893027   -0.586902   -0.000000
      3          7           0        0.000000    0.527107   -0.000000
      4          8           0       -1.112633    0.143817    0.000000
 ---------------------------------------------------------------------
 Rotational constants (GHZ):          90.5980662          12.7054963          11.1428238
 Leave Link  202 at Mon Jan 31 11:40:13 2022, MaxMem= 16106127360 cpu:               1.1 elap:               0.1
 (Enter /sw/contrib/gaussian/g16/B01/g16/l301.exe)
 Standard basis: Aug-CC-pVTZ (5D, 7F)
 Ernie: Thresh=  0.10000D-02 Tol=  0.10000D-05 Strict=F.
 Ernie:  9 primitive shells out of 101 were deleted.
 There are   129 symmetry adapted cartesian basis functions of A'  symmetry.
 There are    61 symmetry adapted cartesian basis functions of A"  symmetry.
 There are   106 symmetry adapted basis functions of A'  symmetry.
 There are    55 symmetry adapted basis functions of A"  symmetry.
   161 basis functions,   243 primitive gaussians,   190 cartesian basis functions
    12 alpha electrons       12 beta electrons
       nuclear repulsion energy        69.6032366779 Hartrees.
 IExCor=    0 DFT=F Ex=HF Corr=None ExCW=0 ScaHFX=  1.000000
 ScaDFX=  1.000000  1.000000  1.000000  1.000000 ScalE2=  1.000000  1.000000
 IRadAn=      5 IRanWt=     -1 IRanGd=            0 ICorTp=0 IEmpDi=  4
 NAtoms=    4 NActive=    4 NUniq=    4 SFac= 1.00D+00 NAtFMM=   60 NAOKFM=F Big=F
 Integral buffers will be    131072 words long.
 Raffenetti 1 integral format.
 Two-electron integral symmetry is turned on.
 Leave Link  301 at Mon Jan 31 11:40:13 2022, MaxMem= 16106127360 cpu:               1.8 elap:               0.1
 (Enter /sw/contrib/gaussian/g16/B01/g16/l302.exe)
 NPDir=0 NMtPBC=     1 NCelOv=     1 NCel=       1 NClECP=     1 NCelD=      1
         NCelK=      1 NCelE2=     1 NClLst=     1 CellRange=     0.0.
 One-electron integrals computed using PRISM.
 One-electron integral symmetry used in STVInt
 NBasis=   161 RedAO= T EigKep=  1.98D-04  NBF=   106    55
 NBsUse=   161 1.00D-06 EigRej= -1.00D+00 NBFU=   106    55
 Leave Link  302 at Mon Jan 31 11:40:14 2022, MaxMem= 16106127360 cpu:               4.2 elap:               0.2
 (Enter /sw/contrib/gaussian/g16/B01/g16/l303.exe)
 DipDrv:  MaxL=1.
 Leave Link  303 at Mon Jan 31 11:40:14 2022, MaxMem= 16106127360 cpu:               1.1 elap:               0.1
 (Enter /sw/contrib/gaussian/g16/B01/g16/l401.exe)
 ExpMin= 2.53D-02 ExpMax= 1.53D+04 ExpMxC= 5.22D+02 IAcc=3 IRadAn=         5 AccDes= 0.00D+00
 Harris functional with IExCor=  205 and IRadAn=       5 diagonalized for initial guess.
 HarFok:  IExCor=  205 AccDes= 0.00D+00 IRadAn=         5 IDoV= 1 UseB2=F ITyADJ=14
 ICtDFT=  3500011 ScaDFX=  1.000000  1.000000  1.000000  1.000000
 FoFCou: FMM=F IPFlag=           0 FMFlag=      100000 FMFlg1=           0
         NFxFlg=           0 DoJE=T BraDBF=F KetDBF=T FulRan=T
         wScrn=  0.000000 ICntrl=       500 IOpCl=  0 I1Cent=   200000004 NGrid=           0
         NMat0=    1 NMatS0=      1 NMatT0=    0 NMatD0=    1 NMtDS0=    0 NMtDT0=    0
 Petite list used in FoFCou.
 Harris En= -204.818476348504    
 JPrj=0 DoOrth=F DoCkMO=F.
 Initial guess orbital symmetries:
       Occupied  (A') (A') (A') (A') (A') (A') (A') (A') (A") (A')
                 (A") (A')
       Virtual   (A") (A') (A') (A') (A') (A") (A') (A') (A') (A")
                 (A') (A") (A') (A') (A") (A') (A') (A') (A') (A')
                 (A") (A') (A") (A') (A') (A') (A") (A") (A') (A')
                 (A") (A') (A') (A") (A") (A') (A') (A') (A") (A')
                 (A') (A') (A") (A') (A") (A') (A') (A") (A') (A')
                 (A") (A') (A") (A') (A') (A") (A') (A") (A') (A")
                 (A') (A') (A") (A') (A') (A') (A") (A') (A") (A")
                 (A') (A') (A') (A") (A") (A') (A') (A') (A") (A")
                 (A') (A') (A') (A") (A') (A') (A") (A") (A') (A')
                 (A') (A') (A") (A') (A') (A") (A') (A") (A') (A")
                 (A") (A') (A') (A') (A') (A") (A') (A") (A') (A")
                 (A') (A') (A") (A') (A") (A') (A') (A") (A') (A')
                 (A') (A') (A") (A') (A") (A") (A') (A') (A") (A')
                 (A") (A") (A') (A") (A') (A") (A') (A") (A") (A')
                 (A') (A') (A') (A') (A') (A') (A') (A') (A')
 The electronic state of the initial guess is 1-A'.
 Leave Link  401 at Mon Jan 31 11:40:14 2022, MaxMem= 16106127360 cpu:               8.8 elap:               0.4
 (Enter /sw/contrib/gaussian/g16/B01/g16/l502.exe)
 Keep R1 ints in memory in symmetry-blocked form, NReq=128070121.
 FoFCou: FMM=F IPFlag=           0 FMFlag=           0 FMFlg1=           0
         NFxFlg=           0 DoJE=F BraDBF=F KetDBF=F FulRan=T
         wScrn=  0.000000 ICntrl=       600 IOpCl=  0 I1Cent=           0 NGrid=           0
         NMat0=    1 NMatS0=  13041 NMatT0=    0 NMatD0=    1 NMtDS0=    0 NMtDT0=    0
 Petite list used in FoFCou.
 Closed shell SCF:
 Using DIIS extrapolation, IDIIS=  1040.
 NGot= 16106127360 LenX= 16063019402 LenY= 16062982861
 Requested convergence on RMS density matrix=1.00D-08 within 128 cycles.
 Requested convergence on MAX density matrix=1.00D-06.
 Requested convergence on             energy=1.00D-06.
 No special actions if energy rises.

 Cycle   1  Pass 1  IDiag  1:
 E= -204.612908359604    
 DIIS: error= 3.32D-02 at cycle   1 NSaved=   1.
 NSaved= 1 IEnMin= 1 EnMin= -204.612908359604     IErMin= 1 ErrMin= 3.32D-02
 ErrMax= 3.32D-02  0.00D+00 EMaxC= 1.00D-01 BMatC= 3.56D-01 BMatP= 3.56D-01
 IDIUse=3 WtCom= 6.68D-01 WtEn= 3.32D-01
 Coeff-Com:  0.100D+01
 Coeff-En:   0.100D+01
 Coeff:      0.100D+01
 Gap=     0.509 Goal=   None    Shift=    0.000
 GapD=    0.509 DampG=2.000 DampE=0.500 DampFc=1.0000 IDamp=-1.
 RMSDP=2.06D-03 MaxDP=1.23D-01              OVMax= 1.03D-01

 Cycle   2  Pass 1  IDiag  1:
 E= -204.677590573851     Delta-E=       -0.064682214247 Rises=F Damp=F
 DIIS: error= 2.10D-02 at cycle   2 NSaved=   2.
 NSaved= 2 IEnMin= 2 EnMin= -204.677590573851     IErMin= 2 ErrMin= 2.10D-02
 ErrMax= 2.10D-02  0.00D+00 EMaxC= 1.00D-01 BMatC= 6.96D-02 BMatP= 3.56D-01
 IDIUse=3 WtCom= 7.90D-01 WtEn= 2.10D-01
 Coeff-Com:  0.237D+00 0.763D+00
 Coeff-En:   0.118D+00 0.882D+00
 Coeff:      0.212D+00 0.788D+00
 Gap=     0.513 Goal=   None    Shift=    0.000
 RMSDP=1.00D-03 MaxDP=3.63D-02 DE=-6.47D-02 OVMax= 8.87D-02

 Cycle   3  Pass 1  IDiag  1:
 E= -204.712593843283     Delta-E=       -0.035003269432 Rises=F Damp=F
 DIIS: error= 7.46D-03 at cycle   3 NSaved=   3.
 NSaved= 3 IEnMin= 3 EnMin= -204.712593843283     IErMin= 3 ErrMin= 7.46D-03
 ErrMax= 7.46D-03  0.00D+00 EMaxC= 1.00D-01 BMatC= 1.53D-02 BMatP= 6.96D-02
 IDIUse=3 WtCom= 9.25D-01 WtEn= 7.46D-02
 Coeff-Com: -0.363D-01 0.300D+00 0.736D+00
 Coeff-En:   0.000D+00 0.799D-01 0.920D+00
 Coeff:     -0.336D-01 0.284D+00 0.750D+00
 Gap=     0.495 Goal=   None    Shift=    0.000
 RMSDP=4.08D-04 MaxDP=2.25D-02 DE=-3.50D-02 OVMax= 2.66D-02

 Cycle   4  Pass 1  IDiag  1:
 E= -204.722773278177     Delta-E=       -0.010179434894 Rises=F Damp=F
 DIIS: error= 1.56D-03 at cycle   4 NSaved=   4.
 NSaved= 4 IEnMin= 4 EnMin= -204.722773278177     IErMin= 4 ErrMin= 1.56D-03
 ErrMax= 1.56D-03  0.00D+00 EMaxC= 1.00D-01 BMatC= 2.50D-04 BMatP= 1.53D-02
 IDIUse=3 WtCom= 9.84D-01 WtEn= 1.56D-02
 Coeff-Com: -0.757D-02 0.232D-01 0.123D+00 0.862D+00
 Coeff-En:   0.000D+00 0.000D+00 0.000D+00 0.100D+01
 Coeff:     -0.745D-02 0.228D-01 0.121D+00 0.864D+00
 Gap=     0.490 Goal=   None    Shift=    0.000
 RMSDP=8.31D-05 MaxDP=1.84D-03 DE=-1.02D-02 OVMax= 8.16D-03

 Cycle   5  Pass 1  IDiag  1:
 E= -204.723143705326     Delta-E=       -0.000370427149 Rises=F Damp=F
 DIIS: error= 1.04D-03 at cycle   5 NSaved=   5.
 NSaved= 5 IEnMin= 5 EnMin= -204.723143705326     IErMin= 5 ErrMin= 1.04D-03
 ErrMax= 1.04D-03  0.00D+00 EMaxC= 1.00D-01 BMatC= 6.23D-05 BMatP= 2.50D-04
 IDIUse=3 WtCom= 9.90D-01 WtEn= 1.04D-02
 Coeff-Com:  0.706D-02-0.718D-01-0.155D+00 0.215D+00 0.100D+01
 Coeff-En:   0.000D+00 0.000D+00 0.000D+00 0.000D+00 0.100D+01
 Coeff:      0.699D-02-0.710D-01-0.154D+00 0.213D+00 0.100D+01
 Gap=     0.490 Goal=   None    Shift=    0.000
 RMSDP=6.77D-05 MaxDP=1.65D-03 DE=-3.70D-04 OVMax= 8.96D-03

 Cycle   6  Pass 1  IDiag  1:
 E= -204.723317368165     Delta-E=       -0.000173662839 Rises=F Damp=F
 DIIS: error= 2.30D-04 at cycle   6 NSaved=   6.
 NSaved= 6 IEnMin= 6 EnMin= -204.723317368165     IErMin= 6 ErrMin= 2.30D-04
 ErrMax= 2.30D-04  0.00D+00 EMaxC= 1.00D-01 BMatC= 1.13D-05 BMatP= 6.23D-05
 IDIUse=3 WtCom= 9.98D-01 WtEn= 2.30D-03
 Coeff-Com:  0.539D-03 0.129D-02-0.202D-02-0.206D+00-0.740D-02 0.121D+01
 Coeff-En:   0.000D+00 0.000D+00 0.000D+00 0.000D+00 0.000D+00 0.100D+01
 Coeff:      0.538D-03 0.129D-02-0.202D-02-0.205D+00-0.738D-02 0.121D+01
 Gap=     0.491 Goal=   None    Shift=    0.000
 RMSDP=3.80D-05 MaxDP=7.13D-04 DE=-1.74D-04 OVMax= 4.08D-03

 Cycle   7  Pass 1  IDiag  1:
 E= -204.723356107584     Delta-E=       -0.000038739419 Rises=F Damp=F
 DIIS: error= 1.16D-04 at cycle   7 NSaved=   7.
 NSaved= 7 IEnMin= 7 EnMin= -204.723356107584     IErMin= 7 ErrMin= 1.16D-04
 ErrMax= 1.16D-04  0.00D+00 EMaxC= 1.00D-01 BMatC= 1.76D-06 BMatP= 1.13D-05
 IDIUse=3 WtCom= 9.99D-01 WtEn= 1.16D-03
 Coeff-Com: -0.123D-02 0.124D-01 0.314D-01-0.488D-01-0.136D+00-0.766D-01
 Coeff-Com:  0.122D+01
 Coeff-En:   0.000D+00 0.000D+00 0.000D+00 0.000D+00 0.000D+00 0.000D+00
 Coeff-En:   0.100D+01
 Coeff:     -0.122D-02 0.124D-01 0.314D-01-0.487D-01-0.135D+00-0.765D-01
 Coeff:      0.122D+01
 Gap=     0.491 Goal=   None    Shift=    0.000
 RMSDP=1.50D-05 MaxDP=3.23D-04 DE=-3.87D-05 OVMax= 1.78D-03

 Cycle   8  Pass 1  IDiag  1:
 E= -204.723361591729     Delta-E=       -0.000005484145 Rises=F Damp=F
 DIIS: error= 4.33D-05 at cycle   8 NSaved=   8.
 NSaved= 8 IEnMin= 8 EnMin= -204.723361591729     IErMin= 8 ErrMin= 4.33D-05
 ErrMax= 4.33D-05  0.00D+00 EMaxC= 1.00D-01 BMatC= 1.86D-07 BMatP= 1.76D-06
 IDIUse=1 WtCom= 1.00D+00 WtEn= 0.00D+00
 Coeff-Com: -0.359D-04-0.796D-03-0.627D-03 0.202D-01 0.247D-01-0.152D+00
 Coeff-Com: -0.132D+00 0.124D+01
 Coeff:     -0.359D-04-0.796D-03-0.627D-03 0.202D-01 0.247D-01-0.152D+00
 Coeff:     -0.132D+00 0.124D+01
 Gap=     0.491 Goal=   None    Shift=    0.000
 RMSDP=4.90D-06 MaxDP=9.95D-05 DE=-5.48D-06 OVMax= 4.77D-04

 Cycle   9  Pass 1  IDiag  1:
 E= -204.723362131136     Delta-E=       -0.000000539408 Rises=F Damp=F
 DIIS: error= 1.12D-05 at cycle   9 NSaved=   9.
 NSaved= 9 IEnMin= 9 EnMin= -204.723362131136     IErMin= 9 ErrMin= 1.12D-05
 ErrMax= 1.12D-05  0.00D+00 EMaxC= 1.00D-01 BMatC= 1.55D-08 BMatP= 1.86D-07
 IDIUse=1 WtCom= 1.00D+00 WtEn= 0.00D+00
 Coeff-Com:  0.106D-03-0.983D-03-0.241D-02-0.136D-02 0.120D-01 0.385D-01
 Coeff-Com: -0.865D-01-0.280D+00 0.132D+01
 Coeff:      0.106D-03-0.983D-03-0.241D-02-0.136D-02 0.120D-01 0.385D-01
 Coeff:     -0.865D-01-0.280D+00 0.132D+01
 Gap=     0.491 Goal=   None    Shift=    0.000
 RMSDP=1.27D-06 MaxDP=3.39D-05 DE=-5.39D-07 OVMax= 9.81D-05

 Cycle  10  Pass 1  IDiag  1:
 E= -204.723362172798     Delta-E=       -0.000000041662 Rises=F Damp=F
 DIIS: error= 2.74D-06 at cycle  10 NSaved=  10.
 NSaved=10 IEnMin=10 EnMin= -204.723362172798     IErMin=10 ErrMin= 2.74D-06
 ErrMax= 2.74D-06  0.00D+00 EMaxC= 1.00D-01 BMatC= 1.29D-09 BMatP= 1.55D-08
 IDIUse=1 WtCom= 1.00D+00 WtEn= 0.00D+00
 Coeff-Com: -0.264D-04 0.318D-03 0.798D-03-0.203D-02-0.449D-02 0.198D-02
 Coeff-Com:  0.379D-01-0.512D-01-0.283D+00 0.130D+01
 Coeff:     -0.264D-04 0.318D-03 0.798D-03-0.203D-02-0.449D-02 0.198D-02
 Coeff:      0.379D-01-0.512D-01-0.283D+00 0.130D+01
 Gap=     0.491 Goal=   None    Shift=    0.000
 RMSDP=3.34D-07 MaxDP=1.14D-05 DE=-4.17D-08 OVMax= 3.07D-05

 Cycle  11  Pass 1  IDiag  1:
 E= -204.723362176267     Delta-E=       -0.000000003468 Rises=F Damp=F
 DIIS: error= 1.13D-06 at cycle  11 NSaved=  11.
 NSaved=11 IEnMin=11 EnMin= -204.723362176267     IErMin=11 ErrMin= 1.13D-06
 ErrMax= 1.13D-06  0.00D+00 EMaxC= 1.00D-01 BMatC= 1.19D-10 BMatP= 1.29D-09
 IDIUse=1 WtCom= 1.00D+00 WtEn= 0.00D+00
 Coeff-Com: -0.417D-06-0.190D-04-0.459D-04 0.547D-03 0.106D-02-0.464D-02
 Coeff-Com: -0.544D-02 0.449D-01-0.196D-01-0.479D+00 0.146D+01
 Coeff:     -0.417D-06-0.190D-04-0.459D-04 0.547D-03 0.106D-02-0.464D-02
 Coeff:     -0.544D-02 0.449D-01-0.196D-01-0.479D+00 0.146D+01
 Gap=     0.491 Goal=   None    Shift=    0.000
 RMSDP=1.12D-07 MaxDP=4.11D-06 DE=-3.47D-09 OVMax= 1.11D-05

 Cycle  12  Pass 1  IDiag  1:
 E= -204.723362176642     Delta-E=       -0.000000000376 Rises=F Damp=F
 DIIS: error= 1.85D-07 at cycle  12 NSaved=  12.
 NSaved=12 IEnMin=12 EnMin= -204.723362176642     IErMin=12 ErrMin= 1.85D-07
 ErrMax= 1.85D-07  0.00D+00 EMaxC= 1.00D-01 BMatC= 6.79D-12 BMatP= 1.19D-10
 IDIUse=1 WtCom= 1.00D+00 WtEn= 0.00D+00
 Coeff-Com:  0.240D-05-0.229D-04-0.557D-04-0.586D-04 0.151D-03 0.159D-02
 Coeff-Com: -0.206D-02-0.121D-01 0.386D-01 0.376D-01-0.469D+00 0.141D+01
 Coeff:      0.240D-05-0.229D-04-0.557D-04-0.586D-04 0.151D-03 0.159D-02
 Coeff:     -0.206D-02-0.121D-01 0.386D-01 0.376D-01-0.469D+00 0.141D+01
 Gap=     0.491 Goal=   None    Shift=    0.000
 RMSDP=3.12D-08 MaxDP=7.20D-07 DE=-3.76D-10 OVMax= 2.58D-06

 Cycle  13  Pass 1  IDiag  1:
 E= -204.723362176665     Delta-E=       -0.000000000023 Rises=F Damp=F
 DIIS: error= 4.43D-08 at cycle  13 NSaved=  13.
 NSaved=13 IEnMin=13 EnMin= -204.723362176665     IErMin=13 ErrMin= 4.43D-08
 ErrMax= 4.43D-08  0.00D+00 EMaxC= 1.00D-01 BMatC= 2.08D-13 BMatP= 6.79D-12
 IDIUse=1 WtCom= 1.00D+00 WtEn= 0.00D+00
 Coeff-Com: -0.440D-06 0.561D-05 0.136D-04-0.217D-04-0.880D-04-0.521D-04
 Coeff-Com:  0.746D-03-0.284D-03-0.519D-02 0.126D-01 0.243D-01-0.294D+00
 Coeff-Com:  0.126D+01
 Coeff:     -0.440D-06 0.561D-05 0.136D-04-0.217D-04-0.880D-04-0.521D-04
 Coeff:      0.746D-03-0.284D-03-0.519D-02 0.126D-01 0.243D-01-0.294D+00
 Coeff:      0.126D+01
 Gap=     0.491 Goal=   None    Shift=    0.000
 RMSDP=5.43D-09 MaxDP=9.26D-08 DE=-2.25D-11 OVMax= 4.19D-07

 SCF Done:  E(RHF) =  -204.723362177     A.U. after   13 cycles
            NFock= 13  Conv=0.54D-08     -V/T= 2.0023
 KE= 2.042470462095D+02 PE=-6.231618299963D+02 EE= 1.445881849322D+02
 Leave Link  502 at Mon Jan 31 11:40:16 2022, MaxMem= 16106127360 cpu:              34.5 elap:               1.7
 (Enter /sw/contrib/gaussian/g16/B01/g16/l801.exe)
 ExpMin= 2.53D-02 ExpMax= 1.53D+04 ExpMxC= 5.22D+02 IAcc=3 IRadAn=         5 AccDes= 0.00D+00
 HarFok:  IExCor=  205 AccDes= 0.00D+00 IRadAn=         5 IDoV=-2 UseB2=F ITyADJ=14
 ICtDFT= 12500011 ScaDFX=  1.000000  1.000000  1.000000  1.000000
 Largest valence mixing into a core orbital is  2.06D-04
 Largest core mixing into a valence orbital is  3.31D-05
 Range of M.O.s used for correlation:     4   161
 NBasis=   161 NAE=    12 NBE=    12 NFC=     3 NFV=     0
 NROrb=    158 NOA=     9 NOB=     9 NVA=   149 NVB=   149

 **** Warning!!: The largest alpha MO coefficient is  0.19411095D+02

 Leave Link  801 at Mon Jan 31 11:40:16 2022, MaxMem= 16106127360 cpu:               2.4 elap:               0.1
 (Enter /sw/contrib/gaussian/g16/B01/g16/l906.exe)
 Frozen-core derivative calculation, NFC=   3 NFV=   0.
 FulOut=F Deriv=T AODrv=F NAtomX=     4
   MMem=         161  MDisk=           9 MDiskD=           9
  W3Min=      367080 MinDsk=      792425 NBas6D=         190
 NBas2D=       18625    NTT=       18145    LW2=     3500000
    MDV= 16105788715 MDiskM=      423783 NBas2p=       18621
 Fully in-core method, ICMem=   359292905.
 IMap=   1   2   3   4   5   6   7   8   9  10  11  12
 JobTyp=1 Pass  1 fully in-core, NPsUse= 28.
 Compute canonical integrals.
 FoFCou: FMM=F IPFlag=           0 FMFlag=           0 FMFlg1=           0
         NFxFlg=           0 DoJE=F BraDBF=F KetDBF=F FulRan=T
         wScrn=  0.000000 ICntrl=       600 IOpCl=  1 I1Cent=           0 NGrid=           0
         NMat0=    1 NMatS0=  18625 NMatT0=    0 NMatD0=    1 NMtDS0=    0 NMtDT0=    0
 Symmetry not used in FoFCou.
 Spin components of T(2) and E(2):
     alpha-alpha T2 =       0.2530007289D-01 E2=     -0.9064430659D-01
     alpha-beta  T2 =       0.1374496107D+00 E2=     -0.5166222025D+00
     beta-beta   T2 =       0.2530007289D-01 E2=     -0.9064430659D-01
 The integrals were generated   1 times.
 ANorm=    0.1089976952D+01
 E2 =    -0.6979108157D+00 EUMP2 =    -0.20542127299235D+03
 Leave Link  906 at Mon Jan 31 11:40:19 2022, MaxMem= 16106127360 cpu:              85.5 elap:               3.1
 (Enter /sw/contrib/gaussian/g16/B01/g16/l1002.exe)
 Minotr:  Closed shell wavefunction.
          Computing MP2/KS-MP2 derivatives.
          Using Z-Vector for PSCF gradient.
          Skipping F1 and S1 gradient terms here.
          Frozen-core window.
          Direct CPHF calculation.
          Differentiating once with respect to electric field.
                with respect to dipole field.
          Electric field/nuclear overlap derivatives assumed to be zero.
          Using symmetry in CPHF.
          Requested convergence is 1.0D-10 RMS, and 1.0D-09 maximum.
          NewPWx=F KeepS1=T KeepF1=T KeepIn=T MapXYZ=F SortEE=F KeepMc=T.
 Keep R1 ints in memory in symmetry-blocked form, NReq=128071053.
 FoFCou: FMM=F IPFlag=           0 FMFlag=           0 FMFlg1=           0
         NFxFlg=           0 DoJE=F BraDBF=F KetDBF=F FulRan=T
         wScrn=  0.000000 ICntrl=       600 IOpCl=  0 I1Cent=           0 NGrid=           0
         NMat0=    1 NMatS0=  13041 NMatT0=    0 NMatD0=    1 NMtDS0=    0 NMtDT0=    0
 Petite list used in FoFCou.
          MDV=   16106127360 using IRadAn=       5.
          Solving linear equations separately, MaxMat=       0.
          There are     1 degrees of freedom in the 1st order CPHF.  IDoFFX=0 NUNeed=     1.
 LinEq1:  Iter=  0 NonCon=     1 RMS=6.61D-03 Max=1.31D-01 NDo=     1
 AX will form     1 AO Fock derivatives at one time.
 LinEq1:  Iter=  1 NonCon=     1 RMS=2.25D-03 Max=4.06D-02 NDo=     1
 LinEq1:  Iter=  2 NonCon=     1 RMS=9.13D-04 Max=1.18D-02 NDo=     1
 LinEq1:  Iter=  3 NonCon=     1 RMS=4.39D-04 Max=8.62D-03 NDo=     1
 LinEq1:  Iter=  4 NonCon=     1 RMS=1.36D-04 Max=1.52D-03 NDo=     1
 LinEq1:  Iter=  5 NonCon=     1 RMS=6.04D-05 Max=9.78D-04 NDo=     1
 LinEq1:  Iter=  6 NonCon=     1 RMS=2.31D-05 Max=2.69D-04 NDo=     1
 LinEq1:  Iter=  7 NonCon=     1 RMS=5.94D-06 Max=6.27D-05 NDo=     1
 LinEq1:  Iter=  8 NonCon=     1 RMS=1.43D-06 Max=1.66D-05 NDo=     1
 LinEq1:  Iter=  9 NonCon=     1 RMS=2.65D-07 Max=1.89D-06 NDo=     1
 LinEq1:  Iter= 10 NonCon=     1 RMS=4.91D-08 Max=3.97D-07 NDo=     1
 LinEq1:  Iter= 11 NonCon=     1 RMS=7.95D-09 Max=8.34D-08 NDo=     1
 LinEq1:  Iter= 12 NonCon=     1 RMS=1.07D-09 Max=7.27D-09 NDo=     1
 LinEq1:  Iter= 13 NonCon=     1 RMS=2.25D-10 Max=2.24D-09 NDo=     1
 LinEq1:  Iter= 14 NonCon=     0 RMS=4.30D-11 Max=3.57D-10 NDo=     1
 Linear equations converged to 1.000D-10 1.000D-09 after    14 iterations.
 End of Minotr F.D. properties file   721 does not exist.
 End of Minotr F.D. properties file   722 does not exist.
 End of Minotr F.D. properties file   788 does not exist.
 Leave Link 1002 at Mon Jan 31 11:40:21 2022, MaxMem= 16106127360 cpu:              33.4 elap:               1.8
 (Enter /sw/contrib/gaussian/g16/B01/g16/l601.exe)
 Copying SCF densities to generalized density rwf, IOpCl= 0 IROHF=0.

 **********************************************************************

            Population analysis using the MP2 Density.

 **********************************************************************

 Orbital symmetries:
       Occupied  (A') (A') (A') (A') (A') (A') (A') (A') (A") (A')
                 (A") (A')
       Virtual   (A') (A") (A') (A') (A") (A') (A') (A') (A") (A')
                 (A") (A') (A') (A") (A') (A') (A') (A') (A') (A")
                 (A') (A') (A") (A') (A') (A') (A") (A") (A') (A')
                 (A') (A") (A') (A") (A") (A') (A') (A") (A') (A')
                 (A') (A') (A') (A") (A") (A') (A') (A") (A') (A')
                 (A") (A') (A") (A') (A') (A") (A') (A") (A') (A")
                 (A') (A') (A") (A') (A') (A") (A') (A') (A") (A")
                 (A') (A') (A') (A") (A') (A") (A') (A') (A") (A')
                 (A") (A') (A') (A") (A') (A") (A') (A") (A') (A')
                 (A') (A') (A') (A") (A') (A") (A') (A") (A') (A")
                 (A') (A") (A') (A') (A') (A") (A') (A") (A") (A')
                 (A') (A") (A') (A') (A") (A') (A') (A") (A') (A')
                 (A') (A') (A") (A') (A") (A") (A') (A') (A") (A')
                 (A") (A") (A') (A') (A") (A") (A') (A") (A") (A')
                 (A') (A') (A') (A') (A') (A') (A') (A') (A')
 The electronic state is 1-A'.
 Alpha  occ. eigenvalues --  -20.66476 -20.64174 -15.79892  -1.60350  -1.40142
 Alpha  occ. eigenvalues --   -0.94839  -0.78452  -0.72920  -0.68167  -0.62428
 Alpha  occ. eigenvalues --   -0.52787  -0.46295
 Alpha virt. eigenvalues --    0.02804   0.08008   0.09404   0.09748   0.12886
 Alpha virt. eigenvalues --    0.14378   0.15690   0.17200   0.18735   0.19652
 Alpha virt. eigenvalues --    0.20568   0.23366   0.25838   0.29672   0.30780
 Alpha virt. eigenvalues --    0.32969   0.36572   0.38265   0.42396   0.52554
 Alpha virt. eigenvalues --    0.52565   0.54770   0.57234   0.61431   0.63099
 Alpha virt. eigenvalues --    0.64964   0.68037   0.71358   0.71799   0.74819
 Alpha virt. eigenvalues --    0.77555   0.78173   0.81212   0.81244   0.86124
 Alpha virt. eigenvalues --    0.87793   0.92691   0.93958   0.94468   0.99560
 Alpha virt. eigenvalues --    1.04926   1.06369   1.08198   1.10787   1.15935
 Alpha virt. eigenvalues --    1.19497   1.25218   1.26682   1.36227   1.43916
 Alpha virt. eigenvalues --    1.49006   1.52173   1.52417   1.54527   1.55587
 Alpha virt. eigenvalues --    1.60970   1.65870   1.72981   1.75005   1.82392
 Alpha virt. eigenvalues --    1.85520   1.96258   1.97439   1.99754   2.07189
 Alpha virt. eigenvalues --    2.13136   2.13345   2.18673   2.27366   2.31094
 Alpha virt. eigenvalues --    2.33311   2.38168   2.45181   2.46685   2.50005
 Alpha virt. eigenvalues --    2.50132   2.52371   2.54391   2.57200   2.60705
 Alpha virt. eigenvalues --    2.61056   2.66722   2.76782   2.77494   2.83076
 Alpha virt. eigenvalues --    2.93901   2.95511   3.11301   3.14979   3.18113
 Alpha virt. eigenvalues --    3.25176   3.46126   3.83122   3.85460   4.03285
 Alpha virt. eigenvalues --    4.16965   4.18196   4.21292   4.36703   4.37570
 Alpha virt. eigenvalues --    4.57675   4.63173   4.74547   4.82086   4.87215
 Alpha virt. eigenvalues --    4.88740   4.97876   5.00241   5.07286   5.08415
 Alpha virt. eigenvalues --    5.16686   5.25055   5.26148   5.33154   5.37014
 Alpha virt. eigenvalues --    5.38755   5.58154   5.66838   5.79517   5.98962
 Alpha virt. eigenvalues --    6.12121   6.43491   6.50960   6.51292   6.67668
 Alpha virt. eigenvalues --    6.71884   6.74424   6.85329   6.91246   7.07057
 Alpha virt. eigenvalues --    7.12102   7.17918   7.23284   7.25540   7.25556
 Alpha virt. eigenvalues --    7.33152   7.37658   7.43379   7.47882   7.60892
 Alpha virt. eigenvalues --    7.64514   7.71136   7.78817   7.98326   8.07194
 Alpha virt. eigenvalues --    8.42652  14.22516  15.09220  15.99843
          Condensed to atoms (all electrons):
               1          2          3          4
     1  H    0.587411   0.172168  -0.043021   0.013012
     2  O    0.172168   8.293108  -0.133717  -0.061937
     3  N   -0.043021  -0.133717   7.036229  -0.039938
     4  O    0.013012  -0.061937  -0.039938   8.270119
 Mulliken charges:
               1
     1  H    0.270430
     2  O   -0.269622
     3  N    0.180447
     4  O   -0.181255
 Sum of Mulliken charges =  -0.00000
 Mulliken charges with hydrogens summed into heavy atoms:
               1
     2  O    0.000808
     3  N    0.180447
     4  O   -0.181255
 Electronic spatial extent (au):  <R**2>=            122.9064
 Charge=             -0.0000 electrons
 Dipole moment (field-independent basis, Debye):
    X=              1.7597    Y=              0.6646    Z=             -0.0000  Tot=              1.8810
 Quadrupole moment (field-independent basis, Debye-Ang):
   XX=            -13.6769   YY=            -18.6712   ZZ=            -16.4530
   XY=              0.5740   XZ=              0.0000   YZ=             -0.0000
 Traceless Quadrupole moment (field-independent basis, Debye-Ang):
   XX=              2.5901   YY=             -2.4042   ZZ=             -0.1860
   XY=              0.5740   XZ=              0.0000   YZ=             -0.0000
 Octapole moment (field-independent basis, Debye-Ang**2):
  XXX=             10.1129  YYY=             -1.0571  ZZZ=              0.0000  XYY=             -0.9506
  XXY=             -0.3874  XXZ=             -0.0000  XZZ=             -1.0015  YZZ=              0.2045
  YYZ=              0.0000  XYZ=              0.0000
 Hexadecapole moment (field-independent basis, Debye-Ang**3):
 XXXX=            -71.2112 YYYY=            -39.4707 ZZZZ=            -13.9112 XXXY=             11.8443
 XXXZ=              0.0000 YYYX=             11.5691 YYYZ=             -0.0000 ZZZX=              0.0000
 ZZZY=             -0.0000 XXYY=            -22.0569 XXZZ=            -17.3650 YYZZ=             -8.7280
 XXYZ=             -0.0000 YYXZ=              0.0000 ZZXY=              4.1140
 N-N= 6.960323667794D+01 E-N=-6.237600396793D+02  KE= 2.052453365242D+02
 Symmetry A'   KE= 1.964176650978D+02
 Symmetry A"   KE= 8.827671426412D+00
 No NMR shielding tensors so no spin-rotation constants.
 Leave Link  601 at Mon Jan 31 11:40:21 2022, MaxMem= 16106127360 cpu:               4.5 elap:               0.2
 (Enter /sw/contrib/gaussian/g16/B01/g16/l9999.exe)
 1\1\GINC-N2207\SP\RMP2-FC\Aug-CC-pVTZ\H1N1O2\CGAVINH\31-Jan-2022\0\\#p
  SP mp2/aug-cc-pvtz density=current\\title\\0,1\H\O,1,0.97026274\N,2,1
 .42776435,1,101.62778541\O,3,1.17680217,2,109.70859147,1,180.,0\\Versi
 on=ES64L-G16RevB.01\State=1-A'\HF=-204.7233622\MP2=-205.421273\RMSD=5.
 428e-09\Dipole=-0.0824822,0.,-0.7354158\Quadrupole=-1.3634994,-0.13826
 54,1.5017647,0.,1.2556016,0.\PG=CS [SG(H1N1O2)]\\@


 SUPPORT THE RIGHT TO ARM BEARS!
 (ADD A CLAWS TO THE BILL OF RIGHTS)
 Job cpu time:       0 days  0 hours  3 minutes  4.7 seconds.
 Elapsed time:       0 days  0 hours  0 minutes  8.0 seconds.
 File lengths (MBytes):  RWF=     16 Int=      0 D2E=      0 Chk=      8 Scr=      1
 Normal termination of Gaussian 16 at Mon Jan 31 11:40:21 2022.
