title                                                                   
SP        RMP2-FC                                                     Aug-CC-pVTZ         
Number of atoms                            I                4
Info1-9                                    I   N=           9
          29          20           0           0           0         110
           1           2           1
Full Title                                 C   N=           1
title       
Route                                      C   N=           4
#p SP mp2/aug-cc-pvtz density=current           
Charge                                     I                0
Multiplicity                               I                1
Number of electrons                        I               24
Number of alpha electrons                  I               12
Number of beta electrons                   I               12
Number of basis functions                  I              161
Number of independent functions            I              161
Number of point charges in /Mol/           I                0
Number of translation vectors              I                0
Atomic numbers                             I   N=           4
           1           8           7           8
Nuclear charges                            R   N=           4
  1.00000000E+00  8.00000000E+00  7.00000000E+00  8.00000000E+00
Current cartesian coordinates              R   N=          12
  3.32904211E+00 -2.61433141E-01 -3.68579134E-31  1.70271377E+00 -1.10812759E+00
 -2.19588241E-31  4.22977742E-17  9.84817912E-01  1.17466394E-31 -2.11884404E+00
  2.79091062E-01  1.28957566E-31
Number of symbols in /Mol/                 I                0
Force Field                                I                0
Atom Types                                 C   N=           4
                                                
Int Atom Types                             I   N=           4
           0           0           0           0
MM charges                                 R   N=           4
  0.00000000E+00  0.00000000E+00  0.00000000E+00  0.00000000E+00
Integer atomic weights                     I   N=           4
           1          16          14          16
Real atomic weights                        R   N=           4
  1.00782504E+00  1.59949146E+01  1.40030740E+01  1.59949146E+01
Atom fragment info                         I   N=           4
           0           0           0           0
Atom residue num                           I   N=           4
           0           0           0           0
Nuclear spins                              I   N=           4
           1           0           2           0
Nuclear ZEff                               R   N=           4
 -1.00000000E+00 -5.60000000E+00 -4.55000000E+00 -5.60000000E+00
Nuclear ZNuc                               R   N=           4
  1.00000000E+00  8.00000000E+00  7.00000000E+00  8.00000000E+00
Nuclear QMom                               R   N=           4
  0.00000000E+00  0.00000000E+00  2.04400000E+00  0.00000000E+00
Nuclear GFac                               R   N=           4
  2.79284600E+00  0.00000000E+00  4.03761000E-01  0.00000000E+00
MicOpt                                     I   N=           4
          -1          -1          -1          -1
Number of residues                         I                0
Number of secondary structures             I                0
SymInf integers                            I   N=          26
           1           2           1           1           1           1
           1          -1           0           0           0           0
           0           0           0           0           0           0
           0           0           0           0           0           0
           0           0
RotTr to input orientation                 R   N=          12
 -4.61783587E-01 -2.21022462E-17 -8.86992626E-01  8.86992626E-01  5.16169837E-16
 -4.61783587E-01  4.68045294E-16 -1.00000000E+00 -2.18754229E-16  1.76918628E+00
  0.00000000E+00  2.83211027E+00
Number of contracted shells                I               51
Number of primitive shells                 I               92
Pure/Cartesian d shells                    I                0
Pure/Cartesian f shells                    I                0
Highest angular momentum                   I                3
Largest degree of contraction              I                7
Shell types                                I   N=          51
           0           0           0           0           1           1
           1          -2          -2           0           0           0
           0           0           1           1           1           1
          -2          -2          -2          -3          -3           0
           0           0           0           0           1           1
           1           1          -2          -2          -2          -3
          -3           0           0           0           0           0
           1           1           1           1          -2          -2
          -2          -3          -3
Number of primitives per shell             I   N=          51
           3           1           1           1           1           1
           1           1           1           7           6           1
           1           1           3           1           1           1
           1           1           1           1           1           7
           6           1           1           1           3           1
           1           1           1           1           1           1
           1           7           6           1           1           1
           3           1           1           1           1           1
           1           1           1
Shell to atom map                          I   N=          51
           1           1           1           1           1           1
           1           1           1           2           2           2
           2           2           2           2           2           2
           2           2           2           2           2           3
           3           3           3           3           3           3
           3           3           3           3           3           3
           3           4           4           4           4           4
           4           4           4           4           4           4
           4           4           4
Primitive exponents                        R   N=          92
  3.38700000E+01  5.09500000E+00  1.15900000E+00  3.25800000E-01  1.02700000E-01
  2.52600000E-02  1.40700000E+00  3.88000000E-01  1.02000000E-01  1.05700000E+00
  2.47000000E-01  1.53300000E+04  2.29900000E+03  5.22400000E+02  1.47300000E+02
  4.75500000E+01  1.67600000E+01  6.20700000E+00  5.22400000E+02  1.47300000E+02
  4.75500000E+01  1.67600000E+01  6.20700000E+00  6.88200000E-01  1.75200000E+00
  2.38400000E-01  7.37600000E-02  3.44600000E+01  7.74900000E+00  2.28000000E+00
  7.15600000E-01  2.14000000E-01  5.97400000E-02  2.31400000E+00  6.45000000E-01
  2.14000000E-01  1.42800000E+00  5.00000000E-01  1.14200000E+04  1.71200000E+03
  3.89300000E+02  1.10000000E+02  3.55700000E+01  1.25400000E+01  4.64400000E+00
  3.89300000E+02  1.10000000E+02  3.55700000E+01  1.25400000E+01  4.64400000E+00
  5.11800000E-01  1.29300000E+00  1.78700000E-01  5.76000000E-02  2.66300000E+01
  5.94800000E+00  1.74200000E+00  5.55000000E-01  1.72500000E-01  4.91000000E-02
  1.65400000E+00  4.69000000E-01  1.51000000E-01  1.09300000E+00  3.64000000E-01
  1.53300000E+04  2.29900000E+03  5.22400000E+02  1.47300000E+02  4.75500000E+01
  1.67600000E+01  6.20700000E+00  5.22400000E+02  1.47300000E+02  4.75500000E+01
  1.67600000E+01  6.20700000E+00  6.88200000E-01  1.75200000E+00  2.38400000E-01
  7.37600000E-02  3.44600000E+01  7.74900000E+00  2.28000000E+00  7.15600000E-01
  2.14000000E-01  5.97400000E-02  2.31400000E+00  6.45000000E-01  2.14000000E-01
  1.42800000E+00  5.00000000E-01
Contraction coefficients                   R   N=          92
  2.54948632E-02  1.90362766E-01  8.52162022E-01  1.00000000E+00  1.00000000E+00
  1.00000000E+00  1.00000000E+00  1.00000000E+00  1.00000000E+00  1.00000000E+00
  1.00000000E+00  5.19808943E-04  4.02025621E-03  2.07128267E-02  8.10105536E-02
  2.35962985E-01  4.42653446E-01  3.57064423E-01 -4.42115008E-05 -1.22591041E-03
 -1.05517725E-02 -6.74452633E-02 -1.71198607E-01  1.07329856E+00  1.00000000E+00
  1.00000000E+00  1.00000000E+00  4.11634896E-02  2.57762836E-01  8.02419274E-01
  1.00000000E+00  1.00000000E+00  1.00000000E+00  1.00000000E+00  1.00000000E+00
  1.00000000E+00  1.00000000E+00  1.00000000E+00  5.34563860E-04  4.13435660E-03
  2.12335358E-02  8.25006224E-02  2.38138871E-01  4.42551547E-01  3.53757422E-01
 -4.89867350E-05 -1.19527323E-03 -1.03490714E-02 -6.48680190E-02 -1.71552477E-01
  1.07289568E+00  1.00000000E+00  1.00000000E+00  1.00000000E+00  3.98072123E-02
  2.49002660E-01  8.10479727E-01  1.00000000E+00  1.00000000E+00  1.00000000E+00
  1.00000000E+00  1.00000000E+00  1.00000000E+00  1.00000000E+00  1.00000000E+00
  5.19808943E-04  4.02025621E-03  2.07128267E-02  8.10105536E-02  2.35962985E-01
  4.42653446E-01  3.57064423E-01 -4.42115008E-05 -1.22591041E-03 -1.05517725E-02
 -6.74452633E-02 -1.71198607E-01  1.07329856E+00  1.00000000E+00  1.00000000E+00
  1.00000000E+00  4.11634896E-02  2.57762836E-01  8.02419274E-01  1.00000000E+00
  1.00000000E+00  1.00000000E+00  1.00000000E+00  1.00000000E+00  1.00000000E+00
  1.00000000E+00  1.00000000E+00
Coordinates of each shell                  R   N=         153
  3.32904211E+00 -2.61433141E-01 -2.24822201E-31  3.32904211E+00 -2.61433141E-01
 -2.24822201E-31  3.32904211E+00 -2.61433141E-01 -2.24822201E-31  3.32904211E+00
 -2.61433141E-01 -2.24822201E-31  3.32904211E+00 -2.61433141E-01 -2.24822201E-31
  3.32904211E+00 -2.61433141E-01 -2.24822201E-31  3.32904211E+00 -2.61433141E-01
 -2.24822201E-31  3.32904211E+00 -2.61433141E-01 -2.24822201E-31  3.32904211E+00
 -2.61433141E-01 -2.24822201E-31  1.70271377E+00 -1.10812759E+00 -2.05528529E-31
  1.70271377E+00 -1.10812759E+00 -2.05528529E-31  1.70271377E+00 -1.10812759E+00
 -2.05528529E-31  1.70271377E+00 -1.10812759E+00 -2.05528529E-31  1.70271377E+00
 -1.10812759E+00 -2.05528529E-31  1.70271377E+00 -1.10812759E+00 -2.05528529E-31
  1.70271377E+00 -1.10812759E+00 -2.05528529E-31  1.70271377E+00 -1.10812759E+00
 -2.05528529E-31  1.70271377E+00 -1.10812759E+00 -2.05528529E-31  1.70271377E+00
 -1.10812759E+00 -2.05528529E-31  1.70271377E+00 -1.10812759E+00 -2.05528529E-31
  1.70271377E+00 -1.10812759E+00 -2.05528529E-31  1.70271377E+00 -1.10812759E+00
 -2.05528529E-31  1.70271377E+00 -1.10812759E+00 -2.05528529E-31 -2.93130455E-17
  9.84817912E-01  9.15050368E-32 -2.93130455E-17  9.84817912E-01  9.15050368E-32
 -2.93130455E-17  9.84817912E-01  9.15050368E-32 -2.93130455E-17  9.84817912E-01
  9.15050368E-32 -2.93130455E-17  9.84817912E-01  9.15050368E-32 -2.93130455E-17
  9.84817912E-01  9.15050368E-32 -2.93130455E-17  9.84817912E-01  9.15050368E-32
 -2.93130455E-17  9.84817912E-01  9.15050368E-32 -2.93130455E-17  9.84817912E-01
  9.15050368E-32 -2.93130455E-17  9.84817912E-01  9.15050368E-32 -2.93130455E-17
  9.84817912E-01  9.15050368E-32 -2.93130455E-17  9.84817912E-01  9.15050368E-32
 -2.93130455E-17  9.84817912E-01  9.15050368E-32 -2.93130455E-17  9.84817912E-01
  9.15050368E-32 -2.11884404E+00  2.79091062E-01  1.53564397E-31 -2.11884404E+00
  2.79091062E-01  1.53564397E-31 -2.11884404E+00  2.79091062E-01  1.53564397E-31
 -2.11884404E+00  2.79091062E-01  1.53564397E-31 -2.11884404E+00  2.79091062E-01
  1.53564397E-31 -2.11884404E+00  2.79091062E-01  1.53564397E-31 -2.11884404E+00
  2.79091062E-01  1.53564397E-31 -2.11884404E+00  2.79091062E-01  1.53564397E-31
 -2.11884404E+00  2.79091062E-01  1.53564397E-31 -2.11884404E+00  2.79091062E-01
  1.53564397E-31 -2.11884404E+00  2.79091062E-01  1.53564397E-31 -2.11884404E+00
  2.79091062E-01  1.53564397E-31 -2.11884404E+00  2.79091062E-01  1.53564397E-31
 -2.11884404E+00  2.79091062E-01  1.53564397E-31
Num ILSW                                   I              100
ILSW                                       I   N=         100
           0           0           0           0           2           0
           0           0           0           0           0          -1
           5           0           0           0           0           0
           0           0           0           0           0           0
           1           0           0           0           0           0
           0           0      100000           0          -1           0
           0           0           0           0           0           0
           0           0           0           1           0           0
           0 -2000000000           1           0           0           0
           0           0           4          52           0           0
           0           0           0           0           0           0
           0           0           0           4           0           1
           0           0           0           0           0           0
           0           0           0           0           0           0
           0           0           0           0           0           0
           0           0           0           0           0           0
           0           0           0           0
Num RLSW                                   I               52
RLSW                                       R   N=          52
  1.00000000E+00  1.00000000E+00  1.00000000E+00  1.00000000E+00  1.00000000E+00
  0.00000000E+00  0.00000000E+00  1.00000000E+00  0.00000000E+00  0.00000000E+00
  0.00000000E+00  0.00000000E+00  1.00000000E+00  0.00000000E+00  0.00000000E+00
  0.00000000E+00  0.00000000E+00  1.00000000E+00  0.00000000E+00  0.00000000E+00
  0.00000000E+00  0.00000000E+00  1.00000000E+00  0.00000000E+00  0.00000000E+00
  0.00000000E+00  0.00000000E+00  1.00000000E+00  0.00000000E+00  0.00000000E+00
  0.00000000E+00  0.00000000E+00  1.00000000E+00  0.00000000E+00  0.00000000E+00
  0.00000000E+00  0.00000000E+00  0.00000000E+00  1.00000000E+00  1.00000000E+00
  0.00000000E+00  1.00000000E+00  0.00000000E+00  0.00000000E+00  0.00000000E+00
  0.00000000E+00  0.00000000E+00  0.00000000E+00  0.00000000E+00  0.00000000E+00
  0.00000000E+00  0.00000000E+00
MxBond                                     I                2
NBond                                      I   N=           4
           1           2           2           1
IBond                                      I   N=           8
           2           0           1           3           2           4
           3           0
RBond                                      R   N=           8
  1.00000000E+00  0.00000000E+00  1.00000000E+00  1.00000000E+00  1.00000000E+00
  2.00000000E+00  2.00000000E+00  0.00000000E+00
Virial Ratio                               R      2.002477530334539E+00
SCF Energy                                 R     -2.047225326717394E+02
MP2 Energy                                 R     -2.054213226677089E+02
Total Energy                               R     -2.054213226677089E+02
Post-SCF wavefunction norm                 R      1.090360638861041E+00
RMS Density                                R      5.555769743282658E-09
Job Status                                 I                1
Nuclear derivative order                   I                0
External E-field                           R   N=          35
  0.00000000E+00  0.00000000E+00  0.00000000E+00  0.00000000E+00  0.00000000E+00
  0.00000000E+00  0.00000000E+00  0.00000000E+00  0.00000000E+00  0.00000000E+00
  0.00000000E+00  0.00000000E+00  0.00000000E+00  0.00000000E+00  0.00000000E+00
  0.00000000E+00  0.00000000E+00  0.00000000E+00  0.00000000E+00  0.00000000E+00
  0.00000000E+00  0.00000000E+00  0.00000000E+00  0.00000000E+00  0.00000000E+00
  0.00000000E+00  0.00000000E+00  0.00000000E+00  0.00000000E+00  0.00000000E+00
  0.00000000E+00  0.00000000E+00  0.00000000E+00  0.00000000E+00  0.00000000E+00
IOpCl                                      I                0
IROHF                                      I                0
Alpha Orbital Energies                     R   N=         161
 -2.06652219E+01 -2.06435446E+01 -1.57995417E+01 -1.59878443E+00 -1.40265348E+00
 -9.49437342E-01 -7.83140443E-01 -7.28783017E-01 -6.79828822E-01 -6.24929915E-01
 -5.28263369E-01 -4.62777013E-01  2.78487992E-02  7.89682139E-02  9.40810633E-02
  9.75249991E-02  1.28903858E-01  1.43443092E-01  1.56901742E-01  1.72053851E-01
  1.87169940E-01  1.96687832E-01  2.05444231E-01  2.33524609E-01  2.57744108E-01
  2.96099974E-01  3.07239624E-01  3.29733786E-01  3.65642378E-01  3.82235810E-01
  4.23578810E-01  5.25448802E-01  5.25597183E-01  5.47769607E-01  5.73165352E-01
  6.12361579E-01  6.29010900E-01  6.47724402E-01  6.81359776E-01  7.14432021E-01
  7.18078783E-01  7.47682055E-01  7.74749302E-01  7.81234874E-01  8.11094403E-01
  8.11217072E-01  8.60429680E-01  8.78000355E-01  9.25311248E-01  9.38738365E-01
  9.44298059E-01  9.94433806E-01  1.04930991E+00  1.06217660E+00  1.08056499E+00
  1.10523242E+00  1.16049610E+00  1.19585880E+00  1.25155040E+00  1.26766216E+00
  1.36124201E+00  1.43299239E+00  1.48868805E+00  1.52315235E+00  1.52415798E+00
  1.54376864E+00  1.55374463E+00  1.60900015E+00  1.65760744E+00  1.72868453E+00
  1.75433399E+00  1.82243403E+00  1.85545587E+00  1.96119455E+00  1.97460215E+00
  2.00032299E+00  2.07448999E+00  2.13263125E+00  2.13297441E+00  2.18629348E+00
  2.27021737E+00  2.30767504E+00  2.32827884E+00  2.38003479E+00  2.45073225E+00
  2.46940254E+00  2.49821156E+00  2.50224289E+00  2.51923049E+00  2.54410208E+00
  2.56672543E+00  2.60578056E+00  2.60668967E+00  2.65884887E+00  2.76703232E+00
  2.77663385E+00  2.83902823E+00  2.93575436E+00  2.95196147E+00  3.11536056E+00
  3.14555980E+00  3.18215275E+00  3.24343232E+00  3.46002804E+00  3.83021877E+00
  3.85358474E+00  4.02762072E+00  4.16947560E+00  4.17301140E+00  4.21240822E+00
  4.36158701E+00  4.37065525E+00  4.57836011E+00  4.62737680E+00  4.74596308E+00
  4.81754608E+00  4.87083082E+00  4.88770943E+00  4.97999712E+00  5.00225065E+00
  5.07340828E+00  5.08432106E+00  5.16870528E+00  5.24505487E+00  5.25744901E+00
  5.32688507E+00  5.36872280E+00  5.37124306E+00  5.58595590E+00  5.65953657E+00
  5.79015517E+00  5.98447034E+00  6.11854980E+00  6.43332964E+00  6.50704375E+00
  6.51029207E+00  6.67273325E+00  6.71392582E+00  6.74440757E+00  6.84347373E+00
  6.91458595E+00  7.06759864E+00  7.11731919E+00  7.17883939E+00  7.23045419E+00
  7.25454182E+00  7.25667312E+00  7.31907823E+00  7.37442245E+00  7.43120131E+00
  7.47745033E+00  7.59675928E+00  7.64543896E+00  7.69523711E+00  7.78221023E+00
  7.97768347E+00  8.06957775E+00  8.42254949E+00  1.41599582E+01  1.51119926E+01
  1.58335315E+01
Alpha MO coefficients                      R   N=       25921
  5.55113882E-05  1.84074051E-04 -3.85332628E-04  4.00038652E-06 -5.48245459E-05
  1.15979826E-05  0.00000000E+00  4.92327938E-05  6.42894704E-05  0.00000000E+00
  2.68269066E-04  1.89270152E-05  0.00000000E+00  2.06952063E-05  0.00000000E+00
  0.00000000E+00  1.36605447E-05  6.30875282E-06  5.40816351E-05  0.00000000E+00
  0.00000000E+00 -3.28599331E-05  1.77294633E-05 -8.46917938E-04  8.12408529E-05
 -6.31691438E-05 -8.08103225E-05  2.21586023E-04  1.85952496E-05 -1.68707840E-05
  0.00000000E+00 -8.94359474E-05  4.46309468E-05  0.00000000E+00 -1.45377720E-04
  2.97234757E-05  0.00000000E+00 -1.17880250E-04  5.11346133E-05  0.00000000E+00
 -8.86916572E-06  0.00000000E+00  0.00000000E+00  2.56964989E-05  1.08422987E-05
  1.04726052E-06  0.00000000E+00  0.00000000E+00 -8.67097443E-05 -1.23117923E-04
 -1.61289118E-05  0.00000000E+00  0.00000000E+00 -6.27520473E-05 -2.39905444E-04
  0.00000000E+00  4.16477787E-06  1.94193808E-06  0.00000000E+00  0.00000000E+00
 -8.60879283E-06 -1.39808143E-05  0.00000000E+00 -2.10465512E-05 -1.65678744E-05
  0.00000000E+00  0.00000000E+00  1.93924473E-04 -4.26395963E-05  2.47952423E-04
  1.40883618E-03 -1.22632177E-04 -1.43503753E-03  4.04082878E-04 -1.00932376E-04
 -6.11932868E-05  0.00000000E+00 -2.05495514E-03 -5.65999800E-04  0.00000000E+00
  1.09918220E-03 -8.08340873E-05  0.00000000E+00 -1.19872168E-04 -9.49621833E-05
  0.00000000E+00 -1.26263135E-04  0.00000000E+00  0.00000000E+00  2.12833505E-04
  1.46929990E-04 -4.51879860E-04  0.00000000E+00  0.00000000E+00  5.75153829E-04
  8.05453106E-04 -8.12723909E-06  0.00000000E+00  0.00000000E+00 -1.48388391E-04
 -1.44896696E-04  0.00000000E+00  2.03423625E-05 -1.05489739E-05  0.00000000E+00
  0.00000000E+00  9.51305747E-06  6.51851492E-06  0.00000000E+00  1.44718170E-04
  1.30303314E-04  0.00000000E+00  0.00000000E+00 -1.92871643E-05 -3.04464868E-04
  9.76659251E-01 -9.86912127E-03  4.35490570E-02  4.19161871E-03 -5.60569654E-04
  2.10161452E-03  5.70768602E-04  0.00000000E+00 -2.42869741E-03 -6.00461175E-04
  0.00000000E+00  9.65978547E-04  5.48785391E-04  0.00000000E+00 -5.44610585E-05
  2.84410902E-05  0.00000000E+00 -2.25692124E-04  0.00000000E+00  0.00000000E+00
  7.17398555E-05  5.26080031E-05  3.90387533E-04  0.00000000E+00  0.00000000E+00
 -8.30207778E-04 -4.51525063E-04 -1.64226380E-04  0.00000000E+00  0.00000000E+00
  1.79006316E-04  2.53493103E-04  0.00000000E+00  5.77949236E-05  1.18794874E-05
  0.00000000E+00  0.00000000E+00 -1.88853125E-05 -2.76048324E-05  0.00000000E+00
  1.20781901E-04  4.59035949E-05  0.00000000E+00  0.00000000E+00 -1.57717187E-04
 -1.53508507E-04  4.73573044E-04  2.47464317E-03  3.47679569E-04 -7.68115923E-06
 -2.23631139E-04 -1.06914752E-04  0.00000000E+00 -9.87179471E-04 -8.75296311E-04
  0.00000000E+00 -9.08323948E-05 -4.25209557E-04  0.00000000E+00  1.19031493E-05
  0.00000000E+00  0.00000000E+00 -4.69734252E-05 -5.57003737E-05 -1.54495381E-04
  0.00000000E+00  0.00000000E+00  1.63685314E-04  4.16871087E-04  9.76756074E-01
 -9.25194498E-03  4.35533373E-02  8.16649155E-04 -9.10906649E-04  4.03736989E-04
  1.84855148E-03  0.00000000E+00 -2.00674487E-04 -1.84117391E-03  0.00000000E+00
 -1.50882900E-03  3.17885931E-04  0.00000000E+00 -5.93152239E-05  3.00915155E-05
  0.00000000E+00 -4.22025246E-05  0.00000000E+00  0.00000000E+00  3.56960939E-05
  4.73144710E-05  6.51669255E-04  0.00000000E+00  0.00000000E+00 -3.06752132E-04
  2.48899047E-04 -9.04168665E-05  0.00000000E+00  0.00000000E+00 -2.81575993E-04
 -3.81712757E-04  0.00000000E+00 -3.11749974E-05  4.57029282E-05  0.00000000E+00
  0.00000000E+00 -1.34653072E-05 -3.77749554E-06  0.00000000E+00  9.29583648E-05
  5.40380645E-05  0.00000000E+00  0.00000000E+00 -2.21252267E-04 -2.31308532E-04
  6.03858966E-05  1.66704707E-04 -3.20109656E-04 -3.49055046E-04  8.75976801E-04
 -8.43274793E-05  7.76087464E-05  0.00000000E+00  7.11277226E-04 -6.56058432E-04
  0.00000000E+00 -4.07382123E-04  5.36057356E-04  0.00000000E+00  1.62815095E-04
 -1.75890211E-04  0.00000000E+00 -3.47925470E-05  0.00000000E+00  0.00000000E+00
 -3.43181076E-05 -4.96510570E-05 -4.01154826E-04  0.00000000E+00  0.00000000E+00
 -1.58248052E-04 -9.32805302E-04 -1.88824306E-04  0.00000000E+00  0.00000000E+00
  5.51540505E-04 -5.62221495E-05  0.00000000E+00 -8.77391165E-05  9.87354353E-05
  0.00000000E+00  0.00000000E+00 -1.47641594E-04 -5.99475065E-05  0.00000000E+00
 -5.40368276E-05  1.19863173E-04  0.00000000E+00  0.00000000E+00 -4.27797037E-04
  1.60090164E-05  8.81382015E-04  4.63058484E-05  2.25330484E-05 -2.92108259E-04
 -1.96393372E-04 -1.50502992E-05  2.24093293E-05  0.00000000E+00  1.10091085E-04
 -1.26601891E-04  0.00000000E+00  4.07078054E-04 -4.29599657E-04  0.00000000E+00
 -8.49531681E-06  2.95527872E-06  0.00000000E+00 -5.31916620E-06  0.00000000E+00
  0.00000000E+00 -1.29971628E-05 -1.05100521E-05  1.06909742E-06  0.00000000E+00
  0.00000000E+00  1.39752375E-04 -3.42786599E-05 -6.53220147E-05  0.00000000E+00
  0.00000000E+00  2.57887535E-04 -1.80770670E-05  0.00000000E+00  2.90244736E-06
  1.03220502E-05  0.00000000E+00  0.00000000E+00 -1.28934688E-05 -1.06887940E-05
  0.00000000E+00  1.23601636E-05 -5.08033101E-05  0.00000000E+00  0.00000000E+00
  1.16328335E-04  7.54792379E-05 -7.54532095E-05 -4.91273917E-04 -3.04252707E-04
  2.08441468E-04  3.54324546E-05  3.26781088E-05  0.00000000E+00  4.71470152E-04
 -3.34019857E-04  0.00000000E+00  3.02534174E-04 -3.20286743E-04  0.00000000E+00
 -1.37654373E-05  0.00000000E+00  0.00000000E+00 -3.93840582E-05  2.98609206E-05
  1.11333245E-04  0.00000000E+00  0.00000000E+00 -3.32627829E-05  1.74116280E-04
 -1.26318042E-04 -2.10412326E-04 -2.08189916E-04  4.96768276E-03  3.23261578E-03
  9.48986360E-06 -4.11022627E-05  0.00000000E+00 -5.28368940E-04  8.56419124E-04
  0.00000000E+00 -2.40167022E-03  3.07592726E-03  0.00000000E+00 -8.24997349E-04
  5.58087066E-04  0.00000000E+00  8.67790751E-08  0.00000000E+00  0.00000000E+00
 -3.04952599E-05 -4.39195238E-05 -4.46138600E-04  0.00000000E+00  0.00000000E+00
 -3.89650249E-05 -5.26992670E-04 -6.05528675E-04  0.00000000E+00  0.00000000E+00
 -2.96715271E-04 -9.39754526E-04  0.00000000E+00  1.90008995E-05 -2.15713724E-05
  0.00000000E+00  0.00000000E+00  3.94357359E-05  3.29117183E-05  0.00000000E+00
  9.43535632E-05 -1.43669652E-04  0.00000000E+00  0.00000000E+00  2.15377940E-05
  2.28985243E-04  9.78286735E-01 -8.43854317E-03  4.17638297E-02 -5.61678406E-03
 -3.09726562E-03 -1.07359930E-03 -3.04072542E-03  0.00000000E+00 -6.25609631E-05
  2.98903206E-03  0.00000000E+00  4.54706130E-04  3.08426892E-03  0.00000000E+00
 -3.18258108E-05  5.47750298E-04  0.00000000E+00 -4.33376961E-04  0.00000000E+00
  0.00000000E+00  2.28375241E-04  2.23100874E-04  1.03797606E-03  0.00000000E+00
  0.00000000E+00 -1.91663734E-04  3.01360278E-04  3.66222520E-04  0.00000000E+00
  0.00000000E+00  1.09370632E-04  5.50845150E-05  0.00000000E+00  8.55008055E-05
 -6.96304395E-05  0.00000000E+00  0.00000000E+00 -5.44235710E-05 -6.53745728E-06
  0.00000000E+00 -2.21699338E-04 -2.29128888E-04  0.00000000E+00  0.00000000E+00
  4.57627228E-04  2.66141689E-04 -1.82270111E-04  9.11219963E-04  1.43632856E-04
  3.12602888E-03  9.63162440E-04  2.52635688E-04  1.20393793E-04  0.00000000E+00
  9.06946576E-04  2.90771949E-04  0.00000000E+00  1.31543712E-03 -9.61276531E-05
  0.00000000E+00  2.12873099E-05  4.26250837E-05  0.00000000E+00 -4.06721474E-05
  0.00000000E+00  0.00000000E+00  7.19489382E-05  8.50746685E-05  5.77918395E-05
  0.00000000E+00  0.00000000E+00  2.21065683E-05 -2.48544545E-04 -4.89842377E-05
  0.00000000E+00  0.00000000E+00  3.02910518E-04 -1.19772948E-04  0.00000000E+00
  8.93139581E-05  3.54973241E-05  0.00000000E+00  0.00000000E+00 -5.19016943E-05
 -1.09244740E-04  0.00000000E+00  1.51744998E-04  1.21963693E-04  0.00000000E+00
  0.00000000E+00  3.16593119E-05 -3.43313418E-04  2.18624925E-02  1.78010195E-02
 -2.02300643E-03  4.22240740E-04 -3.34726973E-03 -9.42445288E-04  0.00000000E+00
 -2.69956606E-03 -9.94013041E-04  0.00000000E+00  2.51562015E-03  2.14843984E-04
  0.00000000E+00 -2.48253649E-04  0.00000000E+00  0.00000000E+00  4.33557135E-04
  2.88519907E-04  2.95399808E-04  0.00000000E+00  0.00000000E+00  3.94505058E-04
  5.24701841E-04 -6.80912137E-02  1.64973501E-01  4.39797219E-02  9.50821988E-02
  7.89859017E-03 -1.51024038E-02  2.38274357E-02  0.00000000E+00 -2.03000233E-02
  3.42738931E-02  0.00000000E+00 -1.19075918E-02  1.07071018E-02  0.00000000E+00
 -1.97613104E-03 -1.81708922E-03  0.00000000E+00 -1.85457704E-03  0.00000000E+00
  0.00000000E+00  9.75229804E-05 -1.80422023E-03 -4.22324884E-03  0.00000000E+00
  0.00000000E+00  8.04641323E-04 -4.37624483E-03  1.01111341E-03  0.00000000E+00
  0.00000000E+00  1.75524129E-04 -1.69587078E-03  0.00000000E+00  4.63660304E-04
 -9.01287772E-04  0.00000000E+00  0.00000000E+00  7.22094662E-04  1.33265083E-03
  0.00000000E+00 -2.43745013E-04  5.04757986E-04  0.00000000E+00  0.00000000E+00
 -1.77063680E-04  1.90109445E-04 -1.29819717E-01  3.07320907E-01  8.09676165E-02
  6.39573936E-02  3.84121249E-04 -7.16712193E-02 -4.72997735E-02  0.00000000E+00
 -7.53975431E-02 -6.52487499E-02  0.00000000E+00 -3.09821162E-03  8.63595898E-03
  0.00000000E+00 -9.13287479E-06  3.14109023E-03  0.00000000E+00 -9.19936104E-03
  0.00000000E+00  0.00000000E+00  8.28411048E-03  6.15102930E-03 -1.15397931E-02
  0.00000000E+00  0.00000000E+00  9.13853007E-03  5.83776107E-03  6.00127421E-03
  0.00000000E+00  0.00000000E+00  1.90279776E-05  5.03197590E-04  0.00000000E+00
  2.41806785E-03  2.42895731E-03  0.00000000E+00  0.00000000E+00 -4.76177831E-03
 -5.45042365E-03  0.00000000E+00 -1.34012977E-03 -3.79876825E-04  0.00000000E+00
  0.00000000E+00  7.94214763E-04 -1.41901642E-04 -1.49356289E-01  3.57409046E-01
  9.58669616E-02  1.79544830E-01 -1.44119441E-02  7.85727338E-02  2.17224940E-02
  0.00000000E+00  9.99666212E-02  2.73499671E-02  0.00000000E+00  1.81653171E-02
  3.40321985E-03  0.00000000E+00 -8.38455471E-03 -2.38024584E-03  0.00000000E+00
 -5.06767549E-03  0.00000000E+00  0.00000000E+00  7.12957101E-03  4.42078432E-03
 -9.38487035E-03  0.00000000E+00  0.00000000E+00  1.48765609E-02  9.36460323E-03
  2.36038522E-03  0.00000000E+00  0.00000000E+00 -3.39492063E-03 -2.51490734E-03
  0.00000000E+00 -3.10674427E-03 -8.65769205E-04  0.00000000E+00  0.00000000E+00
  3.25802932E-03  3.59717242E-03  0.00000000E+00 -1.05867020E-04 -2.67867083E-04
  0.00000000E+00  0.00000000E+00  1.02454338E-03  1.89953701E-03  8.01052185E-02
  7.88417289E-02 -2.05635615E-02 -2.87380435E-03 -1.17256117E-02 -4.80883265E-03
  0.00000000E+00 -1.48032066E-02 -1.45127695E-03  0.00000000E+00  7.60658788E-03
  2.34562766E-03  0.00000000E+00 -1.32972803E-03  0.00000000E+00  0.00000000E+00
  2.23116539E-03  1.22192100E-03  3.84513559E-04  0.00000000E+00  0.00000000E+00
  2.21008743E-03 -1.34898498E-03 -1.80787100E-01  4.40467684E-01  1.20216105E-01
  2.56821971E-01  1.13589017E-02  1.61000369E-02  3.77938925E-02  0.00000000E+00