title                                                                   
SP        RMP2-FC                                                     Aug-CC-pVTZ         
Number of atoms                            I                4
Info1-9                                    I   N=           9
          29          20           0           0           0         110
           1           2           1
Full Title                                 C   N=           1
title       
Route                                      C   N=           4
#p SP mp2/aug-cc-pvtz density=current           
Charge                                     I                0
Multiplicity                               I                1
Number of electrons                        I               24
Number of alpha electrons                  I               12
Number of beta electrons                   I               12
Number of basis functions                  I              161
Number of independent functions            I              161
Number of point charges in /Mol/           I                0
Number of translation vectors              I                0
Atomic numbers                             I   N=           4
           1           8           7           8
Nuclear charges                            R   N=           4
  1.00000000E+00  8.00000000E+00  7.00000000E+00  8.00000000E+00
Current cartesian coordinates              R   N=          12
  3.30935167E+00 -2.78491325E-01 -8.79573056E-32  1.69783986E+00 -1.11271235E+00
 -3.46631784E-32 -1.57136095E-16  9.84188908E-01  1.77398254E-32 -2.11150881E+00
  2.86358473E-01  7.15818123E-32
Number of symbols in /Mol/                 I                0
Force Field                                I                0
Atom Types                                 C   N=           4
                                                
Int Atom Types                             I   N=           4
           0           0           0           0
MM charges                                 R   N=           4
  0.00000000E+00  0.00000000E+00  0.00000000E+00  0.00000000E+00
Integer atomic weights                     I   N=           4
           1          16          14          16
Real atomic weights                        R   N=           4
  1.00782504E+00  1.59949146E+01  1.40030740E+01  1.59949146E+01
Atom fragment info                         I   N=           4
           0           0           0           0
Atom residue num                           I   N=           4
           0           0           0           0
Nuclear spins                              I   N=           4
           1           0           2           0
Nuclear ZEff                               R   N=           4
 -1.00000000E+00 -5.60000000E+00 -4.55000000E+00 -5.60000000E+00
Nuclear ZNuc                               R   N=           4
  1.00000000E+00  8.00000000E+00  7.00000000E+00  8.00000000E+00
Nuclear QMom                               R   N=           4
  0.00000000E+00  0.00000000E+00  2.04400000E+00  0.00000000E+00
Nuclear GFac                               R   N=           4
  2.79284600E+00  0.00000000E+00  4.03761000E-01  0.00000000E+00
MicOpt                                     I   N=           4
          -1          -1          -1          -1
Number of residues                         I                0
Number of secondary structures             I                0
SymInf integers                            I   N=          26
           1           2           1           1           1           1
           1          -1           0           0           0           0
           0           0           0           0           0           0
           0           0           0           0           0           0
           0           0
RotTr to input orientation                 R   N=          12
 -4.59718719E-01 -1.15576403E-16 -8.88064581E-01  8.88064581E-01  4.04931217E-17
 -4.59718719E-01  8.90931430E-17 -1.00000000E+00  8.40238638E-17  1.76868919E+00
  0.00000000E+00  2.81089033E+00
Number of contracted shells                I               51
Number of primitive shells                 I               92
Pure/Cartesian d shells                    I                0
Pure/Cartesian f shells                    I                0
Highest angular momentum                   I                3
Largest degree of contraction              I                7
Shell types                                I   N=          51
           0           0           0           0           1           1
           1          -2          -2           0           0           0
           0           0           1           1           1           1
          -2          -2          -2          -3          -3           0
           0           0           0           0           1           1
           1           1          -2          -2          -2          -3
          -3           0           0           0           0           0
           1           1           1           1          -2          -2
          -2          -3          -3
Number of primitives per shell             I   N=          51
           3           1           1           1           1           1
           1           1           1           7           6           1
           1           1           3           1           1           1
           1           1           1           1           1           7
           6           1           1           1           3           1
           1           1           1           1           1           1
           1           7           6           1           1           1
           3           1           1           1           1           1
           1           1           1
Shell to atom map                          I   N=          51
           1           1           1           1           1           1
           1           1           1           2           2           2
           2           2           2           2           2           2
           2           2           2           2           2           3
           3           3           3           3           3           3
           3           3           3           3           3           3
           3           4           4           4           4           4
           4           4           4           4           4           4
           4           4           4
Primitive exponents                        R   N=          92
  3.38700000E+01  5.09500000E+00  1.15900000E+00  3.25800000E-01  1.02700000E-01
  2.52600000E-02  1.40700000E+00  3.88000000E-01  1.02000000E-01  1.05700000E+00
  2.47000000E-01  1.53300000E+04  2.29900000E+03  5.22400000E+02  1.47300000E+02
  4.75500000E+01  1.67600000E+01  6.20700000E+00  5.22400000E+02  1.47300000E+02
  4.75500000E+01  1.67600000E+01  6.20700000E+00  6.88200000E-01  1.75200000E+00
  2.38400000E-01  7.37600000E-02  3.44600000E+01  7.74900000E+00  2.28000000E+00
  7.15600000E-01  2.14000000E-01  5.97400000E-02  2.31400000E+00  6.45000000E-01
  2.14000000E-01  1.42800000E+00  5.00000000E-01  1.14200000E+04  1.71200000E+03
  3.89300000E+02  1.10000000E+02  3.55700000E+01  1.25400000E+01  4.64400000E+00
  3.89300000E+02  1.10000000E+02  3.55700000E+01  1.25400000E+01  4.64400000E+00
  5.11800000E-01  1.29300000E+00  1.78700000E-01  5.76000000E-02  2.66300000E+01
  5.94800000E+00  1.74200000E+00  5.55000000E-01  1.72500000E-01  4.91000000E-02
  1.65400000E+00  4.69000000E-01  1.51000000E-01  1.09300000E+00  3.64000000E-01
  1.53300000E+04  2.29900000E+03  5.22400000E+02  1.47300000E+02  4.75500000E+01
  1.67600000E+01  6.20700000E+00  5.22400000E+02  1.47300000E+02  4.75500000E+01
  1.67600000E+01  6.20700000E+00  6.88200000E-01  1.75200000E+00  2.38400000E-01
  7.37600000E-02  3.44600000E+01  7.74900000E+00  2.28000000E+00  7.15600000E-01
  2.14000000E-01  5.97400000E-02  2.31400000E+00  6.45000000E-01  2.14000000E-01
  1.42800000E+00  5.00000000E-01
Contraction coefficients                   R   N=          92
  2.54948632E-02  1.90362766E-01  8.52162022E-01  1.00000000E+00  1.00000000E+00
  1.00000000E+00  1.00000000E+00  1.00000000E+00  1.00000000E+00  1.00000000E+00
  1.00000000E+00  5.19808943E-04  4.02025621E-03  2.07128267E-02  8.10105536E-02
  2.35962985E-01  4.42653446E-01  3.57064423E-01 -4.42115008E-05 -1.22591041E-03
 -1.05517725E-02 -6.74452633E-02 -1.71198607E-01  1.07329856E+00  1.00000000E+00
  1.00000000E+00  1.00000000E+00  4.11634896E-02  2.57762836E-01  8.02419274E-01
  1.00000000E+00  1.00000000E+00  1.00000000E+00  1.00000000E+00  1.00000000E+00
  1.00000000E+00  1.00000000E+00  1.00000000E+00  5.34563860E-04  4.13435660E-03
  2.12335358E-02  8.25006224E-02  2.38138871E-01  4.42551547E-01  3.53757422E-01
 -4.89867350E-05 -1.19527323E-03 -1.03490714E-02 -6.48680190E-02 -1.71552477E-01
  1.07289568E+00  1.00000000E+00  1.00000000E+00  1.00000000E+00  3.98072123E-02
  2.49002660E-01  8.10479727E-01  1.00000000E+00  1.00000000E+00  1.00000000E+00
  1.00000000E+00  1.00000000E+00  1.00000000E+00  1.00000000E+00  1.00000000E+00
  5.19808943E-04  4.02025621E-03  2.07128267E-02  8.10105536E-02  2.35962985E-01
  4.42653446E-01  3.57064423E-01 -4.42115008E-05 -1.22591041E-03 -1.05517725E-02
 -6.74452633E-02 -1.71198607E-01  1.07329856E+00  1.00000000E+00  1.00000000E+00
  1.00000000E+00  4.11634896E-02  2.57762836E-01  8.02419274E-01  1.00000000E+00
  1.00000000E+00  1.00000000E+00  1.00000000E+00  1.00000000E+00  1.00000000E+00
  1.00000000E+00  1.00000000E+00
Coordinates of each shell                  R   N=         153
  3.30935167E+00 -2.78491325E-01  4.78834050E-33  3.30935167E+00 -2.78491325E-01
  4.78834050E-33  3.30935167E+00 -2.78491325E-01  4.78834050E-33  3.30935167E+00
 -2.78491325E-01  4.78834050E-33  3.30935167E+00 -2.78491325E-01  4.78834050E-33
  3.30935167E+00 -2.78491325E-01  4.78834050E-33  3.30935167E+00 -2.78491325E-01
  4.78834050E-33  3.30935167E+00 -2.78491325E-01  4.78834050E-33  3.30935167E+00
 -2.78491325E-01  4.78834050E-33  1.69783986E+00 -1.11271235E+00  1.11814591E-32
  1.69783986E+00 -1.11271235E+00  1.11814591E-32  1.69783986E+00 -1.11271235E+00
  1.11814591E-32  1.69783986E+00 -1.11271235E+00  1.11814591E-32  1.69783986E+00
 -1.11271235E+00  1.11814591E-32  1.69783986E+00 -1.11271235E+00  1.11814591E-32
  1.69783986E+00 -1.11271235E+00  1.11814591E-32  1.69783986E+00 -1.11271235E+00
  1.11814591E-32  1.69783986E+00 -1.11271235E+00  1.11814591E-32  1.69783986E+00
 -1.11271235E+00  1.11814591E-32  1.69783986E+00 -1.11271235E+00  1.11814591E-32
  1.69783986E+00 -1.11271235E+00  1.11814591E-32  1.69783986E+00 -1.11271235E+00
  1.11814591E-32  1.69783986E+00 -1.11271235E+00  1.11814591E-32  4.53355821E-17
  9.84188908E-01 -8.85397125E-33  4.53355821E-17  9.84188908E-01 -8.85397125E-33
  4.53355821E-17  9.84188908E-01 -8.85397125E-33  4.53355821E-17  9.84188908E-01
 -8.85397125E-33  4.53355821E-17  9.84188908E-01 -8.85397125E-33  4.53355821E-17
  9.84188908E-01 -8.85397125E-33  4.53355821E-17  9.84188908E-01 -8.85397125E-33
  4.53355821E-17  9.84188908E-01 -8.85397125E-33  4.53355821E-17  9.84188908E-01
 -8.85397125E-33  4.53355821E-17  9.84188908E-01 -8.85397125E-33  4.53355821E-17
  9.84188908E-01 -8.85397125E-33  4.53355821E-17  9.84188908E-01 -8.85397125E-33
  4.53355821E-17  9.84188908E-01 -8.85397125E-33  4.53355821E-17  9.84188908E-01
 -8.85397125E-33 -2.11150881E+00  2.86358473E-01 -4.03277681E-33 -2.11150881E+00
  2.86358473E-01 -4.03277681E-33 -2.11150881E+00  2.86358473E-01 -4.03277681E-33
 -2.11150881E+00  2.86358473E-01 -4.03277681E-33 -2.11150881E+00  2.86358473E-01
 -4.03277681E-33 -2.11150881E+00  2.86358473E-01 -4.03277681E-33 -2.11150881E+00
  2.86358473E-01 -4.03277681E-33 -2.11150881E+00  2.86358473E-01 -4.03277681E-33
 -2.11150881E+00  2.86358473E-01 -4.03277681E-33 -2.11150881E+00  2.86358473E-01
 -4.03277681E-33 -2.11150881E+00  2.86358473E-01 -4.03277681E-33 -2.11150881E+00
  2.86358473E-01 -4.03277681E-33 -2.11150881E+00  2.86358473E-01 -4.03277681E-33
 -2.11150881E+00  2.86358473E-01 -4.03277681E-33
Num ILSW                                   I              100
ILSW                                       I   N=         100
           0           0           0           0           2           0
           0           0           0           0           0          -1
           5           0           0           0           0           0
           0           0           0           0           0           0
           1           0           0           0           0           0
           0           0      100000           0          -1           0
           0           0           0           0           0           0
           0           0           0           1           0           0
           0 -2000000000           1           0           0           0
           0           0           4          52           0           0
           0           0           0           0           0           0
           0           0           0           4           0           1
           0           0           0           0           0           0
           0           0           0           0           0           0
           0           0           0           0           0           0
           0           0           0           0           0           0
           0           0           0           0
Num RLSW                                   I               52
RLSW                                       R   N=          52
  1.00000000E+00  1.00000000E+00  1.00000000E+00  1.00000000E+00  1.00000000E+00
  0.00000000E+00  0.00000000E+00  1.00000000E+00  0.00000000E+00  0.00000000E+00
  0.00000000E+00  0.00000000E+00  1.00000000E+00  0.00000000E+00  0.00000000E+00
  0.00000000E+00  0.00000000E+00  1.00000000E+00  0.00000000E+00  0.00000000E+00
  0.00000000E+00  0.00000000E+00  1.00000000E+00  0.00000000E+00  0.00000000E+00
  0.00000000E+00  0.00000000E+00  1.00000000E+00  0.00000000E+00  0.00000000E+00
  0.00000000E+00  0.00000000E+00  1.00000000E+00  0.00000000E+00  0.00000000E+00
  0.00000000E+00  0.00000000E+00  0.00000000E+00  1.00000000E+00  1.00000000E+00
  0.00000000E+00  1.00000000E+00  0.00000000E+00  0.00000000E+00  0.00000000E+00
  0.00000000E+00  0.00000000E+00  0.00000000E+00  0.00000000E+00  0.00000000E+00
  0.00000000E+00  0.00000000E+00
MxBond                                     I                2
NBond                                      I   N=           4
           1           2           2           1
IBond                                      I   N=           8
           2           0           1           3           2           4
           3           0
RBond                                      R   N=           8
  1.00000000E+00  0.00000000E+00  1.00000000E+00  1.00000000E+00  1.00000000E+00
  2.00000000E+00  2.00000000E+00  0.00000000E+00
Virial Ratio                               R      2.002274193217768E+00
SCF Energy                                 R     -2.047238056445728E+02
MP2 Energy                                 R     -2.054212620256931E+02
Total Energy                               R     -2.054212620256931E+02
Post-SCF wavefunction norm                 R      1.089821047790795E+00
RMS Density                                R      5.413027741472330E-09
Job Status                                 I                1
Nuclear derivative order                   I                0
External E-field                           R   N=          35
  0.00000000E+00  0.00000000E+00  0.00000000E+00  0.00000000E+00  0.00000000E+00
  0.00000000E+00  0.00000000E+00  0.00000000E+00  0.00000000E+00  0.00000000E+00
  0.00000000E+00  0.00000000E+00  0.00000000E+00  0.00000000E+00  0.00000000E+00
  0.00000000E+00  0.00000000E+00  0.00000000E+00  0.00000000E+00  0.00000000E+00
  0.00000000E+00  0.00000000E+00  0.00000000E+00  0.00000000E+00  0.00000000E+00
  0.00000000E+00  0.00000000E+00  0.00000000E+00  0.00000000E+00  0.00000000E+00
  0.00000000E+00  0.00000000E+00  0.00000000E+00  0.00000000E+00  0.00000000E+00
IOpCl                                      I                0
IROHF                                      I                0
Alpha Orbital Energies                     R   N=         161
 -2.06655281E+01 -2.06415648E+01 -1.57989961E+01 -1.60315919E+00 -1.40489888E+00
 -9.49574160E-01 -7.85777099E-01 -7.30097324E-01 -6.81806627E-01 -6.26788333E-01
 -5.28950454E-01 -4.62035208E-01  2.81726014E-02  8.02665197E-02  9.39110111E-02
  9.75031549E-02  1.28816543E-01  1.44265672E-01  1.56819262E-01  1.72153902E-01
  1.87068172E-01  1.96520257E-01  2.05546175E-01  2.33540382E-01  2.58555669E-01
  2.96731353E-01  3.07668989E-01  3.29755133E-01  3.65394011E-01  3.82897321E-01
  4.26519378E-01  5.25156629E-01  5.26284971E-01  5.48063534E-01  5.73285608E-01
  6.12734398E-01  6.31179239E-01  6.48981970E-01  6.80144904E-01  7.14479298E-01
  7.18184876E-01  7.48185690E-01  7.74982443E-01  7.81434589E-01  8.11350548E-01
  8.11676531E-01  8.61228900E-01  8.79144197E-01  9.27196642E-01  9.39403702E-01
  9.45622583E-01  9.96245861E-01  1.05028817E+00  1.06480194E+00  1.08218522E+00
  1.10672191E+00  1.16159541E+00  1.19610228E+00  1.25208621E+00  1.26878695E+00
  1.36292025E+00  1.43480893E+00  1.49198641E+00  1.52265906E+00  1.52425144E+00
  1.54475297E+00  1.55594822E+00  1.61025269E+00  1.65809580E+00  1.72938733E+00
  1.75392857E+00  1.82241411E+00  1.85619980E+00  1.96474172E+00  1.97664990E+00
  1.99907404E+00  2.07592089E+00  2.13281381E+00  2.13365610E+00  2.19024636E+00
  2.27171792E+00  2.31028859E+00  2.32932582E+00  2.38172951E+00  2.45206395E+00
  2.46893347E+00  2.49771778E+00  2.50241658E+00  2.52189241E+00  2.54616130E+00
  2.57072152E+00  2.60612307E+00  2.60837491E+00  2.66356080E+00  2.76980120E+00
  2.77877002E+00  2.83477672E+00  2.93880329E+00  2.95080146E+00  3.11609899E+00
  3.14801218E+00  3.18195343E+00  3.24827424E+00  3.46341304E+00  3.84379421E+00
  3.85531473E+00  4.03192039E+00  4.17913088E+00  4.18465826E+00  4.21630484E+00
  4.37273970E+00  4.37627791E+00  4.58397738E+00  4.63432591E+00  4.75923769E+00
  4.81939309E+00  4.87527829E+00  4.88801297E+00  4.98751614E+00  5.00286289E+00
  5.07578338E+00  5.09760261E+00  5.17802258E+00  5.25370774E+00  5.25948105E+00
  5.34186720E+00  5.38531076E+00  5.38722497E+00  5.58345666E+00  5.66758465E+00
  5.79878645E+00  5.99008345E+00  6.11749159E+00  6.43590709E+00  6.50716220E+00
  6.51053057E+00  6.67442915E+00  6.71712004E+00  6.74573723E+00  6.84938787E+00
  6.91643850E+00  7.07687900E+00  7.11895391E+00  7.19779546E+00  7.23602724E+00
  7.26128420E+00  7.26707577E+00  7.33147467E+00  7.38476862E+00  7.43331964E+00
  7.47864951E+00  7.61025669E+00  7.65217188E+00  7.70589385E+00  7.79427960E+00
  7.98844390E+00  8.07400436E+00  8.44071793E+00  1.42375931E+01  1.52432089E+01
  1.59854968E+01
Alpha MO coefficients                      R   N=       25921
  5.92438700E-05  1.88254063E-04 -3.89516783E-04  4.08113391E-06 -5.46459315E-05
  1.05769098E-05  0.00000000E+00  4.82940420E-05  6.04196704E-05  0.00000000E+00
  2.67491498E-04  1.72994554E-05  0.00000000E+00  2.18082638E-05  0.00000000E+00
  0.00000000E+00  1.18478032E-05  7.95997544E-06  5.22324754E-05  0.00000000E+00
  0.00000000E+00 -3.03989571E-05  1.96625048E-05 -7.71386678E-04  7.90130635E-05
 -5.86062263E-05 -9.30922927E-05  2.32695768E-04  1.86291205E-05 -1.72738943E-05
  0.00000000E+00 -9.04601437E-05  4.57969425E-05  0.00000000E+00 -1.39453450E-04
  3.65395846E-05  0.00000000E+00 -1.17949558E-04  5.39886578E-05  0.00000000E+00
 -8.83613137E-06  0.00000000E+00  0.00000000E+00  2.70547868E-05  1.03901856E-05
  2.25738775E-06  0.00000000E+00  0.00000000E+00 -9.74346375E-05 -1.22227656E-04
 -1.74194158E-05  0.00000000E+00  0.00000000E+00 -7.05009323E-05 -2.36677074E-04
  0.00000000E+00  4.16098111E-06  1.89272241E-06  0.00000000E+00  0.00000000E+00
 -8.14317978E-06 -1.44716593E-05  0.00000000E+00 -2.10773719E-05 -1.77029033E-05
  0.00000000E+00  0.00000000E+00  1.93002094E-04 -5.03642436E-05  2.49299643E-04
  1.41884877E-03 -1.01579727E-04 -1.52245224E-03  3.77167944E-04 -1.12903965E-04
 -6.44636035E-05  0.00000000E+00 -2.04354731E-03 -5.61277023E-04  0.00000000E+00
  1.14754544E-03 -7.01528045E-05  0.00000000E+00 -1.14439896E-04 -9.19974701E-05
  0.00000000E+00 -1.25300708E-04  0.00000000E+00  0.00000000E+00  2.13561252E-04
  1.45084546E-04 -4.38850998E-04  0.00000000E+00  0.00000000E+00  5.50658484E-04
  7.91941734E-04 -2.29480046E-06  0.00000000E+00  0.00000000E+00 -1.62418942E-04
 -1.53970760E-04  0.00000000E+00  1.28358718E-05 -1.27894467E-05  0.00000000E+00
  0.00000000E+00  1.58031320E-05  1.52230655E-05  0.00000000E+00  1.43424753E-04
  1.28718321E-04  0.00000000E+00  0.00000000E+00 -2.15535614E-05 -2.92290514E-04
  9.76650862E-01 -9.86470361E-03  4.35629317E-02  4.27924009E-03 -5.30239616E-04
  2.10831546E-03  5.67642319E-04  0.00000000E+00 -2.41182204E-03 -5.87587024E-04
  0.00000000E+00  9.86687608E-04  5.51477988E-04  0.00000000E+00 -5.17536946E-05
  2.94864585E-05  0.00000000E+00 -2.29259668E-04  0.00000000E+00  0.00000000E+00
  7.68527635E-05  5.56632703E-05  3.87428090E-04  0.00000000E+00  0.00000000E+00
 -8.26766781E-04 -4.42324298E-04 -1.59258976E-04  0.00000000E+00  0.00000000E+00
  1.76834789E-04  2.48550230E-04  0.00000000E+00  5.53026394E-05  1.07347907E-05
  0.00000000E+00  0.00000000E+00 -1.71130130E-05 -2.43630865E-05  0.00000000E+00
  1.24005893E-04  4.68087682E-05  0.00000000E+00  0.00000000E+00 -1.60039652E-04
 -1.53616588E-04  4.95505424E-04  2.23532003E-03  2.01503250E-04 -1.44130529E-05
 -1.96550042E-04 -9.11651348E-05  0.00000000E+00 -8.76383469E-04 -8.21695051E-04
  0.00000000E+00 -5.48307270E-05 -4.04345864E-04  0.00000000E+00  3.41079673E-05
  0.00000000E+00  0.00000000E+00 -6.89328517E-05 -8.73374289E-05 -1.48422933E-04
  0.00000000E+00  0.00000000E+00  1.61068400E-04  4.06256494E-04  9.76750799E-01
 -9.21966078E-03  4.35652753E-02  1.02229165E-03 -7.85484333E-04  4.13276954E-04
  1.84172441E-03  0.00000000E+00 -1.42901289E-04 -1.80042962E-03  0.00000000E+00
 -1.37577747E-03  3.75897106E-04  0.00000000E+00 -4.25181353E-05  4.48681847E-05
  0.00000000E+00 -4.78619595E-05  0.00000000E+00  0.00000000E+00  4.08266932E-05
  5.43032451E-05  6.33768551E-04  0.00000000E+00  0.00000000E+00 -2.86302360E-04
  2.75195203E-04 -1.03514851E-04  0.00000000E+00  0.00000000E+00 -2.71978537E-04
 -3.53546371E-04  0.00000000E+00 -3.69201045E-05  4.26007911E-05  0.00000000E+00
  0.00000000E+00 -1.22156497E-05  5.67881546E-06  0.00000000E+00  9.29869014E-05
  5.45623379E-05  0.00000000E+00  0.00000000E+00 -2.23163580E-04 -2.30112177E-04
  5.94938921E-05  1.61269274E-04 -3.20994860E-04 -3.17575147E-04  8.58154162E-04
 -8.37829136E-05  7.78694371E-05  0.00000000E+00  7.06496663E-04 -6.57661094E-04
  0.00000000E+00 -4.03078576E-04  5.21058341E-04  0.00000000E+00  1.50801321E-04
 -1.70495395E-04  0.00000000E+00 -3.45603213E-05  0.00000000E+00  0.00000000E+00
 -3.51629381E-05 -4.96952425E-05 -4.03244259E-04  0.00000000E+00  0.00000000E+00
 -1.59984105E-04 -9.31658529E-04 -1.88926667E-04  0.00000000E+00  0.00000000E+00
  5.45379095E-04 -5.80115983E-05  0.00000000E+00 -8.71453649E-05  9.90049323E-05
  0.00000000E+00  0.00000000E+00 -1.48103768E-04 -5.94183733E-05  0.00000000E+00
 -5.67413252E-05  1.20003810E-04  0.00000000E+00  0.00000000E+00 -4.25090079E-04
  1.73399423E-05  8.05524411E-04  4.71152241E-05  1.97160722E-05 -2.94983602E-04
 -2.02631148E-04 -1.51264196E-05  2.25117153E-05  0.00000000E+00  1.09750526E-04
 -1.28171317E-04  0.00000000E+00  4.05889556E-04 -4.25641890E-04  0.00000000E+00
 -7.94855012E-06 -3.78039879E-08  0.00000000E+00 -5.10012014E-06  0.00000000E+00
  0.00000000E+00 -1.29250519E-05 -1.08296855E-05  9.06587778E-07  0.00000000E+00
  0.00000000E+00  1.38243156E-04 -3.37757501E-05 -6.60758085E-05  0.00000000E+00
  0.00000000E+00  2.57950723E-04 -1.81144012E-05  0.00000000E+00  2.99368021E-06
  1.03192431E-05  0.00000000E+00  0.00000000E+00 -1.33220894E-05 -1.01024235E-05
  0.00000000E+00  1.21218047E-05 -5.19344884E-05  0.00000000E+00  0.00000000E+00
  1.16496039E-04  7.44831466E-05 -7.98367413E-05 -4.97330464E-04 -3.38692337E-04
  2.08914563E-04  3.54523994E-05  3.01858515E-05  0.00000000E+00  4.58405693E-04
 -3.28247515E-04  0.00000000E+00  3.06007711E-04 -3.13530040E-04  0.00000000E+00
 -1.60600057E-05  0.00000000E+00  0.00000000E+00 -3.65615936E-05  3.08128777E-05
  1.11085890E-04  0.00000000E+00  0.00000000E+00 -1.88687107E-05  1.72633262E-04
 -1.26231974E-04 -2.11010444E-04 -2.08030959E-04  4.94306178E-03  3.26113006E-03
  9.30327449E-06 -4.10440576E-05  0.00000000E+00 -5.28565658E-04  8.55944652E-04
  0.00000000E+00 -2.37646649E-03  3.04885369E-03  0.00000000E+00 -8.19288234E-04
  5.65401485E-04  0.00000000E+00  1.84390291E-07  0.00000000E+00  0.00000000E+00
 -3.15308146E-05 -4.35803709E-05 -4.45142284E-04  0.00000000E+00  0.00000000E+00
 -3.77065875E-05 -5.26831633E-04 -6.07135254E-04  0.00000000E+00  0.00000000E+00
 -2.83880803E-04 -9.41134072E-04  0.00000000E+00  1.92476078E-05 -2.14737651E-05
  0.00000000E+00  0.00000000E+00  3.83760635E-05  3.25725036E-05  0.00000000E+00
  9.28331374E-05 -1.43070366E-04  0.00000000E+00  0.00000000E+00  2.64348124E-05
  2.30959933E-04  9.78280842E-01 -8.40178849E-03  4.17857519E-02 -5.47946496E-03
 -3.06078754E-03 -1.09617921E-03 -3.03886362E-03  0.00000000E+00 -9.67820157E-05
  2.98139598E-03  0.00000000E+00  4.43658728E-04  3.07509269E-03  0.00000000E+00
 -4.51571231E-05  5.47053371E-04  0.00000000E+00 -4.39205222E-04  0.00000000E+00
  0.00000000E+00  2.39635935E-04  2.29733354E-04  1.02979360E-03  0.00000000E+00
  0.00000000E+00 -1.71312991E-04  3.00114071E-04  3.59009331E-04  0.00000000E+00
  0.00000000E+00  1.24941334E-04  4.32891263E-05  0.00000000E+00  8.96143857E-05
 -6.86618040E-05  0.00000000E+00  0.00000000E+00 -5.97688011E-05 -1.05077952E-05
  0.00000000E+00 -2.23481894E-04 -2.28648489E-04  0.00000000E+00  0.00000000E+00
  4.58351019E-04  2.58768052E-04 -1.89296740E-04  9.18990163E-04  1.57357622E-04
  3.02150210E-03  8.91897246E-04  2.62038510E-04  1.23698504E-04  0.00000000E+00
  8.75971010E-04  2.74954663E-04  0.00000000E+00  1.23988342E-03 -1.44692377E-04
  0.00000000E+00  1.12616697E-05  3.48628318E-05  0.00000000E+00 -3.97316262E-05
  0.00000000E+00  0.00000000E+00  7.15468979E-05  8.45410067E-05  7.35349057E-05
  0.00000000E+00  0.00000000E+00  6.81542778E-07 -2.73112727E-04 -3.65566698E-05
  0.00000000E+00  0.00000000E+00  2.91216511E-04 -1.39234509E-04  0.00000000E+00
  9.22844071E-05  3.64156771E-05  0.00000000E+00  0.00000000E+00 -5.46216728E-05
 -1.12200646E-04  0.00000000E+00  1.57991596E-04  1.24799569E-04  0.00000000E+00
  0.00000000E+00  2.66416912E-05 -3.54951967E-04  2.19327190E-02  1.79281953E-02
 -1.92433535E-03  4.39833995E-04 -3.36319717E-03 -9.53236616E-04  0.00000000E+00
 -2.70953167E-03 -1.00119881E-03  0.00000000E+00  2.50259926E-03  2.75743268E-04
  0.00000000E+00 -2.66271707E-04  0.00000000E+00  0.00000000E+00  4.38946735E-04
  3.19011095E-04  3.18167840E-04  0.00000000E+00  0.00000000E+00  3.87595803E-04
  4.98467569E-04 -6.68681094E-02  1.61936885E-01  4.31528450E-02  9.28942141E-02
  7.90885351E-03 -1.47480196E-02  2.36399500E-02  0.00000000E+00 -1.99934299E-02
  3.39367176E-02  0.00000000E+00 -1.19311463E-02  1.03695882E-02  0.00000000E+00
 -2.00134842E-03 -1.82811833E-03  0.00000000E+00 -1.84982701E-03  0.00000000E+00
  0.00000000E+00  1.01386838E-04 -1.77896189E-03 -4.11787129E-03  0.00000000E+00
  0.00000000E+00  7.50876175E-04 -4.32221729E-03  1.08273938E-03  0.00000000E+00
  0.00000000E+00  1.68155870E-04 -1.67591977E-03  0.00000000E+00  4.57537001E-04
 -8.91390344E-04  0.00000000E+00  0.00000000E+00  7.08264205E-04  1.31536498E-03
  0.00000000E+00 -2.47767422E-04  5.53073363E-04  0.00000000E+00  0.00000000E+00
 -2.32798288E-04  1.31931786E-04 -1.30058404E-01  3.07413662E-01  8.09641007E-02
  6.36001846E-02  5.36970524E-04 -7.32433996E-02 -4.71816697E-02  0.00000000E+00
 -7.67424127E-02 -6.49931269E-02  0.00000000E+00 -3.10578418E-03  8.81705523E-03
  0.00000000E+00 -6.42809665E-05  3.16726458E-03  0.00000000E+00 -9.28706206E-03
  0.00000000E+00  0.00000000E+00  8.49866824E-03  6.30619289E-03 -1.14823659E-02
  0.00000000E+00  0.00000000E+00  9.20527747E-03  5.95552468E-03  6.15093206E-03
  0.00000000E+00  0.00000000E+00 -1.39582490E-04  4.93452350E-04  0.00000000E+00
  2.48627127E-03  2.43649487E-03  0.00000000E+00  0.00000000E+00 -4.83438205E-03
 -5.48062410E-03  0.00000000E+00 -1.37667770E-03 -4.26951300E-04  0.00000000E+00
  0.00000000E+00  9.10136315E-04 -3.34533371E-05 -1.49961368E-01  3.58667691E-01
  9.61438566E-02  1.79036164E-01 -1.50982199E-02  7.96843403E-02  2.19006906E-02
  0.00000000E+00  1.01042285E-01  2.74967928E-02  0.00000000E+00  1.75580443E-02
  3.25729643E-03  0.00000000E+00 -8.57676962E-03 -2.41663187E-03  0.00000000E+00
 -5.15427535E-03  0.00000000E+00  0.00000000E+00  7.27612229E-03  4.47268840E-03
 -9.45828943E-03  0.00000000E+00  0.00000000E+00  1.50207309E-02  9.41142048E-03
  2.51545504E-03  0.00000000E+00  0.00000000E+00 -3.64544276E-03 -2.62706172E-03
  0.00000000E+00 -3.14087793E-03 -8.70180740E-04  0.00000000E+00  0.00000000E+00
  3.31141384E-03  3.61519975E-03  0.00000000E+00 -1.00056923E-04 -2.67280066E-04
  0.00000000E+00  0.00000000E+00  1.02750894E-03  1.90955929E-03  8.23618045E-02
  8.08663374E-02 -2.14322526E-02 -2.94741493E-03 -1.21354444E-02 -4.93945723E-03
  0.00000000E+00 -1.48536459E-02 -1.29490905E-03  0.00000000E+00  7.98098652E-03
  2.50198957E-03  0.00000000E+00 -1.38051144E-03  0.00000000E+00  0.00000000E+00
  2.30323465E-03  1.30489712E-03  5.38973553E-04  0.00000000E+00  0.00000000E+00
  2.09359866E-03 -1.54296130E-03 -1.81260484E-01  4.41265914E-01  1.20424539E-01
  2.55742662E-01  1.15382141E-02  1.72695262E-02  3.83771801E-02  0.00000000E+00