title                                                                   
SP        RMP2-FC                                                     Aug-CC-pVTZ         
Number of atoms                            I                4
Info1-9                                    I   N=           9
          29          20           0           0           0         110
           1           2           1
Full Title                                 C   N=           1
title       
Route                                      C   N=           4
#p SP mp2/aug-cc-pvtz density=current           
Charge                                     I                0
Multiplicity                               I                1
Number of electrons                        I               24
Number of alpha electrons                  I               12
Number of beta electrons                   I               12
Number of basis functions                  I              161
Number of independent functions            I              161
Number of point charges in /Mol/           I                0
Number of translation vectors              I                0
Atomic numbers                             I   N=           4
           1           8           7           8
Nuclear charges                            R   N=           4
  1.00000000E+00  8.00000000E+00  7.00000000E+00  8.00000000E+00
Current cartesian coordinates              R   N=          12
 -3.34021448E+00 -2.28145046E-01  1.66294717E-31 -1.72163666E+00 -1.08956319E+00
  2.39687240E-31  5.12055767E-17  9.87844396E-01 -2.73305156E-32  2.13916347E+00
  2.53717475E-01 -1.48897563E-31
Number of symbols in /Mol/                 I                0
Force Field                                I                0
Atom Types                                 C   N=           4
                                                
Int Atom Types                             I   N=           4
           0           0           0           0
MM charges                                 R   N=           4
  0.00000000E+00  0.00000000E+00  0.00000000E+00  0.00000000E+00
Integer atomic weights                     I   N=           4
           1          16          14          16
Real atomic weights                        R   N=           4
  1.00782504E+00  1.59949146E+01  1.40030740E+01  1.59949146E+01
Atom fragment info                         I   N=           4
           0           0           0           0
Atom residue num                           I   N=           4
           0           0           0           0
Nuclear spins                              I   N=           4
           1           0           2           0
Nuclear ZEff                               R   N=           4
 -1.00000000E+00 -5.60000000E+00 -4.55000000E+00 -5.60000000E+00
Nuclear ZNuc                               R   N=           4
  1.00000000E+00  8.00000000E+00  7.00000000E+00  8.00000000E+00
Nuclear QMom                               R   N=           4
  0.00000000E+00  0.00000000E+00  2.04400000E+00  0.00000000E+00
Nuclear GFac                               R   N=           4
  2.79284600E+00  0.00000000E+00  4.03761000E-01  0.00000000E+00
MicOpt                                     I   N=           4
          -1          -1          -1          -1
Number of residues                         I                0
Number of secondary structures             I                0
SymInf integers                            I   N=          26
           1           2           1           1           1           1
           1          -1           0           0           0           0
           0           0           0           0           0           0
           0           0           0           0           0           0
           0           0
RotTr to input orientation                 R   N=          12
  4.69813827E-01  2.38807311E-16  8.82765523E-01  8.82765523E-01  3.82359783E-17
 -4.69813827E-01 -1.45948380E-16  1.00000000E+00 -1.92847069E-16  1.77067753E+00
  0.00000000E+00  2.84144048E+00
Number of contracted shells                I               51
Number of primitive shells                 I               92
Pure/Cartesian d shells                    I                0
Pure/Cartesian f shells                    I                0
Highest angular momentum                   I                3
Largest degree of contraction              I                7
Shell types                                I   N=          51
           0           0           0           0           1           1
           1          -2          -2           0           0           0
           0           0           1           1           1           1
          -2          -2          -2          -3          -3           0
           0           0           0           0           1           1
           1           1          -2          -2          -2          -3
          -3           0           0           0           0           0
           1           1           1           1          -2          -2
          -2          -3          -3
Number of primitives per shell             I   N=          51
           3           1           1           1           1           1
           1           1           1           7           6           1
           1           1           3           1           1           1
           1           1           1           1           1           7
           6           1           1           1           3           1
           1           1           1           1           1           1
           1           7           6           1           1           1
           3           1           1           1           1           1
           1           1           1
Shell to atom map                          I   N=          51
           1           1           1           1           1           1
           1           1           1           2           2           2
           2           2           2           2           2           2
           2           2           2           2           2           3
           3           3           3           3           3           3
           3           3           3           3           3           3
           3           4           4           4           4           4
           4           4           4           4           4           4
           4           4           4
Primitive exponents                        R   N=          92
  3.38700000E+01  5.09500000E+00  1.15900000E+00  3.25800000E-01  1.02700000E-01
  2.52600000E-02  1.40700000E+00  3.88000000E-01  1.02000000E-01  1.05700000E+00
  2.47000000E-01  1.53300000E+04  2.29900000E+03  5.22400000E+02  1.47300000E+02
  4.75500000E+01  1.67600000E+01  6.20700000E+00  5.22400000E+02  1.47300000E+02
  4.75500000E+01  1.67600000E+01  6.20700000E+00  6.88200000E-01  1.75200000E+00
  2.38400000E-01  7.37600000E-02  3.44600000E+01  7.74900000E+00  2.28000000E+00
  7.15600000E-01  2.14000000E-01  5.97400000E-02  2.31400000E+00  6.45000000E-01
  2.14000000E-01  1.42800000E+00  5.00000000E-01  1.14200000E+04  1.71200000E+03
  3.89300000E+02  1.10000000E+02  3.55700000E+01  1.25400000E+01  4.64400000E+00
  3.89300000E+02  1.10000000E+02  3.55700000E+01  1.25400000E+01  4.64400000E+00
  5.11800000E-01  1.29300000E+00  1.78700000E-01  5.76000000E-02  2.66300000E+01
  5.94800000E+00  1.74200000E+00  5.55000000E-01  1.72500000E-01  4.91000000E-02
  1.65400000E+00  4.69000000E-01  1.51000000E-01  1.09300000E+00  3.64000000E-01
  1.53300000E+04  2.29900000E+03  5.22400000E+02  1.47300000E+02  4.75500000E+01
  1.67600000E+01  6.20700000E+00  5.22400000E+02  1.47300000E+02  4.75500000E+01
  1.67600000E+01  6.20700000E+00  6.88200000E-01  1.75200000E+00  2.38400000E-01
  7.37600000E-02  3.44600000E+01  7.74900000E+00  2.28000000E+00  7.15600000E-01
  2.14000000E-01  5.97400000E-02  2.31400000E+00  6.45000000E-01  2.14000000E-01
  1.42800000E+00  5.00000000E-01
Contraction coefficients                   R   N=          92
  2.54948632E-02  1.90362766E-01  8.52162022E-01  1.00000000E+00  1.00000000E+00
  1.00000000E+00  1.00000000E+00  1.00000000E+00  1.00000000E+00  1.00000000E+00
  1.00000000E+00  5.19808943E-04  4.02025621E-03  2.07128267E-02  8.10105536E-02
  2.35962985E-01  4.42653446E-01  3.57064423E-01 -4.42115008E-05 -1.22591041E-03
 -1.05517725E-02 -6.74452633E-02 -1.71198607E-01  1.07329856E+00  1.00000000E+00
  1.00000000E+00  1.00000000E+00  4.11634896E-02  2.57762836E-01  8.02419274E-01
  1.00000000E+00  1.00000000E+00  1.00000000E+00  1.00000000E+00  1.00000000E+00
  1.00000000E+00  1.00000000E+00  1.00000000E+00  5.34563860E-04  4.13435660E-03
  2.12335358E-02  8.25006224E-02  2.38138871E-01  4.42551547E-01  3.53757422E-01
 -4.89867350E-05 -1.19527323E-03 -1.03490714E-02 -6.48680190E-02 -1.71552477E-01
  1.07289568E+00  1.00000000E+00  1.00000000E+00  1.00000000E+00  3.98072123E-02
  2.49002660E-01  8.10479727E-01  1.00000000E+00  1.00000000E+00  1.00000000E+00
  1.00000000E+00  1.00000000E+00  1.00000000E+00  1.00000000E+00  1.00000000E+00
  5.19808943E-04  4.02025621E-03  2.07128267E-02  8.10105536E-02  2.35962985E-01
  4.42653446E-01  3.57064423E-01 -4.42115008E-05 -1.22591041E-03 -1.05517725E-02
 -6.74452633E-02 -1.71198607E-01  1.07329856E+00  1.00000000E+00  1.00000000E+00
  1.00000000E+00  4.11634896E-02  2.57762836E-01  8.02419274E-01  1.00000000E+00
  1.00000000E+00  1.00000000E+00  1.00000000E+00  1.00000000E+00  1.00000000E+00
  1.00000000E+00  1.00000000E+00
Coordinates of each shell                  R   N=         153
 -3.34021448E+00 -2.28145046E-01  1.13506688E-31 -3.34021448E+00 -2.28145046E-01
  1.13506688E-31 -3.34021448E+00 -2.28145046E-01  1.13506688E-31 -3.34021448E+00
 -2.28145046E-01  1.13506688E-31 -3.34021448E+00 -2.28145046E-01  1.13506688E-31
 -3.34021448E+00 -2.28145046E-01  1.13506688E-31 -3.34021448E+00 -2.28145046E-01
  1.13506688E-31 -3.34021448E+00 -2.28145046E-01  1.13506688E-31 -3.34021448E+00
 -2.28145046E-01  1.13506688E-31 -1.72163666E+00 -1.08956319E+00  7.75600458E-32
 -1.72163666E+00 -1.08956319E+00  7.75600458E-32 -1.72163666E+00 -1.08956319E+00
  7.75600458E-32 -1.72163666E+00 -1.08956319E+00  7.75600458E-32 -1.72163666E+00
 -1.08956319E+00  7.75600458E-32 -1.72163666E+00 -1.08956319E+00  7.75600458E-32
 -1.72163666E+00 -1.08956319E+00  7.75600458E-32 -1.72163666E+00 -1.08956319E+00
  7.75600458E-32 -1.72163666E+00 -1.08956319E+00  7.75600458E-32 -1.72163666E+00
 -1.08956319E+00  7.75600458E-32 -1.72163666E+00 -1.08956319E+00  7.75600458E-32
 -1.72163666E+00 -1.08956319E+00  7.75600458E-32 -1.72163666E+00 -1.08956319E+00
  7.75600458E-32 -1.72163666E+00 -1.08956319E+00  7.75600458E-32 -1.03977277E-18
  9.87844396E-01 -1.93668350E-32 -1.03977277E-18  9.87844396E-01 -1.93668350E-32
 -1.03977277E-18  9.87844396E-01 -1.93668350E-32 -1.03977277E-18  9.87844396E-01
 -1.93668350E-32 -1.03977277E-18  9.87844396E-01 -1.93668350E-32 -1.03977277E-18
  9.87844396E-01 -1.93668350E-32 -1.03977277E-18  9.87844396E-01 -1.93668350E-32
 -1.03977277E-18  9.87844396E-01 -1.93668350E-32 -1.03977277E-18  9.87844396E-01
 -1.93668350E-32 -1.03977277E-18  9.87844396E-01 -1.93668350E-32 -1.03977277E-18
  9.87844396E-01 -1.93668350E-32 -1.03977277E-18  9.87844396E-01 -1.93668350E-32
 -1.03977277E-18  9.87844396E-01 -1.93668350E-32 -1.03977277E-18  9.87844396E-01
 -1.93668350E-32  2.13916347E+00  2.53717475E-01 -7.48024013E-32  2.13916347E+00
  2.53717475E-01 -7.48024013E-32  2.13916347E+00  2.53717475E-01 -7.48024013E-32
  2.13916347E+00  2.53717475E-01 -7.48024013E-32  2.13916347E+00  2.53717475E-01
 -7.48024013E-32  2.13916347E+00  2.53717475E-01 -7.48024013E-32  2.13916347E+00
  2.53717475E-01 -7.48024013E-32  2.13916347E+00  2.53717475E-01 -7.48024013E-32
  2.13916347E+00  2.53717475E-01 -7.48024013E-32  2.13916347E+00  2.53717475E-01
 -7.48024013E-32  2.13916347E+00  2.53717475E-01 -7.48024013E-32  2.13916347E+00
  2.53717475E-01 -7.48024013E-32  2.13916347E+00  2.53717475E-01 -7.48024013E-32
  2.13916347E+00  2.53717475E-01 -7.48024013E-32
Num ILSW                                   I              100
ILSW                                       I   N=         100
           0           0           0           0           2           0
           0           0           0           0           0          -1
           5           0           0           0           0           0
           0           0           0           0           0           0
           1           0           0           0           0           0
           0           0      100000           0          -1           0
           0           0           0           0           0           0
           0           0           0           1           0           0
           0 -2000000000           1           0           0           0
           0           0           4          52           0           0
           0           0           0           0           0           0
           0           0           0           4           0           1
           0           0           0           0           0           0
           0           0           0           0           0           0
           0           0           0           0           0           0
           0           0           0           0           0           0
           0           0           0           0
Num RLSW                                   I               52
RLSW                                       R   N=          52
  1.00000000E+00  1.00000000E+00  1.00000000E+00  1.00000000E+00  1.00000000E+00
  0.00000000E+00  0.00000000E+00  1.00000000E+00  0.00000000E+00  0.00000000E+00
  0.00000000E+00  0.00000000E+00  1.00000000E+00  0.00000000E+00  0.00000000E+00
  0.00000000E+00  0.00000000E+00  1.00000000E+00  0.00000000E+00  0.00000000E+00
  0.00000000E+00  0.00000000E+00  1.00000000E+00  0.00000000E+00  0.00000000E+00
  0.00000000E+00  0.00000000E+00  1.00000000E+00  0.00000000E+00  0.00000000E+00
  0.00000000E+00  0.00000000E+00  1.00000000E+00  0.00000000E+00  0.00000000E+00
  0.00000000E+00  0.00000000E+00  0.00000000E+00  1.00000000E+00  1.00000000E+00
  0.00000000E+00  1.00000000E+00  0.00000000E+00  0.00000000E+00  0.00000000E+00
  0.00000000E+00  0.00000000E+00  0.00000000E+00  0.00000000E+00  0.00000000E+00
  0.00000000E+00  0.00000000E+00
MxBond                                     I                2
NBond                                      I   N=           4
           1           2           2           1
IBond                                      I   N=           8
           2           0           1           3           2           4
           3           0
RBond                                      R   N=           8
  1.00000000E+00  0.00000000E+00  1.00000000E+00  1.00000000E+00  1.00000000E+00
  2.00000000E+00  2.00000000E+00  0.00000000E+00
Virial Ratio                               R      2.002793670965433E+00
SCF Energy                                 R     -2.047195021294470E+02
MP2 Energy                                 R     -2.054208268632417E+02
Total Energy                               R     -2.054208268632417E+02
Post-SCF wavefunction norm                 R      1.091438081552929E+00
RMS Density                                R      5.835834547928628E-09
Job Status                                 I                1
Nuclear derivative order                   I                0
External E-field                           R   N=          35
  0.00000000E+00  0.00000000E+00  0.00000000E+00  0.00000000E+00  0.00000000E+00
  0.00000000E+00  0.00000000E+00  0.00000000E+00  0.00000000E+00  0.00000000E+00
  0.00000000E+00  0.00000000E+00  0.00000000E+00  0.00000000E+00  0.00000000E+00
  0.00000000E+00  0.00000000E+00  0.00000000E+00  0.00000000E+00  0.00000000E+00
  0.00000000E+00  0.00000000E+00  0.00000000E+00  0.00000000E+00  0.00000000E+00
  0.00000000E+00  0.00000000E+00  0.00000000E+00  0.00000000E+00  0.00000000E+00
  0.00000000E+00  0.00000000E+00  0.00000000E+00  0.00000000E+00  0.00000000E+00
IOpCl                                      I                0
IROHF                                      I                0
Alpha Orbital Energies                     R   N=         161
 -2.06649674E+01 -2.06469681E+01 -1.58018837E+01 -1.58721469E+00 -1.40248653E+00
 -9.52171436E-01 -7.80360627E-01 -7.25761374E-01 -6.74992368E-01 -6.23265966E-01
 -5.27170880E-01 -4.65766463E-01  2.74287020E-02  7.45183955E-02  9.44210418E-02
  9.74305175E-02  1.28963404E-01  1.42842697E-01  1.56921576E-01  1.71835782E-01
  1.86988407E-01  1.96945850E-01  2.05090128E-01  2.33687936E-01  2.57259797E-01
  2.95393495E-01  3.05448640E-01  3.29508499E-01  3.65295486E-01  3.81547565E-01
  4.22604528E-01  5.22888748E-01  5.25888520E-01  5.46804349E-01  5.72706275E-01
  6.09061106E-01  6.23755029E-01  6.46721235E-01  6.84645087E-01  7.15138429E-01
  7.18519653E-01  7.46827892E-01  7.74355987E-01  7.80190946E-01  8.09009514E-01
  8.10223927E-01  8.58273922E-01  8.75804094E-01  9.24091370E-01  9.37939731E-01
  9.42100284E-01  9.92374599E-01  1.04854150E+00  1.05984430E+00  1.07874885E+00
  1.10333718E+00  1.15938766E+00  1.19468973E+00  1.24966317E+00  1.26482380E+00
  1.36006932E+00  1.43100433E+00  1.48832204E+00  1.52326730E+00  1.52356088E+00
  1.54232792E+00  1.55257192E+00  1.60730521E+00  1.65582781E+00  1.72839004E+00
  1.75340244E+00  1.82213260E+00  1.85408345E+00  1.96128006E+00  1.96930803E+00
  2.00833893E+00  2.07455019E+00  2.13122573E+00  2.13338351E+00  2.17961981E+00
  2.26846592E+00  2.30563213E+00  2.32555253E+00  2.37739500E+00  2.44915821E+00
  2.46744258E+00  2.49683360E+00  2.50065327E+00  2.51286669E+00  2.54356975E+00
  2.55937239E+00  2.60139989E+00  2.60269489E+00  2.64931101E+00  2.75338111E+00
  2.77244464E+00  2.83848463E+00  2.92879527E+00  2.95108091E+00  3.11536880E+00
  3.14178751E+00  3.17953036E+00  3.23363169E+00  3.45611332E+00  3.82575188E+00
  3.85064841E+00  4.02379002E+00  4.14375092E+00  4.16743357E+00  4.20971941E+00
  4.35650391E+00  4.36529395E+00  4.56904232E+00  4.60938423E+00  4.74298146E+00
  4.81642424E+00  4.86722011E+00  4.88884975E+00  4.97953343E+00  5.00312998E+00
  5.07223085E+00  5.07679956E+00  5.16105784E+00  5.24111728E+00  5.25582547E+00
  5.30726305E+00  5.36413464E+00  5.36692280E+00  5.60512621E+00  5.63550112E+00
  5.78159529E+00  5.97468684E+00  6.11596852E+00  6.42858846E+00  6.50706104E+00
  6.51094028E+00  6.66787574E+00  6.70922518E+00  6.74120376E+00  6.83134554E+00
  6.90809359E+00  7.06316830E+00  7.11128930E+00  7.17617884E+00  7.22026166E+00
  7.24854103E+00  7.25236481E+00  7.28244280E+00  7.35947199E+00  7.42658566E+00
  7.47365648E+00  7.56488922E+00  7.63817094E+00  7.68345045E+00  7.75572700E+00
  7.96498780E+00  8.06581541E+00  8.41648738E+00  1.40237837E+01  1.50478818E+01
  1.54638167E+01
Alpha MO coefficients                      R   N=       25921
  5.07226797E-05  1.51450301E-04 -4.19426791E-04  2.30967580E-06  5.47837762E-05
  1.47378414E-05  0.00000000E+00 -5.86896393E-05  8.07731505E-05  0.00000000E+00
 -2.81434888E-04  2.65742877E-05  0.00000000E+00  2.00829434E-05  0.00000000E+00
  0.00000000E+00  1.51197985E-05 -3.34072012E-06  5.90532016E-05  0.00000000E+00
  0.00000000E+00 -3.49574153E-05 -1.72066378E-05 -1.00266012E-03  8.66140084E-05
 -7.21762231E-05 -5.58325509E-05  2.26665277E-04 -1.92375654E-05 -1.54219074E-05
  0.00000000E+00  9.00897501E-05  4.06635428E-05  0.00000000E+00  1.39064284E-04
 -3.87103645E-06  0.00000000E+00  1.16692172E-04  4.75027782E-05  0.00000000E+00
 -8.72997926E-06  0.00000000E+00  0.00000000E+00  2.16082132E-05 -1.17455401E-05
 -1.70274568E-06  0.00000000E+00  0.00000000E+00 -5.69245058E-05  1.25657378E-04
 -1.48947788E-05  0.00000000E+00  0.00000000E+00 -3.05575254E-05  2.43751543E-04
  0.00000000E+00 -4.96885512E-06  2.24935039E-06  0.00000000E+00  0.00000000E+00
  1.06460289E-05 -1.35981023E-05  0.00000000E+00  2.35596952E-05 -1.34940443E-05
  0.00000000E+00  0.00000000E+00 -1.96465653E-04 -2.02986479E-05  2.42871001E-04
  1.37036121E-03 -1.81698232E-04 -1.17443019E-03  4.70948108E-04  6.59533042E-05
 -5.09600213E-05  0.00000000E+00  2.07602182E-03 -5.84005432E-04  0.00000000E+00
 -9.98123487E-04 -1.18132295E-04  0.00000000E+00  1.35030138E-04 -1.01469077E-04
  0.00000000E+00 -1.27760186E-04  0.00000000E+00  0.00000000E+00  2.08305197E-04
 -1.52206220E-04 -4.88104476E-04  0.00000000E+00  0.00000000E+00  6.36326707E-04
 -8.43963559E-04 -2.60335208E-05  0.00000000E+00  0.00000000E+00 -1.07792216E-04
  1.27015210E-04  0.00000000E+00 -4.20087149E-05 -3.58559181E-06  0.00000000E+00
  0.00000000E+00  8.29673133E-06 -1.85566397E-05  0.00000000E+00 -1.46314472E-04
  1.35065456E-04  0.00000000E+00  0.00000000E+00  7.32820862E-06 -3.39233260E-04
  9.76684971E-01 -9.87457224E-03  4.35087693E-02  3.96935795E-03 -6.39828750E-04
 -2.08109727E-03  5.85758184E-04  0.00000000E+00  2.46824793E-03 -6.41513848E-04
  0.00000000E+00 -9.11283273E-04  5.45976327E-04  0.00000000E+00  6.17174666E-05
  2.48277570E-05  0.00000000E+00 -2.15925017E-04  0.00000000E+00  0.00000000E+00
  5.73276248E-05 -4.39807595E-05  3.97573588E-04  0.00000000E+00  0.00000000E+00
 -8.36536453E-04  4.81263552E-04 -1.77251475E-04  0.00000000E+00  0.00000000E+00
  1.83818125E-04 -2.69467929E-04  0.00000000E+00 -6.47519364E-05  1.53021580E-05
  0.00000000E+00  0.00000000E+00  2.32772287E-05 -3.69379944E-05  0.00000000E+00
 -1.11295267E-04  4.35613079E-05  0.00000000E+00  0.00000000E+00  1.49753169E-04
 -1.54260010E-04  4.72531197E-04  2.47871956E-03  3.49462100E-04 -8.47960646E-06
  2.22360435E-04 -1.07851793E-04  0.00000000E+00  9.77738485E-04 -8.83254748E-04
  0.00000000E+00  8.43466744E-05 -4.27287162E-04  0.00000000E+00  1.18854100E-05
  0.00000000E+00  0.00000000E+00 -4.51212002E-05  5.74579365E-05 -1.52458750E-04
  0.00000000E+00  0.00000000E+00  1.55583253E-04 -4.19994803E-04  9.76759754E-01
 -9.24932966E-03  4.35481113E-02  7.76332762E-04 -9.28704230E-04 -3.76271974E-04
  1.86791024E-03  0.00000000E+00  1.71287207E-04 -1.85773400E-03  0.00000000E+00
  1.51191636E-03  2.93618527E-04  0.00000000E+00  6.11684089E-05  2.65789753E-05
  0.00000000E+00 -4.20188543E-05  0.00000000E+00  0.00000000E+00  3.40874266E-05
 -4.90249752E-05  6.54306502E-04  0.00000000E+00  0.00000000E+00 -3.07500294E-04
 -2.49160353E-04 -9.11852990E-05  0.00000000E+00  0.00000000E+00 -2.74647312E-04
  3.91634703E-04  0.00000000E+00  3.22138530E-05  4.60309297E-05  0.00000000E+00
  0.00000000E+00  1.38960116E-05 -4.20323227E-06  0.00000000E+00 -9.25149329E-05
  5.48098697E-05  0.00000000E+00  0.00000000E+00  2.14642680E-04 -2.36722417E-04
  6.26134980E-05  1.79312289E-04 -3.21068856E-04 -2.93318287E-04  9.00293987E-04
  8.62336476E-05  7.81031723E-05  0.00000000E+00 -7.13738679E-04 -6.60247335E-04
  0.00000000E+00  3.88312884E-04  4.97795840E-04  0.00000000E+00 -1.66775649E-04
 -1.78763556E-04  0.00000000E+00 -3.50715306E-05  0.00000000E+00  0.00000000E+00
 -3.31877601E-05  4.95050481E-05 -4.04786831E-04  0.00000000E+00  0.00000000E+00
 -1.40733899E-04  9.38981627E-04 -1.92857290E-04  0.00000000E+00  0.00000000E+00
  5.47513291E-04  5.10614863E-05  0.00000000E+00  8.92750810E-05  9.84649273E-05
  0.00000000E+00  0.00000000E+00  1.47370169E-04 -6.51883967E-05  0.00000000E+00
  5.80815943E-05  1.20856680E-04  0.00000000E+00  0.00000000E+00  4.29830817E-04
 -9.09272289E-07  1.03783494E-03  4.41567428E-05  2.87622994E-05 -3.11773325E-04
 -2.15694797E-04  1.45155213E-05  2.27731475E-05  0.00000000E+00 -1.05130497E-04
 -1.24642188E-04  0.00000000E+00 -3.76292748E-04 -4.20666218E-04  0.00000000E+00
  1.45832838E-05  3.64229747E-06  0.00000000E+00 -5.37729126E-06  0.00000000E+00
  0.00000000E+00 -1.25757481E-05  9.66547577E-06  9.67819608E-07  0.00000000E+00
  0.00000000E+00  1.37477827E-04  3.75741046E-05 -6.12744146E-05  0.00000000E+00
  0.00000000E+00  2.49142552E-04  1.55003100E-05  0.00000000E+00 -2.65303579E-06
  1.11134017E-05  0.00000000E+00  0.00000000E+00  1.22754121E-05 -1.27163500E-05
  0.00000000E+00 -1.28798867E-05 -4.99308793E-05  0.00000000E+00  0.00000000E+00
 -1.14046377E-04  7.68795264E-05 -7.42891579E-05 -4.66530371E-04 -2.16408560E-04
  2.13115588E-04 -3.49005543E-05  3.12499349E-05  0.00000000E+00 -4.61764515E-04
 -3.31703826E-04  0.00000000E+00 -2.73384626E-04 -3.18378978E-04  0.00000000E+00
 -1.46308143E-05  0.00000000E+00  0.00000000E+00 -3.93846257E-05 -2.90752965E-05
  1.07610765E-04  0.00000000E+00  0.00000000E+00 -3.41082048E-05 -1.68678816E-04
 -1.26762257E-04 -2.10602380E-04 -2.08870109E-04  4.99721114E-03  3.18313447E-03
 -1.02389614E-05 -4.18255206E-05  0.00000000E+00  5.41490742E-04  8.57010871E-04
  0.00000000E+00  2.44912925E-03  3.08877720E-03  0.00000000E+00  8.28612455E-04
  5.41855571E-04  0.00000000E+00 -1.30080145E-07  0.00000000E+00  0.00000000E+00
 -2.85491407E-05  4.45131080E-05 -4.46400950E-04  0.00000000E+00  0.00000000E+00
 -3.94711920E-05  5.33185451E-04 -6.04142998E-04  0.00000000E+00  0.00000000E+00
 -2.98429036E-04  9.48823646E-04  0.00000000E+00 -1.92747260E-05 -2.22767617E-05
  0.00000000E+00  0.00000000E+00 -4.06676641E-05  3.42985549E-05  0.00000000E+00
 -9.68987058E-05 -1.42019413E-04  0.00000000E+00  0.00000000E+00 -1.52669652E-05
  2.23215918E-04  9.78303272E-01 -8.54675306E-03  4.17012063E-02 -5.96814104E-03
 -3.23210922E-03  1.00074930E-03 -3.04821913E-03  0.00000000E+00 -3.07510692E-05
  3.01346009E-03  0.00000000E+00 -4.72736256E-04  3.11263301E-03  0.00000000E+00
  1.41078773E-05  5.56924640E-04  0.00000000E+00 -4.16275827E-04  0.00000000E+00
  0.00000000E+00  1.96107815E-04 -2.04492229E-04  1.05917337E-03  0.00000000E+00
  0.00000000E+00 -2.46605468E-04 -3.02783768E-04  3.81998987E-04  0.00000000E+00
  0.00000000E+00  7.41634670E-05 -8.25178609E-05  0.00000000E+00 -7.28471469E-05
 -7.22752787E-05  0.00000000E+00  0.00000000E+00  3.79243455E-05  5.14383936E-06
  0.00000000E+00  2.10824068E-04 -2.30846938E-04  0.00000000E+00  0.00000000E+00
 -4.49983682E-04  2.91997128E-04 -1.64097850E-04  8.78954301E-04  1.02996701E-04
  3.40083936E-03  1.17685831E-03 -2.24671923E-04  1.10877655E-04  0.00000000E+00
 -9.87732019E-04  3.36562337E-04  0.00000000E+00 -1.53938889E-03  3.88595316E-05
  0.00000000E+00 -6.18881583E-05  5.85687146E-05  0.00000000E+00 -4.30166210E-05
  0.00000000E+00  0.00000000E+00  7.18655103E-05 -8.67335927E-05  1.18838233E-05
  0.00000000E+00  0.00000000E+00  8.60318057E-05  1.76091199E-04 -8.67676604E-05
  0.00000000E+00  0.00000000E+00  3.45758501E-04  6.26900839E-05  0.00000000E+00
 -8.01345321E-05  3.23652655E-05  0.00000000E+00  0.00000000E+00  4.37057976E-05
 -9.97279967E-05  0.00000000E+00 -1.31927839E-04  1.14664650E-04  0.00000000E+00
  0.00000000E+00 -5.07308924E-05 -3.07931746E-04  2.41793439E-02  1.97754855E-02
 -3.27862843E-03  3.03324577E-04  3.70731557E-03 -1.09126965E-03  0.00000000E+00
  3.04623947E-03 -8.84277655E-04  0.00000000E+00 -2.93850521E-03  2.98285502E-04
  0.00000000E+00 -2.76385606E-04  0.00000000E+00  0.00000000E+00  5.13417090E-04
 -3.01456014E-04  3.41719098E-04  0.00000000E+00  0.00000000E+00  4.88073320E-04
 -4.71776313E-04 -7.36611013E-02  1.78486585E-01  4.76588065E-02  1.02711622E-01
  8.29457979E-03  1.51710381E-02  2.50381392E-02  0.00000000E+00  2.04226915E-02
  3.60048956E-02  0.00000000E+00  1.20756098E-02  1.10717955E-02  0.00000000E+00
  1.80751124E-03 -1.78840992E-03  0.00000000E+00 -1.93838548E-03  0.00000000E+00
  0.00000000E+00  1.34497892E-04  1.77930587E-03 -4.54867672E-03  0.00000000E+00
  0.00000000E+00  8.91708934E-04  4.58665575E-03  9.54101096E-04  0.00000000E+00
  0.00000000E+00  2.40936228E-04  2.03688708E-03  0.00000000E+00 -4.78040252E-04
 -9.51633407E-04  0.00000000E+00  0.00000000E+00 -7.57005936E-04  1.40802435E-03
  0.00000000E+00  1.99568477E-04  4.01363428E-04  0.00000000E+00  0.00000000E+00
 -6.22045511E-05  2.41651326E-04 -1.28974673E-01  3.06703554E-01  8.08572431E-02
  6.55785708E-02  2.26971173E-04  6.60920110E-02 -4.78485966E-02  0.00000000E+00
  7.02740935E-02 -6.63091948E-02  0.00000000E+00  2.64213861E-03  7.90527354E-03
  0.00000000E+00 -1.04759568E-04  3.03478899E-03  0.00000000E+00 -8.93854289E-03
  0.00000000E+00  0.00000000E+00  7.59547256E-03 -5.61757157E-03 -1.17416907E-02
  0.00000000E+00  0.00000000E+00  8.80673920E-03 -5.32648627E-03  5.49502417E-03
  0.00000000E+00  0.00000000E+00  5.59060821E-04 -4.13471391E-04  0.00000000E+00
 -2.19173004E-03  2.41542143E-03  0.00000000E+00  0.00000000E+00  4.51156623E-03
 -5.38272245E-03  0.00000000E+00  1.23970019E-03 -2.30232640E-04  0.00000000E+00
  0.00000000E+00 -4.64701565E-04 -4.26195504E-04 -1.46657679E-01  3.51483807E-01
  9.44641190E-02  1.79614190E-01 -1.26209712E-02 -7.49300091E-02  2.11806116E-02
  0.00000000E+00 -9.62316571E-02  2.69035013E-02  0.00000000E+00 -1.96349679E-02
  3.75695401E-03  0.00000000E+00  7.81112616E-03 -2.30275830E-03  0.00000000E+00
 -4.79121056E-03  0.00000000E+00  0.00000000E+00  6.65484653E-03 -4.26289030E-03
 -9.09321924E-03  0.00000000E+00  0.00000000E+00  1.43198953E-02 -9.22556701E-03
  1.94118983E-03  0.00000000E+00  0.00000000E+00 -2.65903164E-03  2.19243537E-03
  0.00000000E+00  2.98042164E-03 -8.52686725E-04  0.00000000E+00  0.00000000E+00
 -3.05678963E-03  3.53256692E-03  0.00000000E+00  1.08615648E-04 -2.63953733E-04
  0.00000000E+00  0.00000000E+00 -1.00449603E-03  1.87695787E-03  7.94930077E-02
  7.86172173E-02 -2.02181692E-02 -2.84338118E-03  1.15829829E-02 -4.90922304E-03
  0.00000000E+00  1.48105400E-02 -1.69795022E-03  0.00000000E+00 -7.39663070E-03
  2.45579052E-03  0.00000000E+00 -1.33337634E-03  0.00000000E+00  0.00000000E+00
  2.18771741E-03 -1.28336882E-03  3.61141794E-04  0.00000000E+00  0.00000000E+00
  2.21095841E-03  1.29030093E-03 -1.78582648E-01  4.35245305E-01  1.18882069E-01
  2.53625779E-01  1.11158026E-02 -1.66185531E-02  3.70470035E-02  0.00000000E+00