title                                                                   
SP        RMP2-FC                                                     Aug-CC-pVTZ         
Number of atoms                            I                4
Info1-9                                    I   N=           9
          29          20           0           0           0         110
           1           2           1
Full Title                                 C   N=           1
title       
Route                                      C   N=           4
#p SP mp2/aug-cc-pvtz density=current           
Charge                                     I                0
Multiplicity                               I                1
Number of electrons                        I               24
Number of alpha electrons                  I               12
Number of beta electrons                   I               12
Number of basis functions                  I              161
Number of independent functions            I              161
Number of point charges in /Mol/           I                0
Number of translation vectors              I                0
Atomic numbers                             I   N=           4
           1           8           7           8
Nuclear charges                            R   N=           4
  1.00000000E+00  8.00000000E+00  7.00000000E+00  8.00000000E+00
Current cartesian coordinates              R   N=          12
 -3.29347180E+00 -2.84477750E-01  7.04795730E-31 -1.69932869E+00 -1.11114376E+00
  2.03126969E-31  2.58098848E-16  9.84551132E-01  2.58399835E-31  2.11101267E+00
  2.85221234E-01 -4.88947244E-31
Number of symbols in /Mol/                 I                0
Force Field                                I                0
Atom Types                                 C   N=           4
                                                
Int Atom Types                             I   N=           4
           0           0           0           0
MM charges                                 R   N=           4
  0.00000000E+00  0.00000000E+00  0.00000000E+00  0.00000000E+00
Integer atomic weights                     I   N=           4
           1          16          14          16
Real atomic weights                        R   N=           4
  1.00782504E+00  1.59949146E+01  1.40030740E+01  1.59949146E+01
Atom fragment info                         I   N=           4
           0           0           0           0
Atom residue num                           I   N=           4
           0           0           0           0
Nuclear spins                              I   N=           4
           1           0           2           0
Nuclear ZEff                               R   N=           4
 -1.00000000E+00 -5.60000000E+00 -4.55000000E+00 -5.60000000E+00
Nuclear ZNuc                               R   N=           4
  1.00000000E+00  8.00000000E+00  7.00000000E+00  8.00000000E+00
Nuclear QMom                               R   N=           4
  0.00000000E+00  0.00000000E+00  2.04400000E+00  0.00000000E+00
Nuclear GFac                               R   N=           4
  2.79284600E+00  0.00000000E+00  4.03761000E-01  0.00000000E+00
MicOpt                                     I   N=           4
          -1          -1          -1          -1
Number of residues                         I                0
Number of secondary structures             I                0
SymInf integers                            I   N=          26
           1           2           1           1           1           1
           1          -1           0           0           0           0
           0           0           0           0           0           0
           0           0           0           0           0           0
           0           0
RotTr to input orientation                 R   N=          12
  4.60349326E-01  4.30628295E-16  8.87737855E-01  8.87737855E-01 -9.15721314E-16
 -4.60349326E-01  6.14681030E-16  1.00000000E+00 -8.03836729E-16  1.76868919E+00
  0.00000000E+00  2.79278045E+00
Number of contracted shells                I               51
Number of primitive shells                 I               92
Pure/Cartesian d shells                    I                0
Pure/Cartesian f shells                    I                0
Highest angular momentum                   I                3
Largest degree of contraction              I                7
Shell types                                I   N=          51
           0           0           0           0           1           1
           1          -2          -2           0           0           0
           0           0           1           1           1           1
          -2          -2          -2          -3          -3           0
           0           0           0           0           1           1
           1           1          -2          -2          -2          -3
          -3           0           0           0           0           0
           1           1           1           1          -2          -2
          -2          -3          -3
Number of primitives per shell             I   N=          51
           3           1           1           1           1           1
           1           1           1           7           6           1
           1           1           3           1           1           1
           1           1           1           1           1           7
           6           1           1           1           3           1
           1           1           1           1           1           1
           1           7           6           1           1           1
           3           1           1           1           1           1
           1           1           1
Shell to atom map                          I   N=          51
           1           1           1           1           1           1
           1           1           1           2           2           2
           2           2           2           2           2           2
           2           2           2           2           2           3
           3           3           3           3           3           3
           3           3           3           3           3           3
           3           4           4           4           4           4
           4           4           4           4           4           4
           4           4           4
Primitive exponents                        R   N=          92
  3.38700000E+01  5.09500000E+00  1.15900000E+00  3.25800000E-01  1.02700000E-01
  2.52600000E-02  1.40700000E+00  3.88000000E-01  1.02000000E-01  1.05700000E+00
  2.47000000E-01  1.53300000E+04  2.29900000E+03  5.22400000E+02  1.47300000E+02
  4.75500000E+01  1.67600000E+01  6.20700000E+00  5.22400000E+02  1.47300000E+02
  4.75500000E+01  1.67600000E+01  6.20700000E+00  6.88200000E-01  1.75200000E+00
  2.38400000E-01  7.37600000E-02  3.44600000E+01  7.74900000E+00  2.28000000E+00
  7.15600000E-01  2.14000000E-01  5.97400000E-02  2.31400000E+00  6.45000000E-01
  2.14000000E-01  1.42800000E+00  5.00000000E-01  1.14200000E+04  1.71200000E+03
  3.89300000E+02  1.10000000E+02  3.55700000E+01  1.25400000E+01  4.64400000E+00
  3.89300000E+02  1.10000000E+02  3.55700000E+01  1.25400000E+01  4.64400000E+00
  5.11800000E-01  1.29300000E+00  1.78700000E-01  5.76000000E-02  2.66300000E+01
  5.94800000E+00  1.74200000E+00  5.55000000E-01  1.72500000E-01  4.91000000E-02
  1.65400000E+00  4.69000000E-01  1.51000000E-01  1.09300000E+00  3.64000000E-01
  1.53300000E+04  2.29900000E+03  5.22400000E+02  1.47300000E+02  4.75500000E+01
  1.67600000E+01  6.20700000E+00  5.22400000E+02  1.47300000E+02  4.75500000E+01
  1.67600000E+01  6.20700000E+00  6.88200000E-01  1.75200000E+00  2.38400000E-01
  7.37600000E-02  3.44600000E+01  7.74900000E+00  2.28000000E+00  7.15600000E-01
  2.14000000E-01  5.97400000E-02  2.31400000E+00  6.45000000E-01  2.14000000E-01
  1.42800000E+00  5.00000000E-01
Contraction coefficients                   R   N=          92
  2.54948632E-02  1.90362766E-01  8.52162022E-01  1.00000000E+00  1.00000000E+00
  1.00000000E+00  1.00000000E+00  1.00000000E+00  1.00000000E+00  1.00000000E+00
  1.00000000E+00  5.19808943E-04  4.02025621E-03  2.07128267E-02  8.10105536E-02
  2.35962985E-01  4.42653446E-01  3.57064423E-01 -4.42115008E-05 -1.22591041E-03
 -1.05517725E-02 -6.74452633E-02 -1.71198607E-01  1.07329856E+00  1.00000000E+00
  1.00000000E+00  1.00000000E+00  4.11634896E-02  2.57762836E-01  8.02419274E-01
  1.00000000E+00  1.00000000E+00  1.00000000E+00  1.00000000E+00  1.00000000E+00
  1.00000000E+00  1.00000000E+00  1.00000000E+00  5.34563860E-04  4.13435660E-03
  2.12335358E-02  8.25006224E-02  2.38138871E-01  4.42551547E-01  3.53757422E-01
 -4.89867350E-05 -1.19527323E-03 -1.03490714E-02 -6.48680190E-02 -1.71552477E-01
  1.07289568E+00  1.00000000E+00  1.00000000E+00  1.00000000E+00  3.98072123E-02
  2.49002660E-01  8.10479727E-01  1.00000000E+00  1.00000000E+00  1.00000000E+00
  1.00000000E+00  1.00000000E+00  1.00000000E+00  1.00000000E+00  1.00000000E+00
  5.19808943E-04  4.02025621E-03  2.07128267E-02  8.10105536E-02  2.35962985E-01
  4.42653446E-01  3.57064423E-01 -4.42115008E-05 -1.22591041E-03 -1.05517725E-02
 -6.74452633E-02 -1.71198607E-01  1.07329856E+00  1.00000000E+00  1.00000000E+00
  1.00000000E+00  4.11634896E-02  2.57762836E-01  8.02419274E-01  1.00000000E+00
  1.00000000E+00  1.00000000E+00  1.00000000E+00  1.00000000E+00  1.00000000E+00
  1.00000000E+00  1.00000000E+00
Coordinates of each shell                  R   N=         153
 -3.29347180E+00 -2.84477750E-01  3.74372296E-31 -3.29347180E+00 -2.84477750E-01
  3.74372296E-31 -3.29347180E+00 -2.84477750E-01  3.74372296E-31 -3.29347180E+00
 -2.84477750E-01  3.74372296E-31 -3.29347180E+00 -2.84477750E-01  3.74372296E-31
 -3.29347180E+00 -2.84477750E-01  3.74372296E-31 -3.29347180E+00 -2.84477750E-01
  3.74372296E-31 -3.29347180E+00 -2.84477750E-01  3.74372296E-31 -3.29347180E+00
 -2.84477750E-01  3.74372296E-31 -1.69932869E+00 -1.11114376E+00  5.80652935E-32
 -1.69932869E+00 -1.11114376E+00  5.80652935E-32 -1.69932869E+00 -1.11114376E+00
  5.80652935E-32 -1.69932869E+00 -1.11114376E+00  5.80652935E-32 -1.69932869E+00
 -1.11114376E+00  5.80652935E-32 -1.69932869E+00 -1.11114376E+00  5.80652935E-32
 -1.69932869E+00 -1.11114376E+00  5.80652935E-32 -1.69932869E+00 -1.11114376E+00
  5.80652935E-32 -1.69932869E+00 -1.11114376E+00  5.80652935E-32 -1.69932869E+00
 -1.11114376E+00  5.80652935E-32 -1.69932869E+00 -1.11114376E+00  5.80652935E-32
 -1.69932869E+00 -1.11114376E+00  5.80652935E-32 -1.69932869E+00 -1.11114376E+00
  5.80652935E-32 -1.69932869E+00 -1.11114376E+00  5.80652935E-32  1.17426068E-16
  9.84551132E-01  1.37927445E-31  1.17426068E-16  9.84551132E-01  1.37927445E-31
  1.17426068E-16  9.84551132E-01  1.37927445E-31  1.17426068E-16  9.84551132E-01
  1.37927445E-31  1.17426068E-16  9.84551132E-01  1.37927445E-31  1.17426068E-16
  9.84551132E-01  1.37927445E-31  1.17426068E-16  9.84551132E-01  1.37927445E-31
  1.17426068E-16  9.84551132E-01  1.37927445E-31  1.17426068E-16  9.84551132E-01
  1.37927445E-31  1.17426068E-16  9.84551132E-01  1.37927445E-31  1.17426068E-16
  9.84551132E-01  1.37927445E-31  1.17426068E-16  9.84551132E-01  1.37927445E-31
  1.17426068E-16  9.84551132E-01  1.37927445E-31  1.17426068E-16  9.84551132E-01
  1.37927445E-31  2.11101267E+00  2.85221234E-01 -2.25548345E-31  2.11101267E+00
  2.85221234E-01 -2.25548345E-31  2.11101267E+00  2.85221234E-01 -2.25548345E-31
  2.11101267E+00  2.85221234E-01 -2.25548345E-31  2.11101267E+00  2.85221234E-01
 -2.25548345E-31  2.11101267E+00  2.85221234E-01 -2.25548345E-31  2.11101267E+00
  2.85221234E-01 -2.25548345E-31  2.11101267E+00  2.85221234E-01 -2.25548345E-31
  2.11101267E+00  2.85221234E-01 -2.25548345E-31  2.11101267E+00  2.85221234E-01
 -2.25548345E-31  2.11101267E+00  2.85221234E-01 -2.25548345E-31  2.11101267E+00
  2.85221234E-01 -2.25548345E-31  2.11101267E+00  2.85221234E-01 -2.25548345E-31
  2.11101267E+00  2.85221234E-01 -2.25548345E-31
Num ILSW                                   I              100
ILSW                                       I   N=         100
           0           0           0           0           2           0
           0           0           0           0           0          -1
           5           0           0           0           0           0
           0           0           0           0           0           0
           1           0           0           0           0           0
           0           0      100000           0          -1           0
           0           0           0           0           0           0
           0           0           0           1           0           0
           0 -2000000000           1           0           0           0
           0           0           4          52           0           0
           0           0           0           0           0           0
           0           0           0           4           0           1
           0           0           0           0           0           0
           0           0           0           0           0           0
           0           0           0           0           0           0
           0           0           0           0           0           0
           0           0           0           0
Num RLSW                                   I               52
RLSW                                       R   N=          52
  1.00000000E+00  1.00000000E+00  1.00000000E+00  1.00000000E+00  1.00000000E+00
  0.00000000E+00  0.00000000E+00  1.00000000E+00  0.00000000E+00  0.00000000E+00
  0.00000000E+00  0.00000000E+00  1.00000000E+00  0.00000000E+00  0.00000000E+00
  0.00000000E+00  0.00000000E+00  1.00000000E+00  0.00000000E+00  0.00000000E+00
  0.00000000E+00  0.00000000E+00  1.00000000E+00  0.00000000E+00  0.00000000E+00
  0.00000000E+00  0.00000000E+00  1.00000000E+00  0.00000000E+00  0.00000000E+00
  0.00000000E+00  0.00000000E+00  1.00000000E+00  0.00000000E+00  0.00000000E+00
  0.00000000E+00  0.00000000E+00  0.00000000E+00  1.00000000E+00  1.00000000E+00
  0.00000000E+00  1.00000000E+00  0.00000000E+00  0.00000000E+00  0.00000000E+00
  0.00000000E+00  0.00000000E+00  0.00000000E+00  0.00000000E+00  0.00000000E+00
  0.00000000E+00  0.00000000E+00
MxBond                                     I                2
NBond                                      I   N=           4
           1           2           2           1
IBond                                      I   N=           8
           2           0           1           3           2           4
           3           0
RBond                                      R   N=           8
  1.00000000E+00  0.00000000E+00  1.00000000E+00  1.00000000E+00  1.00000000E+00
  2.00000000E+00  2.00000000E+00  0.00000000E+00
Virial Ratio                               R      2.002177348408470E+00
SCF Energy                                 R     -2.047240176499039E+02
MP2 Energy                                 R     -2.054209756668756E+02
Total Energy                               R     -2.054209756668756E+02
Post-SCF wavefunction norm                 R      1.089635409662082E+00
RMS Density                                R      5.357025062154533E-09
Job Status                                 I                1
Nuclear derivative order                   I                0
External E-field                           R   N=          35
  0.00000000E+00  0.00000000E+00  0.00000000E+00  0.00000000E+00  0.00000000E+00
  0.00000000E+00  0.00000000E+00  0.00000000E+00  0.00000000E+00  0.00000000E+00
  0.00000000E+00  0.00000000E+00  0.00000000E+00  0.00000000E+00  0.00000000E+00
  0.00000000E+00  0.00000000E+00  0.00000000E+00  0.00000000E+00  0.00000000E+00
  0.00000000E+00  0.00000000E+00  0.00000000E+00  0.00000000E+00  0.00000000E+00
  0.00000000E+00  0.00000000E+00  0.00000000E+00  0.00000000E+00  0.00000000E+00
  0.00000000E+00  0.00000000E+00  0.00000000E+00  0.00000000E+00  0.00000000E+00
IOpCl                                      I                0
IROHF                                      I                0
Alpha Orbital Energies                     R   N=         161
 -2.06657502E+01 -2.06407273E+01 -1.57992387E+01 -1.60353878E+00 -1.40722701E+00
 -9.50646305E-01 -7.87425757E-01 -7.30391150E-01 -6.82066879E-01 -6.28113829E-01
 -5.29341124E-01 -4.62319196E-01  2.83501776E-02  8.00836128E-02  9.38601881E-02
  9.74480620E-02  1.28737914E-01  1.44853940E-01  1.56742635E-01  1.72182204E-01
  1.86900522E-01  1.96439352E-01  2.05514112E-01  2.33607937E-01  2.59192504E-01
  2.97136887E-01  3.07494135E-01  3.29717862E-01  3.65014216E-01  3.83324950E-01
  4.29128651E-01  5.25014589E-01  5.26250898E-01  5.48084532E-01  5.73257820E-01
  6.12470453E-01  6.31061816E-01  6.49916229E-01  6.80086214E-01  7.14737841E-01
  7.18440557E-01  7.48386380E-01  7.75111767E-01  7.81298140E-01  8.11178856E-01
  8.11519261E-01  8.61301775E-01  8.79445894E-01  9.28676912E-01  9.39796466E-01
  9.46092469E-01  9.97491564E-01  1.05100389E+00  1.06659701E+00  1.08330532E+00
  1.10753761E+00  1.16226428E+00  1.19589394E+00  1.25197066E+00  1.26894708E+00
  1.36414002E+00  1.43606275E+00  1.49516199E+00  1.52226361E+00  1.52421308E+00
  1.54501273E+00  1.55807584E+00  1.61098675E+00  1.65800772E+00  1.73001963E+00
  1.75321208E+00  1.82230364E+00  1.85640361E+00  1.96738245E+00  1.97691029E+00
  2.00061300E+00  2.07757152E+00  2.13251169E+00  2.13492808E+00  2.19189739E+00
  2.27264938E+00  2.31225587E+00  2.32942671E+00  2.38247619E+00  2.45276346E+00
  2.46779198E+00  2.49659684E+00  2.50215600E+00  2.52213099E+00  2.54861244E+00
  2.57215050E+00  2.60523544E+00  2.60862631E+00  2.66540635E+00  2.76778399E+00
  2.77941263E+00  2.83058223E+00  2.93937513E+00  2.94948611E+00  3.11689828E+00
  3.14926871E+00  3.18113786E+00  3.24964340E+00  3.46554907E+00  3.85572409E+00
  3.85615208E+00  4.03523339E+00  4.18638482E+00  4.18824759E+00  4.21956687E+00
  4.38023599E+00  4.38221098E+00  4.58619794E+00  4.63511295E+00  4.77042150E+00
  4.82102696E+00  4.87816179E+00  4.88861369E+00  4.99424420E+00  5.00367722E+00
  5.07762692E+00  5.10611808E+00  5.18718446E+00  5.25938674E+00  5.26083383E+00
  5.35170989E+00  5.39795181E+00  5.40726283E+00  5.58742175E+00  5.66737402E+00
  5.80404362E+00  5.99205523E+00  6.11652582E+00  6.43722221E+00  6.50728645E+00
  6.51099025E+00  6.67447448E+00  6.71880056E+00  6.74592526E+00  6.85138239E+00
  6.91613674E+00  7.08418593E+00  7.11838129E+00  7.21103112E+00  7.23833936E+00
  7.27176578E+00  7.27657414E+00  7.33111600E+00  7.39020322E+00  7.43391085E+00
  7.47854588E+00  7.61271847E+00  7.65602619E+00  7.71475234E+00  7.79717987E+00
  7.99642121E+00  8.07714451E+00  8.45674805E+00  1.42672443E+01  1.53640862E+01
  1.60054760E+01
Alpha MO coefficients                      R   N=       25921
  6.14922261E-05  1.81002233E-04 -4.06074829E-04  3.52445050E-06  5.43794960E-05
  1.06274552E-05  0.00000000E+00 -5.08609592E-05  6.20166263E-05  0.00000000E+00
 -2.71368057E-04  1.80723601E-05  0.00000000E+00  2.27732280E-05  0.00000000E+00
  0.00000000E+00  1.04053195E-05 -8.63796886E-06  5.21910397E-05  0.00000000E+00
  0.00000000E+00 -2.86570137E-05 -2.15870511E-05 -7.39470504E-04  7.85978531E-05
 -5.67084670E-05 -9.62928155E-05  2.46024123E-04 -1.88960299E-05 -1.71998300E-05
  0.00000000E+00  9.17965290E-05  4.58021108E-05  0.00000000E+00  1.31371822E-04
  3.23291548E-05  0.00000000E+00  1.17650330E-04  5.57783270E-05  0.00000000E+00
 -8.76337951E-06  0.00000000E+00  0.00000000E+00  2.70586826E-05 -1.02953751E-05
  2.48410290E-06  0.00000000E+00  0.00000000E+00 -9.82340162E-05  1.22540113E-04
 -1.83583023E-05  0.00000000E+00  0.00000000E+00 -6.75662985E-05  2.35168508E-04
  0.00000000E+00 -4.41087900E-06  1.92701053E-06  0.00000000E+00  0.00000000E+00
  8.39645491E-06 -1.47925332E-05  0.00000000E+00  2.19121403E-05 -1.78008457E-05
  0.00000000E+00  0.00000000E+00 -1.93298399E-04 -5.06523169E-05  2.49245552E-04
  1.41871490E-03 -1.01502789E-04 -1.51181373E-03  3.75352332E-04  1.12771478E-04
 -6.43681956E-05  0.00000000E+00  2.04430134E-03 -5.63794055E-04  0.00000000E+00
 -1.15657161E-03 -7.39885492E-05  0.00000000E+00  1.14636009E-04 -9.14156840E-05
  0.00000000E+00 -1.25313135E-04  0.00000000E+00  0.00000000E+00  2.13462407E-04
 -1.45496379E-04 -4.39200273E-04  0.00000000E+00  0.00000000E+00  5.48918822E-04
 -7.92331937E-04 -3.17239336E-06  0.00000000E+00  0.00000000E+00 -1.61937264E-04
  1.56484099E-04  0.00000000E+00 -1.29793551E-05 -1.27035719E-05  0.00000000E+00
  0.00000000E+00 -1.55100733E-05  1.53751604E-05  0.00000000E+00 -1.42786502E-04
  1.28847190E-04  0.00000000E+00  0.00000000E+00  2.02416668E-05 -2.92297651E-04
  9.76650971E-01 -9.86456214E-03  4.35630020E-02  4.28071798E-03 -5.30202115E-04
 -2.10823247E-03  5.69620188E-04  0.00000000E+00  2.41191910E-03 -5.89443470E-04
  0.00000000E+00 -9.85644007E-04  5.52832748E-04  0.00000000E+00  5.17769479E-05
  2.93117160E-05  0.00000000E+00 -2.29361553E-04  0.00000000E+00  0.00000000E+00
  7.67657494E-05 -5.57195760E-05  3.87432152E-04  0.00000000E+00  0.00000000E+00
 -8.26558981E-04  4.43751783E-04 -1.58737897E-04  0.00000000E+00  0.00000000E+00
  1.76255067E-04 -2.48956284E-04  0.00000000E+00 -5.53504384E-05  1.07753515E-05
  0.00000000E+00  0.00000000E+00  1.70719797E-05 -2.44229274E-05  0.00000000E+00
 -1.24017944E-04  4.69802852E-05  0.00000000E+00  0.00000000E+00  1.59692862E-04
 -1.54156698E-04  5.15230099E-04  1.97712406E-03  4.68741456E-05 -2.16213874E-05
  1.66168248E-04 -7.41045198E-05  0.00000000E+00  7.55420390E-04 -7.67500013E-04
  0.00000000E+00  1.48649900E-05 -3.82846829E-04  0.00000000E+00  5.69028185E-05
  0.00000000E+00  0.00000000E+00 -9.07740932E-05  1.20391407E-04 -1.41344001E-04
  0.00000000E+00  0.00000000E+00  1.55313687E-04 -3.95866675E-04  9.76747324E-01
 -9.18057223E-03  4.35768311E-02  1.23559474E-03 -6.56843411E-04 -4.13994578E-04
  1.84191957E-03  0.00000000E+00  6.92937002E-05 -1.76267740E-03  0.00000000E+00
  1.23895540E-03  4.31407966E-04  0.00000000E+00  2.63579445E-05  5.93348456E-05
  0.00000000E+00 -5.40366539E-05  0.00000000E+00  0.00000000E+00  4.60334434E-05
 -6.27792065E-05  6.16493948E-04  0.00000000E+00  0.00000000E+00 -2.65896016E-04
 -3.02079322E-04 -1.17453853E-04  0.00000000E+00  0.00000000E+00 -2.60946109E-04
  3.28479226E-04  0.00000000E+00  4.33304201E-05  3.94915888E-05  0.00000000E+00
  0.00000000E+00  1.10764463E-05  1.54499588E-05  0.00000000E+00 -9.34395416E-05
  5.54623772E-05  0.00000000E+00  0.00000000E+00  2.23004764E-04 -2.31565947E-04
  5.93314119E-05  1.59938076E-04 -3.22242242E-04 -2.68982627E-04  8.45968596E-04
  8.39270370E-05  7.83042435E-05  0.00000000E+00 -7.02561638E-04 -6.60596845E-04
  0.00000000E+00  3.95378718E-04  4.93680787E-04  0.00000000E+00 -1.39331282E-04
 -1.65617936E-04  0.00000000E+00 -3.44064111E-05  0.00000000E+00  0.00000000E+00
 -3.56103395E-05  4.96732594E-05 -4.06663828E-04  0.00000000E+00  0.00000000E+00
 -1.56043888E-04  9.32807614E-04 -1.90141213E-04  0.00000000E+00  0.00000000E+00
  5.37418798E-04  5.73602734E-05  0.00000000E+00  8.71073835E-05  9.92023671E-05
  0.00000000E+00  0.00000000E+00  1.48488792E-04 -6.06195866E-05  0.00000000E+00
  6.08202483E-05  1.20567918E-04  0.00000000E+00  0.00000000E+00  4.23524980E-04
  1.31389645E-05  7.73547770E-04  4.73427524E-05  1.85764924E-05 -3.05732331E-04
 -2.15871253E-04  1.50417946E-05  2.27653149E-05  0.00000000E+00 -1.07845343E-04
 -1.29286745E-04  0.00000000E+00 -3.94060965E-04 -4.18533992E-04  0.00000000E+00
  9.46571559E-06 -2.69915760E-06  0.00000000E+00 -4.90923998E-06  0.00000000E+00
  0.00000000E+00 -1.26985753E-05  1.08950317E-05  7.17154455E-07  0.00000000E+00
  0.00000000E+00  1.35991282E-04  3.43972333E-05 -6.55875468E-05  0.00000000E+00
  0.00000000E+00  2.55215200E-04  1.72152252E-05  0.00000000E+00 -3.00274985E-06
  1.06167173E-05  0.00000000E+00  0.00000000E+00  1.35943542E-05 -1.02306437E-05
  0.00000000E+00 -1.21084567E-05 -5.28850283E-05  0.00000000E+00  0.00000000E+00
 -1.15978366E-04  7.41101316E-05 -8.37953879E-05 -4.94104529E-04 -3.44390216E-04
  2.10963659E-04 -3.51429355E-05  2.71160377E-05  0.00000000E+00 -4.40877166E-04
 -3.20859015E-04  0.00000000E+00 -2.99319154E-04 -3.05361670E-04  0.00000000E+00
 -1.86939381E-05  0.00000000E+00  0.00000000E+00 -3.36330148E-05 -3.13806629E-05
  1.09501720E-04  0.00000000E+00  0.00000000E+00 -4.40567250E-06 -1.69200999E-04
 -1.26334010E-04 -2.11919495E-04 -2.08159722E-04  4.92796803E-03  3.27381537E-03
 -9.30359664E-06 -4.12018367E-05  0.00000000E+00  5.33216889E-04  8.55462845E-04
  0.00000000E+00  2.36628759E-03  3.02472696E-03  0.00000000E+00  8.14264598E-04
  5.67189424E-04  0.00000000E+00  2.21307203E-07  0.00000000E+00  0.00000000E+00
 -3.19651646E-05  4.34777373E-05 -4.44218843E-04  0.00000000E+00  0.00000000E+00
 -3.63832093E-05  5.28764403E-04 -6.08077558E-04  0.00000000E+00  0.00000000E+00
 -2.71228036E-04  9.45350574E-04  0.00000000E+00 -1.95878085E-05 -2.16212609E-05
  0.00000000E+00  0.00000000E+00 -3.78031581E-05  3.26861742E-05  0.00000000E+00
 -9.21047685E-05 -1.41800322E-04  0.00000000E+00  0.00000000E+00 -2.91505504E-05
  2.31027163E-04  9.78280592E-01 -8.40352911E-03  4.17853249E-02 -5.46838842E-03
 -3.07221639E-03  1.09378004E-03 -3.03969978E-03  0.00000000E+00  9.66749414E-05
  2.98196575E-03  0.00000000E+00 -4.41520020E-04  3.07736732E-03  0.00000000E+00
  5.25205962E-05  5.49716051E-04  0.00000000E+00 -4.38977390E-04  0.00000000E+00
  0.00000000E+00  2.39365452E-04 -2.30057498E-04  1.02917361E-03  0.00000000E+00
  0.00000000E+00 -1.70047716E-04 -2.99140556E-04  3.57550760E-04  0.00000000E+00
  0.00000000E+00  1.28944316E-04 -4.04859257E-05  0.00000000E+00 -8.92947233E-05
 -6.85324570E-05  0.00000000E+00  0.00000000E+00  5.92895731E-05 -1.06430697E-05
  0.00000000E+00  2.21579617E-04 -2.28990275E-04  0.00000000E+00  0.00000000E+00
 -4.56737686E-04  2.60633476E-04 -1.89461374E-04  9.17994478E-04  1.57204259E-04
  3.01812844E-03  8.95998276E-04 -2.61928265E-04  1.23886245E-04  0.00000000E+00
 -8.75391914E-04  2.75379345E-04  0.00000000E+00 -1.24361329E-03 -1.48505511E-04
  0.00000000E+00 -1.53905666E-05  3.21313462E-05  0.00000000E+00 -3.97195528E-05
  0.00000000E+00  0.00000000E+00  7.12736611E-05 -8.47161384E-05  7.34321349E-05
  0.00000000E+00  0.00000000E+00  2.06545721E-06  2.73218651E-04 -3.68436605E-05
  0.00000000E+00  0.00000000E+00  2.94739524E-04  1.40162077E-04  0.00000000E+00
 -9.22205546E-05  3.63377517E-05  0.00000000E+00  0.00000000E+00  5.45153915E-05
 -1.12135232E-04  0.00000000E+00 -1.57660638E-04  1.25343021E-04  0.00000000E+00
  0.00000000E+00 -2.84945077E-05 -3.54952662E-04  2.27714843E-02  1.87321428E-02
 -2.23707223E-03  4.18317830E-04  3.50365608E-03 -1.01428217E-03  0.00000000E+00
  2.83576459E-03 -9.66563863E-04  0.00000000E+00 -2.63005519E-03  3.63248972E-04
  0.00000000E+00 -2.95116190E-04  0.00000000E+00  0.00000000E+00  4.72604858E-04
 -3.55080919E-04  3.58607657E-04  0.00000000E+00  0.00000000E+00  4.09977663E-04
 -4.51198384E-04 -6.74329122E-02  1.63221820E-01  4.35030868E-02  9.30878349E-02
  8.03245125E-03  1.44101420E-02  2.38505647E-02  0.00000000E+00  1.97388381E-02
  3.41550448E-02  0.00000000E+00  1.20280384E-02  1.01260978E-02  0.00000000E+00
  1.97137396E-03 -1.83255014E-03  0.00000000E+00 -1.87232756E-03  0.00000000E+00
  0.00000000E+00  1.17632920E-04  1.74547225E-03 -4.11501352E-03  0.00000000E+00
  0.00000000E+00  7.22558028E-04  4.34597996E-03  1.14002277E-03  0.00000000E+00
  0.00000000E+00  1.76986071E-04  1.77384401E-03  0.00000000E+00 -4.56422978E-04
 -8.97640594E-04  0.00000000E+00  0.00000000E+00 -7.06023910E-04  1.32173492E-03
  0.00000000E+00  2.36413388E-04  5.67700646E-04  0.00000000E+00  0.00000000E+00
  2.07567225E-04  8.56478209E-05 -1.30017860E-01  3.07320926E-01  8.09355697E-02
  6.37257653E-02  6.06304103E-04  7.29875287E-02 -4.72558209E-02  0.00000000E+00
  7.64411703E-02 -6.51006047E-02  0.00000000E+00  2.95029558E-03  8.75592603E-03
  0.00000000E+00  7.59674466E-05  3.15810211E-03  0.00000000E+00 -9.28446120E-03
  0.00000000E+00  0.00000000E+00  8.47695306E-03 -6.29085682E-03 -1.14929789E-02
  0.00000000E+00  0.00000000E+00  9.16404090E-03 -5.91993884E-03  6.13098089E-03
  0.00000000E+00  0.00000000E+00 -1.19103982E-04 -4.49454608E-04  0.00000000E+00
 -2.47825891E-03  2.43952344E-03  0.00000000E+00  0.00000000E+00  4.82034372E-03
 -5.48924182E-03  0.00000000E+00  1.37633464E-03 -4.23856692E-04  0.00000000E+00
  0.00000000E+00 -9.12173652E-04 -1.89530924E-05 -1.49734835E-01  3.58128808E-01
  9.60002172E-02  1.78760868E-01 -1.51230293E-02 -7.95785690E-02  2.19135845E-02
  0.00000000E+00 -1.00904180E-01  2.75215721E-02  0.00000000E+00 -1.75246987E-02
  3.24994847E-03  0.00000000E+00  8.56591857E-03 -2.42621137E-03  0.00000000E+00
 -5.14861407E-03  0.00000000E+00  0.00000000E+00  7.26214893E-03 -4.47526539E-03
 -9.44159094E-03  0.00000000E+00  0.00000000E+00  1.49871781E-02 -9.42309716E-03
  2.52111070E-03  0.00000000E+00  0.00000000E+00 -3.63576129E-03  2.62853712E-03
  0.00000000E+00  3.13544114E-03 -8.71610806E-04  0.00000000E+00  0.00000000E+00
 -3.29909681E-03  3.61698845E-03  0.00000000E+00  9.62748582E-05 -2.65450698E-04
  0.00000000E+00  0.00000000E+00 -1.02395052E-03  1.91315348E-03  8.45040952E-02
  8.29850950E-02 -2.21432643E-02 -3.01006785E-03  1.25221836E-02 -5.11632785E-03
  0.00000000E+00  1.49155049E-02 -1.22830196E-03  0.00000000E+00 -8.29432963E-03
  2.69217871E-03  0.00000000E+00 -1.43650690E-03  0.00000000E+00  0.00000000E+00
  2.36481337E-03 -1.41628435E-03  6.94875345E-04  0.00000000E+00  0.00000000E+00
  1.96923888E-03  1.72250537E-03 -1.81073098E-01  4.40473629E-01  1.20233751E-01
  2.53529007E-01  1.15663415E-02 -1.86395580E-02  3.87436946E-02  0.00000000E+00