title                                                                   
SP        RMP2-FC                                                     Aug-CC-pVTZ         
Number of atoms                            I                4
Info1-9                                    I   N=           9
          29          20           0           0           0         110
           1           2           1
Full Title                                 C   N=           1
title       
Route                                      C   N=           4
#p SP mp2/aug-cc-pvtz density=current           
Charge                                     I                0
Multiplicity                               I                1
Number of electrons                        I               24
Number of alpha electrons                  I               12
Number of beta electrons                   I               12
Number of basis functions                  I              161
Number of independent functions            I              161
Number of point charges in /Mol/           I                0
Number of translation vectors              I                0
Atomic numbers                             I   N=           4
           1           8           7           8
Nuclear charges                            R   N=           4
  1.00000000E+00  8.00000000E+00  7.00000000E+00  8.00000000E+00
Current cartesian coordinates              R   N=          12
  3.32140259E+00 -2.83625102E-01 -1.91430818E-32  1.68995589E+00 -1.12041482E+00
 -1.27287795E-31  2.76920083E-17  9.82845543E-01 -5.39218561E-34 -2.10513122E+00
  2.95878107E-01  1.54542996E-31
Number of symbols in /Mol/                 I                0
Force Field                                I                0
Atom Types                                 C   N=           4
                                                
Int Atom Types                             I   N=           4
           0           0           0           0
MM charges                                 R   N=           4
  0.00000000E+00  0.00000000E+00  0.00000000E+00  0.00000000E+00
Integer atomic weights                     I   N=           4
           1          16          14          16
Real atomic weights                        R   N=           4
  1.00782504E+00  1.59949146E+01  1.40030740E+01  1.59949146E+01
Atom fragment info                         I   N=           4
           0           0           0           0
Atom residue num                           I   N=           4
           0           0           0           0
Nuclear spins                              I   N=           4
           1           0           2           0
Nuclear ZEff                               R   N=           4
 -1.00000000E+00 -5.60000000E+00 -4.55000000E+00 -5.60000000E+00
Nuclear ZNuc                               R   N=           4
  1.00000000E+00  8.00000000E+00  7.00000000E+00  8.00000000E+00
Nuclear QMom                               R   N=           4
  0.00000000E+00  0.00000000E+00  2.04400000E+00  0.00000000E+00
Nuclear GFac                               R   N=           4
  2.79284600E+00  0.00000000E+00  4.03761000E-01  0.00000000E+00
MicOpt                                     I   N=           4
          -1          -1          -1          -1
Number of residues                         I                0
Number of secondary structures             I                0
SymInf integers                            I   N=          26
           1           2           1           1           1           1
           1          -1           0           0           0           0
           0           0           0           0           0           0
           0           0           0           0           0           0
           0           0
RotTr to input orientation                 R   N=          12
 -4.56381587E-01 -1.70801860E-17 -8.89784158E-01  8.89784158E-01  5.18359136E-16
 -4.56381587E-01  4.69022830E-16 -1.00000000E+00 -2.21371886E-16  1.76819211E+00
  0.00000000E+00  2.82589013E+00
Number of contracted shells                I               51
Number of primitive shells                 I               92
Pure/Cartesian d shells                    I                0
Pure/Cartesian f shells                    I                0
Highest angular momentum                   I                3
Largest degree of contraction              I                7
Shell types                                I   N=          51
           0           0           0           0           1           1
           1          -2          -2           0           0           0
           0           0           1           1           1           1
          -2          -2          -2          -3          -3           0
           0           0           0           0           1           1
           1           1          -2          -2          -2          -3
          -3           0           0           0           0           0
           1           1           1           1          -2          -2
          -2          -3          -3
Number of primitives per shell             I   N=          51
           3           1           1           1           1           1
           1           1           1           7           6           1
           1           1           3           1           1           1
           1           1           1           1           1           7
           6           1           1           1           3           1
           1           1           1           1           1           1
           1           7           6           1           1           1
           3           1           1           1           1           1
           1           1           1
Shell to atom map                          I   N=          51
           1           1           1           1           1           1
           1           1           1           2           2           2
           2           2           2           2           2           2
           2           2           2           2           2           3
           3           3           3           3           3           3
           3           3           3           3           3           3
           3           4           4           4           4           4
           4           4           4           4           4           4
           4           4           4
Primitive exponents                        R   N=          92
  3.38700000E+01  5.09500000E+00  1.15900000E+00  3.25800000E-01  1.02700000E-01
  2.52600000E-02  1.40700000E+00  3.88000000E-01  1.02000000E-01  1.05700000E+00
  2.47000000E-01  1.53300000E+04  2.29900000E+03  5.22400000E+02  1.47300000E+02
  4.75500000E+01  1.67600000E+01  6.20700000E+00  5.22400000E+02  1.47300000E+02
  4.75500000E+01  1.67600000E+01  6.20700000E+00  6.88200000E-01  1.75200000E+00
  2.38400000E-01  7.37600000E-02  3.44600000E+01  7.74900000E+00  2.28000000E+00
  7.15600000E-01  2.14000000E-01  5.97400000E-02  2.31400000E+00  6.45000000E-01
  2.14000000E-01  1.42800000E+00  5.00000000E-01  1.14200000E+04  1.71200000E+03
  3.89300000E+02  1.10000000E+02  3.55700000E+01  1.25400000E+01  4.64400000E+00
  3.89300000E+02  1.10000000E+02  3.55700000E+01  1.25400000E+01  4.64400000E+00
  5.11800000E-01  1.29300000E+00  1.78700000E-01  5.76000000E-02  2.66300000E+01
  5.94800000E+00  1.74200000E+00  5.55000000E-01  1.72500000E-01  4.91000000E-02
  1.65400000E+00  4.69000000E-01  1.51000000E-01  1.09300000E+00  3.64000000E-01
  1.53300000E+04  2.29900000E+03  5.22400000E+02  1.47300000E+02  4.75500000E+01
  1.67600000E+01  6.20700000E+00  5.22400000E+02  1.47300000E+02  4.75500000E+01
  1.67600000E+01  6.20700000E+00  6.88200000E-01  1.75200000E+00  2.38400000E-01
  7.37600000E-02  3.44600000E+01  7.74900000E+00  2.28000000E+00  7.15600000E-01
  2.14000000E-01  5.97400000E-02  2.31400000E+00  6.45000000E-01  2.14000000E-01
  1.42800000E+00  5.00000000E-01
Contraction coefficients                   R   N=          92
  2.54948632E-02  1.90362766E-01  8.52162022E-01  1.00000000E+00  1.00000000E+00
  1.00000000E+00  1.00000000E+00  1.00000000E+00  1.00000000E+00  1.00000000E+00
  1.00000000E+00  5.19808943E-04  4.02025621E-03  2.07128267E-02  8.10105536E-02
  2.35962985E-01  4.42653446E-01  3.57064423E-01 -4.42115008E-05 -1.22591041E-03
 -1.05517725E-02 -6.74452633E-02 -1.71198607E-01  1.07329856E+00  1.00000000E+00
  1.00000000E+00  1.00000000E+00  4.11634896E-02  2.57762836E-01  8.02419274E-01
  1.00000000E+00  1.00000000E+00  1.00000000E+00  1.00000000E+00  1.00000000E+00
  1.00000000E+00  1.00000000E+00  1.00000000E+00  5.34563860E-04  4.13435660E-03
  2.12335358E-02  8.25006224E-02  2.38138871E-01  4.42551547E-01  3.53757422E-01
 -4.89867350E-05 -1.19527323E-03 -1.03490714E-02 -6.48680190E-02 -1.71552477E-01
  1.07289568E+00  1.00000000E+00  1.00000000E+00  1.00000000E+00  3.98072123E-02
  2.49002660E-01  8.10479727E-01  1.00000000E+00  1.00000000E+00  1.00000000E+00
  1.00000000E+00  1.00000000E+00  1.00000000E+00  1.00000000E+00  1.00000000E+00
  5.19808943E-04  4.02025621E-03  2.07128267E-02  8.10105536E-02  2.35962985E-01
  4.42653446E-01  3.57064423E-01 -4.42115008E-05 -1.22591041E-03 -1.05517725E-02
 -6.74452633E-02 -1.71198607E-01  1.07329856E+00  1.00000000E+00  1.00000000E+00
  1.00000000E+00  4.11634896E-02  2.57762836E-01  8.02419274E-01  1.00000000E+00
  1.00000000E+00  1.00000000E+00  1.00000000E+00  1.00000000E+00  1.00000000E+00
  1.00000000E+00  1.00000000E+00
Coordinates of each shell                  R   N=         153
  3.32140259E+00 -2.83625102E-01  0.00000000E+00  3.32140259E+00 -2.83625102E-01
  0.00000000E+00  3.32140259E+00 -2.83625102E-01  0.00000000E+00  3.32140259E+00
 -2.83625102E-01  0.00000000E+00  3.32140259E+00 -2.83625102E-01  0.00000000E+00
  3.32140259E+00 -2.83625102E-01  0.00000000E+00  3.32140259E+00 -2.83625102E-01
  0.00000000E+00  3.32140259E+00 -2.83625102E-01  0.00000000E+00  3.32140259E+00
 -2.83625102E-01  0.00000000E+00  1.68995589E+00 -1.12041482E+00  0.00000000E+00
  1.68995589E+00 -1.12041482E+00  0.00000000E+00  1.68995589E+00 -1.12041482E+00
  0.00000000E+00  1.68995589E+00 -1.12041482E+00  0.00000000E+00  1.68995589E+00
 -1.12041482E+00  0.00000000E+00  1.68995589E+00 -1.12041482E+00  0.00000000E+00
  1.68995589E+00 -1.12041482E+00  0.00000000E+00  1.68995589E+00 -1.12041482E+00
  0.00000000E+00  1.68995589E+00 -1.12041482E+00  0.00000000E+00  1.68995589E+00
 -1.12041482E+00  0.00000000E+00  1.68995589E+00 -1.12041482E+00  0.00000000E+00
  1.68995589E+00 -1.12041482E+00  0.00000000E+00  1.68995589E+00 -1.12041482E+00
  0.00000000E+00  1.68995589E+00 -1.12041482E+00  0.00000000E+00 -1.37541181E-18
  9.82845543E-01  0.00000000E+00 -1.37541181E-18  9.82845543E-01  0.00000000E+00
 -1.37541181E-18  9.82845543E-01  0.00000000E+00 -1.37541181E-18  9.82845543E-01
  0.00000000E+00 -1.37541181E-18  9.82845543E-01  0.00000000E+00 -1.37541181E-18
  9.82845543E-01  0.00000000E+00 -1.37541181E-18  9.82845543E-01  0.00000000E+00
 -1.37541181E-18  9.82845543E-01  0.00000000E+00 -1.37541181E-18  9.82845543E-01
  0.00000000E+00 -1.37541181E-18  9.82845543E-01  0.00000000E+00 -1.37541181E-18
  9.82845543E-01  0.00000000E+00 -1.37541181E-18  9.82845543E-01  0.00000000E+00
 -1.37541181E-18  9.82845543E-01  0.00000000E+00 -1.37541181E-18  9.82845543E-01
  0.00000000E+00 -2.10513122E+00  2.95878107E-01  0.00000000E+00 -2.10513122E+00
  2.95878107E-01  0.00000000E+00 -2.10513122E+00  2.95878107E-01  0.00000000E+00
 -2.10513122E+00  2.95878107E-01  0.00000000E+00 -2.10513122E+00  2.95878107E-01
  0.00000000E+00 -2.10513122E+00  2.95878107E-01  0.00000000E+00 -2.10513122E+00
  2.95878107E-01  0.00000000E+00 -2.10513122E+00  2.95878107E-01  0.00000000E+00
 -2.10513122E+00  2.95878107E-01  0.00000000E+00 -2.10513122E+00  2.95878107E-01
  0.00000000E+00 -2.10513122E+00  2.95878107E-01  0.00000000E+00 -2.10513122E+00
  2.95878107E-01  0.00000000E+00 -2.10513122E+00  2.95878107E-01  0.00000000E+00
 -2.10513122E+00  2.95878107E-01  0.00000000E+00
Num ILSW                                   I              100
ILSW                                       I   N=         100
           0           0           0           0           2           0
           0           0           0           0           0          -1
           5           0           0           0           0           0
           0           0           0           0           0           0
           1           0           0           0           0           0
           0           0      100000           0          -1           0
           0           0           0           0           0           0
           0           0           0           1           0           0
           0 -2000000000           1           0           0           0
           0           0           4          52           0           0
           0           0           0           0           0           0
           0           0           0           4           0           1
           0           0           0           0           0           0
           0           0           0           0           0           0
           0           0           0           0           0           0
           0           0           0           0           0           0
           0           0           0           0
Num RLSW                                   I               52
RLSW                                       R   N=          52
  1.00000000E+00  1.00000000E+00  1.00000000E+00  1.00000000E+00  1.00000000E+00
  0.00000000E+00  0.00000000E+00  1.00000000E+00  0.00000000E+00  0.00000000E+00
  0.00000000E+00  0.00000000E+00  1.00000000E+00  0.00000000E+00  0.00000000E+00
  0.00000000E+00  0.00000000E+00  1.00000000E+00  0.00000000E+00  0.00000000E+00
  0.00000000E+00  0.00000000E+00  1.00000000E+00  0.00000000E+00  0.00000000E+00
  0.00000000E+00  0.00000000E+00  1.00000000E+00  0.00000000E+00  0.00000000E+00
  0.00000000E+00  0.00000000E+00  1.00000000E+00  0.00000000E+00  0.00000000E+00
  0.00000000E+00  0.00000000E+00  0.00000000E+00  1.00000000E+00  1.00000000E+00
  0.00000000E+00  1.00000000E+00  0.00000000E+00  0.00000000E+00  0.00000000E+00
  0.00000000E+00  0.00000000E+00  0.00000000E+00  0.00000000E+00  0.00000000E+00
  0.00000000E+00  0.00000000E+00
MxBond                                     I                2
NBond                                      I   N=           4
           1           2           2           1
IBond                                      I   N=           8
           2           0           1           3           2           4
           3           0
RBond                                      R   N=           8
  1.00000000E+00  0.00000000E+00  1.00000000E+00  1.00000000E+00  1.00000000E+00
  2.00000000E+00  2.00000000E+00  0.00000000E+00
Virial Ratio                               R      2.002252785186908E+00
SCF Energy                                 R     -2.047241862242544E+02
MP2 Energy                                 R     -2.054213154454615E+02
Total Energy                               R     -2.054213154454615E+02
Post-SCF wavefunction norm                 R      1.089660128905341E+00
RMS Density                                R      5.405447161622958E-09
Job Status                                 I                1
Nuclear derivative order                   I                0
External E-field                           R   N=          35
  0.00000000E+00  0.00000000E+00  0.00000000E+00  0.00000000E+00  0.00000000E+00
  0.00000000E+00  0.00000000E+00  0.00000000E+00  0.00000000E+00  0.00000000E+00
  0.00000000E+00  0.00000000E+00  0.00000000E+00  0.00000000E+00  0.00000000E+00
  0.00000000E+00  0.00000000E+00  0.00000000E+00  0.00000000E+00  0.00000000E+00
  0.00000000E+00  0.00000000E+00  0.00000000E+00  0.00000000E+00  0.00000000E+00
  0.00000000E+00  0.00000000E+00  0.00000000E+00  0.00000000E+00  0.00000000E+00
  0.00000000E+00  0.00000000E+00  0.00000000E+00  0.00000000E+00  0.00000000E+00
IOpCl                                      I                0
IROHF                                      I                0
Alpha Orbital Energies                     R   N=         161
 -2.06653985E+01 -2.06412053E+01 -1.57979689E+01 -1.60687177E+00 -1.40258940E+00
 -9.47631540E-01 -7.85174373E-01 -7.30834892E-01 -6.83326284E-01 -6.25927148E-01
 -5.28837473E-01 -4.60719647E-01  2.81328822E-02  8.19235247E-02  9.38351148E-02
  9.75927869E-02  1.28889826E-01  1.43852167E-01  1.56884056E-01  1.72204449E-01
  1.87288545E-01  1.96512855E-01  2.05727917E-01  2.33410109E-01  2.58071655E-01
  2.96579365E-01  3.08438018E-01  3.29840091E-01  3.65874526E-01  3.82716664E-01
  4.24241162E-01  5.25139610E-01  5.26955308E-01  5.48305914E-01  5.73453613E-01
  6.13471194E-01  6.33745145E-01  6.48405002E-01  6.79028623E-01  7.14098574E-01
  7.17809679E-01  7.48280831E-01  7.74942650E-01  7.81943217E-01  8.11882580E-01
  8.12557862E-01  8.61867596E-01  8.79626423E-01  9.26124619E-01  9.39284801E-01
  9.45891057E-01  9.95968461E-01  1.04984808E+00  1.06379548E+00  1.08197834E+00
  1.10648394E+00  1.16124667E+00  1.19674507E+00  1.25287603E+00  1.26958120E+00
  1.36202068E+00  1.43441696E+00  1.48888811E+00  1.52290396E+00  1.52458479E+00
  1.54454588E+00  1.55473986E+00  1.61007484E+00  1.65875083E+00  1.72883472E+00
  1.75493343E+00  1.82262891E+00  1.85636824E+00  1.96058053E+00  1.97813804E+00
  1.99540757E+00  2.07457796E+00  2.13280563E+00  2.13360400E+00  2.19075282E+00
  2.27139722E+00  2.30905955E+00  2.33008545E+00  2.38185223E+00  2.45185415E+00
  2.47071020E+00  2.49918003E+00  2.50305823E+00  2.52353890E+00  2.54439587E+00
  2.57181070E+00  2.60837743E+00  2.60966917E+00  2.66531810E+00  2.77669142E+00
  2.77946734E+00  2.83942333E+00  2.94039620E+00  2.95261251E+00  3.11529289E+00
  3.14788338E+00  3.18336208E+00  3.25097102E+00  3.46201515E+00  3.83289769E+00
  3.85525472E+00  4.02999070E+00  4.17088894E+00  4.19268717E+00  4.21423009E+00
  4.36540911E+00  4.37413374E+00  4.58470188E+00  4.63977298E+00  4.74797783E+00
  4.81824545E+00  4.87306039E+00  4.88709299E+00  4.98013105E+00  5.00155746E+00
  5.07411887E+00  5.08891724E+00  5.17294964E+00  5.24760164E+00  5.25800992E+00
  5.34001480E+00  5.36979241E+00  5.37746012E+00  5.57351523E+00  5.67617675E+00
  5.79746782E+00  5.99192834E+00  6.12055487E+00  6.43654959E+00  6.50703103E+00
  6.50984759E+00  6.67598654E+00  6.71726665E+00  6.74654676E+00  6.85173428E+00
  6.91884884E+00  7.07059810E+00  7.12166612E+00  7.18066352E+00  7.23714820E+00
  7.25796007E+00  7.25959608E+00  7.34461387E+00  7.38550761E+00  7.43460529E+00
  7.48013445E+00  7.61942541E+00  7.65011876E+00  7.70345364E+00  7.79977294E+00
  7.98682760E+00  8.07219975E+00  8.42660422E+00  1.42406284E+01  1.51444633E+01
  1.61159272E+01
Alpha MO coefficients                      R   N=       25921
  5.84842899E-05  2.06360520E-04 -3.61411167E-04  5.28549856E-06 -5.47772567E-05
  9.40016735E-06  0.00000000E+00  4.18034539E-05  5.32980315E-05  0.00000000E+00
  2.58842192E-04  1.41970863E-05  0.00000000E+00  2.09998106E-05  0.00000000E+00
  0.00000000E+00  1.28542779E-05  8.32283491E-06  5.03572952E-05  0.00000000E+00
  0.00000000E+00 -3.12382568E-05  1.79204746E-05 -7.67767726E-04  7.76691528E-05
 -5.81553824E-05 -9.96006410E-05  2.17718282E-04  1.81215235E-05 -1.78487563E-05
  0.00000000E+00 -8.88868384E-05  4.70341450E-05  0.00000000E+00 -1.48559210E-04
  5.13337720E-05  0.00000000E+00 -1.18523268E-04  5.32644538E-05  0.00000000E+00
 -8.94531854E-06  0.00000000E+00  0.00000000E+00  2.83822215E-05  1.01000495E-05
  3.02392408E-06  0.00000000E+00  0.00000000E+00 -1.06702146E-04 -1.20447918E-04
 -1.68241025E-05  0.00000000E+00  0.00000000E+00 -8.39630829E-05 -2.36042776E-04
  0.00000000E+00  3.65150453E-06  1.74999021E-06  0.00000000E+00  0.00000000E+00
 -7.22919775E-06 -1.43310216E-05  0.00000000E+00 -1.95113917E-05 -1.86329111E-05
  0.00000000E+00  0.00000000E+00  1.91312596E-04 -5.75840072E-05  2.50599380E-04
  1.42767254E-03 -8.00631471E-05 -1.63590671E-03  3.52242666E-04 -1.25339872E-04
 -6.78769564E-05  0.00000000E+00 -2.02794544E-03 -5.51001841E-04  0.00000000E+00
  1.18152844E-03 -5.12353982E-05  0.00000000E+00 -1.08322337E-04 -9.00482205E-05
  0.00000000E+00 -1.24062201E-04  0.00000000E+00  0.00000000E+00  2.14124873E-04
  1.42167955E-04 -4.24507470E-04  0.00000000E+00  0.00000000E+00  5.28355513E-04
  7.77088209E-04  5.60567838E-06  0.00000000E+00  0.00000000E+00 -1.77996186E-04
 -1.58510883E-04  0.00000000E+00  4.83563799E-06 -1.51934286E-05  0.00000000E+00
  0.00000000E+00  2.29907653E-05  2.37044304E-05  0.00000000E+00  1.43337314E-04
  1.26815421E-04  0.00000000E+00  0.00000000E+00 -2.61833632E-05 -2.79731695E-04
  9.76642303E-01 -9.85922469E-03  4.35768879E-02  4.37041262E-03 -4.97766024E-04
  2.11518473E-03  5.60506262E-04  0.00000000E+00 -2.39279260E-03 -5.70457152E-04
  0.00000000E+00  1.01128681E-03  5.51613970E-04  0.00000000E+00 -4.87978165E-05
  3.08592694E-05  0.00000000E+00 -2.32737194E-04  0.00000000E+00  0.00000000E+00
  8.23494889E-05  5.86717406E-05  3.84190222E-04  0.00000000E+00  0.00000000E+00
 -8.23168292E-04 -4.29919428E-04 -1.55242464E-04  0.00000000E+00  0.00000000E+00
  1.75816675E-04  2.42727726E-04  0.00000000E+00  5.26066877E-05  9.48431295E-06
  0.00000000E+00  0.00000000E+00 -1.52842642E-05 -2.09073568E-05  0.00000000E+00
  1.27239378E-04  4.73676199E-05  0.00000000E+00  0.00000000E+00 -1.63055160E-04
 -1.52567450E-04  4.74302014E-04  2.47155282E-03  3.46423117E-04 -7.10739433E-06
 -2.24508646E-04 -1.06291659E-04  0.00000000E+00 -9.93417199E-04 -8.69875224E-04
  0.00000000E+00 -9.51851062E-05 -4.23675884E-04  0.00000000E+00  1.19233526E-05
  0.00000000E+00  0.00000000E+00 -4.81910452E-05 -5.44690900E-05 -1.55894362E-04
  0.00000000E+00  0.00000000E+00  1.69075892E-04  4.14688707E-04  9.76753524E-01
 -9.25372225E-03  4.35568738E-02  8.45139956E-04 -8.98471613E-04  4.22282620E-04
  1.83492784E-03  0.00000000E+00 -2.20644583E-04 -1.82938082E-03  0.00000000E+00
 -1.50650140E-03  3.34564240E-04  0.00000000E+00 -5.79991954E-05  3.24760101E-05
  0.00000000E+00 -4.23599165E-05  0.00000000E+00  0.00000000E+00  3.67453430E-05
  4.61141891E-05  6.49762185E-04  0.00000000E+00  0.00000000E+00 -3.06364491E-04
  2.48519229E-04 -8.99285510E-05  0.00000000E+00  0.00000000E+00 -2.86057685E-04
 -3.74918566E-04  0.00000000E+00 -3.04598746E-05  4.54613595E-05  0.00000000E+00
  0.00000000E+00 -1.31632927E-05 -3.51035569E-06  0.00000000E+00  9.32255060E-05
  5.35122207E-05  0.00000000E+00  0.00000000E+00 -2.25528033E-04 -2.27555570E-04
  5.88842655E-05  1.58159460E-04 -3.19485866E-04 -3.88086287E-04  8.59124176E-04
 -8.29787019E-05  7.72579009E-05  0.00000000E+00  7.09438323E-04 -6.53192630E-04
  0.00000000E+00 -4.20195732E-04  5.62485425E-04  0.00000000E+00  1.60018114E-04
 -1.73816777E-04  0.00000000E+00 -3.46101461E-05  0.00000000E+00  0.00000000E+00
 -3.51048504E-05 -4.97502948E-05 -3.98587013E-04  0.00000000E+00  0.00000000E+00
 -1.69967486E-04 -9.27920308E-04 -1.85921537E-04  0.00000000E+00  0.00000000E+00
  5.54140679E-04 -5.95132314E-05  0.00000000E+00 -8.66736929E-05  9.89079347E-05
  0.00000000E+00  0.00000000E+00 -1.47617288E-04 -5.64711257E-05  0.00000000E+00
 -5.13422054E-05  1.19116421E-04  0.00000000E+00  0.00000000E+00 -4.25865919E-04
  2.72417907E-05  8.01754566E-04  4.77290699E-05  1.94918740E-05 -2.77988831E-04
 -1.83318705E-04 -1.53673663E-05  2.21412238E-05  0.00000000E+00  1.13419680E-04
 -1.27701893E-04  0.00000000E+00  4.27862161E-04 -4.35777462E-04  0.00000000E+00
 -4.42182221E-06  2.36377780E-06  0.00000000E+00 -5.29737730E-06  0.00000000E+00
  0.00000000E+00 -1.32765447E-05 -1.10376539E-05  1.17462898E-06  0.00000000E+00
  0.00000000E+00  1.41189507E-04 -3.19061687E-05 -6.79863245E-05  0.00000000E+00
  0.00000000E+00  2.63523727E-04 -1.99831773E-05  0.00000000E+00  3.02927788E-06
  9.76026141E-06  0.00000000E+00  0.00000000E+00 -1.32325799E-05 -9.25268101E-06
  0.00000000E+00  1.20470502E-05 -5.13553316E-05  0.00000000E+00  0.00000000E+00
  1.17686853E-04  7.44150264E-05 -7.61180492E-05 -5.09836128E-04 -3.65267333E-04
  2.05080365E-04  3.57486053E-05  3.36952947E-05  0.00000000E+00  4.78604129E-04
 -3.35405067E-04  0.00000000E+00  3.22556391E-04 -3.22038472E-04  0.00000000E+00
 -1.31079518E-05  0.00000000E+00  0.00000000E+00 -3.93467927E-05  3.04054518E-05
  1.13918593E-04  0.00000000E+00  0.00000000E+00 -3.24761839E-05  1.77913035E-04
 -1.26011298E-04 -2.10348639E-04 -2.07831409E-04  4.94802611E-03  3.26640374E-03
  9.04786973E-06 -4.06521493E-05  0.00000000E+00 -5.19748468E-04  8.55943614E-04
  0.00000000E+00 -2.36810018E-03  3.06739655E-03  0.00000000E+00 -8.22149407E-04
  5.69338939E-04  0.00000000E+00  2.55581924E-07  0.00000000E+00  0.00000000E+00
 -3.17814166E-05 -4.34323290E-05 -4.46146905E-04  0.00000000E+00  0.00000000E+00
 -3.83801229E-05 -5.23260982E-04 -6.06804517E-04  0.00000000E+00  0.00000000E+00
 -2.95558477E-04 -9.33809084E-04  0.00000000E+00  1.88465202E-05 -2.10723575E-05
  0.00000000E+00  0.00000000E+00  3.85399051E-05  3.20481540E-05  0.00000000E+00
  9.25794304E-05 -1.44950995E-04  0.00000000E+00  0.00000000E+00  2.63925450E-05
  2.32797858E-04  9.78275355E-01 -8.36043785E-03  4.18094376E-02 -5.35925533E-03
 -3.00036802E-03 -1.12396974E-03 -3.03528309E-03  0.00000000E+00 -1.32543661E-04
  2.97276502E-03  0.00000000E+00  4.36354838E-04  3.06093148E-03  0.00000000E+00
 -4.45234849E-05  5.41167764E-04  0.00000000E+00 -4.45687533E-04  0.00000000E+00
  0.00000000E+00  2.51880652E-04  2.35747332E-04  1.02285482E-03  0.00000000E+00
  0.00000000E+00 -1.53369476E-04  3.00809118E-04  3.54340206E-04  0.00000000E+00
  0.00000000E+00  1.32972547E-04  3.66902783E-05  0.00000000E+00  9.44376351E-05
 -6.79784888E-05  0.00000000E+00  0.00000000E+00 -6.61842779E-05 -1.41851276E-05
  0.00000000E+00 -2.28959197E-04 -2.27488210E-04  0.00000000E+00  0.00000000E+00
  4.62171788E-04  2.47747626E-04 -1.96411622E-04  9.27769427E-04  1.71518947E-04
  2.92000964E-03  8.11304080E-04  2.71728895E-04  1.26575292E-04  0.00000000E+00
  8.44595785E-04  2.57963647E-04  0.00000000E+00  1.15577446E-03 -1.86383642E-04
  0.00000000E+00 -6.80684163E-06  3.21628762E-05  0.00000000E+00 -3.87456306E-05
  0.00000000E+00  0.00000000E+00  7.15975288E-05  8.35987893E-05  8.96991103E-05
  0.00000000E+00  0.00000000E+00 -2.40897541E-05 -2.97565000E-04 -2.35921155E-05
  0.00000000E+00  0.00000000E+00  2.72498579E-04 -1.57027233E-04  0.00000000E+00
  9.53571920E-05  3.74406119E-05  0.00000000E+00  0.00000000E+00 -5.76048851E-05
 -1.15169873E-04  0.00000000E+00  1.64860346E-04  1.26561680E-04  0.00000000E+00
  0.00000000E+00  1.77452837E-05 -3.66562277E-04  2.04341256E-02  1.66308429E-02
 -1.20175010E-03  4.97962093E-04 -3.12330854E-03 -8.54567920E-04  0.00000000E+00
 -2.49667584E-03 -1.08118598E-03  0.00000000E+00  2.24520109E-03  1.66472144E-04
  0.00000000E+00 -2.32000423E-04  0.00000000E+00  0.00000000E+00  3.82823936E-04
  2.84773689E-04  2.67308280E-04  0.00000000E+00  0.00000000E+00  3.33725825E-04
  5.63015958E-04 -6.46224209E-02  1.56568191E-01  4.16939523E-02  9.03276964E-02
  7.63949901E-03 -1.50248835E-02  2.30648392E-02  0.00000000E+00 -2.01841462E-02
  3.31871676E-02  0.00000000E+00 -1.18175935E-02  1.04703285E-02  0.00000000E+00
 -2.08887376E-03 -1.83852728E-03  0.00000000E+00 -1.80230406E-03  0.00000000E+00
  0.00000000E+00  7.34418453E-05 -1.81782974E-03 -4.01318565E-03  0.00000000E+00
  0.00000000E+00  7.45967655E-04 -4.23347958E-03  1.05429624E-03  0.00000000E+00
  0.00000000E+00  1.37159541E-04 -1.47969166E-03  0.00000000E+00  4.54017524E-04
 -8.69777633E-04  0.00000000E+00  0.00000000E+00  6.99470514E-04  1.28572035E-03
  0.00000000E+00 -2.71662152E-04  5.74928996E-04  0.00000000E+00  0.00000000E+00
 -3.36746277E-04  1.61107808E-04 -1.30369134E-01  3.07665373E-01  8.10070498E-02
  6.30374607E-02  5.94272518E-04 -7.52839578E-02 -4.69124533E-02  0.00000000E+00
 -7.86280601E-02 -6.45243304E-02  0.00000000E+00 -3.40352532E-03  9.10913369E-03
  0.00000000E+00 -9.36774289E-05  3.20487457E-03  0.00000000E+00 -9.38134306E-03
  0.00000000E+00  0.00000000E+00  8.75834541E-03  6.48471116E-03 -1.14041405E-02
  0.00000000E+00  0.00000000E+00  9.34700171E-03  6.13230027E-03  6.33906929E-03
  0.00000000E+00  0.00000000E+00 -3.38281453E-04  5.69667254E-04  0.00000000E+00
  2.57013773E-03  2.43801829E-03  0.00000000E+00  0.00000000E+00 -4.93609410E-03
 -5.49265719E-03  0.00000000E+00 -1.41517876E-03 -4.79947451E-04  0.00000000E+00
  0.00000000E+00  1.02652341E-03  4.81003253E-05 -1.50958139E-01  3.60849738E-01
  9.66673472E-02  1.78945476E-01 -1.57687245E-02  8.09964913E-02  2.20393083E-02
  0.00000000E+00  1.02361254E-01  2.75752616E-02  0.00000000E+00  1.69707113E-02
  3.11626642E-03  0.00000000E+00 -8.79573244E-03 -2.43195545E-03  0.00000000E+00
 -5.25135792E-03  0.00000000E+00  0.00000000E+00  7.45056290E-03  4.51646687E-03
 -9.55897699E-03  0.00000000E+00  0.00000000E+00  1.52246502E-02  9.42849508E-03
  2.66475267E-03  0.00000000E+00  0.00000000E+00 -3.92360833E-03 -2.73637392E-03
  0.00000000E+00 -3.18388440E-03 -8.71001946E-04  0.00000000E+00  0.00000000E+00
  3.38796915E-03  3.62620163E-03  0.00000000E+00 -1.00974833E-04 -2.69707069E-04
  0.00000000E+00  0.00000000E+00  1.03708582E-03  1.91210812E-03  8.04396206E-02
  7.89224087E-02 -2.07571215E-02 -2.89231274E-03 -1.18079825E-02 -4.73722028E-03
  0.00000000E+00 -1.47873009E-02 -1.28661445E-03  0.00000000E+00  7.72644688E-03
  2.26970962E-03  0.00000000E+00 -1.32643704E-03  0.00000000E+00  0.00000000E+00
  2.25727951E-03  1.17967391E-03  3.95957926E-04  0.00000000E+00  0.00000000E+00
  2.20763363E-03 -1.39020942E-03 -1.82056160E-01  4.43460714E-01  1.20973173E-01
  2.58687049E-01  1.15028966E-02  1.57811105E-02  3.82390949E-02  0.00000000E+00