title                                                                   
SP        RMP2-FC                                                     Aug-CC-pVTZ         
Number of atoms                            I                4
Info1-9                                    I   N=           9
          29          20           0           0           0         110
           1           2           1
Full Title                                 C   N=           1
title       
Route                                      C   N=           4
#p SP mp2/aug-cc-pvtz density=current           
Charge                                     I                0
Multiplicity                               I                1
Number of electrons                        I               24
Number of alpha electrons                  I               12
Number of beta electrons                   I               12
Number of basis functions                  I              161
Number of independent functions            I              161
Number of point charges in /Mol/           I                0
Number of translation vectors              I                0
Atomic numbers                             I   N=           4
           1           8           7           8
Nuclear charges                            R   N=           4
  1.00000000E+00  8.00000000E+00  7.00000000E+00  8.00000000E+00
Current cartesian coordinates              R   N=          12
  3.22662592E+00  8.40037085E-01  9.44061479E-02  1.96945685E+00 -4.90513960E-01
 -1.04519413E-02 -3.25311620E-01  9.28529860E-01 -1.31662339E-02 -2.08813742E+00
 -4.26954303E-01  1.01716274E-02
Number of symbols in /Mol/                 I                0
Force Field                                I                0
Atom Types                                 C   N=           4
                                                
Int Atom Types                             I   N=           4
           0           0           0           0
MM charges                                 R   N=           4
  0.00000000E+00  0.00000000E+00  0.00000000E+00  0.00000000E+00
Integer atomic weights                     I   N=           4
           1          16          14          16
Real atomic weights                        R   N=           4
  1.00782504E+00  1.59949146E+01  1.40030740E+01  1.59949146E+01
Atom fragment info                         I   N=           4
           0           0           0           0
Atom residue num                           I   N=           4
           0           0           0           0
Nuclear spins                              I   N=           4
           1           0           2           0
Nuclear ZEff                               R   N=           4
 -1.00000000E+00 -5.60000000E+00 -4.55000000E+00 -5.60000000E+00
Nuclear ZNuc                               R   N=           4
  1.00000000E+00  8.00000000E+00  7.00000000E+00  8.00000000E+00
Nuclear QMom                               R   N=           4
  0.00000000E+00  0.00000000E+00  2.04400000E+00  0.00000000E+00
Nuclear GFac                               R   N=           4
  2.79284600E+00  0.00000000E+00  4.03761000E-01  0.00000000E+00
MicOpt                                     I   N=           4
          -1          -1          -1          -1
Number of residues                         I                0
Number of secondary structures             I                0
SymInf integers                            I   N=          26
           1           1           1           1           1           0
           0           0           0           0           0           0
           0           0           0           0           0           0
           0           0           0           0           0           0
           0           0
RotTr to input orientation                 R   N=          12
 -7.27247045E-01  3.14539034E-02 -6.85654714E-01  6.86291749E-01  4.89553116E-02
 -7.25676934E-01  1.07410680E-02 -9.98305579E-01 -5.71891601E-02  1.76902962E+00
 -4.83680731E-02  2.82734582E+00
Number of contracted shells                I               51
Number of primitive shells                 I               92
Pure/Cartesian d shells                    I                0
Pure/Cartesian f shells                    I                0
Highest angular momentum                   I                3
Largest degree of contraction              I                7
Shell types                                I   N=          51
           0           0           0           0           1           1
           1          -2          -2           0           0           0
           0           0           1           1           1           1
          -2          -2          -2          -3          -3           0
           0           0           0           0           1           1
           1           1          -2          -2          -2          -3
          -3           0           0           0           0           0
           1           1           1           1          -2          -2
          -2          -3          -3
Number of primitives per shell             I   N=          51
           3           1           1           1           1           1
           1           1           1           7           6           1
           1           1           3           1           1           1
           1           1           1           1           1           7
           6           1           1           1           3           1
           1           1           1           1           1           1
           1           7           6           1           1           1
           3           1           1           1           1           1
           1           1           1
Shell to atom map                          I   N=          51
           1           1           1           1           1           1
           1           1           1           2           2           2
           2           2           2           2           2           2
           2           2           2           2           2           3
           3           3           3           3           3           3
           3           3           3           3           3           3
           3           4           4           4           4           4
           4           4           4           4           4           4
           4           4           4
Primitive exponents                        R   N=          92
  3.38700000E+01  5.09500000E+00  1.15900000E+00  3.25800000E-01  1.02700000E-01
  2.52600000E-02  1.40700000E+00  3.88000000E-01  1.02000000E-01  1.05700000E+00
  2.47000000E-01  1.53300000E+04  2.29900000E+03  5.22400000E+02  1.47300000E+02
  4.75500000E+01  1.67600000E+01  6.20700000E+00  5.22400000E+02  1.47300000E+02
  4.75500000E+01  1.67600000E+01  6.20700000E+00  6.88200000E-01  1.75200000E+00
  2.38400000E-01  7.37600000E-02  3.44600000E+01  7.74900000E+00  2.28000000E+00
  7.15600000E-01  2.14000000E-01  5.97400000E-02  2.31400000E+00  6.45000000E-01
  2.14000000E-01  1.42800000E+00  5.00000000E-01  1.14200000E+04  1.71200000E+03
  3.89300000E+02  1.10000000E+02  3.55700000E+01  1.25400000E+01  4.64400000E+00
  3.89300000E+02  1.10000000E+02  3.55700000E+01  1.25400000E+01  4.64400000E+00
  5.11800000E-01  1.29300000E+00  1.78700000E-01  5.76000000E-02  2.66300000E+01
  5.94800000E+00  1.74200000E+00  5.55000000E-01  1.72500000E-01  4.91000000E-02
  1.65400000E+00  4.69000000E-01  1.51000000E-01  1.09300000E+00  3.64000000E-01
  1.53300000E+04  2.29900000E+03  5.22400000E+02  1.47300000E+02  4.75500000E+01
  1.67600000E+01  6.20700000E+00  5.22400000E+02  1.47300000E+02  4.75500000E+01
  1.67600000E+01  6.20700000E+00  6.88200000E-01  1.75200000E+00  2.38400000E-01
  7.37600000E-02  3.44600000E+01  7.74900000E+00  2.28000000E+00  7.15600000E-01
  2.14000000E-01  5.97400000E-02  2.31400000E+00  6.45000000E-01  2.14000000E-01
  1.42800000E+00  5.00000000E-01
Contraction coefficients                   R   N=          92
  2.54948632E-02  1.90362766E-01  8.52162022E-01  1.00000000E+00  1.00000000E+00
  1.00000000E+00  1.00000000E+00  1.00000000E+00  1.00000000E+00  1.00000000E+00
  1.00000000E+00  5.19808943E-04  4.02025621E-03  2.07128267E-02  8.10105536E-02
  2.35962985E-01  4.42653446E-01  3.57064423E-01 -4.42115008E-05 -1.22591041E-03
 -1.05517725E-02 -6.74452633E-02 -1.71198607E-01  1.07329856E+00  1.00000000E+00
  1.00000000E+00  1.00000000E+00  4.11634896E-02  2.57762836E-01  8.02419274E-01
  1.00000000E+00  1.00000000E+00  1.00000000E+00  1.00000000E+00  1.00000000E+00
  1.00000000E+00  1.00000000E+00  1.00000000E+00  5.34563860E-04  4.13435660E-03
  2.12335358E-02  8.25006224E-02  2.38138871E-01  4.42551547E-01  3.53757422E-01
 -4.89867350E-05 -1.19527323E-03 -1.03490714E-02 -6.48680190E-02 -1.71552477E-01
  1.07289568E+00  1.00000000E+00  1.00000000E+00  1.00000000E+00  3.98072123E-02
  2.49002660E-01  8.10479727E-01  1.00000000E+00  1.00000000E+00  1.00000000E+00
  1.00000000E+00  1.00000000E+00  1.00000000E+00  1.00000000E+00  1.00000000E+00
  5.19808943E-04  4.02025621E-03  2.07128267E-02  8.10105536E-02  2.35962985E-01
  4.42653446E-01  3.57064423E-01 -4.42115008E-05 -1.22591041E-03 -1.05517725E-02
 -6.74452633E-02 -1.71198607E-01  1.07329856E+00  1.00000000E+00  1.00000000E+00
  1.00000000E+00  4.11634896E-02  2.57762836E-01  8.02419274E-01  1.00000000E+00
  1.00000000E+00  1.00000000E+00  1.00000000E+00  1.00000000E+00  1.00000000E+00
  1.00000000E+00  1.00000000E+00
Coordinates of each shell                  R   N=         153
  3.22662592E+00  8.40037085E-01  9.44061479E-02  3.22662592E+00  8.40037085E-01
  9.44061479E-02  3.22662592E+00  8.40037085E-01  9.44061479E-02  3.22662592E+00
  8.40037085E-01  9.44061479E-02  3.22662592E+00  8.40037085E-01  9.44061479E-02
  3.22662592E+00  8.40037085E-01  9.44061479E-02  3.22662592E+00  8.40037085E-01
  9.44061479E-02  3.22662592E+00  8.40037085E-01  9.44061479E-02  3.22662592E+00
  8.40037085E-01  9.44061479E-02  1.96945685E+00 -4.90513960E-01 -1.04519413E-02
  1.96945685E+00 -4.90513960E-01 -1.04519413E-02  1.96945685E+00 -4.90513960E-01
 -1.04519413E-02  1.96945685E+00 -4.90513960E-01 -1.04519413E-02  1.96945685E+00
 -4.90513960E-01 -1.04519413E-02  1.96945685E+00 -4.90513960E-01 -1.04519413E-02
  1.96945685E+00 -4.90513960E-01 -1.04519413E-02  1.96945685E+00 -4.90513960E-01
 -1.04519413E-02  1.96945685E+00 -4.90513960E-01 -1.04519413E-02  1.96945685E+00
 -4.90513960E-01 -1.04519413E-02  1.96945685E+00 -4.90513960E-01 -1.04519413E-02
  1.96945685E+00 -4.90513960E-01 -1.04519413E-02  1.96945685E+00 -4.90513960E-01
 -1.04519413E-02  1.96945685E+00 -4.90513960E-01 -1.04519413E-02 -3.25311620E-01
  9.28529860E-01 -1.31662339E-02 -3.25311620E-01  9.28529860E-01 -1.31662339E-02
 -3.25311620E-01  9.28529860E-01 -1.31662339E-02 -3.25311620E-01  9.28529860E-01
 -1.31662339E-02 -3.25311620E-01  9.28529860E-01 -1.31662339E-02 -3.25311620E-01
  9.28529860E-01 -1.31662339E-02 -3.25311620E-01  9.28529860E-01 -1.31662339E-02
 -3.25311620E-01  9.28529860E-01 -1.31662339E-02 -3.25311620E-01  9.28529860E-01
 -1.31662339E-02 -3.25311620E-01  9.28529860E-01 -1.31662339E-02 -3.25311620E-01
  9.28529860E-01 -1.31662339E-02 -3.25311620E-01  9.28529860E-01 -1.31662339E-02
 -3.25311620E-01  9.28529860E-01 -1.31662339E-02 -3.25311620E-01  9.28529860E-01
 -1.31662339E-02 -2.08813742E+00 -4.26954303E-01  1.01716274E-02 -2.08813742E+00
 -4.26954303E-01  1.01716274E-02 -2.08813742E+00 -4.26954303E-01  1.01716274E-02
 -2.08813742E+00 -4.26954303E-01  1.01716274E-02 -2.08813742E+00 -4.26954303E-01
  1.01716274E-02 -2.08813742E+00 -4.26954303E-01  1.01716274E-02 -2.08813742E+00
 -4.26954303E-01  1.01716274E-02 -2.08813742E+00 -4.26954303E-01  1.01716274E-02
 -2.08813742E+00 -4.26954303E-01  1.01716274E-02 -2.08813742E+00 -4.26954303E-01
  1.01716274E-02 -2.08813742E+00 -4.26954303E-01  1.01716274E-02 -2.08813742E+00
 -4.26954303E-01  1.01716274E-02 -2.08813742E+00 -4.26954303E-01  1.01716274E-02
 -2.08813742E+00 -4.26954303E-01  1.01716274E-02
Num ILSW                                   I              100
ILSW                                       I   N=         100
           0           0           0           0           2           0
           0           0           0           0           0          -1
           5           0           0           0           0           0
           0           0           0           0           0           0
           1           0           0           0           0           0
           0           0      100000           0          -1           0
           0           0           0           0           0           0
           0           0           0           1           0           0
           0 -2000000000           1           0           0           0
           0           0           4          52           0           0
           0           0           0           0           0           0
           0           0           0           4           0           1
           0           0           0           0           0           0
           0           0           0           0           0           0
           0           0           0           0           0           0
           0           0           0           0           0           0
           0           0           0           0
Num RLSW                                   I               52
RLSW                                       R   N=          52
  1.00000000E+00  1.00000000E+00  1.00000000E+00  1.00000000E+00  1.00000000E+00
  0.00000000E+00  0.00000000E+00  1.00000000E+00  0.00000000E+00  0.00000000E+00
  0.00000000E+00  0.00000000E+00  1.00000000E+00  0.00000000E+00  0.00000000E+00
  0.00000000E+00  0.00000000E+00  1.00000000E+00  0.00000000E+00  0.00000000E+00
  0.00000000E+00  0.00000000E+00  1.00000000E+00  0.00000000E+00  0.00000000E+00
  0.00000000E+00  0.00000000E+00  1.00000000E+00  0.00000000E+00  0.00000000E+00
  0.00000000E+00  0.00000000E+00  1.00000000E+00  0.00000000E+00  0.00000000E+00
  0.00000000E+00  0.00000000E+00  0.00000000E+00  1.00000000E+00  1.00000000E+00
  0.00000000E+00  1.00000000E+00  0.00000000E+00  0.00000000E+00  0.00000000E+00
  0.00000000E+00  0.00000000E+00  0.00000000E+00  0.00000000E+00  0.00000000E+00
  0.00000000E+00  0.00000000E+00
MxBond                                     I                2
NBond                                      I   N=           4
           1           2           2           1
IBond                                      I   N=           8
           2           0           1           3           2           4
           3           0
RBond                                      R   N=           8
  1.00000000E+00  0.00000000E+00  1.00000000E+00  1.00000000E+00  1.00000000E+00
  2.00000000E+00  2.00000000E+00  0.00000000E+00
Virial Ratio                               R      2.002365038980025E+00
SCF Energy                                 R     -2.047233334378323E+02
MP2 Energy                                 R     -2.054212662615509E+02
Total Energy                               R     -2.054212662615509E+02
Post-SCF wavefunction norm                 R      1.090001687531946E+00
RMS Density                                R      5.516846098743588E-09
Job Status                                 I                1
Nuclear derivative order                   I                0
External E-field                           R   N=          35
  0.00000000E+00  0.00000000E+00  0.00000000E+00  0.00000000E+00  0.00000000E+00
  0.00000000E+00  0.00000000E+00  0.00000000E+00  0.00000000E+00  0.00000000E+00
  0.00000000E+00  0.00000000E+00  0.00000000E+00  0.00000000E+00  0.00000000E+00
  0.00000000E+00  0.00000000E+00  0.00000000E+00  0.00000000E+00  0.00000000E+00
  0.00000000E+00  0.00000000E+00  0.00000000E+00  0.00000000E+00  0.00000000E+00
  0.00000000E+00  0.00000000E+00  0.00000000E+00  0.00000000E+00  0.00000000E+00
  0.00000000E+00  0.00000000E+00  0.00000000E+00  0.00000000E+00  0.00000000E+00
IOpCl                                      I                0
IROHF                                      I                0
Alpha Orbital Energies                     R   N=         161
 -2.06653616E+01 -2.06423131E+01 -1.57987349E+01 -1.60280948E+00 -1.40260932E+00
 -9.48543120E-01 -7.84107250E-01 -7.29799033E-01 -6.81704852E-01 -6.25265030E-01
 -5.28586613E-01 -4.61759356E-01  2.79942170E-02  8.04129430E-02  9.39583785E-02
  9.75817612E-02  1.28758082E-01  1.43730995E-01  1.56905259E-01  1.72136890E-01
  1.87205429E-01  1.96582477E-01  2.05545160E-01  2.33533343E-01  2.58007460E-01
  2.96180472E-01  3.08076570E-01  3.29795957E-01  3.65648713E-01  3.82267055E-01
  4.23875760E-01  5.23483746E-01  5.27797548E-01  5.48172792E-01  5.73110234E-01
  6.13100492E-01  6.31327877E-01  6.47983637E-01  6.80650735E-01  7.14554203E-01
  7.17986662E-01  7.47850344E-01  7.74550998E-01  7.81973239E-01  8.10281351E-01
  8.13120440E-01  8.61042064E-01  8.78462576E-01  9.25803727E-01  9.38812163E-01
  9.45436584E-01  9.95458918E-01  1.04935171E+00  1.06283212E+00  1.08039360E+00
  1.10549037E+00  1.16092275E+00  1.19608935E+00  1.25191302E+00  1.27011899E+00
  1.36186691E+00  1.43281300E+00  1.48922991E+00  1.52268997E+00  1.52461928E+00
  1.54513999E+00  1.55346185E+00  1.60894170E+00  1.65881920E+00  1.72916624E+00
  1.75512653E+00  1.82200641E+00  1.85657483E+00  1.96068080E+00  1.97469643E+00
  1.99923013E+00  2.07521575E+00  2.12532086E+00  2.14047802E+00  2.18744370E+00
  2.27211571E+00  2.30795634E+00  2.32882290E+00  2.38054179E+00  2.45101608E+00
  2.47014827E+00  2.49840230E+00  2.50279291E+00  2.52104879E+00  2.54427849E+00
  2.56937661E+00  2.60426577E+00  2.61307976E+00  2.66251769E+00  2.77048336E+00
  2.77686221E+00  2.84161285E+00  2.93602534E+00  2.95248626E+00  3.11471074E+00
  3.14733401E+00  3.18282318E+00  3.24775312E+00  3.46140269E+00  3.82758804E+00
  3.85794577E+00  4.02866076E+00  4.17060309E+00  4.18112696E+00  4.21592977E+00
  4.36299401E+00  4.37369315E+00  4.58157349E+00  4.63224107E+00  4.74709933E+00
  4.81805042E+00  4.86949684E+00  4.88870067E+00  4.97913865E+00  5.00220588E+00
  5.07357332E+00  5.08734188E+00  5.17102220E+00  5.24654887E+00  5.25777248E+00
  5.33320114E+00  5.36191687E+00  5.38167295E+00  5.57939320E+00  5.66823608E+00
  5.79362797E+00  5.98843740E+00  6.11979471E+00  6.43448766E+00  6.50725420E+00
  6.50991942E+00  6.67479045E+00  6.71528684E+00  6.74532351E+00  6.84779909E+00
  6.91691376E+00  7.06909981E+00  7.11987785E+00  7.17950960E+00  7.23286531E+00
  7.25509257E+00  7.25853038E+00  7.33204743E+00  7.38002615E+00  7.43332166E+00
  7.47875550E+00  7.60821884E+00  7.64773005E+00  7.69917722E+00  7.79191945E+00
  7.98172330E+00  8.07084347E+00  8.42360025E+00  1.41992495E+01  1.51263240E+01
  1.59722891E+01
Alpha MO coefficients                      R   N=       25921
  5.69084948E-05  1.88899598E-04 -3.74283264E-04  4.54270490E-06 -5.46429364E-05
 -8.08979881E-06 -1.41611336E-06  2.53732240E-05  7.02837829E-05 -1.26952996E-05
  2.42447851E-04  1.02445265E-04 -8.68833638E-06  2.10600767E-05  4.73140844E-06
 -9.79865761E-07  5.18529730E-06  1.37851673E-05  5.23642821E-05  7.21655113E-06
 -5.33241744E-06 -3.63689339E-05 -5.39102094E-06 -8.00980622E-04  7.89777268E-05
 -6.04049785E-05 -9.14321666E-05  2.19731445E-04  2.30246042E-05 -1.03297843E-05
 -3.79402446E-09 -9.92121303E-05  1.37644307E-05  7.11663297E-07 -1.47998784E-04
 -8.15211159E-06  8.29861243E-06 -1.28114591E-04  1.06782661E-05  7.19070433E-06
 -8.93161612E-06 -3.88077172E-07 -1.59598460E-07  1.46605629E-05  2.49882439E-05
  2.23038157E-06  2.20194482E-06  7.81714689E-07 -9.03430680E-08 -1.55043192E-04
 -1.71956378E-05 -1.29757520E-06  2.59250421E-06  9.03224965E-05 -2.30022043E-04
  7.41216642E-07  3.09284227E-06  2.98097306E-06  5.36524402E-07 -3.62778420E-07
  7.71302026E-06 -1.42077787E-05 -4.27744213E-07 -1.33914538E-05 -2.32469973E-05
 -2.03706051E-06 -9.71036823E-07  1.44322254E-04  1.36215275E-04  2.49333058E-04
  1.41888358E-03 -1.01601577E-04 -1.53260428E-03  3.79484701E-04 -8.53377344E-05
 -9.82835446E-05  1.97203566E-06 -1.74239958E-03 -1.20287414E-03  1.76042184E-05
  1.10122021E-03  3.12362553E-04  1.40189287E-06 -7.65998023E-05 -1.25468202E-04
  3.37933885E-06 -1.25239337E-04 -4.00725078E-06 -2.70891885E-06  7.66553023E-05
  2.46373541E-04 -4.38356058E-04 -1.49313929E-05 -1.22836567E-05 -6.26261522E-05
  9.62270014E-04 -1.32216578E-06  1.30034084E-05  2.99046087E-06 -3.29231499E-05
 -2.21862813E-04  8.09085852E-07  1.61599837E-05 -7.95822665E-06 -8.25281282E-07
 -2.21500564E-07 -4.29084951E-06  2.16063755E-05 -8.11604702E-06  9.34363407E-05
  1.68979797E-04  3.49112022E-06  8.32179256E-06  2.35479771E-04 -1.74734678E-04
  9.76650739E-01 -9.86515181E-03  4.35627777E-02  4.28177285E-03 -5.29062177E-04
  1.80229509E-03  1.23090059E-03 -2.68107545E-05 -2.08162664E-03 -1.35009357E-03
  2.61490828E-05  7.50435074E-04  8.47249261E-04 -1.21969231E-05 -5.86134167E-05
  1.10165812E-05  4.26523023E-08 -2.29207924E-04 -2.04576975E-06 -4.13575751E-06
  2.54358523E-05  9.14375788E-05  3.87123391E-04  1.64738717E-05  6.17001097E-06
 -3.70781970E-04 -8.60354258E-04 -1.59538008E-04 -5.90398212E-06 -4.26440833E-06
 -1.67346982E-05  3.04843349E-04 -1.60892815E-06  4.85385353E-05  2.83184242E-05
  1.29584831E-07  1.59588201E-06  1.14998222E-05 -2.73953723E-05 -3.12226972E-06
  1.01645104E-04  8.50189607E-05  2.96912439E-06  4.44219894E-06  4.44552665E-05
 -2.17140836E-04  4.73918317E-04  2.46880108E-03  3.46398901E-04 -7.43226042E-06
 -1.76061226E-04 -1.74153379E-04 -1.41253426E-05 -6.43184179E-04 -1.14735223E-03
 -8.77573198E-05  5.31213077E-05 -4.30343571E-04 -2.02963363E-05  1.20256880E-05
 -3.52023551E-06 -1.17017958E-06 -2.62832644E-06 -7.27338654E-05 -1.52333783E-04
  2.59875096E-05  3.92478475E-05 -1.29068746E-04  4.27206775E-04  9.76754684E-01
 -9.25275259E-03  4.35552748E-02  8.34245625E-04 -9.05191797E-04 -2.20810948E-04
  1.87287936E-03  7.87858358E-05  4.09849359E-04 -1.79963007E-03 -7.42932537E-05
 -1.52796741E-03 -1.87647764E-04 -4.95731153E-05 -6.54444948E-05  9.93114823E-06
 -5.41546584E-07 -4.19476640E-05  4.03538422E-06  3.78531758E-06 -8.84947781E-07
  5.89716062E-05  6.47819573E-04 -4.43179691E-05 -3.93447207E-05 -3.94670348E-04
  5.07000665E-06 -9.10118276E-05 -1.12779416E-05 -8.35601014E-06  1.41882318E-05
 -4.72318494E-04  6.73687716E-07 -4.41522194E-05  3.27295674E-05  1.83709164E-06
 -1.59973593E-07 -4.04741647E-06 -1.32875861E-05  1.32132231E-05  6.87406020E-05
  8.05287709E-05 -6.01356157E-06 -1.85410061E-05  7.55193422E-05 -3.10241340E-04
  5.96794939E-05  1.62697040E-04 -3.19851706E-04 -3.67786034E-04  8.68032909E-04
 -1.04513420E-04  4.54097365E-05  9.47296302E-07  8.86260273E-04 -3.82958522E-04
 -4.90513507E-06 -5.70508790E-04  3.79430073E-04  9.73891125E-06  2.10201141E-04
 -1.12169475E-04  7.30243309E-06 -3.46681875E-05  4.53690777E-07  2.14260627E-07
  3.91242762E-06 -6.05204160E-05 -4.00145508E-04 -1.50670047E-06 -3.93013413E-07
  4.52501548E-04 -8.28796653E-04 -1.86684353E-04  1.72124892E-05  5.27885448E-06
  4.66455447E-04  2.99019710E-04  1.44918755E-07 -1.14978250E-04  6.44111204E-05
 -1.77765284E-07 -6.64999342E-07 -2.90631112E-05 -1.56078663E-04 -5.17868801E-06
 -8.93952224E-05  9.55625782E-05  3.48527773E-06 -2.47637736E-07 -2.44379712E-04
 -3.50264293E-04  8.35005546E-04  4.63698497E-05  2.07848656E-05 -2.84101410E-04
 -1.90120878E-04 -2.17283537E-05  1.59974319E-05  7.83777850E-07  1.47171331E-04
 -8.31942940E-05 -5.70954177E-06  5.35703240E-04 -2.69078816E-04  1.28781610E-05
 -7.10079771E-06  6.83602820E-07 -1.18259930E-06 -5.31188011E-06 -3.47750270E-09
  2.40203138E-07 -3.53613903E-06 -1.66065104E-05  1.28129322E-06 -2.37773331E-06
 -6.08257970E-07  1.30272123E-04  6.16560716E-05 -6.69556904E-05 -2.30882181E-06
  4.71437158E-06  2.14862811E-04  1.47621633E-04  2.31898180E-07 -4.65477175E-07
  1.04566264E-05 -1.85611086E-07  5.01281437E-07  1.52793660E-06 -1.63023974E-05
 -3.39933173E-07  2.83035634E-05 -4.41376756E-05 -2.68686525E-07 -1.61125362E-06
 -1.36544516E-06  1.38615279E-04 -7.57267208E-05 -4.94971049E-04 -3.33842077E-04
  2.06931839E-04  2.24412309E-05  4.26787036E-05  2.71859009E-06  5.55406302E-04
 -1.58967486E-04  2.39355721E-05  3.99217317E-04 -1.98649518E-04  2.90283999E-06
 -1.38033226E-05 -3.16899569E-06  9.90154398E-07 -4.91579923E-05 -8.32566412E-07
  1.11687103E-04 -1.53543976E-05  9.38145336E-07 -1.34033411E-04  1.16945378E-04
 -1.26107722E-04 -2.10134809E-04 -2.07958991E-04  4.95482110E-03  3.25095231E-03
  2.23452441E-05 -3.53849146E-05 -1.45585351E-06 -7.78102871E-04  6.34055673E-04
  4.45484834E-06 -3.26786359E-03  2.10654345E-03  9.05704277E-07 -9.62289155E-04
  2.60265030E-04 -7.96620292E-06  9.37021650E-08 -6.01228882E-07 -1.81882650E-06
  2.83684783E-06 -5.34615646E-05 -4.45645214E-04  3.49521963E-06  9.82631051E-06
  2.98264842E-04 -4.35225886E-04 -6.05419177E-04 -3.00392422E-06  7.78699681E-06
  3.55055040E-04 -9.17300530E-04  2.10217576E-07  2.49601216E-05 -1.39140846E-05
  1.52837685E-06  1.47338902E-06 -6.73880381E-06  5.01772012E-05 -4.87914340E-06
  1.35895421E-04 -1.04415215E-04 -1.30367170E-05  1.35226039E-06 -1.82394455E-04
  1.43625667E-04  9.78281019E-01 -8.40009038E-03  4.17863335E-02 -5.49339176E-03
 -3.05212795E-03 -3.20848150E-05 -3.23060204E-03  2.67499577E-05 -1.07683361E-03
  2.78198266E-03 -1.86144955E-05 -5.98247627E-04  3.04915059E-03 -6.96519952E-06
 -2.17428936E-04  5.01595126E-04 -7.74901999E-07 -4.39210505E-04 -6.12387086E-06
 -7.06072172E-06  4.42396644E-05  3.28831201E-04  1.03014965E-03  3.94293047E-06
  7.56184190E-06 -3.22529394E-04  1.27632212E-04  3.60945920E-04  2.03488944E-05
  1.26787232E-05  6.65766002E-05  1.10918611E-04  5.29535373E-07  1.07334834E-04
 -3.53151091E-05  3.06914794E-07  8.21507049E-07 -2.31234060E-05 -5.62969806E-05
 -2.94817985E-06 -1.35931727E-04 -2.89335725E-04  5.84158492E-06 -2.01022595E-06
  2.57518209E-05  5.25688289E-04 -1.89351356E-04  9.18785092E-04  1.57460396E-04
  3.02690046E-03  8.89572666E-04  2.06509410E-04  2.03249497E-04 -8.77629740E-07
  7.36530359E-04  5.48754394E-04 -1.97172460E-05  1.21585266E-03  2.74715018E-04
 -9.86861280E-06 -4.54221704E-06  3.70054182E-05  4.01711998E-06 -3.98052840E-05
 -9.50675892E-07 -4.05906485E-07  3.38615309E-06  1.10733756E-04  7.38731561E-05
 -3.13583522E-06 -1.41912723E-06  1.70294697E-04 -2.13399167E-04 -3.62601399E-05
 -2.53963249E-06  6.99519644E-07  3.12384507E-04  7.15480569E-05 -2.62365666E-06
  7.49793625E-05  6.48214996E-05 -1.99510603E-07  3.28896012E-06  6.59771846E-05
 -1.05922345E-04 -4.11785524E-06  1.08430629E-04  1.69923430E-04  1.26140314E-07
  6.82271084E-06  3.14124531E-04 -1.67188561E-04  2.11329402E-02  1.71821799E-02
 -1.61103480E-03  4.62277675E-04 -2.75043121E-03 -1.91270879E-03 -1.78634694E-04
 -2.12641650E-03 -1.82331240E-03 -1.59306339E-04  2.16192872E-03  9.70374359E-04
 -1.99974145E-05 -2.39675509E-04  3.64441065E-05  2.39759056E-05  1.43133204E-04
  4.76815287E-04  2.73041797E-04 -2.49783973E-05 -2.01203442E-05 -4.10360531E-05
  6.54307446E-04 -6.63156364E-02  1.60667953E-01  4.28077749E-02  9.26379546E-02
  7.77616297E-03 -2.19768863E-02  1.71245752E-02  4.90095111E-04 -3.02705996E-02
  2.51043707E-02  7.28173050E-04 -1.46497409E-02  6.06187183E-03  9.99748506E-05
 -1.30144668E-03 -2.38853708E-03  3.06423752E-05 -1.82366283E-03  4.09644221E-05
  6.75073888E-05  1.19790201E-03 -1.36389967E-03 -4.10619243E-03  6.89921320E-05
  2.15371759E-04  3.30046737E-03 -2.88452179E-03  1.02889695E-03 -5.53855199E-05
 -5.49900514E-05  1.11283602E-03 -1.12391295E-03 -4.87155262E-05  7.29318538E-04
 -6.78662749E-04 -1.84103963E-05  5.05806955E-05 -7.29484005E-04  1.29644608E-03
 -3.11546814E-05 -4.23603406E-04  4.26721826E-04 -3.09291538E-05 -2.65076396E-05
 -2.83945425E-04 -1.20130856E-04 -1.30091502E-01  3.07483378E-01  8.09848914E-02
  6.35095353E-02  4.85709730E-04 -5.37775264E-02 -6.87562872E-02  1.01699287E-03
 -5.12357258E-02 -8.67026535E-02  1.18721642E-03 -6.04743050E-03  7.28043661E-03
  1.80402219E-04 -1.10603515E-03  2.97394359E-03 -2.55783899E-05 -9.28628985E-03
 -1.86679630E-04 -1.85285638E-04  2.71123697E-03  1.02547315E-02 -1.14679060E-02
 -1.91195159E-04 -2.08224790E-04  3.48739698E-03  1.04492226E-02  6.16710787E-03
  1.33650217E-04  8.95940148E-05 -4.56156692E-04  3.21486405E-04 -9.49013062E-05
  1.54649617E-03  3.11916194E-03  4.44582225E-05  1.18071444E-04  2.06326155E-03
 -7.01248989E-03  8.72643358E-07 -1.14888947E-03 -8.58540137E-04  3.17456887E-05
 -9.66977141E-07  5.16603452E-04  7.40847492E-04 -1.50186150E-01  3.59201578E-01
  9.62873602E-02  1.79277457E-01 -1.50842068E-02  6.80592478E-02  4.70384563E-02
 -7.80927383E-04  8.63960012E-02  5.93792696E-02 -1.02289898E-03  1.55292801E-02
  8.88354456E-03 -2.24169332E-04 -7.30425317E-03 -5.11432758E-03  1.02064046E-04
 -5.15830931E-03 -1.43039112E-04 -1.02979115E-04  2.90497984E-03  8.04123564E-03
 -9.46999440E-03 -3.09570862E-04 -2.03304810E-04  5.89626437E-03  1.67400431E-02
  2.50816068E-03  3.70388413E-05  5.58810244E-05 -1.20542174E-03 -4.32948246E-03
  8.42050430E-05 -2.67991274E-03 -1.85935198E-03 -4.80071120E-05 -1.07899509E-04
 -1.29765961E-03  4.73417997E-03  1.99079398E-05 -8.13712458E-06 -2.86828203E-04
 -1.89247149E-05 -2.33674230E-05 -1.06596061E-03  1.88834328E-03  8.02793590E-02
  7.88736374E-02 -2.06437862E-02 -2.88215391E-03 -9.51571350E-03 -8.37815916E-03
 -7.14353051E-04 -1.34838937E-02 -6.16312464E-03 -7.90706844E-04  6.46472599E-03
  4.70296857E-03  4.82230666E-04 -1.31423103E-03  2.30199526E-04  1.44814147E-04
  1.00220840E-03  2.33058001E-03  3.93865940E-04  6.38746844E-05 -7.14586053E-05
  2.57189345E-03  3.06473563E-04 -1.81443951E-01  4.42017347E-01  1.20606686E-01
  2.57796687E-01  1.14080713E-02  2.43211805E-03  4.11077904E-02  1.82594919E-03