 Entering Gaussian System, Link 0=g16
 Input=hono_r1_p_02.gjf
 Output=hono_r1_p_02.log
 Initial command:
 /sw/contrib/gaussian/g16/B01/g16/l1.exe "/scr/Gau-16828.inp" -scrdir="/scr/"
 Entering Link 1 = /sw/contrib/gaussian/g16/B01/g16/l1.exe PID=     16829.
  
 Copyright (c) 1988-2017, Gaussian, Inc.  All Rights Reserved.
  
 This is part of the Gaussian(R) 16 program.  It is based on
 the Gaussian(R) 09 system (copyright 2009, Gaussian, Inc.),
 the Gaussian(R) 03 system (copyright 2003, Gaussian, Inc.),
 the Gaussian(R) 98 system (copyright 1998, Gaussian, Inc.),
 the Gaussian(R) 94 system (copyright 1995, Gaussian, Inc.),
 the Gaussian 92(TM) system (copyright 1992, Gaussian, Inc.),
 the Gaussian 90(TM) system (copyright 1990, Gaussian, Inc.),
 the Gaussian 88(TM) system (copyright 1988, Gaussian, Inc.),
 the Gaussian 86(TM) system (copyright 1986, Carnegie Mellon
 University), and the Gaussian 82(TM) system (copyright 1983,
 Carnegie Mellon University). Gaussian is a federally registered
 trademark of Gaussian, Inc.
  
 This software contains proprietary and confidential information,
 including trade secrets, belonging to Gaussian, Inc.
  
 This software is provided under written license and may be
 used, copied, transmitted, or stored only in accord with that
 written license.
  
 The following legend is applicable only to US Government
 contracts under FAR:
  
                    RESTRICTED RIGHTS LEGEND
  
 Use, reproduction and disclosure by the US Government is
 subject to restrictions as set forth in subparagraphs (a)
 and (c) of the Commercial Computer Software - Restricted
 Rights clause in FAR 52.227-19.
  
 Gaussian, Inc.
 340 Quinnipiac St., Bldg. 40, Wallingford CT 06492
  
  
 ---------------------------------------------------------------
 Warning -- This program may not be used in any manner that
 competes with the business of Gaussian, Inc. or will provide
 assistance to any competitor of Gaussian, Inc.  The licensee
 of this program is prohibited from giving any competitor of
 Gaussian, Inc. access to this program.  By using this program,
 the user acknowledges that Gaussian, Inc. is engaged in the
 business of creating and licensing software in the field of
 computational chemistry and represents and warrants to the
 licensee that it is not a competitor of Gaussian, Inc. and that
 it will not use this program in any manner prohibited above.
 ---------------------------------------------------------------
  

 Cite this work as:
 Gaussian 16, Revision B.01,
 M. J. Frisch, G. W. Trucks, H. B. Schlegel, G. E. Scuseria, 
 M. A. Robb, J. R. Cheeseman, G. Scalmani, V. Barone, 
 G. A. Petersson, H. Nakatsuji, X. Li, M. Caricato, A. V. Marenich, 
 J. Bloino, B. G. Janesko, R. Gomperts, B. Mennucci, H. P. Hratchian, 
 J. V. Ortiz, A. F. Izmaylov, J. L. Sonnenberg, D. Williams-Young, 
 F. Ding, F. Lipparini, F. Egidi, J. Goings, B. Peng, A. Petrone, 
 T. Henderson, D. Ranasinghe, V. G. Zakrzewski, J. Gao, N. Rega, 
 G. Zheng, W. Liang, M. Hada, M. Ehara, K. Toyota, R. Fukuda, 
 J. Hasegawa, M. Ishida, T. Nakajima, Y. Honda, O. Kitao, H. Nakai, 
 T. Vreven, K. Throssell, J. A. Montgomery, Jr., J. E. Peralta, 
 F. Ogliaro, M. J. Bearpark, J. J. Heyd, E. N. Brothers, K. N. Kudin, 
 V. N. Staroverov, T. A. Keith, R. Kobayashi, J. Normand, 
 K. Raghavachari, A. P. Rendell, J. C. Burant, S. S. Iyengar, 
 J. Tomasi, M. Cossi, J. M. Millam, M. Klene, C. Adamo, R. Cammi, 
 J. W. Ochterski, R. L. Martin, K. Morokuma, O. Farkas, 
 J. B. Foresman, and D. J. Fox, Gaussian, Inc., Wallingford CT, 2016.
 
 ******************************************
 Gaussian 16:  ES64L-G16RevB.01 20-Dec-2017
                31-Jan-2022 
 ******************************************
 %nproc=28
 Will use up to   28 processors via shared memory.
 %mem=120GB
 %chk=/gscratch/ilahie/mccoygrp/coire_hoono/hono/hono_r1_p_02.chk
 -------------------------------------
 #p SP mp2/aug-cc-pvtz density=current
 -------------------------------------
 1/30=1,38=1,172=1/1;
 2/12=2,17=6,18=5,40=1/2;
 3/5=16,6=1,7=10,11=9,25=1,30=1,71=1/1,2,3;
 4//1;
 5/5=2,38=5/2;
 8/6=4,10=1/1;
 9/15=1,16=-3/6;
 10/5=1,13=10/2;
 6/7=2,8=2,9=2,10=2,22=-1/1;
 99/5=1,9=1/99;
 Leave Link    1 at Mon Jan 31 11:55:15 2022, MaxMem= 16106127360 cpu:               2.7 elap:               0.1
 (Enter /sw/contrib/gaussian/g16/B01/g16/l101.exe)
 -----
 title
 -----
 Symbolic Z-matrix:
 Charge =  0 Multiplicity = 1
 H
 O                    1    r1
 N                    2    r2       1    a1
 O                    3    r3       2    a2       1    d1       0
       Variables:
  r1                    0.99026                  
  r2                    1.42776                  
  r3                    1.1768                   
  a1                  101.62779                  
  a2                  110.70859                  
  d1                  180.                       
 
 ITRead=  0  0  0  0
 MicOpt= -1 -1 -1 -1
 NAtoms=      4 NQM=        4 NQMF=       0 NMMI=      0 NMMIF=      0
                NMic=       0 NMicF=      0.
                    Isotopes and Nuclear Properties:
 (Nuclear quadrupole moments (NQMom) in fm**2, nuclear magnetic moments (NMagM)
  in nuclear magnetons)

  Atom         1           2           3           4
 IAtWgt=           1          16          14          16
 AtmWgt=   1.0078250  15.9949146  14.0030740  15.9949146
 NucSpn=           1           0           2           0
 AtZEff=  -0.0000000  -0.0000000  -0.0000000  -0.0000000
 NQMom=    0.0000000   0.0000000   2.0440000   0.0000000
 NMagM=    2.7928460   0.0000000   0.4037610   0.0000000
 AtZNuc=   1.0000000   8.0000000   7.0000000   8.0000000
 Leave Link  101 at Mon Jan 31 11:55:16 2022, MaxMem= 16106127360 cpu:               2.6 elap:               0.1
 (Enter /sw/contrib/gaussian/g16/B01/g16/l202.exe)
                          Input orientation:                          
 ---------------------------------------------------------------------
 Center     Atomic      Atomic             Coordinates (Angstroms)
 Number     Number       Type             X           Y           Z
 ---------------------------------------------------------------------
      1          1           0        0.000000    0.000000    0.000000
      2          8           0        0.000000    0.000000    0.990263
      3          7           0        1.398463    0.000000    1.278033
      4          8           0        1.584195    0.000000    2.440086
 ---------------------------------------------------------------------
                    Distance matrix (angstroms):
                    1          2          3          4
     1  H    0.000000
     2  O    0.990263   0.000000
     3  N    1.894483   1.427764   0.000000
     4  O    2.909242   2.147478   1.176802   0.000000
 Stoichiometry    HNO2
 Framework group  CS[SG(HNO2)]
 Deg. of freedom     5
 Full point group                 CS      NOp   2
 Largest Abelian subgroup         CS      NOp   2
 Largest concise Abelian subgroup C1      NOp   1
                         Standard orientation:                         
 ---------------------------------------------------------------------
 Center     Atomic      Atomic             Coordinates (Angstroms)
 Number     Number       Type             X           Y           Z
 ---------------------------------------------------------------------
      1          1           0        1.776475   -0.137945   -0.000000
      2          8           0        0.896088   -0.591310   -0.000000
      3          7           0       -0.000000    0.520237   -0.000000
      4          8           0       -1.118148    0.153346    0.000000
 ---------------------------------------------------------------------
 Rotational constants (GHZ):          92.3936658          12.5518646          11.0506162
 Leave Link  202 at Mon Jan 31 11:55:16 2022, MaxMem= 16106127360 cpu:               2.2 elap:               0.1
 (Enter /sw/contrib/gaussian/g16/B01/g16/l301.exe)
 Standard basis: Aug-CC-pVTZ (5D, 7F)
 Ernie: Thresh=  0.10000D-02 Tol=  0.10000D-05 Strict=F.
 Ernie:  9 primitive shells out of 101 were deleted.
 There are   129 symmetry adapted cartesian basis functions of A'  symmetry.
 There are    61 symmetry adapted cartesian basis functions of A"  symmetry.
 There are   106 symmetry adapted basis functions of A'  symmetry.
 There are    55 symmetry adapted basis functions of A"  symmetry.
   161 basis functions,   243 primitive gaussians,   190 cartesian basis functions
    12 alpha electrons       12 beta electrons
       nuclear repulsion energy        69.3934487519 Hartrees.
 IExCor=    0 DFT=F Ex=HF Corr=None ExCW=0 ScaHFX=  1.000000
 ScaDFX=  1.000000  1.000000  1.000000  1.000000 ScalE2=  1.000000  1.000000
 IRadAn=      5 IRanWt=     -1 IRanGd=            0 ICorTp=0 IEmpDi=  4
 NAtoms=    4 NActive=    4 NUniq=    4 SFac= 1.00D+00 NAtFMM=   60 NAOKFM=F Big=F
 Integral buffers will be    131072 words long.
 Raffenetti 1 integral format.
 Two-electron integral symmetry is turned on.
 Leave Link  301 at Mon Jan 31 11:55:16 2022, MaxMem= 16106127360 cpu:               1.5 elap:               0.1
 (Enter /sw/contrib/gaussian/g16/B01/g16/l302.exe)
 NPDir=0 NMtPBC=     1 NCelOv=     1 NCel=       1 NClECP=     1 NCelD=      1
         NCelK=      1 NCelE2=     1 NClLst=     1 CellRange=     0.0.
 One-electron integrals computed using PRISM.
 One-electron integral symmetry used in STVInt
 NBasis=   161 RedAO= T EigKep=  1.98D-04  NBF=   106    55
 NBsUse=   161 1.00D-06 EigRej= -1.00D+00 NBFU=   106    55
 Leave Link  302 at Mon Jan 31 11:55:16 2022, MaxMem= 16106127360 cpu:               4.1 elap:               0.2
 (Enter /sw/contrib/gaussian/g16/B01/g16/l303.exe)
 DipDrv:  MaxL=1.
 Leave Link  303 at Mon Jan 31 11:55:16 2022, MaxMem= 16106127360 cpu:               0.7 elap:               0.1
 (Enter /sw/contrib/gaussian/g16/B01/g16/l401.exe)
 ExpMin= 2.53D-02 ExpMax= 1.53D+04 ExpMxC= 5.22D+02 IAcc=3 IRadAn=         5 AccDes= 0.00D+00
 Harris functional with IExCor=  205 and IRadAn=       5 diagonalized for initial guess.
 HarFok:  IExCor=  205 AccDes= 0.00D+00 IRadAn=         5 IDoV= 1 UseB2=F ITyADJ=14
 ICtDFT=  3500011 ScaDFX=  1.000000  1.000000  1.000000  1.000000
 FoFCou: FMM=F IPFlag=           0 FMFlag=      100000 FMFlg1=           0
         NFxFlg=           0 DoJE=T BraDBF=F KetDBF=T FulRan=T
         wScrn=  0.000000 ICntrl=       500 IOpCl=  0 I1Cent=   200000004 NGrid=           0
         NMat0=    1 NMatS0=      1 NMatT0=    0 NMatD0=    1 NMtDS0=    0 NMtDT0=    0
 Petite list used in FoFCou.
 Harris En= -204.817771682491    
 JPrj=0 DoOrth=F DoCkMO=F.
 Initial guess orbital symmetries:
       Occupied  (A') (A') (A') (A') (A') (A') (A') (A') (A") (A')
                 (A") (A')
       Virtual   (A") (A') (A') (A') (A') (A") (A') (A') (A') (A")
                 (A') (A") (A') (A') (A") (A') (A') (A') (A') (A')
                 (A") (A') (A") (A') (A') (A') (A") (A') (A") (A')
                 (A") (A') (A') (A") (A") (A') (A') (A') (A") (A')
                 (A') (A') (A") (A') (A") (A') (A') (A") (A') (A')
                 (A") (A') (A") (A') (A') (A") (A') (A") (A') (A")
                 (A') (A') (A") (A') (A') (A') (A") (A') (A") (A")
                 (A') (A') (A') (A") (A") (A') (A') (A') (A") (A")
                 (A') (A') (A') (A") (A') (A') (A") (A") (A') (A')
                 (A') (A') (A") (A') (A') (A") (A') (A") (A') (A")
                 (A") (A') (A') (A') (A') (A") (A') (A") (A') (A")
                 (A') (A") (A') (A') (A") (A') (A') (A") (A') (A')
                 (A') (A') (A") (A') (A") (A") (A') (A') (A") (A')
                 (A") (A") (A') (A") (A') (A") (A') (A") (A") (A')
                 (A') (A') (A') (A') (A') (A') (A') (A') (A')
 The electronic state of the initial guess is 1-A'.
 Leave Link  401 at Mon Jan 31 11:55:16 2022, MaxMem= 16106127360 cpu:               7.2 elap:               0.3
 (Enter /sw/contrib/gaussian/g16/B01/g16/l502.exe)
 Keep R1 ints in memory in symmetry-blocked form, NReq=128070121.
 FoFCou: FMM=F IPFlag=           0 FMFlag=           0 FMFlg1=           0
         NFxFlg=           0 DoJE=F BraDBF=F KetDBF=F FulRan=T
         wScrn=  0.000000 ICntrl=       600 IOpCl=  0 I1Cent=           0 NGrid=           0
         NMat0=    1 NMatS0=  13041 NMatT0=    0 NMatD0=    1 NMtDS0=    0 NMtDT0=    0
 Petite list used in FoFCou.
 Closed shell SCF:
 Using DIIS extrapolation, IDIIS=  1040.
 NGot= 16106127360 LenX= 16063019402 LenY= 16062982861
 Requested convergence on RMS density matrix=1.00D-08 within 128 cycles.
 Requested convergence on MAX density matrix=1.00D-06.
 Requested convergence on             energy=1.00D-06.
 No special actions if energy rises.

 Cycle   1  Pass 1  IDiag  1:
 E= -204.613480163610    
 DIIS: error= 3.25D-02 at cycle   1 NSaved=   1.
 NSaved= 1 IEnMin= 1 EnMin= -204.613480163610     IErMin= 1 ErrMin= 3.25D-02
 ErrMax= 3.25D-02  0.00D+00 EMaxC= 1.00D-01 BMatC= 3.52D-01 BMatP= 3.52D-01
 IDIUse=3 WtCom= 6.75D-01 WtEn= 3.25D-01
 Coeff-Com:  0.100D+01
 Coeff-En:   0.100D+01
 Coeff:      0.100D+01
 Gap=     0.509 Goal=   None    Shift=    0.000
 GapD=    0.509 DampG=2.000 DampE=0.500 DampFc=1.0000 IDamp=-1.
 RMSDP=2.03D-03 MaxDP=1.21D-01              OVMax= 1.01D-01

 Cycle   2  Pass 1  IDiag  1:
 E= -204.677728680331     Delta-E=       -0.064248516721 Rises=F Damp=F
 DIIS: error= 2.05D-02 at cycle   2 NSaved=   2.
 NSaved= 2 IEnMin= 2 EnMin= -204.677728680331     IErMin= 2 ErrMin= 2.05D-02
 ErrMax= 2.05D-02  0.00D+00 EMaxC= 1.00D-01 BMatC= 6.71D-02 BMatP= 3.52D-01
 IDIUse=3 WtCom= 7.95D-01 WtEn= 2.05D-01
 Coeff-Com:  0.232D+00 0.768D+00
 Coeff-En:   0.105D+00 0.895D+00
 Coeff:      0.206D+00 0.794D+00
 Gap=     0.511 Goal=   None    Shift=    0.000
 RMSDP=9.91D-04 MaxDP=3.56D-02 DE=-6.42D-02 OVMax= 8.82D-02

 Cycle   3  Pass 1  IDiag  1:
 E= -204.711141952958     Delta-E=       -0.033413272628 Rises=F Damp=F
 DIIS: error= 7.42D-03 at cycle   3 NSaved=   3.
 NSaved= 3 IEnMin= 3 EnMin= -204.711141952958     IErMin= 3 ErrMin= 7.42D-03
 ErrMax= 7.42D-03  0.00D+00 EMaxC= 1.00D-01 BMatC= 1.56D-02 BMatP= 6.71D-02
 IDIUse=3 WtCom= 9.26D-01 WtEn= 7.42D-02
 Coeff-Com: -0.363D-01 0.306D+00 0.730D+00
 Coeff-En:   0.000D+00 0.912D-01 0.909D+00
 Coeff:     -0.336D-01 0.290D+00 0.743D+00
 Gap=     0.493 Goal=   None    Shift=    0.000
 RMSDP=4.09D-04 MaxDP=2.23D-02 DE=-3.34D-02 OVMax= 2.66D-02

 Cycle   4  Pass 1  IDiag  1:
 E= -204.721458009808     Delta-E=       -0.010316056850 Rises=F Damp=F
 DIIS: error= 1.55D-03 at cycle   4 NSaved=   4.
 NSaved= 4 IEnMin= 4 EnMin= -204.721458009808     IErMin= 4 ErrMin= 1.55D-03
 ErrMax= 1.55D-03  0.00D+00 EMaxC= 1.00D-01 BMatC= 2.40D-04 BMatP= 1.56D-02
 IDIUse=3 WtCom= 9.84D-01 WtEn= 1.55D-02
 Coeff-Com: -0.696D-02 0.189D-01 0.109D+00 0.879D+00
 Coeff-En:   0.000D+00 0.000D+00 0.000D+00 0.100D+01
 Coeff:     -0.685D-02 0.186D-01 0.108D+00 0.881D+00
 Gap=     0.488 Goal=   None    Shift=    0.000
 RMSDP=8.46D-05 MaxDP=1.85D-03 DE=-1.03D-02 OVMax= 8.22D-03

 Cycle   5  Pass 1  IDiag  1:
 E= -204.721829682524     Delta-E=       -0.000371672716 Rises=F Damp=F
 DIIS: error= 1.04D-03 at cycle   5 NSaved=   5.
 NSaved= 5 IEnMin= 5 EnMin= -204.721829682524     IErMin= 5 ErrMin= 1.04D-03
 ErrMax= 1.04D-03  0.00D+00 EMaxC= 1.00D-01 BMatC= 6.24D-05 BMatP= 2.40D-04
 IDIUse=3 WtCom= 9.90D-01 WtEn= 1.04D-02
 Coeff-Com:  0.707D-02-0.732D-01-0.154D+00 0.227D+00 0.993D+00
 Coeff-En:   0.000D+00 0.000D+00 0.000D+00 0.000D+00 0.100D+01
 Coeff:      0.699D-02-0.724D-01-0.152D+00 0.225D+00 0.993D+00
 Gap=     0.488 Goal=   None    Shift=    0.000
 RMSDP=6.71D-05 MaxDP=1.62D-03 DE=-3.72D-04 OVMax= 8.92D-03

 Cycle   6  Pass 1  IDiag  1:
 E= -204.722001588134     Delta-E=       -0.000171905610 Rises=F Damp=F
 DIIS: error= 2.31D-04 at cycle   6 NSaved=   6.
 NSaved= 6 IEnMin= 6 EnMin= -204.722001588134     IErMin= 6 ErrMin= 2.31D-04
 ErrMax= 2.31D-04  0.00D+00 EMaxC= 1.00D-01 BMatC= 1.15D-05 BMatP= 6.24D-05
 IDIUse=3 WtCom= 9.98D-01 WtEn= 2.31D-03
 Coeff-Com:  0.549D-03 0.115D-02-0.215D-02-0.210D+00 0.795D-02 0.120D+01
 Coeff-En:   0.000D+00 0.000D+00 0.000D+00 0.000D+00 0.000D+00 0.100D+01
 Coeff:      0.548D-03 0.115D-02-0.215D-02-0.210D+00 0.794D-02 0.120D+01
 Gap=     0.489 Goal=   None    Shift=    0.000
 RMSDP=3.81D-05 MaxDP=7.17D-04 DE=-1.72D-04 OVMax= 4.05D-03

 Cycle   7  Pass 1  IDiag  1:
 E= -204.722040454049     Delta-E=       -0.000038865915 Rises=F Damp=F
 DIIS: error= 1.17D-04 at cycle   7 NSaved=   7.
 NSaved= 7 IEnMin= 7 EnMin= -204.722040454049     IErMin= 7 ErrMin= 1.17D-04
 ErrMax= 1.17D-04  0.00D+00 EMaxC= 1.00D-01 BMatC= 1.78D-06 BMatP= 1.15D-05
 IDIUse=3 WtCom= 9.99D-01 WtEn= 1.17D-03
 Coeff-Com: -0.124D-02 0.128D-01 0.316D-01-0.518D-01-0.137D+00-0.670D-01
 Coeff-Com:  0.121D+01
 Coeff-En:   0.000D+00 0.000D+00 0.000D+00 0.000D+00 0.000D+00 0.000D+00
 Coeff-En:   0.100D+01
 Coeff:     -0.123D-02 0.128D-01 0.315D-01-0.518D-01-0.136D+00-0.669D-01
 Coeff:      0.121D+01
 Gap=     0.489 Goal=   None    Shift=    0.000
 RMSDP=1.50D-05 MaxDP=3.29D-04 DE=-3.89D-05 OVMax= 1.78D-03

 Cycle   8  Pass 1  IDiag  1:
 E= -204.722046012106     Delta-E=       -0.000005558057 Rises=F Damp=F
 DIIS: error= 4.42D-05 at cycle   8 NSaved=   8.
 NSaved= 8 IEnMin= 8 EnMin= -204.722046012106     IErMin= 8 ErrMin= 4.42D-05
 ErrMax= 4.42D-05  0.00D+00 EMaxC= 1.00D-01 BMatC= 1.90D-07 BMatP= 1.78D-06
 IDIUse=1 WtCom= 1.00D+00 WtEn= 0.00D+00
 Coeff-Com: -0.383D-04-0.803D-03-0.584D-03 0.213D-01 0.228D-01-0.152D+00
 Coeff-Com: -0.134D+00 0.124D+01
 Coeff:     -0.383D-04-0.803D-03-0.584D-03 0.213D-01 0.228D-01-0.152D+00
 Coeff:     -0.134D+00 0.124D+01
 Gap=     0.489 Goal=   None    Shift=    0.000
 RMSDP=5.00D-06 MaxDP=1.01D-04 DE=-5.56D-06 OVMax= 4.88D-04

 Cycle   9  Pass 1  IDiag  1:
 E= -204.722046570058     Delta-E=       -0.000000557952 Rises=F Damp=F
 DIIS: error= 1.14D-05 at cycle   9 NSaved=   9.
 NSaved= 9 IEnMin= 9 EnMin= -204.722046570058     IErMin= 9 ErrMin= 1.14D-05
 ErrMax= 1.14D-05  0.00D+00 EMaxC= 1.00D-01 BMatC= 1.58D-08 BMatP= 1.90D-07
 IDIUse=1 WtCom= 1.00D+00 WtEn= 0.00D+00
 Coeff-Com:  0.107D-03-0.101D-02-0.241D-02-0.142D-02 0.124D-01 0.382D-01
 Coeff-Com: -0.841D-01-0.286D+00 0.132D+01
 Coeff:      0.107D-03-0.101D-02-0.241D-02-0.142D-02 0.124D-01 0.382D-01
 Coeff:     -0.841D-01-0.286D+00 0.132D+01
 Gap=     0.489 Goal=   None    Shift=    0.000
 RMSDP=1.29D-06 MaxDP=3.48D-05 DE=-5.58D-07 OVMax= 9.86D-05

 Cycle  10  Pass 1  IDiag  1:
 E= -204.722046612667     Delta-E=       -0.000000042609 Rises=F Damp=F
 DIIS: error= 2.80D-06 at cycle  10 NSaved=  10.
 NSaved=10 IEnMin=10 EnMin= -204.722046612667     IErMin=10 ErrMin= 2.80D-06
 ErrMax= 2.80D-06  0.00D+00 EMaxC= 1.00D-01 BMatC= 1.29D-09 BMatP= 1.58D-08
 IDIUse=1 WtCom= 1.00D+00 WtEn= 0.00D+00
 Coeff-Com: -0.260D-04 0.320D-03 0.785D-03-0.208D-02-0.437D-02 0.205D-02
 Coeff-Com:  0.370D-01-0.489D-01-0.281D+00 0.130D+01
 Coeff:     -0.260D-04 0.320D-03 0.785D-03-0.208D-02-0.437D-02 0.205D-02
 Coeff:      0.370D-01-0.489D-01-0.281D+00 0.130D+01
 Gap=     0.489 Goal=   None    Shift=    0.000
 RMSDP=3.36D-07 MaxDP=1.12D-05 DE=-4.26D-08 OVMax= 3.06D-05

 Cycle  11  Pass 1  IDiag  1:
 E= -204.722046616136     Delta-E=       -0.000000003469 Rises=F Damp=F
 DIIS: error= 1.14D-06 at cycle  11 NSaved=  11.
 NSaved=11 IEnMin=11 EnMin= -204.722046616136     IErMin=11 ErrMin= 1.14D-06
 ErrMax= 1.14D-06  0.00D+00 EMaxC= 1.00D-01 BMatC= 1.20D-10 BMatP= 1.29D-09
 IDIUse=1 WtCom= 1.00D+00 WtEn= 0.00D+00
 Coeff-Com: -0.647D-06-0.178D-04-0.399D-04 0.577D-03 0.979D-03-0.466D-02
 Coeff-Com: -0.531D-02 0.448D-01-0.214D-01-0.475D+00 0.146D+01
 Coeff:     -0.647D-06-0.178D-04-0.399D-04 0.577D-03 0.979D-03-0.466D-02
 Coeff:     -0.531D-02 0.448D-01-0.214D-01-0.475D+00 0.146D+01
 Gap=     0.489 Goal=   None    Shift=    0.000
 RMSDP=1.12D-07 MaxDP=4.16D-06 DE=-3.47D-09 OVMax= 1.11D-05

 Cycle  12  Pass 1  IDiag  1:
 E= -204.722046616514     Delta-E=       -0.000000000378 Rises=F Damp=F
 DIIS: error= 1.87D-07 at cycle  12 NSaved=  12.
 NSaved=12 IEnMin=12 EnMin= -204.722046616514     IErMin=12 ErrMin= 1.87D-07
 ErrMax= 1.87D-07  0.00D+00 EMaxC= 1.00D-01 BMatC= 7.07D-12 BMatP= 1.20D-10
 IDIUse=1 WtCom= 1.00D+00 WtEn= 0.00D+00
 Coeff-Com:  0.250D-05-0.244D-04-0.580D-04-0.615D-04 0.187D-03 0.156D-02
 Coeff-Com: -0.204D-02-0.122D-01 0.392D-01 0.353D-01-0.469D+00 0.141D+01
 Coeff:      0.250D-05-0.244D-04-0.580D-04-0.615D-04 0.187D-03 0.156D-02
 Coeff:     -0.204D-02-0.122D-01 0.392D-01 0.353D-01-0.469D+00 0.141D+01
 Gap=     0.489 Goal=   None    Shift=    0.000
 RMSDP=3.18D-08 MaxDP=7.33D-07 DE=-3.78D-10 OVMax= 2.64D-06

 Cycle  13  Pass 1  IDiag  1:
 E= -204.722046616536     Delta-E=       -0.000000000022 Rises=F Damp=F
 DIIS: error= 4.63D-08 at cycle  13 NSaved=  13.
 NSaved=13 IEnMin=13 EnMin= -204.722046616536     IErMin=13 ErrMin= 4.63D-08
 ErrMax= 4.63D-08  0.00D+00 EMaxC= 1.00D-01 BMatC= 2.25D-13 BMatP= 7.07D-12
 IDIUse=1 WtCom= 1.00D+00 WtEn= 0.00D+00
 Coeff-Com: -0.454D-06 0.588D-05 0.140D-04-0.230D-04-0.927D-04-0.436D-04
 Coeff-Com:  0.754D-03-0.302D-03-0.529D-02 0.134D-01 0.235D-01-0.297D+00
 Coeff-Com:  0.127D+01
 Coeff:     -0.454D-06 0.588D-05 0.140D-04-0.230D-04-0.927D-04-0.436D-04
 Coeff:      0.754D-03-0.302D-03-0.529D-02 0.134D-01 0.235D-01-0.297D+00
 Coeff:      0.127D+01
 Gap=     0.489 Goal=   None    Shift=    0.000
 RMSDP=5.63D-09 MaxDP=9.82D-08 DE=-2.16D-11 OVMax= 4.35D-07

 SCF Done:  E(RHF) =  -204.722046617     A.U. after   13 cycles
            NFock= 13  Conv=0.56D-08     -V/T= 2.0025
 KE= 2.042036158174D+02 PE=-6.227207520489D+02 EE= 1.444016408631D+02
 Leave Link  502 at Mon Jan 31 11:55:18 2022, MaxMem= 16106127360 cpu:              35.3 elap:               1.9
 (Enter /sw/contrib/gaussian/g16/B01/g16/l801.exe)
 ExpMin= 2.53D-02 ExpMax= 1.53D+04 ExpMxC= 5.22D+02 IAcc=3 IRadAn=         5 AccDes= 0.00D+00
 HarFok:  IExCor=  205 AccDes= 0.00D+00 IRadAn=         5 IDoV=-2 UseB2=F ITyADJ=14
 ICtDFT= 12500011 ScaDFX=  1.000000  1.000000  1.000000  1.000000
 Largest valence mixing into a core orbital is  2.06D-04
 Largest core mixing into a valence orbital is  3.33D-05
 Range of M.O.s used for correlation:     4   161
 NBasis=   161 NAE=    12 NBE=    12 NFC=     3 NFV=     0
 NROrb=    158 NOA=     9 NOB=     9 NVA=   149 NVB=   149

 **** Warning!!: The largest alpha MO coefficient is  0.19445781D+02

 Leave Link  801 at Mon Jan 31 11:55:18 2022, MaxMem= 16106127360 cpu:               2.1 elap:               0.1
 (Enter /sw/contrib/gaussian/g16/B01/g16/l906.exe)
 Frozen-core derivative calculation, NFC=   3 NFV=   0.
 FulOut=F Deriv=T AODrv=F NAtomX=     4
   MMem=         161  MDisk=           9 MDiskD=           9
  W3Min=      367080 MinDsk=      792425 NBas6D=         190
 NBas2D=       18625    NTT=       18145    LW2=     3500000
    MDV= 16105788771 MDiskM=      423783 NBas2p=       18621
 Fully in-core method, ICMem=   359292905.
 IMap=   1   2   3   4   5   6   7   8   9  10  11  12
 JobTyp=1 Pass  1 fully in-core, NPsUse= 28.
 Compute canonical integrals.
 FoFCou: FMM=F IPFlag=           0 FMFlag=           0 FMFlg1=           0
         NFxFlg=           0 DoJE=F BraDBF=F KetDBF=F FulRan=T
         wScrn=  0.000000 ICntrl=       600 IOpCl=  1 I1Cent=           0 NGrid=           0
         NMat0=    1 NMatS0=  18625 NMatT0=    0 NMatD0=    1 NMtDS0=    0 NMtDT0=    0
 Symmetry not used in FoFCou.
 Spin components of T(2) and E(2):
     alpha-alpha T2 =       0.2542490054D-01 E2=     -0.9079351803D-01
     alpha-beta  T2 =       0.1380995067D+00 E2=     -0.5173753917D+00
     beta-beta   T2 =       0.2542490054D-01 E2=     -0.9079351803D-01
 The integrals were generated   1 times.
 ANorm=    0.1090389521D+01
 E2 =    -0.6989624277D+00 EUMP2 =    -0.20542100904425D+03
 Leave Link  906 at Mon Jan 31 11:55:22 2022, MaxMem= 16106127360 cpu:              90.0 elap:               3.3
 (Enter /sw/contrib/gaussian/g16/B01/g16/l1002.exe)
 Minotr:  Closed shell wavefunction.
          Computing MP2/KS-MP2 derivatives.
          Using Z-Vector for PSCF gradient.
          Skipping F1 and S1 gradient terms here.
          Frozen-core window.
          Direct CPHF calculation.
          Differentiating once with respect to electric field.
                with respect to dipole field.
          Electric field/nuclear overlap derivatives assumed to be zero.
          Using symmetry in CPHF.
          Requested convergence is 1.0D-10 RMS, and 1.0D-09 maximum.
          NewPWx=F KeepS1=T KeepF1=T KeepIn=T MapXYZ=F SortEE=F KeepMc=T.
 Keep R1 ints in memory in symmetry-blocked form, NReq=128071053.
 FoFCou: FMM=F IPFlag=           0 FMFlag=           0 FMFlg1=           0
         NFxFlg=           0 DoJE=F BraDBF=F KetDBF=F FulRan=T
         wScrn=  0.000000 ICntrl=       600 IOpCl=  0 I1Cent=           0 NGrid=           0
         NMat0=    1 NMatS0=  13041 NMatT0=    0 NMatD0=    1 NMtDS0=    0 NMtDT0=    0
 Petite list used in FoFCou.
          MDV=   16106127360 using IRadAn=       5.
          Solving linear equations separately, MaxMat=       0.
          There are     1 degrees of freedom in the 1st order CPHF.  IDoFFX=0 NUNeed=     1.
 LinEq1:  Iter=  0 NonCon=     1 RMS=6.66D-03 Max=1.33D-01 NDo=     1
 AX will form     1 AO Fock derivatives at one time.
 LinEq1:  Iter=  1 NonCon=     1 RMS=2.27D-03 Max=4.09D-02 NDo=     1
 LinEq1:  Iter=  2 NonCon=     1 RMS=9.22D-04 Max=1.19D-02 NDo=     1
 LinEq1:  Iter=  3 NonCon=     1 RMS=4.42D-04 Max=8.66D-03 NDo=     1
 LinEq1:  Iter=  4 NonCon=     1 RMS=1.38D-04 Max=1.52D-03 NDo=     1
 LinEq1:  Iter=  5 NonCon=     1 RMS=6.13D-05 Max=9.90D-04 NDo=     1
 LinEq1:  Iter=  6 NonCon=     1 RMS=2.36D-05 Max=2.73D-04 NDo=     1
 LinEq1:  Iter=  7 NonCon=     1 RMS=6.03D-06 Max=6.25D-05 NDo=     1
 LinEq1:  Iter=  8 NonCon=     1 RMS=1.47D-06 Max=1.71D-05 NDo=     1
 LinEq1:  Iter=  9 NonCon=     1 RMS=2.72D-07 Max=2.03D-06 NDo=     1
 LinEq1:  Iter= 10 NonCon=     1 RMS=5.02D-08 Max=4.03D-07 NDo=     1
 LinEq1:  Iter= 11 NonCon=     1 RMS=8.19D-09 Max=8.18D-08 NDo=     1
 LinEq1:  Iter= 12 NonCon=     1 RMS=1.10D-09 Max=8.56D-09 NDo=     1
 LinEq1:  Iter= 13 NonCon=     1 RMS=2.29D-10 Max=2.38D-09 NDo=     1
 LinEq1:  Iter= 14 NonCon=     0 RMS=4.39D-11 Max=4.00D-10 NDo=     1
 Linear equations converged to 1.000D-10 1.000D-09 after    14 iterations.
 End of Minotr F.D. properties file   721 does not exist.
 End of Minotr F.D. properties file   722 does not exist.
 End of Minotr F.D. properties file   788 does not exist.
 Leave Link 1002 at Mon Jan 31 11:55:24 2022, MaxMem= 16106127360 cpu:              37.0 elap:               2.1
 (Enter /sw/contrib/gaussian/g16/B01/g16/l601.exe)
 Copying SCF densities to generalized density rwf, IOpCl= 0 IROHF=0.

 **********************************************************************

            Population analysis using the MP2 Density.

 **********************************************************************

 Orbital symmetries:
       Occupied  (A') (A') (A') (A') (A') (A') (A') (A') (A") (A')
                 (A") (A')
       Virtual   (A') (A") (A') (A') (A") (A') (A') (A') (A") (A')
                 (A") (A') (A') (A") (A') (A') (A') (A') (A') (A")
                 (A') (A') (A") (A') (A') (A') (A") (A") (A') (A')
                 (A') (A") (A") (A') (A") (A') (A') (A") (A') (A')
                 (A') (A') (A') (A") (A") (A') (A') (A") (A') (A')
                 (A") (A') (A") (A') (A') (A") (A') (A") (A') (A")
                 (A') (A') (A") (A') (A') (A') (A") (A') (A") (A")
                 (A') (A') (A') (A") (A') (A") (A') (A') (A") (A")
                 (A') (A') (A') (A") (A') (A") (A') (A") (A') (A')
                 (A') (A') (A') (A") (A') (A") (A') (A") (A') (A")
                 (A') (A") (A') (A') (A') (A") (A') (A") (A') (A")
                 (A') (A") (A') (A') (A") (A') (A') (A") (A') (A')
                 (A') (A') (A") (A') (A") (A") (A') (A') (A") (A')
                 (A") (A") (A') (A') (A") (A") (A') (A") (A") (A')
                 (A') (A') (A') (A') (A') (A') (A') (A') (A')
 The electronic state is 1-A'.
 Alpha  occ. eigenvalues --  -20.66488 -20.64395 -15.79829  -1.60209  -1.39831
 Alpha  occ. eigenvalues --   -0.94654  -0.78090  -0.72922  -0.68105  -0.62268
 Alpha  occ. eigenvalues --   -0.52782  -0.46120
 Alpha virt. eigenvalues --    0.02761   0.08080   0.09405   0.09767   0.12904
 Alpha virt. eigenvalues --    0.14231   0.15703   0.17209   0.18753   0.19676
 Alpha virt. eigenvalues --    0.20566   0.23331   0.25658   0.29559   0.30816
 Alpha virt. eigenvalues --    0.32986   0.36644   0.38164   0.41871   0.52557
 Alpha virt. eigenvalues --    0.52636   0.54804   0.57336   0.61352   0.63150
 Alpha virt. eigenvalues --    0.64627   0.68034   0.71389   0.71749   0.74755
 Alpha virt. eigenvalues --    0.77459   0.78194   0.81203   0.81207   0.86097
 Alpha virt. eigenvalues --    0.87797   0.92282   0.93822   0.94382   0.99358
 Alpha virt. eigenvalues --    1.04813   1.05933   1.07982   1.10400   1.15925
 Alpha virt. eigenvalues --    1.19658   1.25245   1.26826   1.35889   1.43186
 Alpha virt. eigenvalues --    1.48244   1.52378   1.52475   1.54174   1.55230
 Alpha virt. eigenvalues --    1.60818   1.65835   1.72755   1.75601   1.82279
 Alpha virt. eigenvalues --    1.85507   1.95024   1.97575   1.99615   2.07255
 Alpha virt. eigenvalues --    2.13241   2.13370   2.18486   2.26905   2.30465
 Alpha virt. eigenvalues --    2.32878   2.37924   2.44955   2.47224   2.50015
 Alpha virt. eigenvalues --    2.50319   2.51928   2.54198   2.56619   2.60776
 Alpha virt. eigenvalues --    2.60917   2.66032   2.77571   2.77635   2.84878
 Alpha virt. eigenvalues --    2.93618   2.95581   3.11391   3.14418   3.18456
 Alpha virt. eigenvalues --    3.24550   3.45575   3.80652   3.85265   4.02324
 Alpha virt. eigenvalues --    4.15278   4.17894   4.20810   4.34549   4.36485
 Alpha virt. eigenvalues --    4.57573   4.63194   4.71905   4.81524   4.86394
 Alpha virt. eigenvalues --    4.88602   4.96339   4.99942   5.06015   5.06904
 Alpha virt. eigenvalues --    5.16263   5.22548   5.25294   5.32025   5.34125
 Alpha virt. eigenvalues --    5.35565   5.57241   5.66823   5.78380   5.98413
 Alpha virt. eigenvalues --    6.12629   6.43391   6.50679   6.50913   6.67415
 Alpha virt. eigenvalues --    6.71286   6.74471   6.84459   6.91724   7.05236
 Alpha virt. eigenvalues --    7.12030   7.13856   7.22954   7.24225   7.25345
 Alpha virt. eigenvalues --    7.33238   7.37152   7.43203   7.47897   7.60368
 Alpha virt. eigenvalues --    7.63935   7.69143   7.78313   7.97363   8.06448
 Alpha virt. eigenvalues --    8.39207  14.10417  14.93248  15.95463
          Condensed to atoms (all electrons):
               1          2          3          4
     1  H    0.567030   0.176668  -0.042117   0.012259
     2  O    0.176668   8.300868  -0.137130  -0.056653
     3  N   -0.042117  -0.137130   7.042251  -0.042254
     4  O    0.012259  -0.056653  -0.042254   8.268304
 Mulliken charges:
               1
     1  H    0.286160
     2  O   -0.283754
     3  N    0.179251
     4  O   -0.181656
 Sum of Mulliken charges =  -0.00000
 Mulliken charges with hydrogens summed into heavy atoms:
               1
     2  O    0.002406
     3  N    0.179251
     4  O   -0.181656
 Electronic spatial extent (au):  <R**2>=            123.6916
 Charge=             -0.0000 electrons
 Dipole moment (field-independent basis, Debye):
    X=              1.7838    Y=              0.6574    Z=             -0.0000  Tot=              1.9010
 Quadrupole moment (field-independent basis, Debye-Ang):
   XX=            -13.5815   YY=            -18.7190   ZZ=            -16.4839
   XY=              0.5932   XZ=              0.0000   YZ=              0.0000
 Traceless Quadrupole moment (field-independent basis, Debye-Ang):
   XX=              2.6799   YY=             -2.4575   ZZ=             -0.2224
   XY=              0.5932   XZ=              0.0000   YZ=              0.0000
 Octapole moment (field-independent basis, Debye-Ang**2):
  XXX=             10.3741  YYY=             -1.0133  ZZZ=              0.0000  XYY=             -0.9930
  XXY=             -0.3154  XXZ=             -0.0000  XZZ=             -1.0324  YZZ=              0.2162
  YYZ=             -0.0000  XYZ=              0.0000
 Hexadecapole moment (field-independent basis, Debye-Ang**3):
 XXXX=            -71.2899 YYYY=            -39.5902 ZZZZ=            -13.9720 XXXY=             12.1294
 XXXZ=              0.0000 YYYX=             11.8695 YYYZ=              0.0000 ZZZX=              0.0000
 ZZZY=              0.0000 XXYY=            -22.2949 XXZZ=            -17.5540 YYZZ=             -8.7621
 XXYZ=              0.0000 YYXZ=              0.0000 ZZXY=              4.1997
 N-N= 6.939344875191D+01 E-N=-6.233226298290D+02  KE= 2.052053601850D+02
 Symmetry A'   KE= 1.963807397963D+02
 Symmetry A"   KE= 8.824620388771D+00
 No NMR shielding tensors so no spin-rotation constants.
 Leave Link  601 at Mon Jan 31 11:55:24 2022, MaxMem= 16106127360 cpu:               4.3 elap:               0.2
 (Enter /sw/contrib/gaussian/g16/B01/g16/l9999.exe)
 1\1\GINC-N2206\SP\RMP2-FC\Aug-CC-pVTZ\H1N1O2\CGAVINH\31-Jan-2022\0\\#p
  SP mp2/aug-cc-pvtz density=current\\title\\0,1\H\O,1,0.99026274\N,2,1
 .42776435,1,101.62778541\O,3,1.17680217,2,110.70859147,1,180.,0\\Versi
 on=ES64L-G16RevB.01\State=1-A'\HF=-204.7220466\MP2=-205.421009\RMSD=5.
 631e-09\Dipole=-0.0913607,0.,-0.7423238\Quadrupole=-1.3855064,-0.16537
 25,1.5508788,0.,1.2985084,0.\PG=CS [SG(H1N1O2)]\\@


 THE POLHOLDE ROLLS WITHOUT SLIPPING ON THE HERPOLHOLDE LYING IN
 THE INVARIABLE PLANE.
 H.GOLDSTEIN, "CLASSICAL MECHANICS", PG 161
 Job cpu time:       0 days  0 hours  3 minutes 10.7 seconds.
 Elapsed time:       0 days  0 hours  0 minutes  8.6 seconds.
 File lengths (MBytes):  RWF=     16 Int=      0 D2E=      0 Chk=      8 Scr=      1
 Normal termination of Gaussian 16 at Mon Jan 31 11:55:24 2022.
