 Entering Gaussian System, Link 0=g16
 Input=hono_r3_p_02.gjf
 Output=hono_r3_p_02.log
 Initial command:
 /sw/contrib/gaussian/g16/B01/g16/l1.exe "/scr/Gau-18590.inp" -scrdir="/scr/"
 Entering Link 1 = /sw/contrib/gaussian/g16/B01/g16/l1.exe PID=     18591.
  
 Copyright (c) 1988-2017, Gaussian, Inc.  All Rights Reserved.
  
 This is part of the Gaussian(R) 16 program.  It is based on
 the Gaussian(R) 09 system (copyright 2009, Gaussian, Inc.),
 the Gaussian(R) 03 system (copyright 2003, Gaussian, Inc.),
 the Gaussian(R) 98 system (copyright 1998, Gaussian, Inc.),
 the Gaussian(R) 94 system (copyright 1995, Gaussian, Inc.),
 the Gaussian 92(TM) system (copyright 1992, Gaussian, Inc.),
 the Gaussian 90(TM) system (copyright 1990, Gaussian, Inc.),
 the Gaussian 88(TM) system (copyright 1988, Gaussian, Inc.),
 the Gaussian 86(TM) system (copyright 1986, Carnegie Mellon
 University), and the Gaussian 82(TM) system (copyright 1983,
 Carnegie Mellon University). Gaussian is a federally registered
 trademark of Gaussian, Inc.
  
 This software contains proprietary and confidential information,
 including trade secrets, belonging to Gaussian, Inc.
  
 This software is provided under written license and may be
 used, copied, transmitted, or stored only in accord with that
 written license.
  
 The following legend is applicable only to US Government
 contracts under FAR:
  
                    RESTRICTED RIGHTS LEGEND
  
 Use, reproduction and disclosure by the US Government is
 subject to restrictions as set forth in subparagraphs (a)
 and (c) of the Commercial Computer Software - Restricted
 Rights clause in FAR 52.227-19.
  
 Gaussian, Inc.
 340 Quinnipiac St., Bldg. 40, Wallingford CT 06492
  
  
 ---------------------------------------------------------------
 Warning -- This program may not be used in any manner that
 competes with the business of Gaussian, Inc. or will provide
 assistance to any competitor of Gaussian, Inc.  The licensee
 of this program is prohibited from giving any competitor of
 Gaussian, Inc. access to this program.  By using this program,
 the user acknowledges that Gaussian, Inc. is engaged in the
 business of creating and licensing software in the field of
 computational chemistry and represents and warrants to the
 licensee that it is not a competitor of Gaussian, Inc. and that
 it will not use this program in any manner prohibited above.
 ---------------------------------------------------------------
  

 Cite this work as:
 Gaussian 16, Revision B.01,
 M. J. Frisch, G. W. Trucks, H. B. Schlegel, G. E. Scuseria, 
 M. A. Robb, J. R. Cheeseman, G. Scalmani, V. Barone, 
 G. A. Petersson, H. Nakatsuji, X. Li, M. Caricato, A. V. Marenich, 
 J. Bloino, B. G. Janesko, R. Gomperts, B. Mennucci, H. P. Hratchian, 
 J. V. Ortiz, A. F. Izmaylov, J. L. Sonnenberg, D. Williams-Young, 
 F. Ding, F. Lipparini, F. Egidi, J. Goings, B. Peng, A. Petrone, 
 T. Henderson, D. Ranasinghe, V. G. Zakrzewski, J. Gao, N. Rega, 
 G. Zheng, W. Liang, M. Hada, M. Ehara, K. Toyota, R. Fukuda, 
 J. Hasegawa, M. Ishida, T. Nakajima, Y. Honda, O. Kitao, H. Nakai, 
 T. Vreven, K. Throssell, J. A. Montgomery, Jr., J. E. Peralta, 
 F. Ogliaro, M. J. Bearpark, J. J. Heyd, E. N. Brothers, K. N. Kudin, 
 V. N. Staroverov, T. A. Keith, R. Kobayashi, J. Normand, 
 K. Raghavachari, A. P. Rendell, J. C. Burant, S. S. Iyengar, 
 J. Tomasi, M. Cossi, J. M. Millam, M. Klene, C. Adamo, R. Cammi, 
 J. W. Ochterski, R. L. Martin, K. Morokuma, O. Farkas, 
 J. B. Foresman, and D. J. Fox, Gaussian, Inc., Wallingford CT, 2016.
 
 ******************************************
 Gaussian 16:  ES64L-G16RevB.01 20-Dec-2017
                31-Jan-2022 
 ******************************************
 %nproc=28
 Will use up to   28 processors via shared memory.
 %mem=120GB
 %chk=/gscratch/ilahie/mccoygrp/coire_hoono/hono/hono_r3_p_02.chk
 -------------------------------------
 #p SP mp2/aug-cc-pvtz density=current
 -------------------------------------
 1/30=1,38=1,172=1/1;
 2/12=2,17=6,18=5,40=1/2;
 3/5=16,6=1,7=10,11=9,25=1,30=1,71=1/1,2,3;
 4//1;
 5/5=2,38=5/2;
 8/6=4,10=1/1;
 9/15=1,16=-3/6;
 10/5=1,13=10/2;
 6/7=2,8=2,9=2,10=2,22=-1/1;
 99/5=1,9=1/99;
 Leave Link    1 at Mon Jan 31 11:55:50 2022, MaxMem= 16106127360 cpu:               3.1 elap:               0.1
 (Enter /sw/contrib/gaussian/g16/B01/g16/l101.exe)
 -----
 title
 -----
 Symbolic Z-matrix:
 Charge =  0 Multiplicity = 1
 H
 O                    1    r1
 N                    2    r2       1    a1
 O                    3    r3       2    a2       1    d1       0
       Variables:
  r1                    0.97026                  
  r2                    1.42776                  
  r3                    1.1968                   
  a1                  101.62779                  
  a2                  110.70859                  
  d1                  180.                       
 
 ITRead=  0  0  0  0
 MicOpt= -1 -1 -1 -1
 NAtoms=      4 NQM=        4 NQMF=       0 NMMI=      0 NMMIF=      0
                NMic=       0 NMicF=      0.
                    Isotopes and Nuclear Properties:
 (Nuclear quadrupole moments (NQMom) in fm**2, nuclear magnetic moments (NMagM)
  in nuclear magnetons)

  Atom         1           2           3           4
 IAtWgt=           1          16          14          16
 AtmWgt=   1.0078250  15.9949146  14.0030740  15.9949146
 NucSpn=           1           0           2           0
 AtZEff=  -0.0000000  -0.0000000  -0.0000000  -0.0000000
 NQMom=    0.0000000   0.0000000   2.0440000   0.0000000
 NMagM=    2.7928460   0.0000000   0.4037610   0.0000000
 AtZNuc=   1.0000000   8.0000000   7.0000000   8.0000000
 Leave Link  101 at Mon Jan 31 11:55:50 2022, MaxMem= 16106127360 cpu:               2.4 elap:               0.1
 (Enter /sw/contrib/gaussian/g16/B01/g16/l202.exe)
                          Input orientation:                          
 ---------------------------------------------------------------------
 Center     Atomic      Atomic             Coordinates (Angstroms)
 Number     Number       Type             X           Y           Z
 ---------------------------------------------------------------------
      1          1           0        0.000000    0.000000    0.000000
      2          8           0        0.000000    0.000000    0.970263
      3          7           0        1.398463    0.000000    1.258033
      4          8           0        1.587351    0.000000    2.439835
 ---------------------------------------------------------------------
                    Distance matrix (angstroms):
                    1          2          3          4
     1  H    0.000000
     2  O    0.970263   0.000000
     3  N    1.881049   1.427764   0.000000
     4  O    2.910752   2.163175   1.196802   0.000000
 Stoichiometry    HNO2
 Framework group  CS[SG(HNO2)]
 Deg. of freedom     5
 Full point group                 CS      NOp   2
 Largest Abelian subgroup         CS      NOp   2
 Largest concise Abelian subgroup C1      NOp   1
                         Standard orientation:                         
 ---------------------------------------------------------------------
 Center     Atomic      Atomic             Coordinates (Angstroms)
 Number     Number       Type             X           Y           Z
 ---------------------------------------------------------------------
      1          1           0       -1.767565   -0.120729    0.000000
      2          8           0       -0.911051   -0.576572    0.000000
      3          7           0       -0.000000    0.522745   -0.000000
      4          8           0        1.131997    0.134262   -0.000000
 ---------------------------------------------------------------------
 Rotational constants (GHZ):          91.0471750          12.4015556          10.9148425
 Leave Link  202 at Mon Jan 31 11:55:50 2022, MaxMem= 16106127360 cpu:               0.2 elap:               0.0
 (Enter /sw/contrib/gaussian/g16/B01/g16/l301.exe)
 Standard basis: Aug-CC-pVTZ (5D, 7F)
 Ernie: Thresh=  0.10000D-02 Tol=  0.10000D-05 Strict=F.
 Ernie:  9 primitive shells out of 101 were deleted.
 There are   129 symmetry adapted cartesian basis functions of A'  symmetry.
 There are    61 symmetry adapted cartesian basis functions of A"  symmetry.
 There are   106 symmetry adapted basis functions of A'  symmetry.
 There are    55 symmetry adapted basis functions of A"  symmetry.
   161 basis functions,   243 primitive gaussians,   190 cartesian basis functions
    12 alpha electrons       12 beta electrons
       nuclear repulsion energy        68.9595177217 Hartrees.
 IExCor=    0 DFT=F Ex=HF Corr=None ExCW=0 ScaHFX=  1.000000
 ScaDFX=  1.000000  1.000000  1.000000  1.000000 ScalE2=  1.000000  1.000000
 IRadAn=      5 IRanWt=     -1 IRanGd=            0 ICorTp=0 IEmpDi=  4
 NAtoms=    4 NActive=    4 NUniq=    4 SFac= 1.00D+00 NAtFMM=   60 NAOKFM=F Big=F
 Integral buffers will be    131072 words long.
 Raffenetti 1 integral format.
 Two-electron integral symmetry is turned on.
 Leave Link  301 at Mon Jan 31 11:55:50 2022, MaxMem= 16106127360 cpu:               2.3 elap:               0.1
 (Enter /sw/contrib/gaussian/g16/B01/g16/l302.exe)
 NPDir=0 NMtPBC=     1 NCelOv=     1 NCel=       1 NClECP=     1 NCelD=      1
         NCelK=      1 NCelE2=     1 NClLst=     1 CellRange=     0.0.
 One-electron integrals computed using PRISM.
 One-electron integral symmetry used in STVInt
 NBasis=   161 RedAO= T EigKep=  2.03D-04  NBF=   106    55
 NBsUse=   161 1.00D-06 EigRej= -1.00D+00 NBFU=   106    55
 Leave Link  302 at Mon Jan 31 11:55:50 2022, MaxMem= 16106127360 cpu:               5.2 elap:               0.2
 (Enter /sw/contrib/gaussian/g16/B01/g16/l303.exe)
 DipDrv:  MaxL=1.
 Leave Link  303 at Mon Jan 31 11:55:50 2022, MaxMem= 16106127360 cpu:               2.3 elap:               0.1
 (Enter /sw/contrib/gaussian/g16/B01/g16/l401.exe)
 ExpMin= 2.53D-02 ExpMax= 1.53D+04 ExpMxC= 5.22D+02 IAcc=3 IRadAn=         5 AccDes= 0.00D+00
 Harris functional with IExCor=  205 and IRadAn=       5 diagonalized for initial guess.
 HarFok:  IExCor=  205 AccDes= 0.00D+00 IRadAn=         5 IDoV= 1 UseB2=F ITyADJ=14
 ICtDFT=  3500011 ScaDFX=  1.000000  1.000000  1.000000  1.000000
 FoFCou: FMM=F IPFlag=           0 FMFlag=      100000 FMFlg1=           0
         NFxFlg=           0 DoJE=T BraDBF=F KetDBF=T FulRan=T
         wScrn=  0.000000 ICntrl=       500 IOpCl=  0 I1Cent=   200000004 NGrid=           0
         NMat0=    1 NMatS0=      1 NMatT0=    0 NMatD0=    1 NMtDS0=    0 NMtDT0=    0
 Petite list used in FoFCou.
 Harris En= -204.817652426942    
 JPrj=0 DoOrth=F DoCkMO=F.
 Initial guess orbital symmetries:
       Occupied  (A') (A') (A') (A') (A') (A') (A') (A') (A") (A')
                 (A") (A')
       Virtual   (A") (A') (A') (A') (A') (A") (A') (A') (A') (A")
                 (A') (A") (A') (A') (A") (A') (A') (A') (A') (A')
                 (A") (A') (A") (A') (A') (A') (A") (A') (A") (A')
                 (A") (A') (A') (A") (A") (A') (A') (A') (A") (A')
                 (A') (A') (A") (A') (A") (A') (A') (A") (A') (A')
                 (A") (A') (A") (A') (A') (A") (A') (A") (A') (A")
                 (A') (A') (A") (A') (A') (A") (A') (A') (A") (A")
                 (A') (A') (A') (A") (A') (A") (A') (A') (A") (A")
                 (A') (A') (A') (A") (A') (A') (A") (A") (A') (A')
                 (A') (A') (A") (A') (A') (A") (A') (A") (A") (A')
                 (A") (A') (A') (A') (A') (A") (A') (A") (A') (A")
                 (A') (A') (A") (A') (A') (A") (A') (A") (A') (A')
                 (A') (A') (A") (A') (A") (A") (A') (A') (A") (A')
                 (A") (A") (A') (A") (A') (A") (A') (A") (A") (A')
                 (A') (A') (A') (A') (A') (A') (A') (A') (A')
 The electronic state of the initial guess is 1-A'.
 Leave Link  401 at Mon Jan 31 11:55:50 2022, MaxMem= 16106127360 cpu:               6.1 elap:               0.3
 (Enter /sw/contrib/gaussian/g16/B01/g16/l502.exe)
 Keep R1 ints in memory in symmetry-blocked form, NReq=128070121.
 FoFCou: FMM=F IPFlag=           0 FMFlag=           0 FMFlg1=           0
         NFxFlg=           0 DoJE=F BraDBF=F KetDBF=F FulRan=T
         wScrn=  0.000000 ICntrl=       600 IOpCl=  0 I1Cent=           0 NGrid=           0
         NMat0=    1 NMatS0=  13041 NMatT0=    0 NMatD0=    1 NMtDS0=    0 NMtDT0=    0
 Petite list used in FoFCou.
 Closed shell SCF:
 Using DIIS extrapolation, IDIIS=  1040.
 NGot= 16106127360 LenX= 16063019402 LenY= 16062982861
 Requested convergence on RMS density matrix=1.00D-08 within 128 cycles.
 Requested convergence on MAX density matrix=1.00D-06.
 Requested convergence on             energy=1.00D-06.
 No special actions if energy rises.

 Cycle   1  Pass 1  IDiag  1:
 E= -204.607466288406    
 DIIS: error= 3.08D-02 at cycle   1 NSaved=   1.
 NSaved= 1 IEnMin= 1 EnMin= -204.607466288406     IErMin= 1 ErrMin= 3.08D-02
 ErrMax= 3.08D-02  0.00D+00 EMaxC= 1.00D-01 BMatC= 3.57D-01 BMatP= 3.57D-01
 IDIUse=3 WtCom= 6.92D-01 WtEn= 3.08D-01
 Coeff-Com:  0.100D+01
 Coeff-En:   0.100D+01
 Coeff:      0.100D+01
 Gap=     0.502 Goal=   None    Shift=    0.000
 GapD=    0.502 DampG=2.000 DampE=0.500 DampFc=1.0000 IDamp=-1.
 RMSDP=2.07D-03 MaxDP=1.23D-01              OVMax= 1.08D-01

 Cycle   2  Pass 1  IDiag  1:
 E= -204.670446530244     Delta-E=       -0.062980241838 Rises=F Damp=F
 DIIS: error= 2.18D-02 at cycle   2 NSaved=   2.
 NSaved= 2 IEnMin= 2 EnMin= -204.670446530244     IErMin= 2 ErrMin= 2.18D-02
 ErrMax= 2.18D-02  0.00D+00 EMaxC= 1.00D-01 BMatC= 7.41D-02 BMatP= 3.57D-01
 IDIUse=3 WtCom= 7.82D-01 WtEn= 2.18D-01
 Coeff-Com:  0.245D+00 0.755D+00
 Coeff-En:   0.150D+00 0.850D+00
 Coeff:      0.224D+00 0.776D+00
 Gap=     0.517 Goal=   None    Shift=    0.000
 RMSDP=1.03D-03 MaxDP=3.52D-02 DE=-6.30D-02 OVMax= 9.34D-02

 Cycle   3  Pass 1  IDiag  1:
 E= -204.708134787097     Delta-E=       -0.037688256853 Rises=F Damp=F
 DIIS: error= 7.39D-03 at cycle   3 NSaved=   3.
 NSaved= 3 IEnMin= 3 EnMin= -204.708134787097     IErMin= 3 ErrMin= 7.39D-03
 ErrMax= 7.39D-03  0.00D+00 EMaxC= 1.00D-01 BMatC= 1.60D-02 BMatP= 7.41D-02
 IDIUse=3 WtCom= 9.26D-01 WtEn= 7.39D-02
 Coeff-Com: -0.364D-01 0.298D+00 0.738D+00
 Coeff-En:   0.000D+00 0.830D-01 0.917D+00
 Coeff:     -0.337D-01 0.282D+00 0.752D+00
 Gap=     0.497 Goal=   None    Shift=    0.000
 RMSDP=4.19D-04 MaxDP=2.29D-02 DE=-3.77D-02 OVMax= 2.68D-02

 Cycle   4  Pass 1  IDiag  1:
 E= -204.718856911491     Delta-E=       -0.010722124394 Rises=F Damp=F
 DIIS: error= 1.62D-03 at cycle   4 NSaved=   4.
 NSaved= 4 IEnMin= 4 EnMin= -204.718856911491     IErMin= 4 ErrMin= 1.62D-03
 ErrMax= 1.62D-03  0.00D+00 EMaxC= 1.00D-01 BMatC= 3.03D-04 BMatP= 1.60D-02
 IDIUse=3 WtCom= 9.84D-01 WtEn= 1.62D-02
 Coeff-Com: -0.102D-01 0.419D-01 0.168D+00 0.800D+00
 Coeff-En:   0.000D+00 0.000D+00 0.000D+00 0.100D+01
 Coeff:     -0.101D-01 0.412D-01 0.166D+00 0.803D+00
 Gap=     0.492 Goal=   None    Shift=    0.000
 RMSDP=8.35D-05 MaxDP=1.89D-03 DE=-1.07D-02 OVMax= 8.41D-03

 Cycle   5  Pass 1  IDiag  1:
 E= -204.719255404703     Delta-E=       -0.000398493212 Rises=F Damp=F
 DIIS: error= 1.09D-03 at cycle   5 NSaved=   5.
 NSaved= 5 IEnMin= 5 EnMin= -204.719255404703     IErMin= 5 ErrMin= 1.09D-03
 ErrMax= 1.09D-03  0.00D+00 EMaxC= 1.00D-01 BMatC= 6.81D-05 BMatP= 3.03D-04
 IDIUse=3 WtCom= 9.89D-01 WtEn= 1.09D-02
 Coeff-Com:  0.747D-02-0.732D-01-0.163D+00 0.172D+00 0.106D+01
 Coeff-En:   0.000D+00 0.000D+00 0.000D+00 0.000D+00 0.100D+01
 Coeff:      0.739D-02-0.724D-01-0.161D+00 0.170D+00 0.106D+01
 Gap=     0.492 Goal=   None    Shift=    0.000
 RMSDP=7.36D-05 MaxDP=1.73D-03 DE=-3.98D-04 OVMax= 9.56D-03

 Cycle   6  Pass 1  IDiag  1:
 E= -204.719454195361     Delta-E=       -0.000198790658 Rises=F Damp=F
 DIIS: error= 2.47D-04 at cycle   6 NSaved=   6.
 NSaved= 6 IEnMin= 6 EnMin= -204.719454195361     IErMin= 6 ErrMin= 2.47D-04
 ErrMax= 2.47D-04  0.00D+00 EMaxC= 1.00D-01 BMatC= 1.13D-05 BMatP= 6.81D-05
 IDIUse=3 WtCom= 9.98D-01 WtEn= 2.47D-03
 Coeff-Com:  0.280D-03 0.356D-02 0.457D-02-0.189D+00-0.841D-01 0.126D+01
 Coeff-En:   0.000D+00 0.000D+00 0.000D+00 0.000D+00 0.000D+00 0.100D+01
 Coeff:      0.279D-03 0.355D-02 0.456D-02-0.189D+00-0.839D-01 0.126D+01
 Gap=     0.493 Goal=   None    Shift=    0.000
 RMSDP=3.95D-05 MaxDP=7.65D-04 DE=-1.99D-04 OVMax= 4.30D-03

 Cycle   7  Pass 1  IDiag  1:
 E= -204.719495607430     Delta-E=       -0.000041412069 Rises=F Damp=F
 DIIS: error= 1.24D-04 at cycle   7 NSaved=   7.
 NSaved= 7 IEnMin= 7 EnMin= -204.719495607430     IErMin= 7 ErrMin= 1.24D-04
 ErrMax= 1.24D-04  0.00D+00 EMaxC= 1.00D-01 BMatC= 1.85D-06 BMatP= 1.13D-05
 IDIUse=3 WtCom= 9.99D-01 WtEn= 1.24D-03
 Coeff-Com: -0.124D-02 0.119D-01 0.314D-01-0.370D-01-0.140D+00-0.866D-01
 Coeff-Com:  0.122D+01
 Coeff-En:   0.000D+00 0.000D+00 0.000D+00 0.000D+00 0.000D+00 0.000D+00
 Coeff-En:   0.100D+01
 Coeff:     -0.123D-02 0.119D-01 0.314D-01-0.369D-01-0.140D+00-0.864D-01
 Coeff:      0.122D+01
 Gap=     0.493 Goal=   None    Shift=    0.000
 RMSDP=1.53D-05 MaxDP=3.30D-04 DE=-4.14D-05 OVMax= 1.82D-03

 Cycle   8  Pass 1  IDiag  1:
 E= -204.719501428791     Delta-E=       -0.000005821362 Rises=F Damp=F
 DIIS: error= 4.88D-05 at cycle   8 NSaved=   8.
 NSaved= 8 IEnMin= 8 EnMin= -204.719501428791     IErMin= 8 ErrMin= 4.88D-05
 ErrMax= 4.88D-05  0.00D+00 EMaxC= 1.00D-01 BMatC= 2.09D-07 BMatP= 1.85D-06
 IDIUse=1 WtCom= 1.00D+00 WtEn= 0.00D+00
 Coeff-Com: -0.210D-04-0.994D-03-0.111D-02 0.190D-01 0.313D-01-0.161D+00
 Coeff-Com: -0.135D+00 0.125D+01
 Coeff:     -0.210D-04-0.994D-03-0.111D-02 0.190D-01 0.313D-01-0.161D+00
 Coeff:     -0.135D+00 0.125D+01
 Gap=     0.493 Goal=   None    Shift=    0.000
 RMSDP=5.22D-06 MaxDP=1.10D-04 DE=-5.82D-06 OVMax= 5.34D-04

 Cycle   9  Pass 1  IDiag  1:
 E= -204.719502065523     Delta-E=       -0.000000636732 Rises=F Damp=F
 DIIS: error= 1.41D-05 at cycle   9 NSaved=   9.
 NSaved= 9 IEnMin= 9 EnMin= -204.719502065523     IErMin= 9 ErrMin= 1.41D-05
 ErrMax= 1.41D-05  0.00D+00 EMaxC= 1.00D-01 BMatC= 2.04D-08 BMatP= 2.09D-07
 IDIUse=1 WtCom= 1.00D+00 WtEn= 0.00D+00
 Coeff-Com:  0.113D-03-0.977D-03-0.247D-02-0.263D-02 0.116D-01 0.460D-01
 Coeff-Com: -0.949D-01-0.309D+00 0.135D+01
 Coeff:      0.113D-03-0.977D-03-0.247D-02-0.263D-02 0.116D-01 0.460D-01
 Coeff:     -0.949D-01-0.309D+00 0.135D+01
 Gap=     0.493 Goal=   None    Shift=    0.000
 RMSDP=1.49D-06 MaxDP=3.62D-05 DE=-6.37D-07 OVMax= 1.13D-04

 Cycle  10  Pass 1  IDiag  1:
 E= -204.719502123639     Delta-E=       -0.000000058116 Rises=F Damp=F
 DIIS: error= 3.33D-06 at cycle  10 NSaved=  10.
 NSaved=10 IEnMin=10 EnMin= -204.719502123639     IErMin=10 ErrMin= 3.33D-06
 ErrMax= 3.33D-06  0.00D+00 EMaxC= 1.00D-01 BMatC= 1.81D-09 BMatP= 2.04D-08
 IDIUse=1 WtCom= 1.00D+00 WtEn= 0.00D+00
 Coeff-Com: -0.328D-04 0.372D-03 0.960D-03-0.194D-02-0.554D-02 0.171D-02
 Coeff-Com:  0.440D-01-0.513D-01-0.312D+00 0.132D+01
 Coeff:     -0.328D-04 0.372D-03 0.960D-03-0.194D-02-0.554D-02 0.171D-02
 Coeff:      0.440D-01-0.513D-01-0.312D+00 0.132D+01
 Gap=     0.493 Goal=   None    Shift=    0.000
 RMSDP=4.10D-07 MaxDP=1.45D-05 DE=-5.81D-08 OVMax= 3.73D-05

 Cycle  11  Pass 1  IDiag  1:
 E= -204.719502128847     Delta-E=       -0.000000005207 Rises=F Damp=F
 DIIS: error= 1.35D-06 at cycle  11 NSaved=  11.
 NSaved=11 IEnMin=11 EnMin= -204.719502128847     IErMin=11 ErrMin= 1.35D-06
 ErrMax= 1.35D-06  0.00D+00 EMaxC= 1.00D-01 BMatC= 1.72D-10 BMatP= 1.81D-09
 IDIUse=1 WtCom= 1.00D+00 WtEn= 0.00D+00
 Coeff-Com:  0.403D-06-0.319D-04-0.743D-04 0.625D-03 0.138D-02-0.539D-02
 Coeff-Com: -0.674D-02 0.510D-01-0.234D-01-0.492D+00 0.148D+01
 Coeff:      0.403D-06-0.319D-04-0.743D-04 0.625D-03 0.138D-02-0.539D-02
 Coeff:     -0.674D-02 0.510D-01-0.234D-01-0.492D+00 0.148D+01
 Gap=     0.493 Goal=   None    Shift=    0.000
 RMSDP=1.42D-07 MaxDP=5.12D-06 DE=-5.21D-09 OVMax= 1.39D-05

 Cycle  12  Pass 1  IDiag  1:
 E= -204.719502129418     Delta-E=       -0.000000000571 Rises=F Damp=F
 DIIS: error= 2.05D-07 at cycle  12 NSaved=  12.
 NSaved=12 IEnMin=12 EnMin= -204.719502129418     IErMin=12 ErrMin= 2.05D-07
 ErrMax= 2.05D-07  0.00D+00 EMaxC= 1.00D-01 BMatC= 9.39D-12 BMatP= 1.72D-10
 IDIUse=1 WtCom= 1.00D+00 WtEn= 0.00D+00
 Coeff-Com:  0.276D-05-0.250D-04-0.634D-04-0.878D-04 0.171D-03 0.182D-02
 Coeff-Com: -0.249D-02-0.133D-01 0.428D-01 0.307D-01-0.451D+00 0.139D+01
 Coeff:      0.276D-05-0.250D-04-0.634D-04-0.878D-04 0.171D-03 0.182D-02
 Coeff:     -0.249D-02-0.133D-01 0.428D-01 0.307D-01-0.451D+00 0.139D+01
 Gap=     0.493 Goal=   None    Shift=    0.000
 RMSDP=3.67D-08 MaxDP=8.61D-07 DE=-5.71D-10 OVMax= 3.03D-06

 Cycle  13  Pass 1  IDiag  1:
 E= -204.719502129447     Delta-E=       -0.000000000029 Rises=F Damp=F
 DIIS: error= 4.99D-08 at cycle  13 NSaved=  13.
 NSaved=13 IEnMin=13 EnMin= -204.719502129447     IErMin=13 ErrMin= 4.99D-08
 ErrMax= 4.99D-08  0.00D+00 EMaxC= 1.00D-01 BMatC= 2.49D-13 BMatP= 9.39D-12
 IDIUse=1 WtCom= 1.00D+00 WtEn= 0.00D+00
 Coeff-Com: -0.505D-06 0.616D-05 0.153D-04-0.182D-04-0.103D-03-0.467D-04
 Coeff-Com:  0.842D-03-0.402D-03-0.529D-02 0.137D-01 0.174D-01-0.264D+00
 Coeff-Com:  0.124D+01
 Coeff:     -0.505D-06 0.616D-05 0.153D-04-0.182D-04-0.103D-03-0.467D-04
 Coeff:      0.842D-03-0.402D-03-0.529D-02 0.137D-01 0.174D-01-0.264D+00
 Coeff:      0.124D+01
 Gap=     0.493 Goal=   None    Shift=    0.000
 RMSDP=5.84D-09 MaxDP=9.85D-08 DE=-2.93D-11 OVMax= 4.44D-07

 SCF Done:  E(RHF) =  -204.719502129     A.U. after   13 cycles
            NFock= 13  Conv=0.58D-08     -V/T= 2.0028
 KE= 2.041491765024D+02 PE=-6.218011963372D+02 EE= 1.439729999836D+02
 Leave Link  502 at Mon Jan 31 11:55:52 2022, MaxMem= 16106127360 cpu:              35.2 elap:               1.8
 (Enter /sw/contrib/gaussian/g16/B01/g16/l801.exe)
 ExpMin= 2.53D-02 ExpMax= 1.53D+04 ExpMxC= 5.22D+02 IAcc=3 IRadAn=         5 AccDes= 0.00D+00
 HarFok:  IExCor=  205 AccDes= 0.00D+00 IRadAn=         5 IDoV=-2 UseB2=F ITyADJ=14
 ICtDFT= 12500011 ScaDFX=  1.000000  1.000000  1.000000  1.000000
 Largest valence mixing into a core orbital is  2.08D-04
 Largest core mixing into a valence orbital is  3.37D-05
 Range of M.O.s used for correlation:     4   161
 NBasis=   161 NAE=    12 NBE=    12 NFC=     3 NFV=     0
 NROrb=    158 NOA=     9 NOB=     9 NVA=   149 NVB=   149

 **** Warning!!: The largest alpha MO coefficient is  0.19631647D+02

 Leave Link  801 at Mon Jan 31 11:55:52 2022, MaxMem= 16106127360 cpu:               1.9 elap:               0.1
 (Enter /sw/contrib/gaussian/g16/B01/g16/l906.exe)
 Frozen-core derivative calculation, NFC=   3 NFV=   0.
 FulOut=F Deriv=T AODrv=F NAtomX=     4
   MMem=         161  MDisk=           9 MDiskD=           9
  W3Min=      367080 MinDsk=      792425 NBas6D=         190
 NBas2D=       18625    NTT=       18145    LW2=     3500000
    MDV= 16105788813 MDiskM=      423783 NBas2p=       18621
 Fully in-core method, ICMem=   359292905.
 IMap=   1   2   3   4   5   6   7   8   9  10  11  12
 JobTyp=1 Pass  1 fully in-core, NPsUse= 28.
 Compute canonical integrals.
 FoFCou: FMM=F IPFlag=           0 FMFlag=           0 FMFlg1=           0
         NFxFlg=           0 DoJE=F BraDBF=F KetDBF=F FulRan=T
         wScrn=  0.000000 ICntrl=       600 IOpCl=  1 I1Cent=           0 NGrid=           0
         NMat0=    1 NMatS0=  18625 NMatT0=    0 NMatD0=    1 NMtDS0=    0 NMtDT0=    0
 Symmetry not used in FoFCou.
 Spin components of T(2) and E(2):
     alpha-alpha T2 =       0.2572795412D-01 E2=     -0.9108644785D-01
     alpha-beta  T2 =       0.1397811776D+00 E2=     -0.5191518381D+00
     beta-beta   T2 =       0.2572795412D-01 E2=     -0.9108644785D-01
 The integrals were generated   1 times.
 ANorm=    0.1091438082D+01
 E2 =    -0.7013247338D+00 EUMP2 =    -0.20542082686324D+03
 Leave Link  906 at Mon Jan 31 11:55:55 2022, MaxMem= 16106127360 cpu:              83.5 elap:               3.0
 (Enter /sw/contrib/gaussian/g16/B01/g16/l1002.exe)
 Minotr:  Closed shell wavefunction.
          Computing MP2/KS-MP2 derivatives.
          Using Z-Vector for PSCF gradient.
          Skipping F1 and S1 gradient terms here.
          Frozen-core window.
          Direct CPHF calculation.
          Differentiating once with respect to electric field.
                with respect to dipole field.
          Electric field/nuclear overlap derivatives assumed to be zero.
          Using symmetry in CPHF.
          Requested convergence is 1.0D-10 RMS, and 1.0D-09 maximum.
          NewPWx=F KeepS1=T KeepF1=T KeepIn=T MapXYZ=F SortEE=F KeepMc=T.
 Keep R1 ints in memory in symmetry-blocked form, NReq=128071053.
 FoFCou: FMM=F IPFlag=           0 FMFlag=           0 FMFlg1=           0
         NFxFlg=           0 DoJE=F BraDBF=F KetDBF=F FulRan=T
         wScrn=  0.000000 ICntrl=       600 IOpCl=  0 I1Cent=           0 NGrid=           0
         NMat0=    1 NMatS0=  13041 NMatT0=    0 NMatD0=    1 NMtDS0=    0 NMtDT0=    0
 Petite list used in FoFCou.
          MDV=   16106127360 using IRadAn=       5.
          Solving linear equations separately, MaxMat=       0.
          There are     1 degrees of freedom in the 1st order CPHF.  IDoFFX=0 NUNeed=     1.
 LinEq1:  Iter=  0 NonCon=     1 RMS=6.77D-03 Max=1.44D-01 NDo=     1
 AX will form     1 AO Fock derivatives at one time.
 LinEq1:  Iter=  1 NonCon=     1 RMS=2.35D-03 Max=4.35D-02 NDo=     1
 LinEq1:  Iter=  2 NonCon=     1 RMS=9.65D-04 Max=1.30D-02 NDo=     1
 LinEq1:  Iter=  3 NonCon=     1 RMS=4.70D-04 Max=9.42D-03 NDo=     1
 LinEq1:  Iter=  4 NonCon=     1 RMS=1.44D-04 Max=1.64D-03 NDo=     1
 LinEq1:  Iter=  5 NonCon=     1 RMS=6.74D-05 Max=1.12D-03 NDo=     1
 LinEq1:  Iter=  6 NonCon=     1 RMS=2.47D-05 Max=2.77D-04 NDo=     1
 LinEq1:  Iter=  7 NonCon=     1 RMS=6.46D-06 Max=6.54D-05 NDo=     1
 LinEq1:  Iter=  8 NonCon=     1 RMS=1.59D-06 Max=1.80D-05 NDo=     1
 LinEq1:  Iter=  9 NonCon=     1 RMS=2.93D-07 Max=2.18D-06 NDo=     1
 LinEq1:  Iter= 10 NonCon=     1 RMS=5.35D-08 Max=4.33D-07 NDo=     1
 LinEq1:  Iter= 11 NonCon=     1 RMS=8.82D-09 Max=9.15D-08 NDo=     1
 LinEq1:  Iter= 12 NonCon=     1 RMS=1.18D-09 Max=8.12D-09 NDo=     1
 LinEq1:  Iter= 13 NonCon=     1 RMS=2.53D-10 Max=2.75D-09 NDo=     1
 LinEq1:  Iter= 14 NonCon=     0 RMS=5.00D-11 Max=4.19D-10 NDo=     1
 Linear equations converged to 1.000D-10 1.000D-09 after    14 iterations.
 End of Minotr F.D. properties file   721 does not exist.
 End of Minotr F.D. properties file   722 does not exist.
 End of Minotr F.D. properties file   788 does not exist.
 Leave Link 1002 at Mon Jan 31 11:55:57 2022, MaxMem= 16106127360 cpu:              33.3 elap:               1.8
 (Enter /sw/contrib/gaussian/g16/B01/g16/l601.exe)
 Copying SCF densities to generalized density rwf, IOpCl= 0 IROHF=0.

 **********************************************************************

            Population analysis using the MP2 Density.

 **********************************************************************

 Orbital symmetries:
       Occupied  (A') (A') (A') (A') (A') (A') (A') (A') (A") (A')
                 (A") (A')
       Virtual   (A') (A") (A') (A') (A") (A') (A') (A') (A") (A')
                 (A") (A') (A') (A") (A') (A') (A') (A') (A') (A')
                 (A") (A') (A") (A') (A') (A') (A") (A") (A') (A')
                 (A') (A") (A') (A") (A") (A') (A') (A") (A') (A')
                 (A') (A') (A') (A") (A") (A') (A') (A") (A') (A')
                 (A") (A') (A") (A') (A') (A") (A') (A") (A') (A")
                 (A') (A') (A") (A') (A') (A") (A') (A') (A") (A")
                 (A') (A') (A') (A") (A') (A") (A') (A') (A") (A')
                 (A") (A') (A') (A") (A') (A") (A') (A") (A') (A')
                 (A') (A') (A') (A") (A') (A') (A") (A") (A') (A")
                 (A') (A") (A') (A') (A') (A") (A') (A") (A") (A')
                 (A') (A") (A') (A') (A') (A") (A') (A") (A') (A')
                 (A') (A') (A") (A') (A") (A") (A') (A') (A") (A')
                 (A") (A") (A') (A") (A') (A") (A') (A") (A") (A')
                 (A') (A') (A') (A') (A') (A') (A') (A') (A')
 The electronic state is 1-A'.
 Alpha  occ. eigenvalues --  -20.66497 -20.64697 -15.80188  -1.58721  -1.40249
 Alpha  occ. eigenvalues --   -0.95217  -0.78036  -0.72576  -0.67499  -0.62327
 Alpha  occ. eigenvalues --   -0.52717  -0.46577
 Alpha virt. eigenvalues --    0.02743   0.07452   0.09442   0.09743   0.12896
 Alpha virt. eigenvalues --    0.14284   0.15692   0.17184   0.18699   0.19695
 Alpha virt. eigenvalues --    0.20509   0.23369   0.25726   0.29539   0.30545
 Alpha virt. eigenvalues --    0.32951   0.36530   0.38155   0.42260   0.52289
 Alpha virt. eigenvalues --    0.52589   0.54680   0.57271   0.60906   0.62376
 Alpha virt. eigenvalues --    0.64672   0.68465   0.71514   0.71852   0.74683
 Alpha virt. eigenvalues --    0.77436   0.78019   0.80901   0.81022   0.85827
 Alpha virt. eigenvalues --    0.87580   0.92409   0.93794   0.94210   0.99237
 Alpha virt. eigenvalues --    1.04854   1.05984   1.07875   1.10334   1.15939
 Alpha virt. eigenvalues --    1.19469   1.24966   1.26482   1.36007   1.43100
 Alpha virt. eigenvalues --    1.48832   1.52327   1.52356   1.54233   1.55257
 Alpha virt. eigenvalues --    1.60731   1.65583   1.72839   1.75340   1.82213
 Alpha virt. eigenvalues --    1.85408   1.96128   1.96931   2.00834   2.07455
 Alpha virt. eigenvalues --    2.13123   2.13338   2.17962   2.26847   2.30563
 Alpha virt. eigenvalues --    2.32555   2.37739   2.44916   2.46744   2.49683
 Alpha virt. eigenvalues --    2.50065   2.51287   2.54357   2.55937   2.60140
 Alpha virt. eigenvalues --    2.60269   2.64931   2.75338   2.77244   2.83848
 Alpha virt. eigenvalues --    2.92880   2.95108   3.11537   3.14179   3.17953
 Alpha virt. eigenvalues --    3.23363   3.45611   3.82575   3.85065   4.02379
 Alpha virt. eigenvalues --    4.14375   4.16743   4.20972   4.35650   4.36529
 Alpha virt. eigenvalues --    4.56904   4.60938   4.74298   4.81642   4.86722
 Alpha virt. eigenvalues --    4.88885   4.97953   5.00313   5.07223   5.07680
 Alpha virt. eigenvalues --    5.16106   5.24112   5.25583   5.30726   5.36413
 Alpha virt. eigenvalues --    5.36692   5.60513   5.63550   5.78160   5.97469
 Alpha virt. eigenvalues --    6.11597   6.42859   6.50706   6.51094   6.66788
 Alpha virt. eigenvalues --    6.70923   6.74120   6.83135   6.90809   7.06317
 Alpha virt. eigenvalues --    7.11129   7.17618   7.22026   7.24854   7.25236
 Alpha virt. eigenvalues --    7.28244   7.35947   7.42659   7.47366   7.56489
 Alpha virt. eigenvalues --    7.63817   7.68345   7.75573   7.96499   8.06582
 Alpha virt. eigenvalues --    8.41649  14.02378  15.04788  15.46382
          Condensed to atoms (all electrons):
               1          2          3          4
     1  H    0.584875   0.173250  -0.043896   0.012728
     2  O    0.173250   8.275144  -0.129148  -0.053446
     3  N   -0.043896  -0.129148   7.031396  -0.036435
     4  O    0.012728  -0.053446  -0.036435   8.262476
 Mulliken charges:
               1
     1  H    0.273042
     2  O   -0.265801
     3  N    0.178083
     4  O   -0.185324
 Sum of Mulliken charges =  -0.00000
 Mulliken charges with hydrogens summed into heavy atoms:
               1
     2  O    0.007241
     3  N    0.178083
     4  O   -0.185324
 Electronic spatial extent (au):  <R**2>=            124.6771
 Charge=             -0.0000 electrons
 Dipole moment (field-independent basis, Debye):
    X=             -1.8469    Y=              0.6440    Z=              0.0000  Tot=              1.9560
 Quadrupole moment (field-independent basis, Debye-Ang):
   XX=            -13.6415   YY=            -18.6993   ZZ=            -16.4901
   XY=             -0.6454   XZ=              0.0000   YZ=              0.0000
 Traceless Quadrupole moment (field-independent basis, Debye-Ang):
   XX=              2.6355   YY=             -2.4223   ZZ=             -0.2131
   XY=             -0.6454   XZ=              0.0000   YZ=              0.0000
 Octapole moment (field-independent basis, Debye-Ang**2):
  XXX=            -10.4948  YYY=             -1.1549  ZZZ=             -0.0000  XYY=              0.8612
  XXY=             -0.2584  XXZ=              0.0000  XZZ=              0.9443  YZZ=              0.1573
  YYZ=              0.0000  XYZ=             -0.0000
 Hexadecapole moment (field-independent basis, Debye-Ang**3):
 XXXX=            -73.1504 YYYY=            -38.8458 ZZZZ=            -13.9567 XXXY=            -11.9405
 XXXZ=              0.0000 YYYX=            -11.4276 YYYZ=              0.0000 ZZZX=              0.0000
 ZZZY=              0.0000 XXYY=            -22.4415 XXZZ=            -17.7988 YYZZ=             -8.6307
 XXYZ=              0.0000 YYXZ=              0.0000 ZZXY=             -4.0555
 N-N= 6.895951772173D+01 E-N=-6.224255507942D+02  KE= 2.051608841292D+02
 Symmetry A'   KE= 1.963432719922D+02
 Symmetry A"   KE= 8.817612136969D+00
 No NMR shielding tensors so no spin-rotation constants.
 Leave Link  601 at Mon Jan 31 11:55:57 2022, MaxMem= 16106127360 cpu:               4.5 elap:               0.2
 (Enter /sw/contrib/gaussian/g16/B01/g16/l9999.exe)
 1\1\GINC-N2206\SP\RMP2-FC\Aug-CC-pVTZ\H1N1O2\CGAVINH\31-Jan-2022\0\\#p
  SP mp2/aug-cc-pvtz density=current\\title\\0,1\H\O,1,0.97026274\N,2,1
 .42776435,1,101.62778541\O,3,1.19680217,2,110.70859147,1,180.,0\\Versi
 on=ES64L-G16RevB.01\State=1-A'\HF=-204.7195021\MP2=-205.4208269\RMSD=5
 .836e-09\Dipole=-0.117734,0.,-0.7604842\Quadrupole=-1.3689649,-0.15846
 37,1.5274286,0.,1.2915169,0.\PG=CS [SG(H1N1O2)]\\@


 A MAN IS EXACTLY AS GREAT AS THE TIDE SURGING
 BENEATH HIM.      - BISMARCK
 Job cpu time:       0 days  0 hours  3 minutes  1.0 seconds.
 Elapsed time:       0 days  0 hours  0 minutes  7.9 seconds.
 File lengths (MBytes):  RWF=     16 Int=      0 D2E=      0 Chk=      8 Scr=      1
 Normal termination of Gaussian 16 at Mon Jan 31 11:55:57 2022.
