 Entering Gaussian System, Link 0=g16
 Input=hono_r2_p_01.gjf
 Output=hono_r2_p_01.log
 Initial command:
 /sw/contrib/gaussian/g16/B01/g16/l1.exe "/scr/Gau-8288.inp" -scrdir="/scr/"
 Entering Link 1 = /sw/contrib/gaussian/g16/B01/g16/l1.exe PID=      8289.
  
 Copyright (c) 1988-2017, Gaussian, Inc.  All Rights Reserved.
  
 This is part of the Gaussian(R) 16 program.  It is based on
 the Gaussian(R) 09 system (copyright 2009, Gaussian, Inc.),
 the Gaussian(R) 03 system (copyright 2003, Gaussian, Inc.),
 the Gaussian(R) 98 system (copyright 1998, Gaussian, Inc.),
 the Gaussian(R) 94 system (copyright 1995, Gaussian, Inc.),
 the Gaussian 92(TM) system (copyright 1992, Gaussian, Inc.),
 the Gaussian 90(TM) system (copyright 1990, Gaussian, Inc.),
 the Gaussian 88(TM) system (copyright 1988, Gaussian, Inc.),
 the Gaussian 86(TM) system (copyright 1986, Carnegie Mellon
 University), and the Gaussian 82(TM) system (copyright 1983,
 Carnegie Mellon University). Gaussian is a federally registered
 trademark of Gaussian, Inc.
  
 This software contains proprietary and confidential information,
 including trade secrets, belonging to Gaussian, Inc.
  
 This software is provided under written license and may be
 used, copied, transmitted, or stored only in accord with that
 written license.
  
 The following legend is applicable only to US Government
 contracts under FAR:
  
                    RESTRICTED RIGHTS LEGEND
  
 Use, reproduction and disclosure by the US Government is
 subject to restrictions as set forth in subparagraphs (a)
 and (c) of the Commercial Computer Software - Restricted
 Rights clause in FAR 52.227-19.
  
 Gaussian, Inc.
 340 Quinnipiac St., Bldg. 40, Wallingford CT 06492
  
  
 ---------------------------------------------------------------
 Warning -- This program may not be used in any manner that
 competes with the business of Gaussian, Inc. or will provide
 assistance to any competitor of Gaussian, Inc.  The licensee
 of this program is prohibited from giving any competitor of
 Gaussian, Inc. access to this program.  By using this program,
 the user acknowledges that Gaussian, Inc. is engaged in the
 business of creating and licensing software in the field of
 computational chemistry and represents and warrants to the
 licensee that it is not a competitor of Gaussian, Inc. and that
 it will not use this program in any manner prohibited above.
 ---------------------------------------------------------------
  

 Cite this work as:
 Gaussian 16, Revision B.01,
 M. J. Frisch, G. W. Trucks, H. B. Schlegel, G. E. Scuseria, 
 M. A. Robb, J. R. Cheeseman, G. Scalmani, V. Barone, 
 G. A. Petersson, H. Nakatsuji, X. Li, M. Caricato, A. V. Marenich, 
 J. Bloino, B. G. Janesko, R. Gomperts, B. Mennucci, H. P. Hratchian, 
 J. V. Ortiz, A. F. Izmaylov, J. L. Sonnenberg, D. Williams-Young, 
 F. Ding, F. Lipparini, F. Egidi, J. Goings, B. Peng, A. Petrone, 
 T. Henderson, D. Ranasinghe, V. G. Zakrzewski, J. Gao, N. Rega, 
 G. Zheng, W. Liang, M. Hada, M. Ehara, K. Toyota, R. Fukuda, 
 J. Hasegawa, M. Ishida, T. Nakajima, Y. Honda, O. Kitao, H. Nakai, 
 T. Vreven, K. Throssell, J. A. Montgomery, Jr., J. E. Peralta, 
 F. Ogliaro, M. J. Bearpark, J. J. Heyd, E. N. Brothers, K. N. Kudin, 
 V. N. Staroverov, T. A. Keith, R. Kobayashi, J. Normand, 
 K. Raghavachari, A. P. Rendell, J. C. Burant, S. S. Iyengar, 
 J. Tomasi, M. Cossi, J. M. Millam, M. Klene, C. Adamo, R. Cammi, 
 J. W. Ochterski, R. L. Martin, K. Morokuma, O. Farkas, 
 J. B. Foresman, and D. J. Fox, Gaussian, Inc., Wallingford CT, 2016.
 
 ******************************************
 Gaussian 16:  ES64L-G16RevB.01 20-Dec-2017
                31-Jan-2022 
 ******************************************
 %nproc=28
 Will use up to   28 processors via shared memory.
 %mem=120GB
 %chk=/gscratch/ilahie/mccoygrp/coire_hoono/hono/hono_r2_p_01.chk
 -------------------------------------
 #p SP mp2/aug-cc-pvtz density=current
 -------------------------------------
 1/30=1,38=1,172=1/1;
 2/12=2,17=6,18=5,40=1/2;
 3/5=16,6=1,7=10,11=9,25=1,30=1,71=1/1,2,3;
 4//1;
 5/5=2,38=5/2;
 8/6=4,10=1/1;
 9/15=1,16=-3/6;
 10/5=1,13=10/2;
 6/7=2,8=2,9=2,10=2,22=-1/1;
 99/5=1,9=1/99;
 Leave Link    1 at Mon Jan 31 11:39:31 2022, MaxMem= 16106127360 cpu:               3.1 elap:               0.1
 (Enter /sw/contrib/gaussian/g16/B01/g16/l101.exe)
 -----
 title
 -----
 Symbolic Z-matrix:
 Charge =  0 Multiplicity = 1
 H
 O                    1    r1
 N                    2    r2       1    a1
 O                    3    r3       2    a2       1    d1       0
       Variables:
  r1                    0.97026                  
  r2                    1.43776                  
  r3                    1.1768                   
  a1                  101.62779                  
  a2                  110.70859                  
  d1                  180.                       
 
 ITRead=  0  0  0  0
 MicOpt= -1 -1 -1 -1
 NAtoms=      4 NQM=        4 NQMF=       0 NMMI=      0 NMMIF=      0
                NMic=       0 NMicF=      0.
                    Isotopes and Nuclear Properties:
 (Nuclear quadrupole moments (NQMom) in fm**2, nuclear magnetic moments (NMagM)
  in nuclear magnetons)

  Atom         1           2           3           4
 IAtWgt=           1          16          14          16
 AtmWgt=   1.0078250  15.9949146  14.0030740  15.9949146
 NucSpn=           1           0           2           0
 AtZEff=  -0.0000000  -0.0000000  -0.0000000  -0.0000000
 NQMom=    0.0000000   0.0000000   2.0440000   0.0000000
 NMagM=    2.7928460   0.0000000   0.4037610   0.0000000
 AtZNuc=   1.0000000   8.0000000   7.0000000   8.0000000
 Leave Link  101 at Mon Jan 31 11:39:31 2022, MaxMem= 16106127360 cpu:               2.4 elap:               0.1
 (Enter /sw/contrib/gaussian/g16/B01/g16/l202.exe)
                          Input orientation:                          
 ---------------------------------------------------------------------
 Center     Atomic      Atomic             Coordinates (Angstroms)
 Number     Number       Type             X           Y           Z
 ---------------------------------------------------------------------
      1          1           0        0.000000    0.000000    0.000000
      2          8           0        0.000000    0.000000    0.970263
      3          7           0        1.408258    0.000000    1.260048
      4          8           0        1.593989    0.000000    2.422101
 ---------------------------------------------------------------------
                    Distance matrix (angstroms):
                    1          2          3          4
     1  H    0.000000
     2  O    0.970263   0.000000
     3  N    1.889686   1.437764   0.000000
     4  O    2.899548   2.156070   1.176802   0.000000
 Stoichiometry    HNO2
 Framework group  CS[SG(HNO2)]
 Deg. of freedom     5
 Full point group                 CS      NOp   2
 Largest Abelian subgroup         CS      NOp   2
 Largest concise Abelian subgroup C1      NOp   1
                         Standard orientation:                         
 ---------------------------------------------------------------------
 Center     Atomic      Atomic             Coordinates (Angstroms)
 Number     Number       Type             X           Y           Z
 ---------------------------------------------------------------------
      1          1           0        1.762882   -0.157017    0.000000
      2          8           0        0.898912   -0.598566    0.000000
      3          7           0       -0.000000    0.523540    0.000000
      4          8           0       -1.119273    0.160095   -0.000000
 ---------------------------------------------------------------------
 Rotational constants (GHZ):          92.1142978          12.4642466          10.9786891
 Leave Link  202 at Mon Jan 31 11:39:31 2022, MaxMem= 16106127360 cpu:               0.2 elap:               0.0
 (Enter /sw/contrib/gaussian/g16/B01/g16/l301.exe)
 Standard basis: Aug-CC-pVTZ (5D, 7F)
 Ernie: Thresh=  0.10000D-02 Tol=  0.10000D-05 Strict=F.
 Ernie:  9 primitive shells out of 101 were deleted.
 There are   129 symmetry adapted cartesian basis functions of A'  symmetry.
 There are    61 symmetry adapted cartesian basis functions of A"  symmetry.
 There are   106 symmetry adapted basis functions of A'  symmetry.
 There are    55 symmetry adapted basis functions of A"  symmetry.
   161 basis functions,   243 primitive gaussians,   190 cartesian basis functions
    12 alpha electrons       12 beta electrons
       nuclear repulsion energy        69.2841900919 Hartrees.
 IExCor=    0 DFT=F Ex=HF Corr=None ExCW=0 ScaHFX=  1.000000
 ScaDFX=  1.000000  1.000000  1.000000  1.000000 ScalE2=  1.000000  1.000000
 IRadAn=      5 IRanWt=     -1 IRanGd=            0 ICorTp=0 IEmpDi=  4
 NAtoms=    4 NActive=    4 NUniq=    4 SFac= 1.00D+00 NAtFMM=   60 NAOKFM=F Big=F
 Integral buffers will be    131072 words long.
 Raffenetti 1 integral format.
 Two-electron integral symmetry is turned on.
 Leave Link  301 at Mon Jan 31 11:39:31 2022, MaxMem= 16106127360 cpu:               2.3 elap:               0.1
 (Enter /sw/contrib/gaussian/g16/B01/g16/l302.exe)
 NPDir=0 NMtPBC=     1 NCelOv=     1 NCel=       1 NClECP=     1 NCelD=      1
         NCelK=      1 NCelE2=     1 NClLst=     1 CellRange=     0.0.
 One-electron integrals computed using PRISM.
 One-electron integral symmetry used in STVInt
 NBasis=   161 RedAO= T EigKep=  1.99D-04  NBF=   106    55
 NBsUse=   161 1.00D-06 EigRej= -1.00D+00 NBFU=   106    55
 Leave Link  302 at Mon Jan 31 11:39:31 2022, MaxMem= 16106127360 cpu:               6.8 elap:               0.3
 (Enter /sw/contrib/gaussian/g16/B01/g16/l303.exe)
 DipDrv:  MaxL=1.
 Leave Link  303 at Mon Jan 31 11:39:31 2022, MaxMem= 16106127360 cpu:               0.8 elap:               0.1
 (Enter /sw/contrib/gaussian/g16/B01/g16/l401.exe)
 ExpMin= 2.53D-02 ExpMax= 1.53D+04 ExpMxC= 5.22D+02 IAcc=3 IRadAn=         5 AccDes= 0.00D+00
 Harris functional with IExCor=  205 and IRadAn=       5 diagonalized for initial guess.
 HarFok:  IExCor=  205 AccDes= 0.00D+00 IRadAn=         5 IDoV= 1 UseB2=F ITyADJ=14
 ICtDFT=  3500011 ScaDFX=  1.000000  1.000000  1.000000  1.000000
 FoFCou: FMM=F IPFlag=           0 FMFlag=      100000 FMFlg1=           0
         NFxFlg=           0 DoJE=T BraDBF=F KetDBF=T FulRan=T
         wScrn=  0.000000 ICntrl=       500 IOpCl=  0 I1Cent=   200000004 NGrid=           0
         NMat0=    1 NMatS0=      1 NMatT0=    0 NMatD0=    1 NMtDS0=    0 NMtDT0=    0
 Petite list used in FoFCou.
 Harris En= -204.818451545405    
 JPrj=0 DoOrth=F DoCkMO=F.
 Initial guess orbital symmetries:
       Occupied  (A') (A') (A') (A') (A') (A') (A') (A') (A") (A')
                 (A") (A')
       Virtual   (A") (A') (A') (A') (A') (A") (A') (A') (A') (A")
                 (A') (A") (A') (A') (A") (A') (A') (A') (A') (A')
                 (A") (A') (A") (A') (A') (A') (A") (A") (A') (A')
                 (A") (A') (A') (A") (A") (A') (A') (A') (A") (A')
                 (A') (A') (A") (A') (A") (A') (A') (A") (A') (A')
                 (A") (A') (A") (A') (A') (A") (A') (A") (A') (A")
                 (A') (A') (A") (A') (A') (A') (A") (A') (A") (A")
                 (A') (A') (A') (A") (A') (A") (A') (A') (A") (A")
                 (A') (A') (A') (A") (A') (A') (A") (A") (A') (A')
                 (A') (A') (A") (A') (A') (A") (A') (A") (A') (A")
                 (A") (A') (A') (A') (A') (A") (A') (A") (A') (A")
                 (A') (A') (A") (A') (A') (A") (A') (A") (A') (A')
                 (A') (A') (A") (A') (A") (A") (A') (A') (A") (A')
                 (A") (A") (A') (A") (A') (A") (A") (A') (A") (A')
                 (A') (A') (A') (A') (A') (A') (A') (A') (A')
 The electronic state of the initial guess is 1-A'.
 Leave Link  401 at Mon Jan 31 11:39:32 2022, MaxMem= 16106127360 cpu:               6.5 elap:               0.3
 (Enter /sw/contrib/gaussian/g16/B01/g16/l502.exe)
 Keep R1 ints in memory in symmetry-blocked form, NReq=128070121.
 FoFCou: FMM=F IPFlag=           0 FMFlag=           0 FMFlg1=           0
         NFxFlg=           0 DoJE=F BraDBF=F KetDBF=F FulRan=T
         wScrn=  0.000000 ICntrl=       600 IOpCl=  0 I1Cent=           0 NGrid=           0
         NMat0=    1 NMatS0=  13041 NMatT0=    0 NMatD0=    1 NMtDS0=    0 NMtDT0=    0
 Petite list used in FoFCou.
 Closed shell SCF:
 Using DIIS extrapolation, IDIIS=  1040.
 NGot= 16106127360 LenX= 16063019402 LenY= 16062982861
 Requested convergence on RMS density matrix=1.00D-08 within 128 cycles.
 Requested convergence on MAX density matrix=1.00D-06.
 Requested convergence on             energy=1.00D-06.
 No special actions if energy rises.

 Cycle   1  Pass 1  IDiag  1:
 E= -204.611750016070    
 DIIS: error= 3.32D-02 at cycle   1 NSaved=   1.
 NSaved= 1 IEnMin= 1 EnMin= -204.611750016070     IErMin= 1 ErrMin= 3.32D-02
 ErrMax= 3.32D-02  0.00D+00 EMaxC= 1.00D-01 BMatC= 3.56D-01 BMatP= 3.56D-01
 IDIUse=3 WtCom= 6.68D-01 WtEn= 3.32D-01
 Coeff-Com:  0.100D+01
 Coeff-En:   0.100D+01
 Coeff:      0.100D+01
 Gap=     0.506 Goal=   None    Shift=    0.000
 GapD=    0.506 DampG=2.000 DampE=0.500 DampFc=1.0000 IDamp=-1.
 RMSDP=2.06D-03 MaxDP=1.23D-01              OVMax= 1.03D-01

 Cycle   2  Pass 1  IDiag  1:
 E= -204.676202773845     Delta-E=       -0.064452757775 Rises=F Damp=F
 DIIS: error= 2.13D-02 at cycle   2 NSaved=   2.
 NSaved= 2 IEnMin= 2 EnMin= -204.676202773845     IErMin= 2 ErrMin= 2.13D-02
 ErrMax= 2.13D-02  0.00D+00 EMaxC= 1.00D-01 BMatC= 7.00D-02 BMatP= 3.56D-01
 IDIUse=3 WtCom= 7.87D-01 WtEn= 2.13D-01
 Coeff-Com:  0.238D+00 0.762D+00
 Coeff-En:   0.122D+00 0.878D+00
 Coeff:      0.213D+00 0.787D+00
 Gap=     0.510 Goal=   None    Shift=    0.000
 RMSDP=1.01D-03 MaxDP=3.67D-02 DE=-6.45D-02 OVMax= 8.85D-02

 Cycle   3  Pass 1  IDiag  1:
 E= -204.711621218409     Delta-E=       -0.035418444565 Rises=F Damp=F
 DIIS: error= 7.28D-03 at cycle   3 NSaved=   3.
 NSaved= 3 IEnMin= 3 EnMin= -204.711621218409     IErMin= 3 ErrMin= 7.28D-03
 ErrMax= 7.28D-03  0.00D+00 EMaxC= 1.00D-01 BMatC= 1.54D-02 BMatP= 7.00D-02
 IDIUse=3 WtCom= 9.27D-01 WtEn= 7.28D-02
 Coeff-Com: -0.365D-01 0.299D+00 0.737D+00
 Coeff-En:   0.000D+00 0.780D-01 0.922D+00
 Coeff:     -0.339D-01 0.283D+00 0.751D+00
 Gap=     0.493 Goal=   None    Shift=    0.000
 RMSDP=4.10D-04 MaxDP=2.25D-02 DE=-3.54D-02 OVMax= 2.66D-02

 Cycle   4  Pass 1  IDiag  1:
 E= -204.721841991311     Delta-E=       -0.010220772902 Rises=F Damp=F
 DIIS: error= 1.54D-03 at cycle   4 NSaved=   4.
 NSaved= 4 IEnMin= 4 EnMin= -204.721841991311     IErMin= 4 ErrMin= 1.54D-03
 ErrMax= 1.54D-03  0.00D+00 EMaxC= 1.00D-01 BMatC= 2.40D-04 BMatP= 1.54D-02
 IDIUse=3 WtCom= 9.85D-01 WtEn= 1.54D-02
 Coeff-Com: -0.668D-02 0.160D-01 0.105D+00 0.885D+00
 Coeff-En:   0.000D+00 0.000D+00 0.000D+00 0.100D+01
 Coeff:     -0.657D-02 0.158D-01 0.104D+00 0.887D+00
 Gap=     0.489 Goal=   None    Shift=    0.000
 RMSDP=8.56D-05 MaxDP=1.89D-03 DE=-1.02D-02 OVMax= 8.45D-03

 Cycle   5  Pass 1  IDiag  1:
 E= -204.722222066254     Delta-E=       -0.000380074942 Rises=F Damp=F
 DIIS: error= 1.06D-03 at cycle   5 NSaved=   5.
 NSaved= 5 IEnMin= 5 EnMin= -204.722222066254     IErMin= 5 ErrMin= 1.06D-03
 ErrMax= 1.06D-03  0.00D+00 EMaxC= 1.00D-01 BMatC= 6.46D-05 BMatP= 2.40D-04
 IDIUse=3 WtCom= 9.89D-01 WtEn= 1.06D-02
 Coeff-Com:  0.716D-02-0.728D-01-0.157D+00 0.241D+00 0.981D+00
 Coeff-En:   0.000D+00 0.000D+00 0.000D+00 0.000D+00 0.100D+01
 Coeff:      0.708D-02-0.720D-01-0.155D+00 0.239D+00 0.982D+00
 Gap=     0.489 Goal=   None    Shift=    0.000
 RMSDP=6.79D-05 MaxDP=1.65D-03 DE=-3.80D-04 OVMax= 8.97D-03

 Cycle   6  Pass 1  IDiag  1:
 E= -204.722398941437     Delta-E=       -0.000176875184 Rises=F Damp=F
 DIIS: error= 2.37D-04 at cycle   6 NSaved=   6.
 NSaved= 6 IEnMin= 6 EnMin= -204.722398941437     IErMin= 6 ErrMin= 2.37D-04
 ErrMax= 2.37D-04  0.00D+00 EMaxC= 1.00D-01 BMatC= 1.18D-05 BMatP= 6.46D-05
 IDIUse=3 WtCom= 9.98D-01 WtEn= 2.37D-03
 Coeff-Com:  0.495D-03 0.186D-02-0.691D-03-0.216D+00-0.198D-02 0.122D+01
 Coeff-En:   0.000D+00 0.000D+00 0.000D+00 0.000D+00 0.000D+00 0.100D+01
 Coeff:      0.494D-03 0.185D-02-0.690D-03-0.216D+00-0.197D-02 0.122D+01
 Gap=     0.490 Goal=   None    Shift=    0.000
 RMSDP=3.95D-05 MaxDP=7.41D-04 DE=-1.77D-04 OVMax= 4.20D-03

 Cycle   7  Pass 1  IDiag  1:
 E= -204.722439990075     Delta-E=       -0.000041048638 Rises=F Damp=F
 DIIS: error= 1.17D-04 at cycle   7 NSaved=   7.
 NSaved= 7 IEnMin= 7 EnMin= -204.722439990075     IErMin= 7 ErrMin= 1.17D-04
 ErrMax= 1.17D-04  0.00D+00 EMaxC= 1.00D-01 BMatC= 1.82D-06 BMatP= 1.18D-05
 IDIUse=3 WtCom= 9.99D-01 WtEn= 1.17D-03
 Coeff-Com: -0.125D-02 0.126D-01 0.320D-01-0.528D-01-0.130D+00-0.831D-01
 Coeff-Com:  0.122D+01
 Coeff-En:   0.000D+00 0.000D+00 0.000D+00 0.000D+00 0.000D+00 0.000D+00
 Coeff-En:   0.100D+01
 Coeff:     -0.125D-02 0.126D-01 0.319D-01-0.527D-01-0.130D+00-0.831D-01
 Coeff:      0.122D+01
 Gap=     0.490 Goal=   None    Shift=    0.000
 RMSDP=1.54D-05 MaxDP=3.38D-04 DE=-4.10D-05 OVMax= 1.81D-03

 Cycle   8  Pass 1  IDiag  1:
 E= -204.722445707890     Delta-E=       -0.000005717815 Rises=F Damp=F
 DIIS: error= 4.49D-05 at cycle   8 NSaved=   8.
 NSaved= 8 IEnMin= 8 EnMin= -204.722445707890     IErMin= 8 ErrMin= 4.49D-05
 ErrMax= 4.49D-05  0.00D+00 EMaxC= 1.00D-01 BMatC= 1.92D-07 BMatP= 1.82D-06
 IDIUse=1 WtCom= 1.00D+00 WtEn= 0.00D+00
 Coeff-Com: -0.289D-04-0.875D-03-0.845D-03 0.213D-01 0.250D-01-0.153D+00
 Coeff-Com: -0.127D+00 0.124D+01
 Coeff:     -0.289D-04-0.875D-03-0.845D-03 0.213D-01 0.250D-01-0.153D+00
 Coeff:     -0.127D+00 0.124D+01
 Gap=     0.490 Goal=   None    Shift=    0.000
 RMSDP=4.97D-06 MaxDP=9.88D-05 DE=-5.72D-06 OVMax= 4.73D-04

 Cycle   9  Pass 1  IDiag  1:
 E= -204.722446259509     Delta-E=       -0.000000551619 Rises=F Damp=F
 DIIS: error= 1.16D-05 at cycle   9 NSaved=   9.
 NSaved= 9 IEnMin= 9 EnMin= -204.722446259509     IErMin= 9 ErrMin= 1.16D-05
 ErrMax= 1.16D-05  0.00D+00 EMaxC= 1.00D-01 BMatC= 1.59D-08 BMatP= 1.92D-07
 IDIUse=1 WtCom= 1.00D+00 WtEn= 0.00D+00
 Coeff-Com:  0.106D-03-0.979D-03-0.240D-02-0.115D-02 0.114D-01 0.388D-01
 Coeff-Com: -0.879D-01-0.277D+00 0.132D+01
 Coeff:      0.106D-03-0.979D-03-0.240D-02-0.115D-02 0.114D-01 0.388D-01
 Coeff:     -0.879D-01-0.277D+00 0.132D+01
 Gap=     0.490 Goal=   None    Shift=    0.000
 RMSDP=1.30D-06 MaxDP=3.49D-05 DE=-5.52D-07 OVMax= 9.89D-05

 Cycle  10  Pass 1  IDiag  1:
 E= -204.722446302330     Delta-E=       -0.000000042822 Rises=F Damp=F
 DIIS: error= 2.88D-06 at cycle  10 NSaved=  10.
 NSaved=10 IEnMin=10 EnMin= -204.722446302330     IErMin=10 ErrMin= 2.88D-06
 ErrMax= 2.88D-06  0.00D+00 EMaxC= 1.00D-01 BMatC= 1.32D-09 BMatP= 1.59D-08
 IDIUse=1 WtCom= 1.00D+00 WtEn= 0.00D+00
 Coeff-Com: -0.266D-04 0.320D-03 0.800D-03-0.222D-02-0.425D-02 0.217D-02
 Coeff-Com:  0.374D-01-0.534D-01-0.274D+00 0.129D+01
 Coeff:     -0.266D-04 0.320D-03 0.800D-03-0.222D-02-0.425D-02 0.217D-02
 Coeff:      0.374D-01-0.534D-01-0.274D+00 0.129D+01
 Gap=     0.490 Goal=   None    Shift=    0.000
 RMSDP=3.39D-07 MaxDP=1.16D-05 DE=-4.28D-08 OVMax= 3.09D-05

 Cycle  11  Pass 1  IDiag  1:
 E= -204.722446305886     Delta-E=       -0.000000003555 Rises=F Damp=F
 DIIS: error= 1.16D-06 at cycle  11 NSaved=  11.
 NSaved=11 IEnMin=11 EnMin= -204.722446305886     IErMin=11 ErrMin= 1.16D-06
 ErrMax= 1.16D-06  0.00D+00 EMaxC= 1.00D-01 BMatC= 1.28D-10 BMatP= 1.32D-09
 IDIUse=1 WtCom= 1.00D+00 WtEn= 0.00D+00
 Coeff-Com: -0.449D-06-0.188D-04-0.468D-04 0.573D-03 0.110D-02-0.484D-02
 Coeff-Com: -0.493D-02 0.450D-01-0.224D-01-0.478D+00 0.146D+01
 Coeff:     -0.449D-06-0.188D-04-0.468D-04 0.573D-03 0.110D-02-0.484D-02
 Coeff:     -0.493D-02 0.450D-01-0.224D-01-0.478D+00 0.146D+01
 Gap=     0.490 Goal=   None    Shift=    0.000
 RMSDP=1.15D-07 MaxDP=4.28D-06 DE=-3.56D-09 OVMax= 1.14D-05

 Cycle  12  Pass 1  IDiag  1:
 E= -204.722446306284     Delta-E=       -0.000000000398 Rises=F Damp=F
 DIIS: error= 1.95D-07 at cycle  12 NSaved=  12.
 NSaved=12 IEnMin=12 EnMin= -204.722446306284     IErMin=12 ErrMin= 1.95D-07
 ErrMax= 1.95D-07  0.00D+00 EMaxC= 1.00D-01 BMatC= 7.37D-12 BMatP= 1.28D-10
 IDIUse=1 WtCom= 1.00D+00 WtEn= 0.00D+00
 Coeff-Com:  0.242D-05-0.232D-04-0.554D-04-0.541D-04 0.113D-03 0.168D-02
 Coeff-Com: -0.222D-02-0.122D-01 0.394D-01 0.401D-01-0.484D+00 0.142D+01
 Coeff:      0.242D-05-0.232D-04-0.554D-04-0.541D-04 0.113D-03 0.168D-02
 Coeff:     -0.222D-02-0.122D-01 0.394D-01 0.401D-01-0.484D+00 0.142D+01
 Gap=     0.490 Goal=   None    Shift=    0.000
 RMSDP=3.28D-08 MaxDP=7.70D-07 DE=-3.98D-10 OVMax= 2.78D-06

 Cycle  13  Pass 1  IDiag  1:
 E= -204.722446306308     Delta-E=       -0.000000000025 Rises=F Damp=F
 DIIS: error= 4.73D-08 at cycle  13 NSaved=  13.
 NSaved=13 IEnMin=13 EnMin= -204.722446306308     IErMin=13 ErrMin= 4.73D-08
 ErrMax= 4.73D-08  0.00D+00 EMaxC= 1.00D-01 BMatC= 2.34D-13 BMatP= 7.37D-12
 IDIUse=1 WtCom= 1.00D+00 WtEn= 0.00D+00
 Coeff-Com: -0.456D-06 0.580D-05 0.140D-04-0.248D-04-0.826D-04-0.639D-04
 Coeff-Com:  0.764D-03-0.249D-03-0.533D-02 0.121D-01 0.288D-01-0.305D+00
 Coeff-Com:  0.127D+01
 Coeff:     -0.456D-06 0.580D-05 0.140D-04-0.248D-04-0.826D-04-0.639D-04
 Coeff:      0.764D-03-0.249D-03-0.533D-02 0.121D-01 0.288D-01-0.305D+00
 Coeff:      0.127D+01
 Gap=     0.490 Goal=   None    Shift=    0.000
 RMSDP=5.79D-09 MaxDP=1.01D-07 DE=-2.46D-11 OVMax= 4.52D-07

 SCF Done:  E(RHF) =  -204.722446306     A.U. after   13 cycles
            NFock= 13  Conv=0.58D-08     -V/T= 2.0024
 KE= 2.042223031783D+02 PE=-6.225010846642D+02 EE= 1.442721450876D+02
 Leave Link  502 at Mon Jan 31 11:39:33 2022, MaxMem= 16106127360 cpu:              34.8 elap:               1.7
 (Enter /sw/contrib/gaussian/g16/B01/g16/l801.exe)
 ExpMin= 2.53D-02 ExpMax= 1.53D+04 ExpMxC= 5.22D+02 IAcc=3 IRadAn=         5 AccDes= 0.00D+00
 HarFok:  IExCor=  205 AccDes= 0.00D+00 IRadAn=         5 IDoV=-2 UseB2=F ITyADJ=14
 ICtDFT= 12500011 ScaDFX=  1.000000  1.000000  1.000000  1.000000
 Largest valence mixing into a core orbital is  2.07D-04
 Largest core mixing into a valence orbital is  3.35D-05
 Range of M.O.s used for correlation:     4   161
 NBasis=   161 NAE=    12 NBE=    12 NFC=     3 NFV=     0
 NROrb=    158 NOA=     9 NOB=     9 NVA=   149 NVB=   149

 **** Warning!!: The largest alpha MO coefficient is  0.19369886D+02

 Leave Link  801 at Mon Jan 31 11:39:34 2022, MaxMem= 16106127360 cpu:               2.0 elap:               0.1
 (Enter /sw/contrib/gaussian/g16/B01/g16/l906.exe)
 Frozen-core derivative calculation, NFC=   3 NFV=   0.
 FulOut=F Deriv=T AODrv=F NAtomX=     4
   MMem=         161  MDisk=           9 MDiskD=           9
  W3Min=      367080 MinDsk=      792425 NBas6D=         190
 NBas2D=       18625    NTT=       18145    LW2=     3500000
    MDV= 16105788785 MDiskM=      423783 NBas2p=       18621
 Fully in-core method, ICMem=   359292905.
 IMap=   1   2   3   4   5   6   7   8   9  10  11  12
 JobTyp=1 Pass  1 fully in-core, NPsUse= 28.
 Compute canonical integrals.
 FoFCou: FMM=F IPFlag=           0 FMFlag=           0 FMFlg1=           0
         NFxFlg=           0 DoJE=F BraDBF=F KetDBF=F FulRan=T
         wScrn=  0.000000 ICntrl=       600 IOpCl=  1 I1Cent=           0 NGrid=           0
         NMat0=    1 NMatS0=  18625 NMatT0=    0 NMatD0=    1 NMtDS0=    0 NMtDT0=    0
 Symmetry not used in FoFCou.
 Spin components of T(2) and E(2):
     alpha-alpha T2 =       0.2543282020D-01 E2=     -0.9076126792D-01
     alpha-beta  T2 =       0.1381604667D+00 E2=     -0.5173559826D+00
     beta-beta   T2 =       0.2543282020D-01 E2=     -0.9076126792D-01
 The integrals were generated   1 times.
 ANorm=    0.1090424737D+01
 E2 =    -0.6988785184D+00 EUMP2 =    -0.20542132482475D+03
 Leave Link  906 at Mon Jan 31 11:39:37 2022, MaxMem= 16106127360 cpu:              84.2 elap:               3.0
 (Enter /sw/contrib/gaussian/g16/B01/g16/l1002.exe)
 Minotr:  Closed shell wavefunction.
          Computing MP2/KS-MP2 derivatives.
          Using Z-Vector for PSCF gradient.
          Skipping F1 and S1 gradient terms here.
          Frozen-core window.
          Direct CPHF calculation.
          Differentiating once with respect to electric field.
                with respect to dipole field.
          Electric field/nuclear overlap derivatives assumed to be zero.
          Using symmetry in CPHF.
          Requested convergence is 1.0D-10 RMS, and 1.0D-09 maximum.
          NewPWx=F KeepS1=T KeepF1=T KeepIn=T MapXYZ=F SortEE=F KeepMc=T.
 Keep R1 ints in memory in symmetry-blocked form, NReq=128071053.
 FoFCou: FMM=F IPFlag=           0 FMFlag=           0 FMFlg1=           0
         NFxFlg=           0 DoJE=F BraDBF=F KetDBF=F FulRan=T
         wScrn=  0.000000 ICntrl=       600 IOpCl=  0 I1Cent=           0 NGrid=           0
         NMat0=    1 NMatS0=  13041 NMatT0=    0 NMatD0=    1 NMtDS0=    0 NMtDT0=    0
 Petite list used in FoFCou.
          MDV=   16106127360 using IRadAn=       5.
          Solving linear equations separately, MaxMat=       0.
          There are     1 degrees of freedom in the 1st order CPHF.  IDoFFX=0 NUNeed=     1.
 LinEq1:  Iter=  0 NonCon=     1 RMS=6.69D-03 Max=1.32D-01 NDo=     1
 AX will form     1 AO Fock derivatives at one time.
 LinEq1:  Iter=  1 NonCon=     1 RMS=2.30D-03 Max=4.12D-02 NDo=     1
 LinEq1:  Iter=  2 NonCon=     1 RMS=9.35D-04 Max=1.26D-02 NDo=     1
 LinEq1:  Iter=  3 NonCon=     1 RMS=4.49D-04 Max=8.72D-03 NDo=     1
 LinEq1:  Iter=  4 NonCon=     1 RMS=1.40D-04 Max=1.61D-03 NDo=     1
 LinEq1:  Iter=  5 NonCon=     1 RMS=6.23D-05 Max=1.00D-03 NDo=     1
 LinEq1:  Iter=  6 NonCon=     1 RMS=2.38D-05 Max=2.74D-04 NDo=     1
 LinEq1:  Iter=  7 NonCon=     1 RMS=6.04D-06 Max=6.50D-05 NDo=     1
 LinEq1:  Iter=  8 NonCon=     1 RMS=1.46D-06 Max=1.73D-05 NDo=     1
 LinEq1:  Iter=  9 NonCon=     1 RMS=2.74D-07 Max=2.13D-06 NDo=     1
 LinEq1:  Iter= 10 NonCon=     1 RMS=5.09D-08 Max=4.33D-07 NDo=     1
 LinEq1:  Iter= 11 NonCon=     1 RMS=8.39D-09 Max=8.88D-08 NDo=     1
 LinEq1:  Iter= 12 NonCon=     1 RMS=1.13D-09 Max=7.01D-09 NDo=     1
 LinEq1:  Iter= 13 NonCon=     1 RMS=2.38D-10 Max=2.41D-09 NDo=     1
 LinEq1:  Iter= 14 NonCon=     0 RMS=4.58D-11 Max=3.82D-10 NDo=     1
 Linear equations converged to 1.000D-10 1.000D-09 after    14 iterations.
 End of Minotr F.D. properties file   721 does not exist.
 End of Minotr F.D. properties file   722 does not exist.
 End of Minotr F.D. properties file   788 does not exist.
 Leave Link 1002 at Mon Jan 31 11:39:38 2022, MaxMem= 16106127360 cpu:              34.2 elap:               1.8
 (Enter /sw/contrib/gaussian/g16/B01/g16/l601.exe)
 Copying SCF densities to generalized density rwf, IOpCl= 0 IROHF=0.

 **********************************************************************

            Population analysis using the MP2 Density.

 **********************************************************************

 Orbital symmetries:
       Occupied  (A') (A') (A') (A') (A') (A') (A') (A') (A") (A')
                 (A") (A')
       Virtual   (A') (A") (A') (A') (A") (A') (A') (A') (A") (A')
                 (A") (A') (A') (A") (A') (A') (A') (A') (A') (A")
                 (A') (A') (A") (A') (A') (A') (A") (A") (A') (A')
                 (A') (A") (A') (A") (A") (A') (A') (A") (A') (A')
                 (A') (A') (A') (A") (A") (A') (A') (A") (A') (A')
                 (A") (A') (A") (A') (A') (A") (A') (A") (A') (A")
                 (A') (A') (A") (A') (A') (A") (A') (A') (A") (A")
                 (A') (A') (A') (A") (A') (A") (A') (A') (A") (A")
                 (A') (A') (A') (A") (A') (A") (A') (A") (A') (A')
                 (A') (A') (A') (A") (A') (A") (A') (A") (A') (A")
                 (A') (A") (A') (A') (A') (A") (A') (A") (A") (A')
                 (A') (A") (A') (A') (A") (A') (A') (A") (A') (A')
                 (A') (A') (A") (A') (A") (A") (A') (A') (A") (A')
                 (A") (A") (A') (A") (A') (A") (A') (A") (A") (A')
                 (A') (A') (A') (A') (A') (A') (A') (A') (A')
 The electronic state is 1-A'.
 Alpha  occ. eigenvalues --  -20.66765 -20.64077 -15.80021  -1.60225  -1.39953
 Alpha  occ. eigenvalues --   -0.94880  -0.78228  -0.72924  -0.68030  -0.62611
 Alpha  occ. eigenvalues --   -0.52853  -0.46158
 Alpha virt. eigenvalues --    0.02823   0.07920   0.09369   0.09752   0.12899
 Alpha virt. eigenvalues --    0.14403   0.15677   0.17231   0.18742   0.19651
 Alpha virt. eigenvalues --    0.20526   0.23296   0.25783   0.29656   0.30354
 Alpha virt. eigenvalues --    0.32941   0.36477   0.38168   0.42421   0.52469
 Alpha virt. eigenvalues --    0.52589   0.54702   0.57306   0.61246   0.63071
 Alpha virt. eigenvalues --    0.64807   0.68015   0.71460   0.71753   0.74821
 Alpha virt. eigenvalues --    0.77434   0.78295   0.81089   0.81138   0.85997
 Alpha virt. eigenvalues --    0.87846   0.92568   0.93915   0.94597   0.99572
 Alpha virt. eigenvalues --    1.04887   1.06193   1.08025   1.10457   1.16043
 Alpha virt. eigenvalues --    1.19493   1.25203   1.26739   1.36280   1.43299
 Alpha virt. eigenvalues --    1.48922   1.52272   1.52335   1.54316   1.55337
 Alpha virt. eigenvalues --    1.60850   1.65735   1.72757   1.75328   1.82030
 Alpha virt. eigenvalues --    1.85357   1.96153   1.97439   1.99663   2.07199
 Alpha virt. eigenvalues --    2.13210   2.13252   2.18600   2.26932   2.30771
 Alpha virt. eigenvalues --    2.32634   2.38208   2.44892   2.46895   2.49833
 Alpha virt. eigenvalues --    2.50176   2.51928   2.54291   2.56799   2.60676
 Alpha virt. eigenvalues --    2.60683   2.66000   2.76980   2.77657   2.83490
 Alpha virt. eigenvalues --    2.93450   2.93934   3.11155   3.14217   3.18382
 Alpha virt. eigenvalues --    3.24300   3.45614   3.82921   3.84989   4.02790
 Alpha virt. eigenvalues --    4.17026   4.18086   4.20990   4.36226   4.37105
 Alpha virt. eigenvalues --    4.57803   4.63045   4.74831   4.80888   4.87126
 Alpha virt. eigenvalues --    4.88711   4.98038   4.99971   5.07204   5.08710
 Alpha virt. eigenvalues --    5.16666   5.24585   5.25584   5.33115   5.36358
 Alpha virt. eigenvalues --    5.36613   5.57465   5.66630   5.79439   5.99113
 Alpha virt. eigenvalues --    6.10902   6.42758   6.50445   6.50813   6.67280
 Alpha virt. eigenvalues --    6.71363   6.74520   6.84267   6.91151   7.06403
 Alpha virt. eigenvalues --    7.11727   7.18073   7.22775   7.25490   7.25872
 Alpha virt. eigenvalues --    7.32904   7.38037   7.42741   7.47653   7.60030
 Alpha virt. eigenvalues --    7.64488   7.69185   7.77946   7.96467   8.05967
 Alpha virt. eigenvalues --    8.42067  14.16503  15.07953  15.94910
          Condensed to atoms (all electrons):
               1          2          3          4
     1  H    0.586290   0.171817  -0.041614   0.012295
     2  O    0.171817   8.294246  -0.133817  -0.054969
     3  N   -0.041614  -0.133817   7.032951  -0.040892
     4  O    0.012295  -0.054969  -0.040892   8.260872
 Mulliken charges:
               1
     1  H    0.271212
     2  O   -0.277277
     3  N    0.183372
     4  O   -0.177307
 Sum of Mulliken charges =  -0.00000
 Mulliken charges with hydrogens summed into heavy atoms:
               1
     2  O   -0.006065
     3  N    0.183372
     4  O   -0.177307
 Electronic spatial extent (au):  <R**2>=            124.1828
 Charge=             -0.0000 electrons
 Dipole moment (field-independent basis, Debye):
    X=              1.6974    Y=              0.6814    Z=              0.0000  Tot=              1.8291
 Quadrupole moment (field-independent basis, Debye-Ang):
   XX=            -13.6493   YY=            -18.7061   ZZ=            -16.4733
   XY=              0.5693   XZ=              0.0000   YZ=             -0.0000
 Traceless Quadrupole moment (field-independent basis, Debye-Ang):
   XX=              2.6269   YY=             -2.4298   ZZ=             -0.1971
   XY=              0.5693   XZ=              0.0000   YZ=             -0.0000
 Octapole moment (field-independent basis, Debye-Ang**2):
  XXX=             10.0475  YYY=             -0.9431  ZZZ=             -0.0000  XYY=             -1.0154
  XXY=             -0.3860  XXZ=              0.0000  XZZ=             -1.0444  YZZ=              0.2389
  YYZ=             -0.0000  XYZ=              0.0000
 Hexadecapole moment (field-independent basis, Debye-Ang**3):
 XXXX=            -71.7407 YYYY=            -40.0374 ZZZZ=            -13.9598 XXXY=             12.2626
 XXXZ=             -0.0000 YYYX=             12.2184 YYYZ=              0.0000 ZZZX=             -0.0000
 ZZZY=              0.0000 XXYY=            -22.3447 XXZZ=            -17.5272 YYZZ=             -8.8360
 XXYZ=             -0.0000 YYXZ=             -0.0000 ZZXY=              4.3098
 N-N= 6.928419009192D+01 E-N=-6.231069119462D+02  KE= 2.052243692846D+02
 Symmetry A'   KE= 1.964028413942D+02
 Symmetry A"   KE= 8.821527890455D+00
 No NMR shielding tensors so no spin-rotation constants.
 Leave Link  601 at Mon Jan 31 11:39:39 2022, MaxMem= 16106127360 cpu:               4.4 elap:               0.2
 (Enter /sw/contrib/gaussian/g16/B01/g16/l9999.exe)
 1\1\GINC-N2207\SP\RMP2-FC\Aug-CC-pVTZ\H1N1O2\CGAVINH\31-Jan-2022\0\\#p
  SP mp2/aug-cc-pvtz density=current\\title\\0,1\H\O,1,0.97026274\N,2,1
 .43776435,1,101.62778541\O,3,1.17680217,2,110.70859147,1,180.,0\\Versi
 on=ES64L-G16RevB.01\State=1-A'\HF=-204.7224463\MP2=-205.4213248\RMSD=5
 .794e-09\Dipole=-0.0652155,0.,-0.7166588\Quadrupole=-1.3709303,-0.1465
 322,1.5174625,0.,1.2755617,0.\PG=CS [SG(H1N1O2)]\\@


 A politician is a person who can make waves and then
 make you think he's the only one who can save the ship.
 -- Ivern Ball
 Job cpu time:       0 days  0 hours  3 minutes  3.5 seconds.
 Elapsed time:       0 days  0 hours  0 minutes  8.0 seconds.
 File lengths (MBytes):  RWF=     16 Int=      0 D2E=      0 Chk=      8 Scr=      1
 Normal termination of Gaussian 16 at Mon Jan 31 11:39:39 2022.
