 Entering Gaussian System, Link 0=g16
 Input=hono_r1_m_01.gjf
 Output=hono_r1_m_01.log
 Initial command:
 /sw/contrib/gaussian/g16/B01/g16/l1.exe "/scr/Gau-7004.inp" -scrdir="/scr/"
 Entering Link 1 = /sw/contrib/gaussian/g16/B01/g16/l1.exe PID=      7005.
  
 Copyright (c) 1988-2017, Gaussian, Inc.  All Rights Reserved.
  
 This is part of the Gaussian(R) 16 program.  It is based on
 the Gaussian(R) 09 system (copyright 2009, Gaussian, Inc.),
 the Gaussian(R) 03 system (copyright 2003, Gaussian, Inc.),
 the Gaussian(R) 98 system (copyright 1998, Gaussian, Inc.),
 the Gaussian(R) 94 system (copyright 1995, Gaussian, Inc.),
 the Gaussian 92(TM) system (copyright 1992, Gaussian, Inc.),
 the Gaussian 90(TM) system (copyright 1990, Gaussian, Inc.),
 the Gaussian 88(TM) system (copyright 1988, Gaussian, Inc.),
 the Gaussian 86(TM) system (copyright 1986, Carnegie Mellon
 University), and the Gaussian 82(TM) system (copyright 1983,
 Carnegie Mellon University). Gaussian is a federally registered
 trademark of Gaussian, Inc.
  
 This software contains proprietary and confidential information,
 including trade secrets, belonging to Gaussian, Inc.
  
 This software is provided under written license and may be
 used, copied, transmitted, or stored only in accord with that
 written license.
  
 The following legend is applicable only to US Government
 contracts under FAR:
  
                    RESTRICTED RIGHTS LEGEND
  
 Use, reproduction and disclosure by the US Government is
 subject to restrictions as set forth in subparagraphs (a)
 and (c) of the Commercial Computer Software - Restricted
 Rights clause in FAR 52.227-19.
  
 Gaussian, Inc.
 340 Quinnipiac St., Bldg. 40, Wallingford CT 06492
  
  
 ---------------------------------------------------------------
 Warning -- This program may not be used in any manner that
 competes with the business of Gaussian, Inc. or will provide
 assistance to any competitor of Gaussian, Inc.  The licensee
 of this program is prohibited from giving any competitor of
 Gaussian, Inc. access to this program.  By using this program,
 the user acknowledges that Gaussian, Inc. is engaged in the
 business of creating and licensing software in the field of
 computational chemistry and represents and warrants to the
 licensee that it is not a competitor of Gaussian, Inc. and that
 it will not use this program in any manner prohibited above.
 ---------------------------------------------------------------
  

 Cite this work as:
 Gaussian 16, Revision B.01,
 M. J. Frisch, G. W. Trucks, H. B. Schlegel, G. E. Scuseria, 
 M. A. Robb, J. R. Cheeseman, G. Scalmani, V. Barone, 
 G. A. Petersson, H. Nakatsuji, X. Li, M. Caricato, A. V. Marenich, 
 J. Bloino, B. G. Janesko, R. Gomperts, B. Mennucci, H. P. Hratchian, 
 J. V. Ortiz, A. F. Izmaylov, J. L. Sonnenberg, D. Williams-Young, 
 F. Ding, F. Lipparini, F. Egidi, J. Goings, B. Peng, A. Petrone, 
 T. Henderson, D. Ranasinghe, V. G. Zakrzewski, J. Gao, N. Rega, 
 G. Zheng, W. Liang, M. Hada, M. Ehara, K. Toyota, R. Fukuda, 
 J. Hasegawa, M. Ishida, T. Nakajima, Y. Honda, O. Kitao, H. Nakai, 
 T. Vreven, K. Throssell, J. A. Montgomery, Jr., J. E. Peralta, 
 F. Ogliaro, M. J. Bearpark, J. J. Heyd, E. N. Brothers, K. N. Kudin, 
 V. N. Staroverov, T. A. Keith, R. Kobayashi, J. Normand, 
 K. Raghavachari, A. P. Rendell, J. C. Burant, S. S. Iyengar, 
 J. Tomasi, M. Cossi, J. M. Millam, M. Klene, C. Adamo, R. Cammi, 
 J. W. Ochterski, R. L. Martin, K. Morokuma, O. Farkas, 
 J. B. Foresman, and D. J. Fox, Gaussian, Inc., Wallingford CT, 2016.
 
 ******************************************
 Gaussian 16:  ES64L-G16RevB.01 20-Dec-2017
                31-Jan-2022 
 ******************************************
 %nproc=28
 Will use up to   28 processors via shared memory.
 %mem=120GB
 %chk=/gscratch/ilahie/mccoygrp/coire_hoono/hono/hono_r1_m_01.chk
 -------------------------------------
 #p SP mp2/aug-cc-pvtz density=current
 -------------------------------------
 1/30=1,38=1,172=1/1;
 2/12=2,17=6,18=5,40=1/2;
 3/5=16,6=1,7=10,11=9,25=1,30=1,71=1/1,2,3;
 4//1;
 5/5=2,38=5/2;
 8/6=4,10=1/1;
 9/15=1,16=-3/6;
 10/5=1,13=10/2;
 6/7=2,8=2,9=2,10=2,22=-1/1;
 99/5=1,9=1/99;
 Leave Link    1 at Mon Jan 31 11:39:02 2022, MaxMem= 16106127360 cpu:               2.4 elap:               0.1
 (Enter /sw/contrib/gaussian/g16/B01/g16/l101.exe)
 -----
 title
 -----
 Symbolic Z-matrix:
 Charge =  0 Multiplicity = 1
 H
 O                    1    r1
 N                    2    r2       1    a1
 O                    3    r3       2    a2       1    d1       0
       Variables:
  r1                    0.96026                  
  r2                    1.42776                  
  r3                    1.1768                   
  a1                  101.62779                  
  a2                  110.70859                  
  d1                  180.                       
 
 ITRead=  0  0  0  0
 MicOpt= -1 -1 -1 -1
 NAtoms=      4 NQM=        4 NQMF=       0 NMMI=      0 NMMIF=      0
                NMic=       0 NMicF=      0.
                    Isotopes and Nuclear Properties:
 (Nuclear quadrupole moments (NQMom) in fm**2, nuclear magnetic moments (NMagM)
  in nuclear magnetons)

  Atom         1           2           3           4
 IAtWgt=           1          16          14          16
 AtmWgt=   1.0078250  15.9949146  14.0030740  15.9949146
 NucSpn=           1           0           2           0
 AtZEff=  -0.0000000  -0.0000000  -0.0000000  -0.0000000
 NQMom=    0.0000000   0.0000000   2.0440000   0.0000000
 NMagM=    2.7928460   0.0000000   0.4037610   0.0000000
 AtZNuc=   1.0000000   8.0000000   7.0000000   8.0000000
 Leave Link  101 at Mon Jan 31 11:39:02 2022, MaxMem= 16106127360 cpu:               3.0 elap:               0.1
 (Enter /sw/contrib/gaussian/g16/B01/g16/l202.exe)
                          Input orientation:                          
 ---------------------------------------------------------------------
 Center     Atomic      Atomic             Coordinates (Angstroms)
 Number     Number       Type             X           Y           Z
 ---------------------------------------------------------------------
      1          1           0        0.000000    0.000000    0.000000
      2          8           0        0.000000    0.000000    0.960263
      3          7           0        1.398463    0.000000    1.248033
      4          8           0        1.584195    0.000000    2.410086
 ---------------------------------------------------------------------
                    Distance matrix (angstroms):
                    1          2          3          4
     1  H    0.000000
     2  O    0.960263   0.000000
     3  N    1.874376   1.427764   0.000000
     4  O    2.884127   2.147478   1.176802   0.000000
 Stoichiometry    HNO2
 Framework group  CS[SG(HNO2)]
 Deg. of freedom     5
 Full point group                 CS      NOp   2
 Largest Abelian subgroup         CS      NOp   2
 Largest concise Abelian subgroup C1      NOp   1
                         Standard orientation:                         
 ---------------------------------------------------------------------
 Center     Atomic      Atomic             Coordinates (Angstroms)
 Number     Number       Type             X           Y           Z
 ---------------------------------------------------------------------
      1          1           0        1.751233   -0.147371    0.000000
      2          8           0        0.898458   -0.588822    0.000000
      3          7           0        0.000000    0.520810   -0.000000
      4          8           0       -1.117362    0.151534   -0.000000
 ---------------------------------------------------------------------
 Rotational constants (GHZ):          92.7715396          12.5738652          11.0730680
 Leave Link  202 at Mon Jan 31 11:39:03 2022, MaxMem= 16106127360 cpu:               1.9 elap:               0.1
 (Enter /sw/contrib/gaussian/g16/B01/g16/l301.exe)
 Standard basis: Aug-CC-pVTZ (5D, 7F)
 Ernie: Thresh=  0.10000D-02 Tol=  0.10000D-05 Strict=F.
 Ernie:  9 primitive shells out of 101 were deleted.
 There are   129 symmetry adapted cartesian basis functions of A'  symmetry.
 There are    61 symmetry adapted cartesian basis functions of A"  symmetry.
 There are   106 symmetry adapted basis functions of A'  symmetry.
 There are    55 symmetry adapted basis functions of A"  symmetry.
   161 basis functions,   243 primitive gaussians,   190 cartesian basis functions
    12 alpha electrons       12 beta electrons
       nuclear repulsion energy        69.5606545916 Hartrees.
 IExCor=    0 DFT=F Ex=HF Corr=None ExCW=0 ScaHFX=  1.000000
 ScaDFX=  1.000000  1.000000  1.000000  1.000000 ScalE2=  1.000000  1.000000
 IRadAn=      5 IRanWt=     -1 IRanGd=            0 ICorTp=0 IEmpDi=  4
 NAtoms=    4 NActive=    4 NUniq=    4 SFac= 1.00D+00 NAtFMM=   60 NAOKFM=F Big=F
 Integral buffers will be    131072 words long.
 Raffenetti 1 integral format.
 Two-electron integral symmetry is turned on.
 Leave Link  301 at Mon Jan 31 11:39:03 2022, MaxMem= 16106127360 cpu:               2.6 elap:               0.1
 (Enter /sw/contrib/gaussian/g16/B01/g16/l302.exe)
 NPDir=0 NMtPBC=     1 NCelOv=     1 NCel=       1 NClECP=     1 NCelD=      1
         NCelK=      1 NCelE2=     1 NClLst=     1 CellRange=     0.0.
 One-electron integrals computed using PRISM.
 One-electron integral symmetry used in STVInt
 NBasis=   161 RedAO= T EigKep=  1.97D-04  NBF=   106    55
 NBsUse=   161 1.00D-06 EigRej= -1.00D+00 NBFU=   106    55
 Leave Link  302 at Mon Jan 31 11:39:03 2022, MaxMem= 16106127360 cpu:               6.5 elap:               0.3
 (Enter /sw/contrib/gaussian/g16/B01/g16/l303.exe)
 DipDrv:  MaxL=1.
 Leave Link  303 at Mon Jan 31 11:39:04 2022, MaxMem= 16106127360 cpu:               3.5 elap:               0.2
 (Enter /sw/contrib/gaussian/g16/B01/g16/l401.exe)
 ExpMin= 2.53D-02 ExpMax= 1.53D+04 ExpMxC= 5.22D+02 IAcc=3 IRadAn=         5 AccDes= 0.00D+00
 Harris functional with IExCor=  205 and IRadAn=       5 diagonalized for initial guess.
 HarFok:  IExCor=  205 AccDes= 0.00D+00 IRadAn=         5 IDoV= 1 UseB2=F ITyADJ=14
 ICtDFT=  3500011 ScaDFX=  1.000000  1.000000  1.000000  1.000000
 FoFCou: FMM=F IPFlag=           0 FMFlag=      100000 FMFlg1=           0
         NFxFlg=           0 DoJE=T BraDBF=F KetDBF=T FulRan=T
         wScrn=  0.000000 ICntrl=       500 IOpCl=  0 I1Cent=   200000004 NGrid=           0
         NMat0=    1 NMatS0=      1 NMatT0=    0 NMatD0=    1 NMtDS0=    0 NMtDT0=    0
 Petite list used in FoFCou.
 Harris En= -204.818598910754    
 JPrj=0 DoOrth=F DoCkMO=F.
 Initial guess orbital symmetries:
       Occupied  (A') (A') (A') (A') (A') (A') (A') (A') (A") (A')
                 (A") (A')
       Virtual   (A") (A') (A') (A') (A') (A") (A') (A') (A') (A")
                 (A') (A") (A') (A') (A") (A') (A') (A') (A') (A')
                 (A") (A') (A") (A') (A') (A') (A") (A") (A') (A')
                 (A") (A') (A') (A") (A") (A') (A') (A') (A") (A')
                 (A') (A') (A") (A') (A") (A') (A') (A") (A') (A')
                 (A") (A') (A") (A') (A') (A") (A') (A") (A') (A")
                 (A') (A') (A") (A') (A') (A') (A") (A') (A") (A")
                 (A') (A') (A') (A") (A') (A") (A') (A') (A") (A")
                 (A') (A') (A') (A") (A') (A') (A") (A") (A') (A')
                 (A') (A') (A") (A') (A') (A") (A') (A") (A") (A')
                 (A") (A') (A') (A') (A') (A") (A') (A") (A') (A")
                 (A') (A') (A") (A') (A') (A") (A') (A") (A') (A')
                 (A') (A') (A") (A') (A") (A") (A') (A') (A") (A')
                 (A") (A") (A') (A") (A') (A") (A") (A') (A") (A')
                 (A') (A') (A') (A') (A') (A') (A') (A') (A')
 The electronic state of the initial guess is 1-A'.
 Leave Link  401 at Mon Jan 31 11:39:05 2022, MaxMem= 16106127360 cpu:              16.0 elap:               0.8
 (Enter /sw/contrib/gaussian/g16/B01/g16/l502.exe)
 Keep R1 ints in memory in symmetry-blocked form, NReq=128070121.
 FoFCou: FMM=F IPFlag=           0 FMFlag=           0 FMFlg1=           0
         NFxFlg=           0 DoJE=F BraDBF=F KetDBF=F FulRan=T
         wScrn=  0.000000 ICntrl=       600 IOpCl=  0 I1Cent=           0 NGrid=           0
         NMat0=    1 NMatS0=  13041 NMatT0=    0 NMatD0=    1 NMtDS0=    0 NMtDT0=    0
 Petite list used in FoFCou.
 Closed shell SCF:
 Using DIIS extrapolation, IDIIS=  1040.
 NGot= 16106127360 LenX= 16063019402 LenY= 16062982861
 Requested convergence on RMS density matrix=1.00D-08 within 128 cycles.
 Requested convergence on MAX density matrix=1.00D-06.
 Requested convergence on             energy=1.00D-06.
 No special actions if energy rises.

 Cycle   1  Pass 1  IDiag  1:
 E= -204.613388386529    
 DIIS: error= 2.97D-02 at cycle   1 NSaved=   1.
 NSaved= 1 IEnMin= 1 EnMin= -204.613388386529     IErMin= 1 ErrMin= 2.97D-02
 ErrMax= 2.97D-02  0.00D+00 EMaxC= 1.00D-01 BMatC= 3.56D-01 BMatP= 3.56D-01
 IDIUse=3 WtCom= 7.03D-01 WtEn= 2.97D-01
 Coeff-Com:  0.100D+01
 Coeff-En:   0.100D+01
 Coeff:      0.100D+01
 Gap=     0.509 Goal=   None    Shift=    0.000
 GapD=    0.509 DampG=2.000 DampE=0.500 DampFc=1.0000 IDamp=-1.
 RMSDP=2.06D-03 MaxDP=1.22D-01              OVMax= 1.03D-01

 Cycle   2  Pass 1  IDiag  1:
 E= -204.678414359482     Delta-E=       -0.065025972953 Rises=F Damp=F
 DIIS: error= 2.11D-02 at cycle   2 NSaved=   2.
 NSaved= 2 IEnMin= 2 EnMin= -204.678414359482     IErMin= 2 ErrMin= 2.11D-02
 ErrMax= 2.11D-02  0.00D+00 EMaxC= 1.00D-01 BMatC= 6.90D-02 BMatP= 3.56D-01
 IDIUse=3 WtCom= 7.89D-01 WtEn= 2.11D-01
 Coeff-Com:  0.235D+00 0.765D+00
 Coeff-En:   0.113D+00 0.887D+00
 Coeff:      0.210D+00 0.790D+00
 Gap=     0.511 Goal=   None    Shift=    0.000
 RMSDP=1.00D-03 MaxDP=3.65D-02 DE=-6.50D-02 OVMax= 8.83D-02

 Cycle   3  Pass 1  IDiag  1:
 E= -204.713095138256     Delta-E=       -0.034680778774 Rises=F Damp=F
 DIIS: error= 7.23D-03 at cycle   3 NSaved=   3.
 NSaved= 3 IEnMin= 3 EnMin= -204.713095138256     IErMin= 3 ErrMin= 7.23D-03
 ErrMax= 7.23D-03  0.00D+00 EMaxC= 1.00D-01 BMatC= 1.53D-02 BMatP= 6.90D-02
 IDIUse=3 WtCom= 9.28D-01 WtEn= 7.23D-02
 Coeff-Com: -0.361D-01 0.300D+00 0.736D+00
 Coeff-En:   0.000D+00 0.796D-01 0.920D+00
 Coeff:     -0.335D-01 0.284D+00 0.749D+00
 Gap=     0.494 Goal=   None    Shift=    0.000
 RMSDP=4.08D-04 MaxDP=2.24D-02 DE=-3.47D-02 OVMax= 2.64D-02

 Cycle   4  Pass 1  IDiag  1:
 E= -204.723221196370     Delta-E=       -0.010126058114 Rises=F Damp=F
 DIIS: error= 1.54D-03 at cycle   4 NSaved=   4.
 NSaved= 4 IEnMin= 4 EnMin= -204.723221196370     IErMin= 4 ErrMin= 1.54D-03
 ErrMax= 1.54D-03  0.00D+00 EMaxC= 1.00D-01 BMatC= 2.47D-04 BMatP= 1.53D-02
 IDIUse=3 WtCom= 9.85D-01 WtEn= 1.54D-02
 Coeff-Com: -0.768D-02 0.247D-01 0.125D+00 0.858D+00
 Coeff-En:   0.000D+00 0.000D+00 0.000D+00 0.100D+01
 Coeff:     -0.756D-02 0.243D-01 0.123D+00 0.861D+00
 Gap=     0.489 Goal=   None    Shift=    0.000
 RMSDP=8.29D-05 MaxDP=1.84D-03 DE=-1.01D-02 OVMax= 8.16D-03

 Cycle   5  Pass 1  IDiag  1:
 E= -204.723587564600     Delta-E=       -0.000366368230 Rises=F Damp=F
 DIIS: error= 1.05D-03 at cycle   5 NSaved=   5.
 NSaved= 5 IEnMin= 5 EnMin= -204.723587564600     IErMin= 5 ErrMin= 1.05D-03
 ErrMax= 1.05D-03  0.00D+00 EMaxC= 1.00D-01 BMatC= 6.24D-05 BMatP= 2.47D-04
 IDIUse=3 WtCom= 9.90D-01 WtEn= 1.05D-02
 Coeff-Com:  0.701D-02-0.716D-01-0.155D+00 0.215D+00 0.100D+01
 Coeff-En:   0.000D+00 0.000D+00 0.000D+00 0.000D+00 0.100D+01
 Coeff:      0.693D-02-0.708D-01-0.153D+00 0.213D+00 0.100D+01
 Gap=     0.489 Goal=   None    Shift=    0.000
 RMSDP=6.78D-05 MaxDP=1.64D-03 DE=-3.66D-04 OVMax= 8.90D-03

 Cycle   6  Pass 1  IDiag  1:
 E= -204.723760904546     Delta-E=       -0.000173339946 Rises=F Damp=F
 DIIS: error= 2.31D-04 at cycle   6 NSaved=   6.
 NSaved= 6 IEnMin= 6 EnMin= -204.723760904546     IErMin= 6 ErrMin= 2.31D-04
 ErrMax= 2.31D-04  0.00D+00 EMaxC= 1.00D-01 BMatC= 1.12D-05 BMatP= 6.24D-05
 IDIUse=3 WtCom= 9.98D-01 WtEn= 2.31D-03
 Coeff-Com:  0.583D-03 0.832D-03-0.281D-02-0.204D+00-0.766D-02 0.121D+01
 Coeff-En:   0.000D+00 0.000D+00 0.000D+00 0.000D+00 0.000D+00 0.100D+01
 Coeff:      0.582D-03 0.830D-03-0.281D-02-0.203D+00-0.764D-02 0.121D+01
 Gap=     0.491 Goal=   None    Shift=    0.000
 RMSDP=3.81D-05 MaxDP=7.12D-04 DE=-1.73D-04 OVMax= 4.05D-03

 Cycle   7  Pass 1  IDiag  1:
 E= -204.723799587601     Delta-E=       -0.000038683055 Rises=F Damp=F
 DIIS: error= 1.15D-04 at cycle   7 NSaved=   7.
 NSaved= 7 IEnMin= 7 EnMin= -204.723799587601     IErMin= 7 ErrMin= 1.15D-04
 ErrMax= 1.15D-04  0.00D+00 EMaxC= 1.00D-01 BMatC= 1.75D-06 BMatP= 1.12D-05
 IDIUse=3 WtCom= 9.99D-01 WtEn= 1.15D-03
 Coeff-Com: -0.122D-02 0.124D-01 0.315D-01-0.483D-01-0.136D+00-0.808D-01
 Coeff-Com:  0.122D+01
 Coeff-En:   0.000D+00 0.000D+00 0.000D+00 0.000D+00 0.000D+00 0.000D+00
 Coeff-En:   0.100D+01
 Coeff:     -0.122D-02 0.124D-01 0.315D-01-0.482D-01-0.135D+00-0.808D-01
 Coeff:      0.122D+01
 Gap=     0.490 Goal=   None    Shift=    0.000
 RMSDP=1.50D-05 MaxDP=3.26D-04 DE=-3.87D-05 OVMax= 1.77D-03

 Cycle   8  Pass 1  IDiag  1:
 E= -204.723805066882     Delta-E=       -0.000005479281 Rises=F Damp=F
 DIIS: error= 4.40D-05 at cycle   8 NSaved=   8.
 NSaved= 8 IEnMin= 8 EnMin= -204.723805066882     IErMin= 8 ErrMin= 4.40D-05
 ErrMax= 4.40D-05  0.00D+00 EMaxC= 1.00D-01 BMatC= 1.84D-07 BMatP= 1.75D-06
 IDIUse=1 WtCom= 1.00D+00 WtEn= 0.00D+00
 Coeff-Com: -0.370D-04-0.770D-03-0.636D-03 0.197D-01 0.253D-01-0.150D+00
 Coeff-Com: -0.133D+00 0.124D+01
 Coeff:     -0.370D-04-0.770D-03-0.636D-03 0.197D-01 0.253D-01-0.150D+00
 Coeff:     -0.133D+00 0.124D+01
 Gap=     0.490 Goal=   None    Shift=    0.000
 RMSDP=4.88D-06 MaxDP=9.79D-05 DE=-5.48D-06 OVMax= 4.72D-04

 Cycle   9  Pass 1  IDiag  1:
 E= -204.723805599162     Delta-E=       -0.000000532280 Rises=F Damp=F
 DIIS: error= 1.15D-05 at cycle   9 NSaved=   9.
 NSaved= 9 IEnMin= 9 EnMin= -204.723805599162     IErMin= 9 ErrMin= 1.15D-05
 ErrMax= 1.15D-05  0.00D+00 EMaxC= 1.00D-01 BMatC= 1.54D-08 BMatP= 1.84D-07
 IDIUse=1 WtCom= 1.00D+00 WtEn= 0.00D+00
 Coeff-Com:  0.107D-03-0.987D-03-0.242D-02-0.132D-02 0.118D-01 0.385D-01
 Coeff-Com: -0.866D-01-0.280D+00 0.132D+01
 Coeff:      0.107D-03-0.987D-03-0.242D-02-0.132D-02 0.118D-01 0.385D-01
 Coeff:     -0.866D-01-0.280D+00 0.132D+01
 Gap=     0.490 Goal=   None    Shift=    0.000
 RMSDP=1.28D-06 MaxDP=3.45D-05 DE=-5.32D-07 OVMax= 9.71D-05

 Cycle  10  Pass 1  IDiag  1:
 E= -204.723805640694     Delta-E=       -0.000000041532 Rises=F Damp=F
 DIIS: error= 2.74D-06 at cycle  10 NSaved=  10.
 NSaved=10 IEnMin=10 EnMin= -204.723805640694     IErMin=10 ErrMin= 2.74D-06
 ErrMax= 2.74D-06  0.00D+00 EMaxC= 1.00D-01 BMatC= 1.29D-09 BMatP= 1.54D-08
 IDIUse=1 WtCom= 1.00D+00 WtEn= 0.00D+00
 Coeff-Com: -0.263D-04 0.318D-03 0.803D-03-0.202D-02-0.450D-02 0.190D-02
 Coeff-Com:  0.382D-01-0.522D-01-0.282D+00 0.130D+01
 Coeff:     -0.263D-04 0.318D-03 0.803D-03-0.202D-02-0.450D-02 0.190D-02
 Coeff:      0.382D-01-0.522D-01-0.282D+00 0.130D+01
 Gap=     0.490 Goal=   None    Shift=    0.000
 RMSDP=3.37D-07 MaxDP=1.16D-05 DE=-4.15D-08 OVMax= 3.06D-05

 Cycle  11  Pass 1  IDiag  1:
 E= -204.723805644174     Delta-E=       -0.000000003480 Rises=F Damp=F
 DIIS: error= 1.13D-06 at cycle  11 NSaved=  11.
 NSaved=11 IEnMin=11 EnMin= -204.723805644174     IErMin=11 ErrMin= 1.13D-06
 ErrMax= 1.13D-06  0.00D+00 EMaxC= 1.00D-01 BMatC= 1.20D-10 BMatP= 1.29D-09
 IDIUse=1 WtCom= 1.00D+00 WtEn= 0.00D+00
 Coeff-Com: -0.446D-06-0.184D-04-0.466D-04 0.530D-03 0.109D-02-0.460D-02
 Coeff-Com: -0.558D-02 0.450D-01-0.187D-01-0.482D+00 0.146D+01
 Coeff:     -0.446D-06-0.184D-04-0.466D-04 0.530D-03 0.109D-02-0.460D-02
 Coeff:     -0.558D-02 0.450D-01-0.187D-01-0.482D+00 0.146D+01
 Gap=     0.490 Goal=   None    Shift=    0.000
 RMSDP=1.13D-07 MaxDP=4.23D-06 DE=-3.48D-09 OVMax= 1.10D-05

 Cycle  12  Pass 1  IDiag  1:
 E= -204.723805644551     Delta-E=       -0.000000000377 Rises=F Damp=F
 DIIS: error= 1.86D-07 at cycle  12 NSaved=  12.
 NSaved=12 IEnMin=12 EnMin= -204.723805644551     IErMin=12 ErrMin= 1.86D-07
 ErrMax= 1.86D-07  0.00D+00 EMaxC= 1.00D-01 BMatC= 6.74D-12 BMatP= 1.20D-10
 IDIUse=1 WtCom= 1.00D+00 WtEn= 0.00D+00
 Coeff-Com:  0.234D-05-0.225D-04-0.544D-04-0.571D-04 0.131D-03 0.160D-02
 Coeff-Com: -0.201D-02-0.122D-01 0.380D-01 0.403D-01-0.474D+00 0.141D+01
 Coeff:      0.234D-05-0.225D-04-0.544D-04-0.571D-04 0.131D-03 0.160D-02
 Coeff:     -0.201D-02-0.122D-01 0.380D-01 0.403D-01-0.474D+00 0.141D+01
 Gap=     0.490 Goal=   None    Shift=    0.000
 RMSDP=3.13D-08 MaxDP=7.19D-07 DE=-3.77D-10 OVMax= 2.58D-06

 Cycle  13  Pass 1  IDiag  1:
 E= -204.723805644573     Delta-E=       -0.000000000022 Rises=F Damp=F
 DIIS: error= 4.39D-08 at cycle  13 NSaved=  13.
 NSaved=13 IEnMin=13 EnMin= -204.723805644573     IErMin=13 ErrMin= 4.39D-08
 ErrMax= 4.39D-08  0.00D+00 EMaxC= 1.00D-01 BMatC= 2.06D-13 BMatP= 6.74D-12
 IDIUse=1 WtCom= 1.00D+00 WtEn= 0.00D+00
 Coeff-Com: -0.437D-06 0.558D-05 0.136D-04-0.211D-04-0.857D-04-0.621D-04
 Coeff-Com:  0.747D-03-0.245D-03-0.522D-02 0.121D-01 0.262D-01-0.297D+00
 Coeff-Com:  0.126D+01
 Coeff:     -0.437D-06 0.558D-05 0.136D-04-0.211D-04-0.857D-04-0.621D-04
 Coeff:      0.747D-03-0.245D-03-0.522D-02 0.121D-01 0.262D-01-0.297D+00
 Coeff:      0.126D+01
 Gap=     0.490 Goal=   None    Shift=    0.000
 RMSDP=5.41D-09 MaxDP=9.15D-08 DE=-2.16D-11 OVMax= 4.15D-07

 SCF Done:  E(RHF) =  -204.723805645     A.U. after   13 cycles
            NFock= 13  Conv=0.54D-08     -V/T= 2.0023
 KE= 2.042592805740D+02 PE=-6.230698479286D+02 EE= 1.445261071184D+02
 Leave Link  502 at Mon Jan 31 11:39:07 2022, MaxMem= 16106127360 cpu:              37.0 elap:               1.8
 (Enter /sw/contrib/gaussian/g16/B01/g16/l801.exe)
 ExpMin= 2.53D-02 ExpMax= 1.53D+04 ExpMxC= 5.22D+02 IAcc=3 IRadAn=         5 AccDes= 0.00D+00
 HarFok:  IExCor=  205 AccDes= 0.00D+00 IRadAn=         5 IDoV=-2 UseB2=F ITyADJ=14
 ICtDFT= 12500011 ScaDFX=  1.000000  1.000000  1.000000  1.000000
 Largest valence mixing into a core orbital is  2.06D-04
 Largest core mixing into a valence orbital is  3.28D-05
 Range of M.O.s used for correlation:     4   161
 NBasis=   161 NAE=    12 NBE=    12 NFC=     3 NFV=     0
 NROrb=    158 NOA=     9 NOB=     9 NVA=   149 NVB=   149

 **** Warning!!: The largest alpha MO coefficient is  0.19529234D+02

 Leave Link  801 at Mon Jan 31 11:39:07 2022, MaxMem= 16106127360 cpu:               4.5 elap:               0.2
 (Enter /sw/contrib/gaussian/g16/B01/g16/l906.exe)
 Frozen-core derivative calculation, NFC=   3 NFV=   0.
 FulOut=F Deriv=T AODrv=F NAtomX=     4
   MMem=         161  MDisk=           9 MDiskD=           9
  W3Min=      367080 MinDsk=      792425 NBas6D=         190
 NBas2D=       18625    NTT=       18145    LW2=     3500000
    MDV= 16105788715 MDiskM=      423783 NBas2p=       18621
 Fully in-core method, ICMem=   359292905.
 IMap=   1   2   3   4   5   6   7   8   9  10  11  12
 JobTyp=1 Pass  1 fully in-core, NPsUse= 28.
 Compute canonical integrals.
 FoFCou: FMM=F IPFlag=           0 FMFlag=           0 FMFlg1=           0
         NFxFlg=           0 DoJE=F BraDBF=F KetDBF=F FulRan=T
         wScrn=  0.000000 ICntrl=       600 IOpCl=  1 I1Cent=           0 NGrid=           0
         NMat0=    1 NMatS0=  18625 NMatT0=    0 NMatD0=    1 NMtDS0=    0 NMtDT0=    0
 Symmetry not used in FoFCou.
 Spin components of T(2) and E(2):
     alpha-alpha T2 =       0.2526449947D-01 E2=     -0.9058966698D-01
     alpha-beta  T2 =       0.1371809173D+00 E2=     -0.5162770472D+00
     beta-beta   T2 =       0.2526449947D-01 E2=     -0.9058966698D-01
 The integrals were generated   1 times.
 ANorm=    0.1089821048D+01
 E2 =    -0.6974563811D+00 EUMP2 =    -0.20542126202569D+03
 Leave Link  906 at Mon Jan 31 11:39:11 2022, MaxMem= 16106127360 cpu:              99.3 elap:               3.7
 (Enter /sw/contrib/gaussian/g16/B01/g16/l1002.exe)
 Minotr:  Closed shell wavefunction.
          Computing MP2/KS-MP2 derivatives.
          Using Z-Vector for PSCF gradient.
          Skipping F1 and S1 gradient terms here.
          Frozen-core window.
          Direct CPHF calculation.
          Differentiating once with respect to electric field.
                with respect to dipole field.
          Electric field/nuclear overlap derivatives assumed to be zero.
          Using symmetry in CPHF.
          Requested convergence is 1.0D-10 RMS, and 1.0D-09 maximum.
          NewPWx=F KeepS1=T KeepF1=T KeepIn=T MapXYZ=F SortEE=F KeepMc=T.
 Keep R1 ints in memory in symmetry-blocked form, NReq=128071053.
 FoFCou: FMM=F IPFlag=           0 FMFlag=           0 FMFlg1=           0
         NFxFlg=           0 DoJE=F BraDBF=F KetDBF=F FulRan=T
         wScrn=  0.000000 ICntrl=       600 IOpCl=  0 I1Cent=           0 NGrid=           0
         NMat0=    1 NMatS0=  13041 NMatT0=    0 NMatD0=    1 NMtDS0=    0 NMtDT0=    0
 Petite list used in FoFCou.
          MDV=   16106127360 using IRadAn=       5.
          Solving linear equations separately, MaxMat=       0.
          There are     1 degrees of freedom in the 1st order CPHF.  IDoFFX=0 NUNeed=     1.
 LinEq1:  Iter=  0 NonCon=     1 RMS=6.62D-03 Max=1.32D-01 NDo=     1
 AX will form     1 AO Fock derivatives at one time.
 LinEq1:  Iter=  1 NonCon=     1 RMS=2.26D-03 Max=4.06D-02 NDo=     1
 LinEq1:  Iter=  2 NonCon=     1 RMS=9.14D-04 Max=1.19D-02 NDo=     1
 LinEq1:  Iter=  3 NonCon=     1 RMS=4.40D-04 Max=8.65D-03 NDo=     1
 LinEq1:  Iter=  4 NonCon=     1 RMS=1.37D-04 Max=1.54D-03 NDo=     1
 LinEq1:  Iter=  5 NonCon=     1 RMS=6.12D-05 Max=9.91D-04 NDo=     1
 LinEq1:  Iter=  6 NonCon=     1 RMS=2.31D-05 Max=2.68D-04 NDo=     1
 LinEq1:  Iter=  7 NonCon=     1 RMS=5.87D-06 Max=6.05D-05 NDo=     1
 LinEq1:  Iter=  8 NonCon=     1 RMS=1.42D-06 Max=1.65D-05 NDo=     1
 LinEq1:  Iter=  9 NonCon=     1 RMS=2.63D-07 Max=1.95D-06 NDo=     1
 LinEq1:  Iter= 10 NonCon=     1 RMS=4.85D-08 Max=3.93D-07 NDo=     1
 LinEq1:  Iter= 11 NonCon=     1 RMS=7.90D-09 Max=8.19D-08 NDo=     1
 LinEq1:  Iter= 12 NonCon=     1 RMS=1.06D-09 Max=6.76D-09 NDo=     1
 LinEq1:  Iter= 13 NonCon=     1 RMS=2.22D-10 Max=2.29D-09 NDo=     1
 LinEq1:  Iter= 14 NonCon=     0 RMS=4.25D-11 Max=3.63D-10 NDo=     1
 Linear equations converged to 1.000D-10 1.000D-09 after    14 iterations.
 End of Minotr F.D. properties file   721 does not exist.
 End of Minotr F.D. properties file   722 does not exist.
 End of Minotr F.D. properties file   788 does not exist.
 Leave Link 1002 at Mon Jan 31 11:39:14 2022, MaxMem= 16106127360 cpu:              39.0 elap:               2.1
 (Enter /sw/contrib/gaussian/g16/B01/g16/l601.exe)
 Copying SCF densities to generalized density rwf, IOpCl= 0 IROHF=0.

 **********************************************************************

            Population analysis using the MP2 Density.

 **********************************************************************

 Orbital symmetries:
       Occupied  (A') (A') (A') (A') (A') (A') (A') (A') (A") (A')
                 (A") (A')
       Virtual   (A') (A") (A') (A') (A") (A') (A') (A') (A") (A')
                 (A") (A') (A') (A") (A') (A') (A') (A') (A') (A")
                 (A') (A') (A") (A') (A') (A') (A") (A") (A') (A')
                 (A') (A") (A") (A') (A") (A') (A') (A") (A') (A')
                 (A') (A') (A') (A") (A") (A') (A') (A") (A') (A')
                 (A") (A') (A") (A') (A') (A") (A') (A") (A') (A")
                 (A') (A') (A") (A') (A') (A") (A') (A') (A") (A")
                 (A') (A') (A') (A") (A') (A") (A') (A') (A") (A')
                 (A") (A') (A') (A") (A') (A") (A') (A") (A') (A')
                 (A') (A') (A') (A") (A') (A") (A') (A") (A') (A")
                 (A') (A") (A') (A') (A') (A") (A') (A") (A") (A')
                 (A') (A") (A') (A') (A') (A") (A') (A") (A') (A')
                 (A') (A') (A") (A') (A") (A") (A') (A') (A") (A')
                 (A") (A") (A') (A") (A') (A") (A') (A") (A") (A')
                 (A') (A') (A') (A') (A') (A') (A') (A') (A')
 The electronic state is 1-A'.
 Alpha  occ. eigenvalues --  -20.66553 -20.64156 -15.79900  -1.60316  -1.40490
 Alpha  occ. eigenvalues --   -0.94957  -0.78578  -0.73010  -0.68181  -0.62679
 Alpha  occ. eigenvalues --   -0.52895  -0.46204
 Alpha virt. eigenvalues --    0.02817   0.08027   0.09391   0.09750   0.12882
 Alpha virt. eigenvalues --    0.14427   0.15682   0.17215   0.18707   0.19652
 Alpha virt. eigenvalues --    0.20555   0.23354   0.25856   0.29673   0.30767
 Alpha virt. eigenvalues --    0.32976   0.36539   0.38290   0.42652   0.52516
 Alpha virt. eigenvalues --    0.52628   0.54806   0.57329   0.61273   0.63118
 Alpha virt. eigenvalues --    0.64898   0.68014   0.71448   0.71818   0.74819
 Alpha virt. eigenvalues --    0.77498   0.78143   0.81135   0.81168   0.86123
 Alpha virt. eigenvalues --    0.87914   0.92720   0.93940   0.94562   0.99625
 Alpha virt. eigenvalues --    1.05029   1.06480   1.08219   1.10672   1.16160
 Alpha virt. eigenvalues --    1.19610   1.25209   1.26879   1.36292   1.43481
 Alpha virt. eigenvalues --    1.49199   1.52266   1.52425   1.54475   1.55595
 Alpha virt. eigenvalues --    1.61025   1.65810   1.72939   1.75393   1.82241
 Alpha virt. eigenvalues --    1.85620   1.96474   1.97665   1.99907   2.07592
 Alpha virt. eigenvalues --    2.13281   2.13366   2.19025   2.27172   2.31029
 Alpha virt. eigenvalues --    2.32933   2.38173   2.45206   2.46893   2.49772
 Alpha virt. eigenvalues --    2.50242   2.52189   2.54616   2.57072   2.60612
 Alpha virt. eigenvalues --    2.60837   2.66356   2.76980   2.77877   2.83478
 Alpha virt. eigenvalues --    2.93880   2.95080   3.11610   3.14801   3.18195
 Alpha virt. eigenvalues --    3.24827   3.46341   3.84379   3.85531   4.03192
 Alpha virt. eigenvalues --    4.17913   4.18466   4.21630   4.37274   4.37628
 Alpha virt. eigenvalues --    4.58398   4.63433   4.75924   4.81939   4.87528
 Alpha virt. eigenvalues --    4.88801   4.98752   5.00286   5.07578   5.09760
 Alpha virt. eigenvalues --    5.17802   5.25371   5.25948   5.34187   5.38531
 Alpha virt. eigenvalues --    5.38722   5.58346   5.66758   5.79879   5.99008
 Alpha virt. eigenvalues --    6.11749   6.43591   6.50716   6.51053   6.67443
 Alpha virt. eigenvalues --    6.71712   6.74574   6.84939   6.91644   7.07688
 Alpha virt. eigenvalues --    7.11895   7.19780   7.23603   7.26128   7.26708
 Alpha virt. eigenvalues --    7.33147   7.38477   7.43332   7.47865   7.61026
 Alpha virt. eigenvalues --    7.65217   7.70589   7.79428   7.98844   8.07400
 Alpha virt. eigenvalues --    8.44072  14.23759  15.24321  15.98550
          Condensed to atoms (all electrons):
               1          2          3          4
     1  H    0.596789   0.171104  -0.045146   0.012971
     2  O    0.171104   8.286396  -0.136781  -0.057595
     3  N   -0.045146  -0.136781   7.043962  -0.042027
     4  O    0.012971  -0.057595  -0.042027   8.267802
 Mulliken charges:
               1
     1  H    0.264283
     2  O   -0.263124
     3  N    0.179992
     4  O   -0.181151
 Sum of Mulliken charges =  -0.00000
 Mulliken charges with hydrogens summed into heavy atoms:
               1
     2  O    0.001158
     3  N    0.179992
     4  O   -0.181151
 Electronic spatial extent (au):  <R**2>=            123.3959
 Charge=             -0.0000 electrons
 Dipole moment (field-independent basis, Debye):
    X=              1.7422    Y=              0.6548    Z=             -0.0000  Tot=              1.8612
 Quadrupole moment (field-independent basis, Debye-Ang):
   XX=            -13.6861   YY=            -18.6884   ZZ=            -16.4449
   XY=              0.5741   XZ=              0.0000   YZ=              0.0000
 Traceless Quadrupole moment (field-independent basis, Debye-Ang):
   XX=              2.5870   YY=             -2.4153   ZZ=             -0.1717
   XY=              0.5741   XZ=              0.0000   YZ=              0.0000
 Octapole moment (field-independent basis, Debye-Ang**2):
  XXX=             10.0585  YYY=             -1.0285  ZZZ=             -0.0000  XYY=             -0.9589
  XXY=             -0.3635  XXZ=              0.0000  XZZ=             -0.9903  YZZ=              0.2053
  YYZ=              0.0000  XYZ=             -0.0000
 Hexadecapole moment (field-independent basis, Debye-Ang**3):
 XXXX=            -71.7190 YYYY=            -39.4330 ZZZZ=            -13.9040 XXXY=             12.0124
 XXXZ=              0.0000 YYYX=             11.8228 YYYZ=              0.0000 ZZZX=             -0.0000
 ZZZY=              0.0000 XXYY=            -22.1522 XXZZ=            -17.4249 YYZZ=             -8.7219
 XXYZ=             -0.0000 YYXZ=              0.0000 ZZXY=              4.1801
 N-N= 6.956065459162D+01 E-N=-6.236686312349D+02  KE= 2.052563111614D+02
 Symmetry A'   KE= 1.964301480574D+02
 Symmetry A"   KE= 8.826163103981D+00
 No NMR shielding tensors so no spin-rotation constants.
 Leave Link  601 at Mon Jan 31 11:39:14 2022, MaxMem= 16106127360 cpu:               5.8 elap:               0.3
 (Enter /sw/contrib/gaussian/g16/B01/g16/l9999.exe)
 1\1\GINC-N2207\SP\RMP2-FC\Aug-CC-pVTZ\H1N1O2\CGAVINH\31-Jan-2022\0\\#p
  SP mp2/aug-cc-pvtz density=current\\title\\0,1\H\O,1,0.96026274\N,2,1
 .42776435,1,101.62778541\O,3,1.17680217,2,110.70859147,1,180.,0\\Versi
 on=ES64L-G16RevB.01\State=1-A'\HF=-204.7238056\MP2=-205.421262\RMSD=5.
 413e-09\Dipole=-0.0863429,0.,-0.7271392\Quadrupole=-1.3582254,-0.12768
 34,1.4859089,0.,1.2719289,0.\PG=CS [SG(H1N1O2)]\\@


 EDUCATION DOESN'T COST 
           ... IT PAYS!

 -- POSTMARK, UNIV. OF MISSISSIPPI, DEC 78
 Job cpu time:       0 days  0 hours  3 minutes 42.9 seconds.
 Elapsed time:       0 days  0 hours  0 minutes 10.0 seconds.
 File lengths (MBytes):  RWF=     16 Int=      0 D2E=      0 Chk=      8 Scr=      1
 Normal termination of Gaussian 16 at Mon Jan 31 11:39:14 2022.
