 Entering Gaussian System, Link 0=g16
 Input=hono_r2_p_02.gjf
 Output=hono_r2_p_02.log
 Initial command:
 /sw/contrib/gaussian/g16/B01/g16/l1.exe "/scr/Gau-17745.inp" -scrdir="/scr/"
 Entering Link 1 = /sw/contrib/gaussian/g16/B01/g16/l1.exe PID=     17746.
  
 Copyright (c) 1988-2017, Gaussian, Inc.  All Rights Reserved.
  
 This is part of the Gaussian(R) 16 program.  It is based on
 the Gaussian(R) 09 system (copyright 2009, Gaussian, Inc.),
 the Gaussian(R) 03 system (copyright 2003, Gaussian, Inc.),
 the Gaussian(R) 98 system (copyright 1998, Gaussian, Inc.),
 the Gaussian(R) 94 system (copyright 1995, Gaussian, Inc.),
 the Gaussian 92(TM) system (copyright 1992, Gaussian, Inc.),
 the Gaussian 90(TM) system (copyright 1990, Gaussian, Inc.),
 the Gaussian 88(TM) system (copyright 1988, Gaussian, Inc.),
 the Gaussian 86(TM) system (copyright 1986, Carnegie Mellon
 University), and the Gaussian 82(TM) system (copyright 1983,
 Carnegie Mellon University). Gaussian is a federally registered
 trademark of Gaussian, Inc.
  
 This software contains proprietary and confidential information,
 including trade secrets, belonging to Gaussian, Inc.
  
 This software is provided under written license and may be
 used, copied, transmitted, or stored only in accord with that
 written license.
  
 The following legend is applicable only to US Government
 contracts under FAR:
  
                    RESTRICTED RIGHTS LEGEND
  
 Use, reproduction and disclosure by the US Government is
 subject to restrictions as set forth in subparagraphs (a)
 and (c) of the Commercial Computer Software - Restricted
 Rights clause in FAR 52.227-19.
  
 Gaussian, Inc.
 340 Quinnipiac St., Bldg. 40, Wallingford CT 06492
  
  
 ---------------------------------------------------------------
 Warning -- This program may not be used in any manner that
 competes with the business of Gaussian, Inc. or will provide
 assistance to any competitor of Gaussian, Inc.  The licensee
 of this program is prohibited from giving any competitor of
 Gaussian, Inc. access to this program.  By using this program,
 the user acknowledges that Gaussian, Inc. is engaged in the
 business of creating and licensing software in the field of
 computational chemistry and represents and warrants to the
 licensee that it is not a competitor of Gaussian, Inc. and that
 it will not use this program in any manner prohibited above.
 ---------------------------------------------------------------
  

 Cite this work as:
 Gaussian 16, Revision B.01,
 M. J. Frisch, G. W. Trucks, H. B. Schlegel, G. E. Scuseria, 
 M. A. Robb, J. R. Cheeseman, G. Scalmani, V. Barone, 
 G. A. Petersson, H. Nakatsuji, X. Li, M. Caricato, A. V. Marenich, 
 J. Bloino, B. G. Janesko, R. Gomperts, B. Mennucci, H. P. Hratchian, 
 J. V. Ortiz, A. F. Izmaylov, J. L. Sonnenberg, D. Williams-Young, 
 F. Ding, F. Lipparini, F. Egidi, J. Goings, B. Peng, A. Petrone, 
 T. Henderson, D. Ranasinghe, V. G. Zakrzewski, J. Gao, N. Rega, 
 G. Zheng, W. Liang, M. Hada, M. Ehara, K. Toyota, R. Fukuda, 
 J. Hasegawa, M. Ishida, T. Nakajima, Y. Honda, O. Kitao, H. Nakai, 
 T. Vreven, K. Throssell, J. A. Montgomery, Jr., J. E. Peralta, 
 F. Ogliaro, M. J. Bearpark, J. J. Heyd, E. N. Brothers, K. N. Kudin, 
 V. N. Staroverov, T. A. Keith, R. Kobayashi, J. Normand, 
 K. Raghavachari, A. P. Rendell, J. C. Burant, S. S. Iyengar, 
 J. Tomasi, M. Cossi, J. M. Millam, M. Klene, C. Adamo, R. Cammi, 
 J. W. Ochterski, R. L. Martin, K. Morokuma, O. Farkas, 
 J. B. Foresman, and D. J. Fox, Gaussian, Inc., Wallingford CT, 2016.
 
 ******************************************
 Gaussian 16:  ES64L-G16RevB.01 20-Dec-2017
                31-Jan-2022 
 ******************************************
 %nproc=28
 Will use up to   28 processors via shared memory.
 %mem=120GB
 %chk=/gscratch/ilahie/mccoygrp/coire_hoono/hono/hono_r2_p_02.chk
 -------------------------------------
 #p SP mp2/aug-cc-pvtz density=current
 -------------------------------------
 1/30=1,38=1,172=1/1;
 2/12=2,17=6,18=5,40=1/2;
 3/5=16,6=1,7=10,11=9,25=1,30=1,71=1/1,2,3;
 4//1;
 5/5=2,38=5/2;
 8/6=4,10=1/1;
 9/15=1,16=-3/6;
 10/5=1,13=10/2;
 6/7=2,8=2,9=2,10=2,22=-1/1;
 99/5=1,9=1/99;
 Leave Link    1 at Mon Jan 31 11:55:32 2022, MaxMem= 16106127360 cpu:               3.3 elap:               0.1
 (Enter /sw/contrib/gaussian/g16/B01/g16/l101.exe)
 -----
 title
 -----
 Symbolic Z-matrix:
 Charge =  0 Multiplicity = 1
 H
 O                    1    r1
 N                    2    r2       1    a1
 O                    3    r3       2    a2       1    d1       0
       Variables:
  r1                    0.97026                  
  r2                    1.44776                  
  r3                    1.1768                   
  a1                  101.62779                  
  a2                  110.70859                  
  d1                  180.                       
 
 ITRead=  0  0  0  0
 MicOpt= -1 -1 -1 -1
 NAtoms=      4 NQM=        4 NQMF=       0 NMMI=      0 NMMIF=      0
                NMic=       0 NMicF=      0.
                    Isotopes and Nuclear Properties:
 (Nuclear quadrupole moments (NQMom) in fm**2, nuclear magnetic moments (NMagM)
  in nuclear magnetons)

  Atom         1           2           3           4
 IAtWgt=           1          16          14          16
 AtmWgt=   1.0078250  15.9949146  14.0030740  15.9949146
 NucSpn=           1           0           2           0
 AtZEff=  -0.0000000  -0.0000000  -0.0000000  -0.0000000
 NQMom=    0.0000000   0.0000000   2.0440000   0.0000000
 NMagM=    2.7928460   0.0000000   0.4037610   0.0000000
 AtZNuc=   1.0000000   8.0000000   7.0000000   8.0000000
 Leave Link  101 at Mon Jan 31 11:55:33 2022, MaxMem= 16106127360 cpu:               3.1 elap:               0.1
 (Enter /sw/contrib/gaussian/g16/B01/g16/l202.exe)
                          Input orientation:                          
 ---------------------------------------------------------------------
 Center     Atomic      Atomic             Coordinates (Angstroms)
 Number     Number       Type             X           Y           Z
 ---------------------------------------------------------------------
      1          1           0        0.000000    0.000000    0.000000
      2          8           0        0.000000    0.000000    0.970263
      3          7           0        1.418053    0.000000    1.262064
      4          8           0        1.603784    0.000000    2.424117
 ---------------------------------------------------------------------
                    Distance matrix (angstroms):
                    1          2          3          4
     1  H    0.000000
     2  O    0.970263   0.000000
     3  N    1.898336   1.447764   0.000000
     4  O    2.906625   2.164675   1.176802   0.000000
 Stoichiometry    HNO2
 Framework group  CS[SG(HNO2)]
 Deg. of freedom     5
 Full point group                 CS      NOp   2
 Largest Abelian subgroup         CS      NOp   2
 Largest concise Abelian subgroup C1      NOp   1
                         Standard orientation:                         
 ---------------------------------------------------------------------
 Center     Atomic      Atomic             Coordinates (Angstroms)
 Number     Number       Type             X           Y           Z
 ---------------------------------------------------------------------
      1          1           0        1.766051   -0.169761   -0.000000
      2          8           0        0.900124   -0.607459   -0.000000
      3          7           0        0.000000    0.526472    0.000000
      4          8           0       -1.120880    0.168015    0.000000
 ---------------------------------------------------------------------
 Rotational constants (GHZ):          91.5931657          12.3628370          10.8926022
 Leave Link  202 at Mon Jan 31 11:55:33 2022, MaxMem= 16106127360 cpu:               0.9 elap:               0.1
 (Enter /sw/contrib/gaussian/g16/B01/g16/l301.exe)
 Standard basis: Aug-CC-pVTZ (5D, 7F)
 Ernie: Thresh=  0.10000D-02 Tol=  0.10000D-05 Strict=F.
 Ernie:  9 primitive shells out of 101 were deleted.
 There are   129 symmetry adapted cartesian basis functions of A'  symmetry.
 There are    61 symmetry adapted cartesian basis functions of A"  symmetry.
 There are   106 symmetry adapted basis functions of A'  symmetry.
 There are    55 symmetry adapted basis functions of A"  symmetry.
   161 basis functions,   243 primitive gaussians,   190 cartesian basis functions
    12 alpha electrons       12 beta electrons
       nuclear repulsion energy        69.0668995579 Hartrees.
 IExCor=    0 DFT=F Ex=HF Corr=None ExCW=0 ScaHFX=  1.000000
 ScaDFX=  1.000000  1.000000  1.000000  1.000000 ScalE2=  1.000000  1.000000
 IRadAn=      5 IRanWt=     -1 IRanGd=            0 ICorTp=0 IEmpDi=  4
 NAtoms=    4 NActive=    4 NUniq=    4 SFac= 1.00D+00 NAtFMM=   60 NAOKFM=F Big=F
 Integral buffers will be    131072 words long.
 Raffenetti 1 integral format.
 Two-electron integral symmetry is turned on.
 Leave Link  301 at Mon Jan 31 11:55:33 2022, MaxMem= 16106127360 cpu:               1.4 elap:               0.1
 (Enter /sw/contrib/gaussian/g16/B01/g16/l302.exe)
 NPDir=0 NMtPBC=     1 NCelOv=     1 NCel=       1 NClECP=     1 NCelD=      1
         NCelK=      1 NCelE2=     1 NClLst=     1 CellRange=     0.0.
 One-electron integrals computed using PRISM.
 One-electron integral symmetry used in STVInt
 NBasis=   161 RedAO= T EigKep=  2.00D-04  NBF=   106    55
 NBsUse=   161 1.00D-06 EigRej= -1.00D+00 NBFU=   106    55
 Leave Link  302 at Mon Jan 31 11:55:33 2022, MaxMem= 16106127360 cpu:               5.4 elap:               0.2
 (Enter /sw/contrib/gaussian/g16/B01/g16/l303.exe)
 DipDrv:  MaxL=1.
 Leave Link  303 at Mon Jan 31 11:55:33 2022, MaxMem= 16106127360 cpu:               1.4 elap:               0.1
 (Enter /sw/contrib/gaussian/g16/B01/g16/l401.exe)
 ExpMin= 2.53D-02 ExpMax= 1.53D+04 ExpMxC= 5.22D+02 IAcc=3 IRadAn=         5 AccDes= 0.00D+00
 Harris functional with IExCor=  205 and IRadAn=       5 diagonalized for initial guess.
 HarFok:  IExCor=  205 AccDes= 0.00D+00 IRadAn=         5 IDoV= 1 UseB2=F ITyADJ=14
 ICtDFT=  3500011 ScaDFX=  1.000000  1.000000  1.000000  1.000000
 FoFCou: FMM=F IPFlag=           0 FMFlag=      100000 FMFlg1=           0
         NFxFlg=           0 DoJE=T BraDBF=F KetDBF=T FulRan=T
         wScrn=  0.000000 ICntrl=       500 IOpCl=  0 I1Cent=   200000004 NGrid=           0
         NMat0=    1 NMatS0=      1 NMatT0=    0 NMatD0=    1 NMtDS0=    0 NMtDT0=    0
 Petite list used in FoFCou.
 Harris En= -204.818416885358    
 JPrj=0 DoOrth=F DoCkMO=F.
 Initial guess orbital symmetries:
       Occupied  (A') (A') (A') (A') (A') (A') (A') (A') (A") (A')
                 (A") (A')
       Virtual   (A") (A') (A') (A') (A') (A") (A') (A') (A') (A")
                 (A') (A") (A') (A') (A") (A') (A') (A') (A') (A')
                 (A") (A') (A") (A') (A') (A') (A") (A") (A') (A')
                 (A") (A') (A') (A") (A") (A') (A') (A') (A") (A')
                 (A') (A') (A") (A') (A") (A') (A') (A") (A') (A')
                 (A") (A') (A") (A') (A') (A") (A') (A") (A') (A")
                 (A') (A') (A") (A') (A') (A') (A") (A') (A") (A")
                 (A') (A') (A') (A") (A') (A") (A') (A') (A") (A")
                 (A') (A') (A') (A") (A') (A') (A") (A") (A') (A')
                 (A') (A') (A") (A') (A') (A") (A') (A") (A') (A")
                 (A") (A') (A') (A') (A') (A") (A') (A") (A') (A")
                 (A') (A') (A") (A') (A') (A") (A') (A") (A') (A')
                 (A') (A') (A") (A') (A") (A") (A') (A') (A") (A')
                 (A") (A") (A') (A") (A') (A") (A") (A') (A") (A')
                 (A') (A') (A') (A') (A') (A') (A') (A') (A')
 The electronic state of the initial guess is 1-A'.
 Leave Link  401 at Mon Jan 31 11:55:33 2022, MaxMem= 16106127360 cpu:               5.7 elap:               0.3
 (Enter /sw/contrib/gaussian/g16/B01/g16/l502.exe)
 Keep R1 ints in memory in symmetry-blocked form, NReq=128070121.
 FoFCou: FMM=F IPFlag=           0 FMFlag=           0 FMFlg1=           0
         NFxFlg=           0 DoJE=F BraDBF=F KetDBF=F FulRan=T
         wScrn=  0.000000 ICntrl=       600 IOpCl=  0 I1Cent=           0 NGrid=           0
         NMat0=    1 NMatS0=  13041 NMatT0=    0 NMatD0=    1 NMtDS0=    0 NMtDT0=    0
 Petite list used in FoFCou.
 Closed shell SCF:
 Using DIIS extrapolation, IDIIS=  1040.
 NGot= 16106127360 LenX= 16063019402 LenY= 16062982861
 Requested convergence on RMS density matrix=1.00D-08 within 128 cycles.
 Requested convergence on MAX density matrix=1.00D-06.
 Requested convergence on             energy=1.00D-06.
 No special actions if energy rises.

 Cycle   1  Pass 1  IDiag  1:
 E= -204.609688132668    
 DIIS: error= 3.48D-02 at cycle   1 NSaved=   1.
 NSaved= 1 IEnMin= 1 EnMin= -204.609688132668     IErMin= 1 ErrMin= 3.48D-02
 ErrMax= 3.48D-02  0.00D+00 EMaxC= 1.00D-01 BMatC= 3.57D-01 BMatP= 3.57D-01
 IDIUse=3 WtCom= 6.52D-01 WtEn= 3.48D-01
 Coeff-Com:  0.100D+01
 Coeff-En:   0.100D+01
 Coeff:      0.100D+01
 Gap=     0.503 Goal=   None    Shift=    0.000
 GapD=    0.503 DampG=2.000 DampE=0.500 DampFc=1.0000 IDamp=-1.
 RMSDP=2.07D-03 MaxDP=1.23D-01              OVMax= 1.04D-01

 Cycle   2  Pass 1  IDiag  1:
 E= -204.673824250081     Delta-E=       -0.064136117413 Rises=F Damp=F
 DIIS: error= 2.18D-02 at cycle   2 NSaved=   2.
 NSaved= 2 IEnMin= 2 EnMin= -204.673824250081     IErMin= 2 ErrMin= 2.18D-02
 ErrMax= 2.18D-02  0.00D+00 EMaxC= 1.00D-01 BMatC= 7.17D-02 BMatP= 3.57D-01
 IDIUse=3 WtCom= 7.82D-01 WtEn= 2.18D-01
 Coeff-Com:  0.241D+00 0.759D+00
 Coeff-En:   0.135D+00 0.865D+00
 Coeff:      0.218D+00 0.782D+00
 Gap=     0.510 Goal=   None    Shift=    0.000
 RMSDP=1.02D-03 MaxDP=3.73D-02 DE=-6.41D-02 OVMax= 8.87D-02

 Cycle   3  Pass 1  IDiag  1:
 E= -204.710552802893     Delta-E=       -0.036728552813 Rises=F Damp=F
 DIIS: error= 7.24D-03 at cycle   3 NSaved=   3.
 NSaved= 3 IEnMin= 3 EnMin= -204.710552802893     IErMin= 3 ErrMin= 7.24D-03
 ErrMax= 7.24D-03  0.00D+00 EMaxC= 1.00D-01 BMatC= 1.53D-02 BMatP= 7.17D-02
 IDIUse=3 WtCom= 9.28D-01 WtEn= 7.24D-02
 Coeff-Com: -0.369D-01 0.296D+00 0.741D+00
 Coeff-En:   0.000D+00 0.719D-01 0.928D+00
 Coeff:     -0.342D-01 0.280D+00 0.755D+00
 Gap=     0.493 Goal=   None    Shift=    0.000
 RMSDP=4.12D-04 MaxDP=2.26D-02 DE=-3.67D-02 OVMax= 2.66D-02

 Cycle   4  Pass 1  IDiag  1:
 E= -204.720804833012     Delta-E=       -0.010252030119 Rises=F Damp=F
 DIIS: error= 1.53D-03 at cycle   4 NSaved=   4.
 NSaved= 4 IEnMin= 4 EnMin= -204.720804833012     IErMin= 4 ErrMin= 1.53D-03
 ErrMax= 1.53D-03  0.00D+00 EMaxC= 1.00D-01 BMatC= 2.36D-04 BMatP= 1.53D-02
 IDIUse=3 WtCom= 9.85D-01 WtEn= 1.53D-02
 Coeff-Com: -0.577D-02 0.819D-02 0.882D-01 0.909D+00
 Coeff-En:   0.000D+00 0.000D+00 0.000D+00 0.100D+01
 Coeff:     -0.568D-02 0.807D-02 0.868D-01 0.911D+00
 Gap=     0.489 Goal=   None    Shift=    0.000
 RMSDP=8.81D-05 MaxDP=1.95D-03 DE=-1.03D-02 OVMax= 8.74D-03

 Cycle   5  Pass 1  IDiag  1:
 E= -204.721198690009     Delta-E=       -0.000393856997 Rises=F Damp=F
 DIIS: error= 1.08D-03 at cycle   5 NSaved=   5.
 NSaved= 5 IEnMin= 5 EnMin= -204.721198690009     IErMin= 5 ErrMin= 1.08D-03
 ErrMax= 1.08D-03  0.00D+00 EMaxC= 1.00D-01 BMatC= 6.67D-05 BMatP= 2.36D-04
 IDIUse=3 WtCom= 9.89D-01 WtEn= 1.08D-02
 Coeff-Com:  0.728D-02-0.732D-01-0.159D+00 0.264D+00 0.961D+00
 Coeff-En:   0.000D+00 0.000D+00 0.000D+00 0.000D+00 0.100D+01
 Coeff:      0.720D-02-0.724D-01-0.157D+00 0.261D+00 0.961D+00
 Gap=     0.489 Goal=   None    Shift=    0.000
 RMSDP=6.80D-05 MaxDP=1.66D-03 DE=-3.94D-04 OVMax= 9.00D-03

 Cycle   6  Pass 1  IDiag  1:
 E= -204.721378771213     Delta-E=       -0.000180081204 Rises=F Damp=F
 DIIS: error= 2.45D-04 at cycle   6 NSaved=   6.
 NSaved= 6 IEnMin= 6 EnMin= -204.721378771213     IErMin= 6 ErrMin= 2.45D-04
 ErrMax= 2.45D-04  0.00D+00 EMaxC= 1.00D-01 BMatC= 1.23D-05 BMatP= 6.67D-05
 IDIUse=3 WtCom= 9.98D-01 WtEn= 2.45D-03
 Coeff-Com:  0.420D-03 0.275D-02 0.121D-02-0.228D+00 0.187D-02 0.122D+01
 Coeff-En:   0.000D+00 0.000D+00 0.000D+00 0.000D+00 0.000D+00 0.100D+01
 Coeff:      0.419D-03 0.275D-02 0.121D-02-0.227D+00 0.187D-02 0.122D+01
 Gap=     0.490 Goal=   None    Shift=    0.000
 RMSDP=4.09D-05 MaxDP=7.68D-04 DE=-1.80D-04 OVMax= 4.35D-03

 Cycle   7  Pass 1  IDiag  1:
 E= -204.721422298421     Delta-E=       -0.000043527208 Rises=F Damp=F
 DIIS: error= 1.19D-04 at cycle   7 NSaved=   7.
 NSaved= 7 IEnMin= 7 EnMin= -204.721422298421     IErMin= 7 ErrMin= 1.19D-04
 ErrMax= 1.19D-04  0.00D+00 EMaxC= 1.00D-01 BMatC= 1.88D-06 BMatP= 1.23D-05
 IDIUse=3 WtCom= 9.99D-01 WtEn= 1.19D-03
 Coeff-Com: -0.128D-02 0.126D-01 0.323D-01-0.561D-01-0.123D+00-0.910D-01
 Coeff-Com:  0.123D+01
 Coeff-En:   0.000D+00 0.000D+00 0.000D+00 0.000D+00 0.000D+00 0.000D+00
 Coeff-En:   0.100D+01
 Coeff:     -0.128D-02 0.126D-01 0.323D-01-0.561D-01-0.123D+00-0.909D-01
 Coeff:      0.123D+01
 Gap=     0.490 Goal=   None    Shift=    0.000
 RMSDP=1.58D-05 MaxDP=3.50D-04 DE=-4.35D-05 OVMax= 1.85D-03

 Cycle   8  Pass 1  IDiag  1:
 E= -204.721428242445     Delta-E=       -0.000005944023 Rises=F Damp=F
 DIIS: error= 4.57D-05 at cycle   8 NSaved=   8.
 NSaved= 8 IEnMin= 8 EnMin= -204.721428242445     IErMin= 8 ErrMin= 4.57D-05
 ErrMax= 4.57D-05  0.00D+00 EMaxC= 1.00D-01 BMatC= 1.99D-07 BMatP= 1.88D-06
 IDIUse=1 WtCom= 1.00D+00 WtEn= 0.00D+00
 Coeff-Com: -0.206D-04-0.965D-03-0.107D-02 0.226D-01 0.253D-01-0.155D+00
 Coeff-Com: -0.121D+00 0.123D+01
 Coeff:     -0.206D-04-0.965D-03-0.107D-02 0.226D-01 0.253D-01-0.155D+00
 Coeff:     -0.121D+00 0.123D+01
 Gap=     0.490 Goal=   None    Shift=    0.000
 RMSDP=5.02D-06 MaxDP=9.86D-05 DE=-5.94D-06 OVMax= 4.68D-04

 Cycle   9  Pass 1  IDiag  1:
 E= -204.721428806287     Delta-E=       -0.000000563843 Rises=F Damp=F
 DIIS: error= 1.18D-05 at cycle   9 NSaved=   9.
 NSaved= 9 IEnMin= 9 EnMin= -204.721428806287     IErMin= 9 ErrMin= 1.18D-05
 ErrMax= 1.18D-05  0.00D+00 EMaxC= 1.00D-01 BMatC= 1.63D-08 BMatP= 1.99D-07
 IDIUse=1 WtCom= 1.00D+00 WtEn= 0.00D+00
 Coeff-Com:  0.106D-03-0.962D-03-0.237D-02-0.996D-03 0.108D-01 0.394D-01
 Coeff-Com: -0.902D-01-0.273D+00 0.132D+01
 Coeff:      0.106D-03-0.962D-03-0.237D-02-0.996D-03 0.108D-01 0.394D-01
 Coeff:     -0.902D-01-0.273D+00 0.132D+01
 Gap=     0.490 Goal=   None    Shift=    0.000
 RMSDP=1.31D-06 MaxDP=3.53D-05 DE=-5.64D-07 OVMax= 1.00D-04

 Cycle  10  Pass 1  IDiag  1:
 E= -204.721428850237     Delta-E=       -0.000000043949 Rises=F Damp=F
 DIIS: error= 3.00D-06 at cycle  10 NSaved=  10.
 NSaved=10 IEnMin=10 EnMin= -204.721428850237     IErMin=10 ErrMin= 3.00D-06
 ErrMax= 3.00D-06  0.00D+00 EMaxC= 1.00D-01 BMatC= 1.35D-09 BMatP= 1.63D-08
 IDIUse=1 WtCom= 1.00D+00 WtEn= 0.00D+00
 Coeff-Com: -0.268D-04 0.320D-03 0.801D-03-0.240D-02-0.401D-02 0.238D-02
 Coeff-Com:  0.370D-01-0.555D-01-0.265D+00 0.129D+01
 Coeff:     -0.268D-04 0.320D-03 0.801D-03-0.240D-02-0.401D-02 0.238D-02
 Coeff:      0.370D-01-0.555D-01-0.265D+00 0.129D+01
 Gap=     0.490 Goal=   None    Shift=    0.000
 RMSDP=3.42D-07 MaxDP=1.17D-05 DE=-4.39D-08 OVMax= 3.12D-05

 Cycle  11  Pass 1  IDiag  1:
 E= -204.721428853875     Delta-E=       -0.000000003638 Rises=F Damp=F
 DIIS: error= 1.18D-06 at cycle  11 NSaved=  11.
 NSaved=11 IEnMin=11 EnMin= -204.721428853875     IErMin=11 ErrMin= 1.18D-06
 ErrMax= 1.18D-06  0.00D+00 EMaxC= 1.00D-01 BMatC= 1.37D-10 BMatP= 1.35D-09
 IDIUse=1 WtCom= 1.00D+00 WtEn= 0.00D+00
 Coeff-Com: -0.444D-06-0.186D-04-0.478D-04 0.604D-03 0.113D-02-0.506D-02
 Coeff-Com: -0.428D-02 0.449D-01-0.256D-01-0.476D+00 0.146D+01
 Coeff:     -0.444D-06-0.186D-04-0.478D-04 0.604D-03 0.113D-02-0.506D-02
 Coeff:     -0.428D-02 0.449D-01-0.256D-01-0.476D+00 0.146D+01
 Gap=     0.490 Goal=   None    Shift=    0.000
 RMSDP=1.17D-07 MaxDP=4.35D-06 DE=-3.64D-09 OVMax= 1.17D-05

 Cycle  12  Pass 1  IDiag  1:
 E= -204.721428854297     Delta-E=       -0.000000000422 Rises=F Damp=F
 DIIS: error= 2.04D-07 at cycle  12 NSaved=  12.
 NSaved=12 IEnMin=12 EnMin= -204.721428854297     IErMin=12 ErrMin= 2.04D-07
 ErrMax= 2.04D-07  0.00D+00 EMaxC= 1.00D-01 BMatC= 7.96D-12 BMatP= 1.37D-10
 IDIUse=1 WtCom= 1.00D+00 WtEn= 0.00D+00
 Coeff-Com:  0.244D-05-0.233D-04-0.551D-04-0.511D-04 0.767D-04 0.177D-02
 Coeff-Com: -0.244D-02-0.122D-01 0.404D-01 0.408D-01-0.495D+00 0.143D+01
 Coeff:      0.244D-05-0.233D-04-0.551D-04-0.511D-04 0.767D-04 0.177D-02
 Coeff:     -0.244D-02-0.122D-01 0.404D-01 0.408D-01-0.495D+00 0.143D+01
 Gap=     0.490 Goal=   None    Shift=    0.000
 RMSDP=3.43D-08 MaxDP=8.20D-07 DE=-4.22D-10 OVMax= 2.97D-06

 Cycle  13  Pass 1  IDiag  1:
 E= -204.721428854324     Delta-E=       -0.000000000026 Rises=F Damp=F
 DIIS: error= 5.03D-08 at cycle  13 NSaved=  13.
 NSaved=13 IEnMin=13 EnMin= -204.721428854324     IErMin=13 ErrMin= 5.03D-08
 ErrMax= 5.03D-08  0.00D+00 EMaxC= 1.00D-01 BMatC= 2.62D-13 BMatP= 7.96D-12
 IDIUse=1 WtCom= 1.00D+00 WtEn= 0.00D+00
 Coeff-Com: -0.464D-06 0.586D-05 0.141D-04-0.278D-04-0.756D-04-0.732D-04
 Coeff-Com:  0.777D-03-0.232D-03-0.541D-02 0.116D-01 0.324D-01-0.314D+00
 Coeff-Com:  0.128D+01
 Coeff:     -0.464D-06 0.586D-05 0.141D-04-0.278D-04-0.756D-04-0.732D-04
 Coeff:      0.777D-03-0.232D-03-0.541D-02 0.116D-01 0.324D-01-0.314D+00
 Coeff:      0.128D+01
 Gap=     0.490 Goal=   None    Shift=    0.000
 RMSDP=6.16D-09 MaxDP=1.10D-07 DE=-2.64D-11 OVMax= 4.88D-07

 SCF Done:  E(RHF) =  -204.721428854     A.U. after   13 cycles
            NFock= 13  Conv=0.62D-08     -V/T= 2.0025
 KE= 2.042051583537D+02 PE=-6.220558067781D+02 EE= 1.440623200121D+02
 Leave Link  502 at Mon Jan 31 11:55:35 2022, MaxMem= 16106127360 cpu:              36.3 elap:               1.9
 (Enter /sw/contrib/gaussian/g16/B01/g16/l801.exe)
 ExpMin= 2.53D-02 ExpMax= 1.53D+04 ExpMxC= 5.22D+02 IAcc=3 IRadAn=         5 AccDes= 0.00D+00
 HarFok:  IExCor=  205 AccDes= 0.00D+00 IRadAn=         5 IDoV=-2 UseB2=F ITyADJ=14
 ICtDFT= 12500011 ScaDFX=  1.000000  1.000000  1.000000  1.000000
 Largest valence mixing into a core orbital is  2.07D-04
 Largest core mixing into a valence orbital is  3.40D-05
 Range of M.O.s used for correlation:     4   161
 NBasis=   161 NAE=    12 NBE=    12 NFC=     3 NFV=     0
 NROrb=    158 NOA=     9 NOB=     9 NVA=   149 NVB=   149

 **** Warning!!: The largest alpha MO coefficient is  0.19177147D+02

 Leave Link  801 at Mon Jan 31 11:55:35 2022, MaxMem= 16106127360 cpu:               2.1 elap:               0.1
 (Enter /sw/contrib/gaussian/g16/B01/g16/l906.exe)
 Frozen-core derivative calculation, NFC=   3 NFV=   0.
 FulOut=F Deriv=T AODrv=F NAtomX=     4
   MMem=         161  MDisk=           9 MDiskD=           9
  W3Min=      367080 MinDsk=      792425 NBas6D=         190
 NBas2D=       18625    NTT=       18145    LW2=     3500000
    MDV= 16105788827 MDiskM=      423783 NBas2p=       18621
 Fully in-core method, ICMem=   359292905.
 IMap=   1   2   3   4   5   6   7   8   9  10  11  12
 JobTyp=1 Pass  1 fully in-core, NPsUse= 28.
 Compute canonical integrals.
 FoFCou: FMM=F IPFlag=           0 FMFlag=           0 FMFlg1=           0
         NFxFlg=           0 DoJE=F BraDBF=F KetDBF=F FulRan=T
         wScrn=  0.000000 ICntrl=       600 IOpCl=  1 I1Cent=           0 NGrid=           0
         NMat0=    1 NMatS0=  18625 NMatT0=    0 NMatD0=    1 NMtDS0=    0 NMtDT0=    0
 Symmetry not used in FoFCou.
 Spin components of T(2) and E(2):
     alpha-alpha T2 =       0.2554867419D-01 E2=     -0.9086646052D-01
     alpha-beta  T2 =       0.1388461907D+00 E2=     -0.5180764279D+00
     beta-beta   T2 =       0.2554867419D-01 E2=     -0.9086646052D-01
 The integrals were generated   1 times.
 ANorm=    0.1090845332D+01
 E2 =    -0.6998093490D+00 EUMP2 =    -0.20542123820328D+03
 Leave Link  906 at Mon Jan 31 11:55:38 2022, MaxMem= 16106127360 cpu:              84.6 elap:               3.1
 (Enter /sw/contrib/gaussian/g16/B01/g16/l1002.exe)
 Minotr:  Closed shell wavefunction.
          Computing MP2/KS-MP2 derivatives.
          Using Z-Vector for PSCF gradient.
          Skipping F1 and S1 gradient terms here.
          Frozen-core window.
          Direct CPHF calculation.
          Differentiating once with respect to electric field.
                with respect to dipole field.
          Electric field/nuclear overlap derivatives assumed to be zero.
          Using symmetry in CPHF.
          Requested convergence is 1.0D-10 RMS, and 1.0D-09 maximum.
          NewPWx=F KeepS1=T KeepF1=T KeepIn=T MapXYZ=F SortEE=F KeepMc=T.
 Keep R1 ints in memory in symmetry-blocked form, NReq=128071053.
 FoFCou: FMM=F IPFlag=           0 FMFlag=           0 FMFlg1=           0
         NFxFlg=           0 DoJE=F BraDBF=F KetDBF=F FulRan=T
         wScrn=  0.000000 ICntrl=       600 IOpCl=  0 I1Cent=           0 NGrid=           0
         NMat0=    1 NMatS0=  13041 NMatT0=    0 NMatD0=    1 NMtDS0=    0 NMtDT0=    0
 Petite list used in FoFCou.
          MDV=   16106127360 using IRadAn=       5.
          Solving linear equations separately, MaxMat=       0.
          There are     1 degrees of freedom in the 1st order CPHF.  IDoFFX=0 NUNeed=     1.
 LinEq1:  Iter=  0 NonCon=     1 RMS=6.75D-03 Max=1.31D-01 NDo=     1
 AX will form     1 AO Fock derivatives at one time.
 LinEq1:  Iter=  1 NonCon=     1 RMS=2.34D-03 Max=4.16D-02 NDo=     1
 LinEq1:  Iter=  2 NonCon=     1 RMS=9.53D-04 Max=1.31D-02 NDo=     1
 LinEq1:  Iter=  3 NonCon=     1 RMS=4.58D-04 Max=8.77D-03 NDo=     1
 LinEq1:  Iter=  4 NonCon=     1 RMS=1.42D-04 Max=1.68D-03 NDo=     1
 LinEq1:  Iter=  5 NonCon=     1 RMS=6.34D-05 Max=1.02D-03 NDo=     1
 LinEq1:  Iter=  6 NonCon=     1 RMS=2.44D-05 Max=2.78D-04 NDo=     1
 LinEq1:  Iter=  7 NonCon=     1 RMS=6.16D-06 Max=6.85D-05 NDo=     1
 LinEq1:  Iter=  8 NonCon=     1 RMS=1.49D-06 Max=1.80D-05 NDo=     1
 LinEq1:  Iter=  9 NonCon=     1 RMS=2.81D-07 Max=2.37D-06 NDo=     1
 LinEq1:  Iter= 10 NonCon=     1 RMS=5.27D-08 Max=4.68D-07 NDo=     1
 LinEq1:  Iter= 11 NonCon=     1 RMS=8.82D-09 Max=9.54D-08 NDo=     1
 LinEq1:  Iter= 12 NonCon=     1 RMS=1.19D-09 Max=7.25D-09 NDo=     1
 LinEq1:  Iter= 13 NonCon=     1 RMS=2.54D-10 Max=2.54D-09 NDo=     1
 LinEq1:  Iter= 14 NonCon=     0 RMS=4.90D-11 Max=3.81D-10 NDo=     1
 Linear equations converged to 1.000D-10 1.000D-09 after    14 iterations.
 End of Minotr F.D. properties file   721 does not exist.
 End of Minotr F.D. properties file   722 does not exist.
 End of Minotr F.D. properties file   788 does not exist.
 Leave Link 1002 at Mon Jan 31 11:55:40 2022, MaxMem= 16106127360 cpu:              36.6 elap:               1.9
 (Enter /sw/contrib/gaussian/g16/B01/g16/l601.exe)
 Copying SCF densities to generalized density rwf, IOpCl= 0 IROHF=0.

 **********************************************************************

            Population analysis using the MP2 Density.

 **********************************************************************

 Orbital symmetries:
       Occupied  (A') (A') (A') (A') (A') (A') (A') (A') (A") (A')
                 (A") (A')
       Virtual   (A') (A") (A') (A') (A") (A') (A') (A') (A") (A')
                 (A") (A') (A') (A") (A') (A') (A') (A') (A') (A")
                 (A') (A') (A") (A') (A') (A') (A") (A") (A') (A')
                 (A') (A") (A') (A") (A") (A') (A') (A") (A') (A')
                 (A') (A') (A') (A") (A") (A') (A') (A") (A') (A')
                 (A") (A') (A") (A') (A') (A") (A') (A") (A') (A")
                 (A') (A') (A") (A') (A') (A") (A') (A') (A") (A")
                 (A') (A') (A') (A") (A') (A") (A') (A') (A") (A")
                 (A') (A') (A') (A") (A') (A') (A") (A") (A') (A')
                 (A') (A') (A') (A") (A') (A") (A') (A") (A') (A")
                 (A') (A") (A') (A') (A') (A") (A') (A") (A") (A')
                 (A') (A") (A') (A') (A") (A') (A') (A") (A') (A')
                 (A') (A') (A") (A') (A") (A") (A') (A') (A") (A')
                 (A") (A") (A') (A") (A') (A") (A') (A") (A") (A')
                 (A') (A') (A') (A') (A') (A') (A') (A') (A')
 The electronic state is 1-A'.
 Alpha  occ. eigenvalues --  -20.66997 -20.63916 -15.80167  -1.60185  -1.39638
 Alpha  occ. eigenvalues --   -0.94912  -0.78047  -0.72872  -0.67916  -0.62672
 Alpha  occ. eigenvalues --   -0.52842  -0.46136
 Alpha virt. eigenvalues --    0.02847   0.07797   0.09341   0.09748   0.12907
 Alpha virt. eigenvalues --    0.14440   0.15663   0.17248   0.18762   0.19642
 Alpha virt. eigenvalues --    0.20494   0.23241   0.25774   0.29679   0.29906
 Alpha virt. eigenvalues --    0.32903   0.36386   0.38107   0.42460   0.52407
 Alpha virt. eigenvalues --    0.52547   0.54602   0.57280   0.61190   0.63013
 Alpha virt. eigenvalues --    0.64815   0.68005   0.71491   0.71711   0.74844
 Alpha virt. eigenvalues --    0.77385   0.78430   0.80997   0.81126   0.85879
 Alpha virt. eigenvalues --    0.87811   0.92565   0.93930   0.94685   0.99624
 Alpha virt. eigenvalues --    1.04815   1.06089   1.07929   1.10330   1.16000
 Alpha virt. eigenvalues --    1.19353   1.25194   1.26617   1.36385   1.43229
 Alpha virt. eigenvalues --    1.48957   1.52231   1.52241   1.54215   1.55273
 Alpha virt. eigenvalues --    1.60746   1.65650   1.72636   1.75194   1.81808
 Alpha virt. eigenvalues --    1.85123   1.96195   1.97242   1.99546   2.06916
 Alpha virt. eigenvalues --    2.13111   2.13226   2.18353   2.26778   2.30716
 Alpha virt. eigenvalues --    2.32335   2.38331   2.44651   2.46788   2.49756
 Alpha virt. eigenvalues --    2.50083   2.51713   2.54222   2.56664   2.60550
 Alpha virt. eigenvalues --    2.60654   2.65804   2.76774   2.77518   2.83055
 Alpha virt. eigenvalues --    2.92624   2.93094   3.10754   3.13730   3.18502
 Alpha virt. eigenvalues --    3.23901   3.45171   3.82693   3.84526   4.02729
 Alpha virt. eigenvalues --    4.17038   4.17897   4.20678   4.36109   4.36980
 Alpha virt. eigenvalues --    4.57456   4.62737   4.74970   4.79990   4.87044
 Alpha virt. eigenvalues --    4.88675   4.98082   4.99754   5.07031   5.08736
 Alpha virt. eigenvalues --    5.16227   5.24522   5.25384   5.32882   5.35829
 Alpha virt. eigenvalues --    5.35848   5.56939   5.66480   5.79444   5.99272
 Alpha virt. eigenvalues --    6.09966   6.42034   6.50186   6.50622   6.67102
 Alpha virt. eigenvalues --    6.71228   6.74511   6.83769   6.90648   7.05900
 Alpha virt. eigenvalues --    7.11506   7.18175   7.22164   7.25360   7.25949
 Alpha virt. eigenvalues --    7.32635   7.38084   7.42196   7.47435   7.59228
 Alpha virt. eigenvalues --    7.64218   7.68450   7.76699   7.94877   8.04897
 Alpha virt. eigenvalues --    8.41666  14.13263  15.03182  15.92752
          Condensed to atoms (all electrons):
               1          2          3          4
     1  H    0.586420   0.170687  -0.039258   0.011865
     2  O    0.170687   8.296792  -0.130660  -0.052772
     3  N   -0.039258  -0.130660   7.022450  -0.039589
     4  O    0.011865  -0.052772  -0.039589   8.253793
 Mulliken charges:
               1
     1  H    0.270286
     2  O   -0.284047
     3  N    0.187058
     4  O   -0.173296
 Sum of Mulliken charges =  -0.00000
 Mulliken charges with hydrogens summed into heavy atoms:
               1
     2  O   -0.013761
     3  N    0.187058
     4  O   -0.173296
 Electronic spatial extent (au):  <R**2>=            124.8757
 Charge=             -0.0000 electrons
 Dipole moment (field-independent basis, Debye):
    X=              1.6387    Y=              0.7082    Z=              0.0000  Tot=              1.7852
 Quadrupole moment (field-independent basis, Debye-Ang):
   XX=            -13.6474   YY=            -18.7133   ZZ=            -16.4886
   XY=              0.5586   XZ=              0.0000   YZ=             -0.0000
 Traceless Quadrupole moment (field-independent basis, Debye-Ang):
   XX=              2.6357   YY=             -2.4302   ZZ=             -0.2055
   XY=              0.5586   XZ=              0.0000   YZ=             -0.0000
 Octapole moment (field-independent basis, Debye-Ang**2):
  XXX=              9.9308  YYY=             -0.8604  ZZZ=              0.0000  XYY=             -1.0601
  XXY=             -0.4224  XXZ=             -0.0000  XZZ=             -1.0843  YZZ=              0.2693
  YYZ=             -0.0000  XYZ=             -0.0000
 Hexadecapole moment (field-independent basis, Debye-Ang**3):
 XXXX=            -71.9014 YYYY=            -40.6022 ZZZZ=            -13.9935 XXXY=             12.4746
 XXXZ=              0.0000 YYYX=             12.5987 YYYZ=             -0.0000 ZZZX=              0.0000
 ZZZY=             -0.0000 XXYY=            -22.4892 XXZZ=            -17.5861 YYZZ=             -8.9389
 XXYZ=             -0.0000 YYXZ=              0.0000 ZZXY=              4.4331
 N-N= 6.906689955794D+01 E-N=-6.226675670139D+02  KE= 2.052106419646D+02
 Symmetry A'   KE= 1.963930247832D+02
 Symmetry A"   KE= 8.817617181409D+00
 No NMR shielding tensors so no spin-rotation constants.
 Leave Link  601 at Mon Jan 31 11:55:41 2022, MaxMem= 16106127360 cpu:               4.3 elap:               0.2
 (Enter /sw/contrib/gaussian/g16/B01/g16/l9999.exe)
 1\1\GINC-N2206\SP\RMP2-FC\Aug-CC-pVTZ\H1N1O2\CGAVINH\31-Jan-2022\0\\#p
  SP mp2/aug-cc-pvtz density=current\\title\\0,1\H\O,1,0.97026274\N,2,1
 .44776435,1,101.62778541\O,3,1.17680217,2,110.70859147,1,180.,0\\Versi
 on=ES64L-G16RevB.01\State=1-A'\HF=-204.7214289\MP2=-205.4212382\RMSD=6
 .159e-09\Dipole=-0.0421623,0.,-0.7011005\Quadrupole=-1.3747457,-0.1527
 852,1.5275309,0.,1.2700549,0.\PG=CS [SG(H1N1O2)]\\@


 NO HUMAN INVESTIGATION CAN BECOME REAL SCIENCE
 WITHOUT GOING THROUGH MATHEMATICAL PEOPLE.
 -- LEONARDO DA VINCI, IN "PENSIERI" CA. 1492
 Job cpu time:       0 days  0 hours  3 minutes  7.6 seconds.
 Elapsed time:       0 days  0 hours  0 minutes  8.2 seconds.
 File lengths (MBytes):  RWF=     16 Int=      0 D2E=      0 Chk=      8 Scr=      1
 Normal termination of Gaussian 16 at Mon Jan 31 11:55:41 2022.
