title                                                                   
SP        RMP2-FC                                                     Aug-CC-pVTZ         
Number of atoms                            I                4
Info1-9                                    I   N=           9
          29          20           0           0           0         110
           1           2           1
Full Title                                 C   N=           1
title       
Route                                      C   N=           4
#p SP mp2/aug-cc-pvtz density=current           
Charge                                     I                0
Multiplicity                               I                1
Number of electrons                        I               24
Number of alpha electrons                  I               12
Number of beta electrons                   I               12
Number of basis functions                  I              161
Number of independent functions            I              161
Number of point charges in /Mol/           I                0
Number of translation vectors              I                0
Atomic numbers                             I   N=           4
           1           8           7           8
Nuclear charges                            R   N=           4
  1.00000000E+00  8.00000000E+00  7.00000000E+00  8.00000000E+00
Current cartesian coordinates              R   N=          12
  3.31108011E+00 -2.43311305E-01  1.75809429E-31  1.69767774E+00 -1.11438430E+00
  6.82555656E-32  1.18180986E-17  9.82648215E-01  8.35501671E-34 -2.11156276E+00
  2.84981021E-01 -1.02509847E-31
Number of symbols in /Mol/                 I                0
Force Field                                I                0
Atom Types                                 C   N=           4
                                                
Int Atom Types                             I   N=           4
           0           0           0           0
MM charges                                 R   N=           4
  0.00000000E+00  0.00000000E+00  0.00000000E+00  0.00000000E+00
Integer atomic weights                     I   N=           4
           1          16          14          16
Real atomic weights                        R   N=           4
  1.00782504E+00  1.59949146E+01  1.40030740E+01  1.59949146E+01
Atom fragment info                         I   N=           4
           0           0           0           0
Atom residue num                           I   N=           4
           0           0           0           0
Nuclear spins                              I   N=           4
           1           0           2           0
Nuclear ZEff                               R   N=           4
 -1.00000000E+00 -5.60000000E+00 -4.55000000E+00 -5.60000000E+00
Nuclear ZNuc                               R   N=           4
  1.00000000E+00  8.00000000E+00  7.00000000E+00  8.00000000E+00
Nuclear QMom                               R   N=           4
  0.00000000E+00  0.00000000E+00  2.04400000E+00  0.00000000E+00
Nuclear GFac                               R   N=           4
  2.79284600E+00  0.00000000E+00  4.03761000E-01  0.00000000E+00
MicOpt                                     I   N=           4
          -1          -1          -1          -1
Number of residues                         I                0
Number of secondary structures             I                0
SymInf integers                            I   N=          26
           1           2           1           1           1           1
           1          -1           0           0           0           0
           0           0           0           0           0           0
           0           0           0           0           0           0
           0           0
RotTr to input orientation                 R   N=          12
 -4.75079540E-01 -1.15636861E-16 -8.79942857E-01  8.79942857E-01  4.03201468E-17
 -4.75079540E-01  9.04161318E-17 -1.00000000E+00  8.25985529E-17  1.78712646E+00
  0.00000000E+00  2.79796907E+00
Number of contracted shells                I               51
Number of primitive shells                 I               92
Pure/Cartesian d shells                    I                0
Pure/Cartesian f shells                    I                0
Highest angular momentum                   I                3
Largest degree of contraction              I                7
Shell types                                I   N=          51
           0           0           0           0           1           1
           1          -2          -2           0           0           0
           0           0           1           1           1           1
          -2          -2          -2          -3          -3           0
           0           0           0           0           1           1
           1           1          -2          -2          -2          -3
          -3           0           0           0           0           0
           1           1           1           1          -2          -2
          -2          -3          -3
Number of primitives per shell             I   N=          51
           3           1           1           1           1           1
           1           1           1           7           6           1
           1           1           3           1           1           1
           1           1           1           1           1           7
           6           1           1           1           3           1
           1           1           1           1           1           1
           1           7           6           1           1           1
           3           1           1           1           1           1
           1           1           1
Shell to atom map                          I   N=          51
           1           1           1           1           1           1
           1           1           1           2           2           2
           2           2           2           2           2           2
           2           2           2           2           2           3
           3           3           3           3           3           3
           3           3           3           3           3           3
           3           4           4           4           4           4
           4           4           4           4           4           4
           4           4           4
Primitive exponents                        R   N=          92
  3.38700000E+01  5.09500000E+00  1.15900000E+00  3.25800000E-01  1.02700000E-01
  2.52600000E-02  1.40700000E+00  3.88000000E-01  1.02000000E-01  1.05700000E+00
  2.47000000E-01  1.53300000E+04  2.29900000E+03  5.22400000E+02  1.47300000E+02
  4.75500000E+01  1.67600000E+01  6.20700000E+00  5.22400000E+02  1.47300000E+02
  4.75500000E+01  1.67600000E+01  6.20700000E+00  6.88200000E-01  1.75200000E+00
  2.38400000E-01  7.37600000E-02  3.44600000E+01  7.74900000E+00  2.28000000E+00
  7.15600000E-01  2.14000000E-01  5.97400000E-02  2.31400000E+00  6.45000000E-01
  2.14000000E-01  1.42800000E+00  5.00000000E-01  1.14200000E+04  1.71200000E+03
  3.89300000E+02  1.10000000E+02  3.55700000E+01  1.25400000E+01  4.64400000E+00
  3.89300000E+02  1.10000000E+02  3.55700000E+01  1.25400000E+01  4.64400000E+00
  5.11800000E-01  1.29300000E+00  1.78700000E-01  5.76000000E-02  2.66300000E+01
  5.94800000E+00  1.74200000E+00  5.55000000E-01  1.72500000E-01  4.91000000E-02
  1.65400000E+00  4.69000000E-01  1.51000000E-01  1.09300000E+00  3.64000000E-01
  1.53300000E+04  2.29900000E+03  5.22400000E+02  1.47300000E+02  4.75500000E+01
  1.67600000E+01  6.20700000E+00  5.22400000E+02  1.47300000E+02  4.75500000E+01
  1.67600000E+01  6.20700000E+00  6.88200000E-01  1.75200000E+00  2.38400000E-01
  7.37600000E-02  3.44600000E+01  7.74900000E+00  2.28000000E+00  7.15600000E-01
  2.14000000E-01  5.97400000E-02  2.31400000E+00  6.45000000E-01  2.14000000E-01
  1.42800000E+00  5.00000000E-01
Contraction coefficients                   R   N=          92
  2.54948632E-02  1.90362766E-01  8.52162022E-01  1.00000000E+00  1.00000000E+00
  1.00000000E+00  1.00000000E+00  1.00000000E+00  1.00000000E+00  1.00000000E+00
  1.00000000E+00  5.19808943E-04  4.02025621E-03  2.07128267E-02  8.10105536E-02
  2.35962985E-01  4.42653446E-01  3.57064423E-01 -4.42115008E-05 -1.22591041E-03
 -1.05517725E-02 -6.74452633E-02 -1.71198607E-01  1.07329856E+00  1.00000000E+00
  1.00000000E+00  1.00000000E+00  4.11634896E-02  2.57762836E-01  8.02419274E-01
  1.00000000E+00  1.00000000E+00  1.00000000E+00  1.00000000E+00  1.00000000E+00
  1.00000000E+00  1.00000000E+00  1.00000000E+00  5.34563860E-04  4.13435660E-03
  2.12335358E-02  8.25006224E-02  2.38138871E-01  4.42551547E-01  3.53757422E-01
 -4.89867350E-05 -1.19527323E-03 -1.03490714E-02 -6.48680190E-02 -1.71552477E-01
  1.07289568E+00  1.00000000E+00  1.00000000E+00  1.00000000E+00  3.98072123E-02
  2.49002660E-01  8.10479727E-01  1.00000000E+00  1.00000000E+00  1.00000000E+00
  1.00000000E+00  1.00000000E+00  1.00000000E+00  1.00000000E+00  1.00000000E+00
  5.19808943E-04  4.02025621E-03  2.07128267E-02  8.10105536E-02  2.35962985E-01
  4.42653446E-01  3.57064423E-01 -4.42115008E-05 -1.22591041E-03 -1.05517725E-02
 -6.74452633E-02 -1.71198607E-01  1.07329856E+00  1.00000000E+00  1.00000000E+00
  1.00000000E+00  4.11634896E-02  2.57762836E-01  8.02419274E-01  1.00000000E+00
  1.00000000E+00  1.00000000E+00  1.00000000E+00  1.00000000E+00  1.00000000E+00
  1.00000000E+00  1.00000000E+00
Coordinates of each shell                  R   N=         153
  3.31108011E+00 -2.43311305E-01  9.38799347E-32  3.31108011E+00 -2.43311305E-01
  9.38799347E-32  3.31108011E+00 -2.43311305E-01  9.38799347E-32  3.31108011E+00
 -2.43311305E-01  9.38799347E-32  3.31108011E+00 -2.43311305E-01  9.38799347E-32
  3.31108011E+00 -2.43311305E-01  9.38799347E-32  3.31108011E+00 -2.43311305E-01
  9.38799347E-32  3.31108011E+00 -2.43311305E-01  9.38799347E-32  3.31108011E+00
 -2.43311305E-01  9.38799347E-32  1.69767774E+00 -1.11438430E+00  5.48417551E-32
  1.69767774E+00 -1.11438430E+00  5.48417551E-32  1.69767774E+00 -1.11438430E+00
  5.48417551E-32  1.69767774E+00 -1.11438430E+00  5.48417551E-32  1.69767774E+00
 -1.11438430E+00  5.48417551E-32  1.69767774E+00 -1.11438430E+00  5.48417551E-32
  1.69767774E+00 -1.11438430E+00  5.48417551E-32  1.69767774E+00 -1.11438430E+00
  5.48417551E-32  1.69767774E+00 -1.11438430E+00  5.48417551E-32  1.69767774E+00
 -1.11438430E+00  5.48417551E-32  1.69767774E+00 -1.11438430E+00  5.48417551E-32
  1.69767774E+00 -1.11438430E+00  5.48417551E-32  1.69767774E+00 -1.11438430E+00
  5.48417551E-32  1.69767774E+00 -1.11438430E+00  5.48417551E-32 -3.17514633E-17
  9.82648215E-01 -6.65971413E-33 -3.17514633E-17  9.82648215E-01 -6.65971413E-33
 -3.17514633E-17  9.82648215E-01 -6.65971413E-33 -3.17514633E-17  9.82648215E-01
 -6.65971413E-33 -3.17514633E-17  9.82648215E-01 -6.65971413E-33 -3.17514633E-17
  9.82648215E-01 -6.65971413E-33 -3.17514633E-17  9.82648215E-01 -6.65971413E-33
 -3.17514633E-17  9.82648215E-01 -6.65971413E-33 -3.17514633E-17  9.82648215E-01
 -6.65971413E-33 -3.17514633E-17  9.82648215E-01 -6.65971413E-33 -3.17514633E-17
  9.82648215E-01 -6.65971413E-33 -3.17514633E-17  9.82648215E-01 -6.65971413E-33
 -3.17514633E-17  9.82648215E-01 -6.65971413E-33 -3.17514633E-17  9.82648215E-01
 -6.65971413E-33 -2.11156276E+00  2.84981021E-01 -6.07494971E-32 -2.11156276E+00
  2.84981021E-01 -6.07494971E-32 -2.11156276E+00  2.84981021E-01 -6.07494971E-32
 -2.11156276E+00  2.84981021E-01 -6.07494971E-32 -2.11156276E+00  2.84981021E-01
 -6.07494971E-32 -2.11156276E+00  2.84981021E-01 -6.07494971E-32 -2.11156276E+00
  2.84981021E-01 -6.07494971E-32 -2.11156276E+00  2.84981021E-01 -6.07494971E-32
 -2.11156276E+00  2.84981021E-01 -6.07494971E-32 -2.11156276E+00  2.84981021E-01
 -6.07494971E-32 -2.11156276E+00  2.84981021E-01 -6.07494971E-32 -2.11156276E+00
  2.84981021E-01 -6.07494971E-32 -2.11156276E+00  2.84981021E-01 -6.07494971E-32
 -2.11156276E+00  2.84981021E-01 -6.07494971E-32
Num ILSW                                   I              100
ILSW                                       I   N=         100
           0           0           0           0           2           0
           0           0           0           0           0          -1
           5           0           0           0           0           0
           0           0           0           0           0           0
           1           0           0           0           0           0
           0           0      100000           0          -1           0
           0           0           0           0           0           0
           0           0           0           1           0           0
           0 -2000000000           1           0           0           0
           0           0           4          52           0           0
           0           0           0           0           0           0
           0           0           0           4           0           1
           0           0           0           0           0           0
           0           0           0           0           0           0
           0           0           0           0           0           0
           0           0           0           0           0           0
           0           0           0           0
Num RLSW                                   I               52
RLSW                                       R   N=          52
  1.00000000E+00  1.00000000E+00  1.00000000E+00  1.00000000E+00  1.00000000E+00
  0.00000000E+00  0.00000000E+00  1.00000000E+00  0.00000000E+00  0.00000000E+00
  0.00000000E+00  0.00000000E+00  1.00000000E+00  0.00000000E+00  0.00000000E+00
  0.00000000E+00  0.00000000E+00  1.00000000E+00  0.00000000E+00  0.00000000E+00
  0.00000000E+00  0.00000000E+00  1.00000000E+00  0.00000000E+00  0.00000000E+00
  0.00000000E+00  0.00000000E+00  1.00000000E+00  0.00000000E+00  0.00000000E+00
  0.00000000E+00  0.00000000E+00  1.00000000E+00  0.00000000E+00  0.00000000E+00
  0.00000000E+00  0.00000000E+00  0.00000000E+00  1.00000000E+00  1.00000000E+00
  0.00000000E+00  1.00000000E+00  0.00000000E+00  0.00000000E+00  0.00000000E+00
  0.00000000E+00  0.00000000E+00  0.00000000E+00  0.00000000E+00  0.00000000E+00
  0.00000000E+00  0.00000000E+00
MxBond                                     I                2
NBond                                      I   N=           4
           1           2           2           1
IBond                                      I   N=           8
           2           0           1           3           2           4
           3           0
RBond                                      R   N=           8
  1.00000000E+00  0.00000000E+00  1.00000000E+00  1.00000000E+00  1.00000000E+00
  2.00000000E+00  2.00000000E+00  0.00000000E+00
Virial Ratio                               R      2.002350791033584E+00
SCF Energy                                 R     -2.047232191228383E+02
MP2 Energy                                 R     -2.054213260061673E+02
Total Energy                               R     -2.054213260061673E+02
Post-SCF wavefunction norm                 R      1.090040376075370E+00
RMS Density                                R      5.442079525447946E-09
Job Status                                 I                1
Nuclear derivative order                   I                0
External E-field                           R   N=          35
  0.00000000E+00  0.00000000E+00  0.00000000E+00  0.00000000E+00  0.00000000E+00
  0.00000000E+00  0.00000000E+00  0.00000000E+00  0.00000000E+00  0.00000000E+00
  0.00000000E+00  0.00000000E+00  0.00000000E+00  0.00000000E+00  0.00000000E+00
  0.00000000E+00  0.00000000E+00  0.00000000E+00  0.00000000E+00  0.00000000E+00
  0.00000000E+00  0.00000000E+00  0.00000000E+00  0.00000000E+00  0.00000000E+00
  0.00000000E+00  0.00000000E+00  0.00000000E+00  0.00000000E+00  0.00000000E+00
  0.00000000E+00  0.00000000E+00  0.00000000E+00  0.00000000E+00  0.00000000E+00
IOpCl                                      I                0
IROHF                                      I                0
Alpha Orbital Energies                     R   N=         161
 -2.06652867E+01 -2.06428265E+01 -1.57986985E+01 -1.60296910E+00 -1.40325434E+00
 -9.47958751E-01 -7.83773063E-01 -7.30255590E-01 -6.81734026E-01 -6.26200549E-01
 -5.28730374E-01 -4.61913351E-01  2.80612862E-02  8.02900058E-02  9.38875967E-02
  9.74207113E-02  1.28753789E-01  1.43661170E-01  1.56950322E-01  1.72281386E-01
  1.87323154E-01  1.96405543E-01  2.05499573E-01  2.33599314E-01  2.57429116E-01
  2.96441631E-01  3.07714735E-01  3.29508357E-01  3.66460341E-01  3.82435517E-01
  4.23644079E-01  5.25051548E-01  5.26408150E-01  5.49233502E-01  5.73856682E-01
  6.12708519E-01  6.31037096E-01  6.47935666E-01  6.80066542E-01  7.14357228E-01
  7.17907634E-01  7.47624295E-01  7.74157037E-01  7.82634122E-01  8.11394277E-01
  8.12468937E-01  8.61168033E-01  8.80760443E-01  9.25680810E-01  9.38843587E-01
  9.44879558E-01  9.95572010E-01  1.05060213E+00  1.06411854E+00  1.08196864E+00
  1.10639126E+00  1.16140811E+00  1.19826399E+00  1.24903651E+00  1.26989487E+00
  1.36016962E+00  1.43284980E+00  1.48646308E+00  1.52260039E+00  1.52307950E+00
  1.54430738E+00  1.55256762E+00  1.61098843E+00  1.65850322E+00  1.72982069E+00
  1.75505253E+00  1.82171850E+00  1.85727866E+00  1.96003090E+00  1.97857650E+00
  1.99876941E+00  2.07531533E+00  2.13227753E+00  2.13227921E+00  2.19420895E+00
  2.27097486E+00  2.30689336E+00  2.32970771E+00  2.38142003E+00  2.45138088E+00
  2.47176337E+00  2.49663315E+00  2.50286216E+00  2.52093475E+00  2.54423381E+00
  2.57281990E+00  2.60677198E+00  2.60862516E+00  2.66204850E+00  2.77316516E+00
  2.77330489E+00  2.83994752E+00  2.93770428E+00  2.95283900E+00  3.11444189E+00
  3.13974009E+00  3.18154621E+00  3.24989617E+00  3.46751166E+00  3.82873286E+00
  3.85604887E+00  4.02712961E+00  4.16783029E+00  4.18665035E+00  4.21273445E+00
  4.35723796E+00  4.37232554E+00  4.58668369E+00  4.63655489E+00  4.74550180E+00
  4.81799336E+00  4.87407746E+00  4.88693105E+00  4.97151700E+00  5.00045715E+00
  5.07225499E+00  5.08572331E+00  5.17245655E+00  5.24668400E+00  5.26049900E+00
  5.33566775E+00  5.37057208E+00  5.37552032E+00  5.57986863E+00  5.66751623E+00
  5.79418735E+00  5.98709828E+00  6.12956343E+00  6.43193919E+00  6.50647738E+00
  6.50961071E+00  6.67560419E+00  6.71445963E+00  6.74801110E+00  6.84906180E+00
  6.91658008E+00  7.06419525E+00  7.12001130E+00  7.17945340E+00  7.23236183E+00
  7.25771056E+00  7.25894900E+00  7.33201507E+00  7.38032248E+00  7.43007584E+00
  7.47936270E+00  7.60937051E+00  7.64929255E+00  7.69574931E+00  7.79771506E+00
  7.98820122E+00  8.06431190E+00  8.42203788E+00  1.42115978E+01  1.51182710E+01
  1.59787246E+01
Alpha MO coefficients                      R   N=       25921
  6.01250104E-05  1.60351210E-04 -3.89801868E-04  3.64873188E-06 -5.22779977E-05
  8.97666358E-06  0.00000000E+00  6.62050998E-05  4.74916423E-05  0.00000000E+00
  2.70564847E-04  1.13998167E-05  0.00000000E+00  2.28931871E-05  0.00000000E+00
  0.00000000E+00  8.42658662E-06  9.44968276E-06  5.18469732E-05  0.00000000E+00
  0.00000000E+00 -3.64850582E-05  2.15358539E-05 -8.26095557E-04  8.14455548E-05
 -6.18162358E-05 -7.32757096E-05  2.24541027E-04  1.80275186E-05 -1.78673424E-05
  0.00000000E+00 -8.42533109E-05  4.98634326E-05  0.00000000E+00 -1.32319320E-04
  5.92995312E-05  0.00000000E+00 -1.18603994E-04  5.46809772E-05  0.00000000E+00
 -9.03108553E-06  0.00000000E+00  0.00000000E+00  2.74355129E-05  1.01021725E-05
  7.90550489E-07  0.00000000E+00  0.00000000E+00 -9.79331747E-05 -1.15357818E-04
 -1.88540652E-05  0.00000000E+00  0.00000000E+00 -7.70394343E-05 -2.27650575E-04
  0.00000000E+00  3.34870671E-06  1.82359318E-06  0.00000000E+00  0.00000000E+00
 -7.87989514E-06 -1.36361972E-05  0.00000000E+00 -1.95600105E-05 -1.90001076E-05
  0.00000000E+00  0.00000000E+00  1.87522436E-04 -4.84386200E-05  2.49473253E-04
  1.41953384E-03 -1.02010471E-04 -1.51460808E-03  3.85217338E-04 -1.13141355E-04
 -6.43678555E-05  0.00000000E+00 -2.04287408E-03 -5.61592142E-04  0.00000000E+00
  1.14888369E-03 -7.59667155E-05  0.00000000E+00 -1.11920212E-04 -9.39449613E-05
  0.00000000E+00 -1.25313813E-04  0.00000000E+00  0.00000000E+00  2.13334440E-04
  1.45035455E-04 -4.39237285E-04  0.00000000E+00  0.00000000E+00  5.52558898E-04
  7.89481038E-04 -1.51978757E-06  0.00000000E+00  0.00000000E+00 -1.66717365E-04
 -1.51331618E-04  0.00000000E+00  1.30043280E-05 -1.28688546E-05  0.00000000E+00
  0.00000000E+00  1.51994115E-05  1.48921850E-05  0.00000000E+00  1.41831754E-04
  1.28457776E-04  0.00000000E+00  0.00000000E+00 -2.18204354E-05 -2.93319034E-04
  9.76650644E-01 -9.86384929E-03  4.35634234E-02  4.27870689E-03 -5.34291891E-04
  2.10708666E-03  5.68547703E-04  0.00000000E+00 -2.41037821E-03 -5.89136271E-04
  0.00000000E+00  9.82223543E-04  5.55072848E-04  0.00000000E+00 -5.38180182E-05
  3.05927564E-05  0.00000000E+00 -2.29266630E-04  0.00000000E+00  0.00000000E+00
  7.70528718E-05  5.53863351E-05  3.87158646E-04  0.00000000E+00  0.00000000E+00
 -8.26527778E-04 -4.42971936E-04 -1.59153748E-04  0.00000000E+00  0.00000000E+00
  1.74535338E-04  2.49330985E-04  0.00000000E+00  5.52865230E-05  1.08946049E-05
  0.00000000E+00  0.00000000E+00 -1.70358145E-05 -2.44997970E-05  0.00000000E+00
  1.23935354E-04  4.63232968E-05  0.00000000E+00  0.00000000E+00 -1.60202018E-04
 -1.53553244E-04  4.71358261E-04  2.40145941E-03  3.38575939E-04 -8.67055001E-06
 -2.22466741E-04 -1.08887712E-04  0.00000000E+00 -9.66479720E-04 -8.79549963E-04
  0.00000000E+00 -8.56127224E-05 -4.31151372E-04  0.00000000E+00  1.09485206E-05
  0.00000000E+00  0.00000000E+00 -4.30312754E-05 -5.86610406E-05 -1.61250583E-04
  0.00000000E+00  0.00000000E+00  1.53133154E-04  4.18037583E-04  9.76756296E-01
 -9.25665267E-03  4.35502143E-02  8.89068599E-04 -9.26432401E-04  3.96665439E-04
  1.84846105E-03  0.00000000E+00 -1.95990369E-04 -1.84441728E-03  0.00000000E+00
 -1.44132098E-03  3.24720932E-04  0.00000000E+00 -6.05444669E-05  2.61759291E-05
  0.00000000E+00 -4.09808244E-05  0.00000000E+00  0.00000000E+00  3.19828142E-05
  4.87787844E-05  6.45777780E-04  0.00000000E+00  0.00000000E+00 -2.89964053E-04
  2.36188532E-04 -9.21089064E-05  0.00000000E+00  0.00000000E+00 -2.77744875E-04
 -3.63838859E-04  0.00000000E+00 -3.02744112E-05  4.57857243E-05  0.00000000E+00
  0.00000000E+00 -1.31930459E-05 -3.38802873E-06  0.00000000E+00  8.84664495E-05
  5.47850472E-05  0.00000000E+00  0.00000000E+00 -2.09615668E-04 -2.31060695E-04
  5.88562018E-05  1.57878201E-04 -3.18730633E-04 -3.57835671E-04  8.84264426E-04
 -8.40179061E-05  7.73502346E-05  0.00000000E+00  7.11996061E-04 -6.50903829E-04
  0.00000000E+00 -4.21276474E-04  5.45121819E-04  0.00000000E+00  1.71770556E-04
 -1.79453848E-04  0.00000000E+00 -3.43056244E-05  0.00000000E+00  0.00000000E+00
 -3.40084473E-05 -4.99105123E-05 -3.98492384E-04  0.00000000E+00  0.00000000E+00
 -1.67944929E-04 -9.27841090E-04 -1.84837729E-04  0.00000000E+00  0.00000000E+00
  5.46598839E-04 -5.26960720E-05  0.00000000E+00 -8.83202535E-05  9.89532078E-05
  0.00000000E+00  0.00000000E+00 -1.46222038E-04 -5.90494122E-05  0.00000000E+00
 -4.99759105E-05  1.19468864E-04  0.00000000E+00  0.00000000E+00 -4.28103411E-04
  2.65761865E-05  8.60343563E-04  4.55183948E-05  2.18950724E-05 -2.77329653E-04
 -1.86361789E-04 -1.54677164E-05  2.21483168E-05  0.00000000E+00  1.13409610E-04
 -1.25781741E-04  0.00000000E+00  4.26747001E-04 -4.35614979E-04  0.00000000E+00
 -9.13107127E-06  5.99691573E-06  0.00000000E+00 -5.35323347E-06  0.00000000E+00
  0.00000000E+00 -1.33782385E-05 -1.05835369E-05  8.83697075E-07  0.00000000E+00
  0.00000000E+00  1.42400371E-04 -3.19124320E-05 -6.91581374E-05  0.00000000E+00
  0.00000000E+00  2.64483542E-04 -2.24650512E-05  0.00000000E+00  2.97318995E-06
  9.71067402E-06  0.00000000E+00  0.00000000E+00 -1.32479203E-05 -9.17718239E-06
  0.00000000E+00  1.16754648E-05 -5.02929196E-05  0.00000000E+00  0.00000000E+00
  1.17391702E-04  7.40779704E-05 -8.07619341E-05 -5.56606444E-04 -3.73254890E-04
  2.02553269E-04  3.69454738E-05  3.38079855E-05  0.00000000E+00  4.46119512E-04
 -3.05721632E-04  0.00000000E+00  3.03833200E-04 -3.06080699E-04  0.00000000E+00
 -1.74489661E-05  0.00000000E+00  0.00000000E+00 -3.09849594E-05  2.53796579E-05
  9.94551566E-05  0.00000000E+00  0.00000000E+00 -1.27008687E-05  1.71863971E-04
 -1.27278618E-04 -2.17406492E-04 -2.07354526E-04  4.90232263E-03  3.24708953E-03
  9.66246422E-06 -4.02892560E-05  0.00000000E+00 -5.37939812E-04  8.49096552E-04
  0.00000000E+00 -2.28743054E-03  3.00976710E-03  0.00000000E+00 -7.99117295E-04
  5.57335255E-04  0.00000000E+00  4.18177338E-07  0.00000000E+00  0.00000000E+00
 -3.19001364E-05 -4.42727786E-05 -4.44816340E-04  0.00000000E+00  0.00000000E+00
 -3.21896442E-05 -5.29141432E-04 -6.07930247E-04  0.00000000E+00  0.00000000E+00
 -2.60155388E-04 -9.12272886E-04  0.00000000E+00  1.97935748E-05 -2.09897871E-05
  0.00000000E+00  0.00000000E+00  3.90085304E-05  3.11430652E-05  0.00000000E+00
  8.73545723E-05 -1.42055131E-04  0.00000000E+00  0.00000000E+00  3.02488769E-05
  2.32526990E-04  9.78279239E-01 -8.40454567E-03  4.17871780E-02 -5.38996591E-03
 -3.01799470E-03 -1.09903443E-03 -3.03085207E-03  0.00000000E+00 -8.95451746E-05
  2.96950808E-03  0.00000000E+00  4.85080439E-04  3.03701328E-03  0.00000000E+00
 -4.35895994E-05  5.42244569E-04  0.00000000E+00 -4.39131141E-04  0.00000000E+00
  0.00000000E+00  2.40833846E-04  2.29354153E-04  1.02716275E-03  0.00000000E+00
  0.00000000E+00 -1.75031194E-04  2.97135592E-04  3.51684114E-04  0.00000000E+00
  0.00000000E+00  1.25492356E-04  3.54699715E-05  0.00000000E+00  8.93932722E-05
 -6.81469515E-05  0.00000000E+00  0.00000000E+00 -6.00502713E-05 -1.11441037E-05
  0.00000000E+00 -2.24788842E-04 -2.28734646E-04  0.00000000E+00  0.00000000E+00
  4.62335455E-04  2.60811996E-04 -1.89028612E-04  9.20735693E-04  1.57699726E-04
  3.02345471E-03  8.84591457E-04  2.62231395E-04  1.23336000E-04  0.00000000E+00
  8.76240435E-04  2.77068904E-04  0.00000000E+00  1.23843975E-03 -1.41021772E-04
  0.00000000E+00  1.05419472E-05  3.21924358E-05  0.00000000E+00 -3.95762857E-05
  0.00000000E+00  0.00000000E+00  7.15791144E-05  8.45873274E-05  7.30434195E-05
  0.00000000E+00  0.00000000E+00  6.65887679E-09 -2.71704708E-04 -3.52854358E-05
  0.00000000E+00  0.00000000E+00  2.92279587E-04 -1.38111563E-04  0.00000000E+00
  9.25180241E-05  3.61923092E-05  0.00000000E+00  0.00000000E+00 -5.50794598E-05
 -1.11861352E-04  0.00000000E+00  1.57448438E-04  1.25261602E-04  0.00000000E+00
  0.00000000E+00  2.69934092E-05 -3.54936445E-04  2.13917626E-02  1.74550206E-02
 -1.79020683E-03  4.49227829E-04 -3.25929927E-03 -9.59426391E-04  0.00000000E+00
 -2.63398135E-03 -1.19668891E-03  0.00000000E+00  2.48150415E-03  1.02474244E-04
  0.00000000E+00 -2.49502416E-04  0.00000000E+00  0.00000000E+00  4.15820232E-04
  3.13484432E-04  2.84678311E-04  0.00000000E+00  0.00000000E+00  3.66222451E-04
  6.14710508E-04 -6.65710909E-02  1.61256587E-01  4.29755426E-02  9.26986384E-02
  7.78745965E-03 -1.51123715E-02  2.36028843E-02  0.00000000E+00 -2.03820862E-02
  3.39276749E-02  0.00000000E+00 -1.19195782E-02  1.05670589E-02  0.00000000E+00
 -2.06481469E-03 -1.80211926E-03  0.00000000E+00 -1.83540056E-03  0.00000000E+00
  0.00000000E+00  7.04275552E-05 -1.79791443E-03 -4.13740372E-03  0.00000000E+00
  0.00000000E+00  7.19318541E-04 -4.28947711E-03  1.02313603E-03  0.00000000E+00
  0.00000000E+00  1.97544048E-04 -1.59334315E-03  0.00000000E+00  4.63932256E-04
 -8.92485144E-04  0.00000000E+00  0.00000000E+00  6.89732394E-04  1.30879657E-03
  0.00000000E+00 -2.62829968E-04  5.28483768E-04  0.00000000E+00  0.00000000E+00
 -2.60120827E-04  1.76945061E-04 -1.30113230E-01  3.07531295E-01  8.09887525E-02
  6.36988020E-02  5.69527333E-04 -7.32815859E-02 -4.71604410E-02  0.00000000E+00
 -7.68227415E-02 -6.49566535E-02  0.00000000E+00 -2.88650691E-03  8.81379270E-03
  0.00000000E+00 -9.12797327E-06  3.15893644E-03  0.00000000E+00 -9.28865428E-03
  0.00000000E+00  0.00000000E+00  8.50706970E-03  6.30650332E-03 -1.14835555E-02
  0.00000000E+00  0.00000000E+00  9.22938531E-03  5.95751601E-03  6.14651985E-03
  0.00000000E+00  0.00000000E+00 -1.33736313E-04  4.92164628E-04  0.00000000E+00
  2.49160374E-03  2.43697737E-03  0.00000000E+00  0.00000000E+00 -4.84412681E-03
 -5.47987269E-03  0.00000000E+00 -1.41011528E-03 -4.27287334E-04  0.00000000E+00
  0.00000000E+00  9.47902191E-04 -4.75408360E-05 -1.50033744E-01  3.58843382E-01
  9.61907311E-02  1.79223638E-01 -1.50902547E-02  7.97279523E-02  2.18972279E-02
  0.00000000E+00  1.01086905E-01  2.75057595E-02  0.00000000E+00  1.75509884E-02
  3.29917250E-03  0.00000000E+00 -8.59681870E-03 -2.39839708E-03  0.00000000E+00
 -5.15553731E-03  0.00000000E+00  0.00000000E+00  7.27946839E-03  4.47489717E-03
 -9.46199682E-03  0.00000000E+00  0.00000000E+00  1.50117875E-02  9.41435204E-03
  2.52482312E-03  0.00000000E+00  0.00000000E+00 -3.67503538E-03 -2.62227691E-03
  0.00000000E+00 -3.14088865E-03 -8.70167014E-04  0.00000000E+00  0.00000000E+00
  3.31204764E-03  3.61726749E-03  0.00000000E+00 -1.01044555E-04 -2.68079741E-04
  0.00000000E+00  0.00000000E+00  1.02188344E-03  1.90233839E-03  8.04285470E-02
  7.92372436E-02 -2.09194204E-02 -2.90318749E-03 -1.17152493E-02 -4.99697210E-03
  0.00000000E+00 -1.46337699E-02 -1.78898677E-03  0.00000000E+00  7.79375243E-03
  2.31721125E-03  0.00000000E+00 -1.30573859E-03  0.00000000E+00  0.00000000E+00
  2.14667726E-03  1.30633703E-03  4.32510075E-04  0.00000000E+00  0.00000000E+00
  2.14539582E-03 -1.32036656E-03 -1.81205675E-01  4.41476272E-01  1.20474793E-01
  2.57458521E-01  1.14408304E-02  1.56885283E-02  3.85013390E-02  0.00000000E+00