title                                                                   
SP        RMP2-FC                                                     Aug-CC-pVTZ         
Number of atoms                            I                4
Info1-9                                    I   N=           9
          29          20           0           0           0         110
           1           2           1
Full Title                                 C   N=           1
title       
Route                                      C   N=           4
#p SP mp2/aug-cc-pvtz density=current           
Charge                                     I                0
Multiplicity                               I                1
Number of electrons                        I               24
Number of alpha electrons                  I               12
Number of beta electrons                   I               12
Number of basis functions                  I              161
Number of independent functions            I              161
Number of point charges in /Mol/           I                0
Number of translation vectors              I                0
Atomic numbers                             I   N=           4
           1           8           7           8
Nuclear charges                            R   N=           4
  1.00000000E+00  8.00000000E+00  7.00000000E+00  8.00000000E+00
Current cartesian coordinates              R   N=          12
  3.31729536E+00 -2.75507276E-01 -5.55169296E-32  1.69709470E+00 -1.11349640E+00
  2.15930267E-31 -6.74091398E-18  9.84007982E-01  2.90300759E-32 -2.11175662E+00
  2.86927825E-01  3.88682291E-31
Number of symbols in /Mol/                 I                0
Force Field                                I                0
Atom Types                                 C   N=           4
                                                
Int Atom Types                             I   N=           4
           0           0           0           0
MM charges                                 R   N=           4
  0.00000000E+00  0.00000000E+00  0.00000000E+00  0.00000000E+00
Integer atomic weights                     I   N=           4
           1          16          14          16
Real atomic weights                        R   N=           4
  1.00782504E+00  1.59949146E+01  1.40030740E+01  1.59949146E+01
Atom fragment info                         I   N=           4
           0           0           0           0
Atom residue num                           I   N=           4
           0           0           0           0
Nuclear spins                              I   N=           4
           1           0           2           0
Nuclear ZEff                               R   N=           4
 -1.00000000E+00 -5.60000000E+00 -4.55000000E+00 -5.60000000E+00
Nuclear ZNuc                               R   N=           4
  1.00000000E+00  8.00000000E+00  7.00000000E+00  8.00000000E+00
Nuclear QMom                               R   N=           4
  0.00000000E+00  0.00000000E+00  2.04400000E+00  0.00000000E+00
Nuclear GFac                               R   N=           4
  2.79284600E+00  0.00000000E+00  4.03761000E-01  0.00000000E+00
MicOpt                                     I   N=           4
          -1          -1          -1          -1
Number of residues                         I                0
Number of secondary structures             I                0
SymInf integers                            I   N=          26
           1           2           1           1           1           1
           1          -1           0           0           0           0
           0           0           0           0           0           0
           0           0           0           0           0           0
           0           0
RotTr to input orientation                 R   N=          12
 -4.59403154E-01  7.65439741E-17 -8.88227866E-01  8.88227866E-01  9.94729153E-16
 -4.59403154E-01  8.48381610E-16 -1.00000000E+00 -5.24970202E-16  1.76868919E+00
  0.00000000E+00  2.81994527E+00
Number of contracted shells                I               51
Number of primitive shells                 I               92
Pure/Cartesian d shells                    I                0
Pure/Cartesian f shells                    I                0
Highest angular momentum                   I                3
Largest degree of contraction              I                7
Shell types                                I   N=          51
           0           0           0           0           1           1
           1          -2          -2           0           0           0
           0           0           1           1           1           1
          -2          -2          -2          -3          -3           0
           0           0           0           0           1           1
           1           1          -2          -2          -2          -3
          -3           0           0           0           0           0
           1           1           1           1          -2          -2
          -2          -3          -3
Number of primitives per shell             I   N=          51
           3           1           1           1           1           1
           1           1           1           7           6           1
           1           1           3           1           1           1
           1           1           1           1           1           7
           6           1           1           1           3           1
           1           1           1           1           1           1
           1           7           6           1           1           1
           3           1           1           1           1           1
           1           1           1
Shell to atom map                          I   N=          51
           1           1           1           1           1           1
           1           1           1           2           2           2
           2           2           2           2           2           2
           2           2           2           2           2           3
           3           3           3           3           3           3
           3           3           3           3           3           3
           3           4           4           4           4           4
           4           4           4           4           4           4
           4           4           4
Primitive exponents                        R   N=          92
  3.38700000E+01  5.09500000E+00  1.15900000E+00  3.25800000E-01  1.02700000E-01
  2.52600000E-02  1.40700000E+00  3.88000000E-01  1.02000000E-01  1.05700000E+00
  2.47000000E-01  1.53300000E+04  2.29900000E+03  5.22400000E+02  1.47300000E+02
  4.75500000E+01  1.67600000E+01  6.20700000E+00  5.22400000E+02  1.47300000E+02
  4.75500000E+01  1.67600000E+01  6.20700000E+00  6.88200000E-01  1.75200000E+00
  2.38400000E-01  7.37600000E-02  3.44600000E+01  7.74900000E+00  2.28000000E+00
  7.15600000E-01  2.14000000E-01  5.97400000E-02  2.31400000E+00  6.45000000E-01
  2.14000000E-01  1.42800000E+00  5.00000000E-01  1.14200000E+04  1.71200000E+03
  3.89300000E+02  1.10000000E+02  3.55700000E+01  1.25400000E+01  4.64400000E+00
  3.89300000E+02  1.10000000E+02  3.55700000E+01  1.25400000E+01  4.64400000E+00
  5.11800000E-01  1.29300000E+00  1.78700000E-01  5.76000000E-02  2.66300000E+01
  5.94800000E+00  1.74200000E+00  5.55000000E-01  1.72500000E-01  4.91000000E-02
  1.65400000E+00  4.69000000E-01  1.51000000E-01  1.09300000E+00  3.64000000E-01
  1.53300000E+04  2.29900000E+03  5.22400000E+02  1.47300000E+02  4.75500000E+01
  1.67600000E+01  6.20700000E+00  5.22400000E+02  1.47300000E+02  4.75500000E+01
  1.67600000E+01  6.20700000E+00  6.88200000E-01  1.75200000E+00  2.38400000E-01
  7.37600000E-02  3.44600000E+01  7.74900000E+00  2.28000000E+00  7.15600000E-01
  2.14000000E-01  5.97400000E-02  2.31400000E+00  6.45000000E-01  2.14000000E-01
  1.42800000E+00  5.00000000E-01
Contraction coefficients                   R   N=          92
  2.54948632E-02  1.90362766E-01  8.52162022E-01  1.00000000E+00  1.00000000E+00
  1.00000000E+00  1.00000000E+00  1.00000000E+00  1.00000000E+00  1.00000000E+00
  1.00000000E+00  5.19808943E-04  4.02025621E-03  2.07128267E-02  8.10105536E-02
  2.35962985E-01  4.42653446E-01  3.57064423E-01 -4.42115008E-05 -1.22591041E-03
 -1.05517725E-02 -6.74452633E-02 -1.71198607E-01  1.07329856E+00  1.00000000E+00
  1.00000000E+00  1.00000000E+00  4.11634896E-02  2.57762836E-01  8.02419274E-01
  1.00000000E+00  1.00000000E+00  1.00000000E+00  1.00000000E+00  1.00000000E+00
  1.00000000E+00  1.00000000E+00  1.00000000E+00  5.34563860E-04  4.13435660E-03
  2.12335358E-02  8.25006224E-02  2.38138871E-01  4.42551547E-01  3.53757422E-01
 -4.89867350E-05 -1.19527323E-03 -1.03490714E-02 -6.48680190E-02 -1.71552477E-01
  1.07289568E+00  1.00000000E+00  1.00000000E+00  1.00000000E+00  3.98072123E-02
  2.49002660E-01  8.10479727E-01  1.00000000E+00  1.00000000E+00  1.00000000E+00
  1.00000000E+00  1.00000000E+00  1.00000000E+00  1.00000000E+00  1.00000000E+00
  5.19808943E-04  4.02025621E-03  2.07128267E-02  8.10105536E-02  2.35962985E-01
  4.42653446E-01  3.57064423E-01 -4.42115008E-05 -1.22591041E-03 -1.05517725E-02
 -6.74452633E-02 -1.71198607E-01  1.07329856E+00  1.00000000E+00  1.00000000E+00
  1.00000000E+00  4.11634896E-02  2.57762836E-01  8.02419274E-01  1.00000000E+00
  1.00000000E+00  1.00000000E+00  1.00000000E+00  1.00000000E+00  1.00000000E+00
  1.00000000E+00  1.00000000E+00
Coordinates of each shell                  R   N=         153
  3.31729536E+00 -2.75507276E-01 -1.00929226E-31  3.31729536E+00 -2.75507276E-01
 -1.00929226E-31  3.31729536E+00 -2.75507276E-01 -1.00929226E-31  3.31729536E+00
 -2.75507276E-01 -1.00929226E-31  3.31729536E+00 -2.75507276E-01 -1.00929226E-31
  3.31729536E+00 -2.75507276E-01 -1.00929226E-31  3.31729536E+00 -2.75507276E-01
 -1.00929226E-31  3.31729536E+00 -2.75507276E-01 -1.00929226E-31  3.31729536E+00
 -2.75507276E-01 -1.00929226E-31  1.69709470E+00 -1.11349640E+00  4.03731618E-32
  1.69709470E+00 -1.11349640E+00  4.03731618E-32  1.69709470E+00 -1.11349640E+00
  4.03731618E-32  1.69709470E+00 -1.11349640E+00  4.03731618E-32  1.69709470E+00
 -1.11349640E+00  4.03731618E-32  1.69709470E+00 -1.11349640E+00  4.03731618E-32
  1.69709470E+00 -1.11349640E+00  4.03731618E-32  1.69709470E+00 -1.11349640E+00
  4.03731618E-32  1.69709470E+00 -1.11349640E+00  4.03731618E-32  1.69709470E+00
 -1.11349640E+00  4.03731618E-32  1.69709470E+00 -1.11349640E+00  4.03731618E-32
  1.69709470E+00 -1.11349640E+00  4.03731618E-32  1.69709470E+00 -1.11349640E+00
  4.03731618E-32  1.69709470E+00 -1.11349640E+00  4.03731618E-32 -6.55408583E-17
  9.84007982E-01 -9.30915390E-32 -6.55408583E-17  9.84007982E-01 -9.30915390E-32
 -6.55408583E-17  9.84007982E-01 -9.30915390E-32 -6.55408583E-17  9.84007982E-01
 -9.30915390E-32 -6.55408583E-17  9.84007982E-01 -9.30915390E-32 -6.55408583E-17
  9.84007982E-01 -9.30915390E-32 -6.55408583E-17  9.84007982E-01 -9.30915390E-32
 -6.55408583E-17  9.84007982E-01 -9.30915390E-32 -6.55408583E-17  9.84007982E-01
 -9.30915390E-32 -6.55408583E-17  9.84007982E-01 -9.30915390E-32 -6.55408583E-17
  9.84007982E-01 -9.30915390E-32 -6.55408583E-17  9.84007982E-01 -9.30915390E-32
 -6.55408583E-17  9.84007982E-01 -9.30915390E-32 -6.55408583E-17  9.84007982E-01
 -9.30915390E-32 -2.11175662E+00  2.86927825E-01  5.36980880E-32 -2.11175662E+00
  2.86927825E-01  5.36980880E-32 -2.11175662E+00  2.86927825E-01  5.36980880E-32
 -2.11175662E+00  2.86927825E-01  5.36980880E-32 -2.11175662E+00  2.86927825E-01
  5.36980880E-32 -2.11175662E+00  2.86927825E-01  5.36980880E-32 -2.11175662E+00
  2.86927825E-01  5.36980880E-32 -2.11175662E+00  2.86927825E-01  5.36980880E-32
 -2.11175662E+00  2.86927825E-01  5.36980880E-32 -2.11175662E+00  2.86927825E-01
  5.36980880E-32 -2.11175662E+00  2.86927825E-01  5.36980880E-32 -2.11175662E+00
  2.86927825E-01  5.36980880E-32 -2.11175662E+00  2.86927825E-01  5.36980880E-32
 -2.11175662E+00  2.86927825E-01  5.36980880E-32
Num ILSW                                   I              100
ILSW                                       I   N=         100
           0           0           0           0           2           0
           0           0           0           0           0          -1
           5           0           0           0           0           0
           0           0           0           0           0           0
           1           0           0           0           0           0
           0           0      100000           0          -1           0
           0           0           0           0           0           0
           0           0           0           1           0           0
           0 -2000000000           1           0           0           0
           0           0           4          52           0           0
           0           0           0           0           0           0
           0           0           0           4           0           1
           0           0           0           0           0           0
           0           0           0           0           0           0
           0           0           0           0           0           0
           0           0           0           0           0           0
           0           0           0           0
Num RLSW                                   I               52
RLSW                                       R   N=          52
  1.00000000E+00  1.00000000E+00  1.00000000E+00  1.00000000E+00  1.00000000E+00
  0.00000000E+00  0.00000000E+00  1.00000000E+00  0.00000000E+00  0.00000000E+00
  0.00000000E+00  0.00000000E+00  1.00000000E+00  0.00000000E+00  0.00000000E+00
  0.00000000E+00  0.00000000E+00  1.00000000E+00  0.00000000E+00  0.00000000E+00
  0.00000000E+00  0.00000000E+00  1.00000000E+00  0.00000000E+00  0.00000000E+00
  0.00000000E+00  0.00000000E+00  1.00000000E+00  0.00000000E+00  0.00000000E+00
  0.00000000E+00  0.00000000E+00  1.00000000E+00  0.00000000E+00  0.00000000E+00
  0.00000000E+00  0.00000000E+00  0.00000000E+00  1.00000000E+00  1.00000000E+00
  0.00000000E+00  1.00000000E+00  0.00000000E+00  0.00000000E+00  0.00000000E+00
  0.00000000E+00  0.00000000E+00  0.00000000E+00  0.00000000E+00  0.00000000E+00
  0.00000000E+00  0.00000000E+00
MxBond                                     I                2
NBond                                      I   N=           4
           1           2           2           1
IBond                                      I   N=           8
           2           0           1           3           2           4
           3           0
RBond                                      R   N=           8
  1.00000000E+00  0.00000000E+00  1.00000000E+00  1.00000000E+00  1.00000000E+00
  2.00000000E+00  2.00000000E+00  0.00000000E+00
Virial Ratio                               R      2.002320938423510E+00
SCF Energy                                 R     -2.047236254356148E+02
MP2 Energy                                 R     -2.054213317277143E+02
Total Energy                               R     -2.054213317277143E+02
Post-SCF wavefunction norm                 R      1.089914588846803E+00
RMS Density                                R      5.444123703211791E-09
Job Status                                 I                1
Nuclear derivative order                   I                0
External E-field                           R   N=          35
  0.00000000E+00  0.00000000E+00  0.00000000E+00  0.00000000E+00  0.00000000E+00
  0.00000000E+00  0.00000000E+00  0.00000000E+00  0.00000000E+00  0.00000000E+00
  0.00000000E+00  0.00000000E+00  0.00000000E+00  0.00000000E+00  0.00000000E+00
  0.00000000E+00  0.00000000E+00  0.00000000E+00  0.00000000E+00  0.00000000E+00
  0.00000000E+00  0.00000000E+00  0.00000000E+00  0.00000000E+00  0.00000000E+00
  0.00000000E+00  0.00000000E+00  0.00000000E+00  0.00000000E+00  0.00000000E+00
  0.00000000E+00  0.00000000E+00  0.00000000E+00  0.00000000E+00  0.00000000E+00
IOpCl                                      I                0
IROHF                                      I                0
Alpha Orbital Energies                     R   N=         161
 -2.06654183E+01 -2.06419755E+01 -1.57988759E+01 -1.60297388E+00 -1.40376020E+00
 -9.49049577E-01 -7.84956671E-01 -7.29950953E-01 -6.81677825E-01 -6.26117055E-01
 -5.28757453E-01 -4.61894516E-01  2.80821042E-02  8.03573208E-02  9.39356923E-02
  9.75308247E-02  1.28855362E-01  1.43960102E-01  1.56856612E-01  1.72140886E-01
  1.87149617E-01  1.96560512E-01  2.05563247E-01  2.33504786E-01  2.58232951E-01
  2.96533510E-01  3.07754381E-01  3.29773259E-01  3.65578148E-01  3.82685141E-01
  4.25213798E-01  5.25226593E-01  5.26300346E-01  5.48055660E-01  5.73298763E-01
  6.12865788E-01  6.31236673E-01  6.48520792E-01  6.80175271E-01  7.14362136E-01
  7.18061561E-01  7.48082845E-01  7.74917681E-01  7.81509207E-01  8.11446581E-01
  8.11750263E-01  8.61189723E-01  8.78976664E-01  9.26456187E-01  9.39206973E-01
  9.45360689E-01  9.95692243E-01  1.04993132E+00  1.06389321E+00  1.08169634E+00
  1.10629641E+00  1.16123986E+00  1.19619916E+00  1.25214618E+00  1.26870403E+00
  1.36228399E+00  1.43423450E+00  1.49038996E+00  1.52285323E+00  1.52430174E+00
  1.54451070E+00  1.55502794E+00  1.60989514E+00  1.65813975E+00  1.72907461E+00
  1.75428360E+00  1.82247219E+00  1.85606683E+00  1.96299230E+00  1.97651230E+00
  1.99840021E+00  2.07518733E+00  2.13296428E+00  2.13321331E+00  2.18939373E+00
  2.27125941E+00  2.30932131E+00  2.32925953E+00  2.38133889E+00  2.45168318E+00
  2.46949724E+00  2.49822433E+00  2.50254608E+00  2.52167622E+00  2.54513788E+00
  2.56999071E+00  2.60660635E+00  2.60825847E+00  2.66277096E+00  2.77080814E+00
  2.77841842E+00  2.83696866E+00  2.93845848E+00  2.95151903E+00  3.11571129E+00
  3.14737907E+00  3.18237515E+00  3.24766261E+00  3.46227193E+00  3.83772139E+00
  3.85488486E+00  4.03034527E+00  4.17463310E+00  4.18376731E+00  4.21477738E+00
  4.36807064E+00  4.37433131E+00  4.58277930E+00  4.63393138E+00  4.75324123E+00
  4.81863058E+00  4.87367821E+00  4.88770326E+00  4.98388380E+00  5.00240806E+00
  5.07480079E+00  5.09241058E+00  5.17419445E+00  5.25025693E+00  5.25867769E+00
  5.33749112E+00  5.37795524E+00  5.37958935E+00  5.58154062E+00  5.66769099E+00
  5.79620360E+00  5.98910024E+00  6.11837947E+00  6.43537866E+00  6.50709996E+00
  6.51030114E+00  6.67439764E+00  6.71633074E+00  6.74561629E+00  6.84846363E+00
  6.91658372E+00  7.07304132E+00  7.11921435E+00  7.18919819E+00  7.23490809E+00
  7.25826378E+00  7.26252594E+00  7.33164351E+00  7.38225059E+00  7.43307910E+00
  7.47870262E+00  7.60908825E+00  7.65002481E+00  7.70232841E+00  7.79269108E+00
  7.98511909E+00  8.07244338E+00  8.43265795E+00  1.42203393E+01  1.51848390E+01
  1.59780601E+01
Alpha MO coefficients                      R   N=       25921
  5.81290640E-05  1.91754670E-04 -3.81436006E-04  4.35545868E-06 -5.47398048E-05
  1.05450851E-05  0.00000000E+00  4.69740824E-05  5.96085120E-05  0.00000000E+00
  2.65554609E-04  1.69113352E-05  0.00000000E+00  2.13314118E-05  0.00000000E+00
  0.00000000E+00  1.25502468E-05  7.63287077E-06  5.22482992E-05  0.00000000E+00
  0.00000000E+00 -3.12440201E-05  1.87390264E-05 -7.88110148E-04  7.92315747E-05
 -5.95852135E-05 -9.15272784E-05  2.26157147E-04  1.84959276E-05 -1.73154755E-05
  0.00000000E+00 -8.98106856E-05  4.58201731E-05  0.00000000E+00 -1.43322577E-04
  3.85961033E-05  0.00000000E+00 -1.18087617E-04  5.31056143E-05  0.00000000E+00
 -8.87251273E-06  0.00000000E+00  0.00000000E+00  2.70503557E-05  1.04377657E-05
  2.14001814E-06  0.00000000E+00  0.00000000E+00 -9.70591075E-05 -1.22059326E-04
 -1.69532898E-05  0.00000000E+00  0.00000000E+00 -7.19525139E-05 -2.37401757E-04
  0.00000000E+00  4.03399869E-06  1.87030976E-06  0.00000000E+00  0.00000000E+00
 -8.02807166E-06 -1.43094882E-05  0.00000000E+00 -2.06680579E-05 -1.76520996E-05
  0.00000000E+00  0.00000000E+00  1.92856238E-04 -5.02339581E-05  2.49326017E-04
  1.41891268E-03 -1.01617399E-04 -1.52762588E-03  3.78042971E-04 -1.12970491E-04
 -6.45095024E-05  0.00000000E+00 -2.04316932E-03 -5.60030800E-04  0.00000000E+00
  1.14314376E-03 -6.83020355E-05  0.00000000E+00 -1.14341342E-04 -9.22817250E-05
  0.00000000E+00 -1.25294062E-04  0.00000000E+00  0.00000000E+00  2.13611275E-04
  1.44878838E-04 -4.38681247E-04  0.00000000E+00  0.00000000E+00  5.51515073E-04
  7.91738852E-04 -1.86510407E-06  0.00000000E+00  0.00000000E+00 -1.62671932E-04
 -1.52743855E-04  0.00000000E+00  1.27641670E-05 -1.28317886E-05  0.00000000E+00
  0.00000000E+00  1.59477301E-05  1.51478648E-05  0.00000000E+00  1.43742865E-04
  1.28654155E-04  0.00000000E+00  0.00000000E+00 -2.22035541E-05 -2.92273603E-04
  9.76650807E-01 -9.86477105E-03  4.35628964E-02  4.27854077E-03 -5.30221609E-04
  2.10835852E-03  5.66652340E-04  0.00000000E+00 -2.41177303E-03 -5.86654274E-04
  0.00000000E+00  9.87216786E-04  5.50798101E-04  0.00000000E+00 -5.17346451E-05
  2.95701676E-05  0.00000000E+00 -2.29208940E-04  0.00000000E+00  0.00000000E+00
  7.68960797E-05  5.56354669E-05  3.87427300E-04  0.00000000E+00  0.00000000E+00
 -8.26869447E-04 -4.41609034E-04 -1.59515068E-04  0.00000000E+00  0.00000000E+00
  1.77124977E-04  2.48339480E-04  0.00000000E+00  5.52789777E-05  1.07138091E-05
  0.00000000E+00  0.00000000E+00 -1.71334276E-05 -2.43323765E-05  0.00000000E+00
  1.24000709E-04  4.67260709E-05  0.00000000E+00  0.00000000E+00 -1.60211680E-04
 -1.53348038E-04  4.84935759E-04  2.35682364E-03  2.75437123E-04 -1.08794077E-05
 -2.10668364E-04 -9.90880094E-05  0.00000000E+00 -9.34254096E-04 -8.47571527E-04
  0.00000000E+00 -7.41526557E-05 -4.14579963E-04  0.00000000E+00  2.29283247E-05
  0.00000000E+00  0.00000000E+00 -5.81903661E-05 -7.11038100E-05 -1.51847541E-04
  0.00000000E+00  0.00000000E+00  1.63782731E-04  4.11132186E-04  9.76752736E-01
 -9.23697794E-03  4.35600320E-02  9.23765959E-04 -8.46300613E-04  4.13087056E-04
  1.84173761E-03  0.00000000E+00 -1.77517818E-04 -1.81825454E-03  0.00000000E+00
 -1.44240356E-03  3.50297739E-04  0.00000000E+00 -5.05990478E-05  3.79621975E-05
  0.00000000E+00 -4.49972478E-05  0.00000000E+00  0.00000000E+00  3.84509993E-05
  5.04020837E-05  6.42299773E-04  0.00000000E+00  0.00000000E+00 -2.96458568E-04
  2.61894587E-04 -9.67630525E-05  0.00000000E+00  0.00000000E+00 -2.77806022E-04
 -3.65988661E-04  0.00000000E+00 -3.38289970E-05  4.41093924E-05  0.00000000E+00
  0.00000000E+00 -1.27711190E-05  9.58378723E-07  0.00000000E+00  9.29729471E-05
  5.41556572E-05  0.00000000E+00  0.00000000E+00 -2.23273668E-04 -2.29682330E-04
  5.95677631E-05  1.61876997E-04 -3.20388957E-04 -3.42734365E-04  8.63217129E-04
 -8.37193567E-05  7.76521723E-05  0.00000000E+00  7.08446696E-04 -6.56156308E-04
  0.00000000E+00 -4.08054071E-04  5.35044218E-04  0.00000000E+00  1.56223597E-04
 -1.72744264E-04  0.00000000E+00 -3.46323390E-05  0.00000000E+00  0.00000000E+00
 -3.49359752E-05 -4.96999209E-05 -4.01556124E-04  0.00000000E+00  0.00000000E+00
 -1.62023720E-04 -9.31059094E-04 -1.88198896E-04  0.00000000E+00  0.00000000E+00
  5.49179153E-04 -5.80467142E-05  0.00000000E+00 -8.71747432E-05  9.89117874E-05
  0.00000000E+00  0.00000000E+00 -1.47885083E-04 -5.88135147E-05  0.00000000E+00
 -5.47101145E-05  1.19743751E-04  0.00000000E+00  0.00000000E+00 -4.25961470E-04
  1.94768740E-05  8.22288553E-04  4.70495105E-05  2.03105220E-05 -2.89940033E-04
 -1.96185786E-04 -1.51692586E-05  2.23922915E-05  0.00000000E+00  1.10741706E-04
 -1.27657299E-04  0.00000000E+00  4.11709261E-04 -4.29168193E-04  0.00000000E+00
 -7.19959908E-06  1.31155867E-06  0.00000000E+00 -5.20158473E-06  0.00000000E+00
  0.00000000E+00 -1.30329546E-05 -1.08020588E-05  1.00982412E-06  0.00000000E+00
  0.00000000E+00  1.39364272E-04 -3.34478555E-05 -6.63545938E-05  0.00000000E+00
  0.00000000E+00  2.59335332E-04 -1.85634682E-05  0.00000000E+00  2.98351316E-06
  1.01788958E-05  0.00000000E+00  0.00000000E+00 -1.31937285E-05 -1.00400772E-05
  0.00000000E+00  1.21535437E-05 -5.14957747E-05  0.00000000E+00  0.00000000E+00
  1.16759361E-04  7.47093659E-05 -7.78265282E-05 -4.98873381E-04 -3.36425216E-04
  2.07859501E-04  3.55443221E-05  3.16934577E-05  0.00000000E+00  4.66810413E-04
 -3.31598031E-04  0.00000000E+00  3.09275810E-04 -3.17394212E-04  0.00000000E+00
 -1.47495143E-05  0.00000000E+00  0.00000000E+00 -3.79806452E-05  3.04854234E-05
  1.11857924E-04  0.00000000E+00  0.00000000E+00 -2.59363725E-05  1.74324590E-04
 -1.26194305E-04 -2.10657924E-04 -2.08004492E-04  4.95050300E-03  3.25516507E-03
  9.28779275E-06 -4.09604853E-05  0.00000000E+00 -5.26286290E-04  8.56095953E-04
  0.00000000E+00 -2.38096305E-03  3.06042112E-03  0.00000000E+00 -8.21539547E-04
  5.64529360E-04  0.00000000E+00  1.73929204E-07  0.00000000E+00  0.00000000E+00
 -3.13299154E-05 -4.36324808E-05 -4.45626889E-04  0.00000000E+00  0.00000000E+00
 -3.82401157E-05 -5.25935065E-04 -6.06641021E-04  0.00000000E+00  0.00000000E+00
 -2.90058066E-04 -9.38969821E-04  0.00000000E+00  1.90824529E-05 -2.13994024E-05
  0.00000000E+00  0.00000000E+00  3.86800050E-05  3.25214532E-05  0.00000000E+00
  9.31645822E-05 -1.43687280E-04  0.00000000E+00  0.00000000E+00  2.51433859E-05
  2.30928825E-04  9.78280964E-01 -8.40093332E-03  4.17859824E-02 -5.48492102E-03
 -3.05512767E-03 -1.09738300E-03 -3.03845318E-03  0.00000000E+00 -9.67979206E-05
  2.98113245E-03  0.00000000E+00  4.44864539E-04  3.07403595E-03  0.00000000E+00
 -4.15863641E-05  5.45764604E-04  0.00000000E+00 -4.39321970E-04  0.00000000E+00
  0.00000000E+00  2.39778081E-04  2.29569431E-04  1.03013876E-03  0.00000000E+00
  0.00000000E+00 -1.71980788E-04  3.00587360E-04  3.59719472E-04  0.00000000E+00
  0.00000000E+00  1.23024355E-04  4.46176047E-05  0.00000000E+00  8.97697318E-05
 -6.87267886E-05  0.00000000E+00  0.00000000E+00 -6.00019065E-05 -1.04429898E-05
  0.00000000E+00 -2.24412647E-04 -2.28497031E-04  0.00000000E+00  0.00000000E+00
  4.59156002E-04  2.57892786E-04 -1.89213027E-04  9.19497042E-04  1.57433487E-04
  3.02334583E-03  8.89978144E-04  2.62091199E-04  1.23601907E-04  0.00000000E+00
  8.76287590E-04  2.74763000E-04  0.00000000E+00  1.23818894E-03 -1.42928048E-04
  0.00000000E+00  9.27290252E-06  3.61457585E-05  0.00000000E+00 -3.97378100E-05
  0.00000000E+00  0.00000000E+00  7.16809538E-05  8.44556355E-05  7.35805387E-05
  0.00000000E+00  0.00000000E+00  1.34152005E-08 -2.73056659E-04 -3.64250225E-05
  0.00000000E+00  0.00000000E+00  2.89524633E-04 -1.38839868E-04  0.00000000E+00
  9.23157413E-05  3.64513450E-05  0.00000000E+00  0.00000000E+00 -5.46764486E-05
 -1.12228843E-04  0.00000000E+00  1.58153968E-04  1.24540527E-04  0.00000000E+00
  0.00000000E+00  2.57272734E-05 -3.54961380E-04  2.15296304E-02  1.75554628E-02
 -1.76759018E-03  4.50256736E-04 -3.29711928E-03 -9.24692819E-04  0.00000000E+00
 -2.65090951E-03 -1.01864503E-03  0.00000000E+00  2.44040992E-03  2.32658254E-04
  0.00000000E+00 -2.52768497E-04  0.00000000E+00  0.00000000E+00  4.23108555E-04
  3.02186392E-04  2.99209341E-04  0.00000000E+00  0.00000000E+00  3.75919550E-04
  5.21260244E-04 -6.65968051E-02  1.61316792E-01  4.29844113E-02  9.27866411E-02
  7.84069457E-03 -1.49096601E-02  2.35393185E-02  0.00000000E+00 -2.01196814E-02
  3.38295952E-02  0.00000000E+00 -1.18925137E-02  1.04818591E-02  0.00000000E+00
 -2.01674354E-03 -1.82738705E-03  0.00000000E+00 -1.83886129E-03  0.00000000E+00
  0.00000000E+00  9.33691236E-05 -1.79527424E-03 -4.11809273E-03  0.00000000E+00
  0.00000000E+00  7.63598452E-04 -4.31283082E-03  1.05665335E-03  0.00000000E+00
  0.00000000E+00  1.62418477E-04 -1.63019286E-03  0.00000000E+00  4.58164354E-04
 -8.88337777E-04  0.00000000E+00  0.00000000E+00  7.09462685E-04  1.31213350E-03
  0.00000000E+00 -2.52973050E-04  5.46244384E-04  0.00000000E+00  0.00000000E+00
 -2.44992901E-04  1.53885925E-04 -1.30077252E-01  3.07456888E-01  8.09774988E-02
  6.35392575E-02  5.06325061E-04 -7.33670029E-02 -4.71447909E-02  0.00000000E+00
 -7.68880872E-02 -6.49402268E-02  0.00000000E+00 -3.17950099E-03  8.84608915E-03
  0.00000000E+00 -5.76629307E-05  3.17081809E-03  0.00000000E+00 -9.28829964E-03
  0.00000000E+00  0.00000000E+00  8.50926267E-03  6.31329435E-03 -1.14771577E-02
  0.00000000E+00  0.00000000E+00  9.22498404E-03  5.97270033E-03  6.16064608E-03
  0.00000000E+00  0.00000000E+00 -1.49771143E-04  5.14830642E-04  0.00000000E+00
  2.49016316E-03  2.43498717E-03  0.00000000E+00  0.00000000E+00 -4.84131378E-03
 -5.47625726E-03  0.00000000E+00 -1.37678112E-03 -4.28449333E-04  0.00000000E+00
  0.00000000E+00  9.09485684E-04 -4.02974378E-05 -1.50069939E-01  3.58925934E-01
  9.62127004E-02  1.79169215E-01 -1.50858514E-02  7.97352495E-02  2.18933041E-02
  0.00000000E+00  1.01108733E-01  2.74835490E-02  0.00000000E+00  1.75741564E-02
  3.26095740E-03  0.00000000E+00 -8.58201607E-03 -2.41149522E-03  0.00000000E+00
 -5.15697761E-03  0.00000000E+00  0.00000000E+00  7.28294291E-03  4.47121453E-03
 -9.46625755E-03  0.00000000E+00  0.00000000E+00  1.50370231E-02  9.40544132E-03
  2.51272476E-03  0.00000000E+00  0.00000000E+00 -3.65038587E-03 -2.62615720E-03
  0.00000000E+00 -3.14349200E-03 -8.69457910E-04  0.00000000E+00  0.00000000E+00
  3.31747472E-03  3.61418381E-03  0.00000000E+00 -1.01907104E-04 -2.68098760E-04
  0.00000000E+00  0.00000000E+00  1.02922756E-03  1.90778999E-03  8.13132124E-02
  7.98597765E-02 -2.10550385E-02 -2.91550966E-03 -1.19493253E-02 -4.85511602E-03
  0.00000000E+00 -1.48241270E-02 -1.33093350E-03  0.00000000E+00  7.82468292E-03
  2.40542364E-03  0.00000000E+00 -1.35384977E-03  0.00000000E+00  0.00000000E+00
  2.27347284E-03  1.25194719E-03  4.63884946E-04  0.00000000E+00  0.00000000E+00
  2.15239719E-03 -1.45545262E-03 -1.81351323E-01  4.41643713E-01  1.20516707E-01
  2.56782842E-01  1.14949179E-02  1.65989559E-02  3.81979500E-02  0.00000000E+00