 Entering Gaussian System, Link 0=g16
 Input=hono_d1_m_10.gjf
 Output=hono_d1_m_10.log
 Initial command:
 /sw/contrib/gaussian/g16/B01/g16/l1.exe "/scr/Gau-11064.inp" -scrdir="/scr/"
 Entering Link 1 = /sw/contrib/gaussian/g16/B01/g16/l1.exe PID=     11065.
  
 Copyright (c) 1988-2017, Gaussian, Inc.  All Rights Reserved.
  
 This is part of the Gaussian(R) 16 program.  It is based on
 the Gaussian(R) 09 system (copyright 2009, Gaussian, Inc.),
 the Gaussian(R) 03 system (copyright 2003, Gaussian, Inc.),
 the Gaussian(R) 98 system (copyright 1998, Gaussian, Inc.),
 the Gaussian(R) 94 system (copyright 1995, Gaussian, Inc.),
 the Gaussian 92(TM) system (copyright 1992, Gaussian, Inc.),
 the Gaussian 90(TM) system (copyright 1990, Gaussian, Inc.),
 the Gaussian 88(TM) system (copyright 1988, Gaussian, Inc.),
 the Gaussian 86(TM) system (copyright 1986, Carnegie Mellon
 University), and the Gaussian 82(TM) system (copyright 1983,
 Carnegie Mellon University). Gaussian is a federally registered
 trademark of Gaussian, Inc.
  
 This software contains proprietary and confidential information,
 including trade secrets, belonging to Gaussian, Inc.
  
 This software is provided under written license and may be
 used, copied, transmitted, or stored only in accord with that
 written license.
  
 The following legend is applicable only to US Government
 contracts under FAR:
  
                    RESTRICTED RIGHTS LEGEND
  
 Use, reproduction and disclosure by the US Government is
 subject to restrictions as set forth in subparagraphs (a)
 and (c) of the Commercial Computer Software - Restricted
 Rights clause in FAR 52.227-19.
  
 Gaussian, Inc.
 340 Quinnipiac St., Bldg. 40, Wallingford CT 06492
  
  
 ---------------------------------------------------------------
 Warning -- This program may not be used in any manner that
 competes with the business of Gaussian, Inc. or will provide
 assistance to any competitor of Gaussian, Inc.  The licensee
 of this program is prohibited from giving any competitor of
 Gaussian, Inc. access to this program.  By using this program,
 the user acknowledges that Gaussian, Inc. is engaged in the
 business of creating and licensing software in the field of
 computational chemistry and represents and warrants to the
 licensee that it is not a competitor of Gaussian, Inc. and that
 it will not use this program in any manner prohibited above.
 ---------------------------------------------------------------
  

 Cite this work as:
 Gaussian 16, Revision B.01,
 M. J. Frisch, G. W. Trucks, H. B. Schlegel, G. E. Scuseria, 
 M. A. Robb, J. R. Cheeseman, G. Scalmani, V. Barone, 
 G. A. Petersson, H. Nakatsuji, X. Li, M. Caricato, A. V. Marenich, 
 J. Bloino, B. G. Janesko, R. Gomperts, B. Mennucci, H. P. Hratchian, 
 J. V. Ortiz, A. F. Izmaylov, J. L. Sonnenberg, D. Williams-Young, 
 F. Ding, F. Lipparini, F. Egidi, J. Goings, B. Peng, A. Petrone, 
 T. Henderson, D. Ranasinghe, V. G. Zakrzewski, J. Gao, N. Rega, 
 G. Zheng, W. Liang, M. Hada, M. Ehara, K. Toyota, R. Fukuda, 
 J. Hasegawa, M. Ishida, T. Nakajima, Y. Honda, O. Kitao, H. Nakai, 
 T. Vreven, K. Throssell, J. A. Montgomery, Jr., J. E. Peralta, 
 F. Ogliaro, M. J. Bearpark, J. J. Heyd, E. N. Brothers, K. N. Kudin, 
 V. N. Staroverov, T. A. Keith, R. Kobayashi, J. Normand, 
 K. Raghavachari, A. P. Rendell, J. C. Burant, S. S. Iyengar, 
 J. Tomasi, M. Cossi, J. M. Millam, M. Klene, C. Adamo, R. Cammi, 
 J. W. Ochterski, R. L. Martin, K. Morokuma, O. Farkas, 
 J. B. Foresman, and D. J. Fox, Gaussian, Inc., Wallingford CT, 2016.
 
 ******************************************
 Gaussian 16:  ES64L-G16RevB.01 20-Dec-2017
                31-Jan-2022 
 ******************************************
 %nproc=28
 Will use up to   28 processors via shared memory.
 %mem=120GB
 %chk=/gscratch/ilahie/mccoygrp/coire_hoono/hono/hono_d1_m_10.chk
 -------------------------------------
 #p SP mp2/aug-cc-pvtz density=current
 -------------------------------------
 1/30=1,38=1,172=1/1;
 2/12=2,17=6,18=5,40=1/2;
 3/5=16,6=1,7=10,11=9,25=1,30=1,71=1/1,2,3;
 4//1;
 5/5=2,38=5/2;
 8/6=4,10=1/1;
 9/15=1,16=-3/6;
 10/5=1,13=10/2;
 6/7=2,8=2,9=2,10=2,22=-1/1;
 99/5=1,9=1/99;
 Leave Link    1 at Mon Jan 31 11:40:29 2022, MaxMem= 16106127360 cpu:               3.4 elap:               0.1
 (Enter /sw/contrib/gaussian/g16/B01/g16/l101.exe)
 -----
 title
 -----
 Symbolic Z-matrix:
 Charge =  0 Multiplicity = 1
 H
 O                    1    r1
 N                    2    r2       1    a1
 O                    3    r3       2    a2       1    d1       0
       Variables:
  r1                    0.97026                  
  r2                    1.42776                  
  r3                    1.1768                   
  a1                  101.62779                  
  a2                  110.70859                  
  d1                  179.                       
 
 ITRead=  0  0  0  0
 MicOpt= -1 -1 -1 -1
 NAtoms=      4 NQM=        4 NQMF=       0 NMMI=      0 NMMIF=      0
                NMic=       0 NMicF=      0.
                    Isotopes and Nuclear Properties:
 (Nuclear quadrupole moments (NQMom) in fm**2, nuclear magnetic moments (NMagM)
  in nuclear magnetons)

  Atom         1           2           3           4
 IAtWgt=           1          16          14          16
 AtmWgt=   1.0078250  15.9949146  14.0030740  15.9949146
 NucSpn=           1           0           2           0
 AtZEff=  -0.0000000  -0.0000000  -0.0000000  -0.0000000
 NQMom=    0.0000000   0.0000000   2.0440000   0.0000000
 NMagM=    2.7928460   0.0000000   0.4037610   0.0000000
 AtZNuc=   1.0000000   8.0000000   7.0000000   8.0000000
 Leave Link  101 at Mon Jan 31 11:40:29 2022, MaxMem= 16106127360 cpu:               2.4 elap:               0.1
 (Enter /sw/contrib/gaussian/g16/B01/g16/l202.exe)
                          Input orientation:                          
 ---------------------------------------------------------------------
 Center     Atomic      Atomic             Coordinates (Angstroms)
 Number     Number       Type             X           Y           Z
 ---------------------------------------------------------------------
      1          1           0        0.000000    0.000000    0.000000
      2          8           0        0.000000    0.000000    0.970263
      3          7           0        1.398463    0.000000    1.258033
      4          8           0        1.584229    0.019211    2.419922
 ---------------------------------------------------------------------
                    Distance matrix (angstroms):
                    1          2          3          4
     1  H    0.000000
     2  O    0.970263   0.000000
     3  N    1.881049   1.427764   0.000000
     4  O    2.892433   2.147478   1.176802   0.000000
 Stoichiometry    HNO2
 Framework group  C1[X(HNO2)]
 Deg. of freedom     6
 Full point group                 C1      NOp   1
 Largest Abelian subgroup         C1      NOp   1
 Largest concise Abelian subgroup C1      NOp   1
                         Standard orientation:                         
 ---------------------------------------------------------------------
 Center     Atomic      Atomic             Coordinates (Angstroms)
 Number     Number       Type             X           Y           Z
 ---------------------------------------------------------------------
      1          1           0       -1.708344    0.445468    0.012492
      2          8           0       -1.042122   -0.259774   -0.001382
      3          7           0        0.172092    0.491355   -0.001745
      4          8           0        1.105085   -0.225845    0.001348
 ---------------------------------------------------------------------
 Rotational constants (GHZ):          92.6446762          12.5665549          11.0657059
 Leave Link  202 at Mon Jan 31 11:40:30 2022, MaxMem= 16106127360 cpu:               3.1 elap:               0.1
 (Enter /sw/contrib/gaussian/g16/B01/g16/l301.exe)
 Standard basis: Aug-CC-pVTZ (5D, 7F)
 Ernie: Thresh=  0.10000D-02 Tol=  0.10000D-05 Strict=F.
 Ernie:  9 primitive shells out of 101 were deleted.
 There are   190 symmetry adapted cartesian basis functions of A   symmetry.
 There are   161 symmetry adapted basis functions of A   symmetry.
   161 basis functions,   243 primitive gaussians,   190 cartesian basis functions
    12 alpha electrons       12 beta electrons
       nuclear repulsion energy        69.5039911129 Hartrees.
 IExCor=    0 DFT=F Ex=HF Corr=None ExCW=0 ScaHFX=  1.000000
 ScaDFX=  1.000000  1.000000  1.000000  1.000000 ScalE2=  1.000000  1.000000
 IRadAn=      5 IRanWt=     -1 IRanGd=            0 ICorTp=0 IEmpDi=  4
 NAtoms=    4 NActive=    4 NUniq=    4 SFac= 1.00D+00 NAtFMM=   60 NAOKFM=F Big=F
 Integral buffers will be    131072 words long.
 Raffenetti 1 integral format.
 Two-electron integral symmetry is turned on.
 Leave Link  301 at Mon Jan 31 11:40:30 2022, MaxMem= 16106127360 cpu:               1.3 elap:               0.1
 (Enter /sw/contrib/gaussian/g16/B01/g16/l302.exe)
 NPDir=0 NMtPBC=     1 NCelOv=     1 NCel=       1 NClECP=     1 NCelD=      1
         NCelK=      1 NCelE2=     1 NClLst=     1 CellRange=     0.0.
 One-electron integrals computed using PRISM.
 One-electron integral symmetry used in STVInt
 NBasis=   161 RedAO= T EigKep=  1.97D-04  NBF=   161
 NBsUse=   161 1.00D-06 EigRej= -1.00D+00 NBFU=   161
 Leave Link  302 at Mon Jan 31 11:40:30 2022, MaxMem= 16106127360 cpu:               4.8 elap:               0.2
 (Enter /sw/contrib/gaussian/g16/B01/g16/l303.exe)
 DipDrv:  MaxL=1.
 Leave Link  303 at Mon Jan 31 11:40:30 2022, MaxMem= 16106127360 cpu:               0.8 elap:               0.1
 (Enter /sw/contrib/gaussian/g16/B01/g16/l401.exe)
 ExpMin= 2.53D-02 ExpMax= 1.53D+04 ExpMxC= 5.22D+02 IAcc=3 IRadAn=         5 AccDes= 0.00D+00
 Harris functional with IExCor=  205 and IRadAn=       5 diagonalized for initial guess.
 HarFok:  IExCor=  205 AccDes= 0.00D+00 IRadAn=         5 IDoV= 1 UseB2=F ITyADJ=14
 ICtDFT=  3500011 ScaDFX=  1.000000  1.000000  1.000000  1.000000
 FoFCou: FMM=F IPFlag=           0 FMFlag=      100000 FMFlg1=           0
         NFxFlg=           0 DoJE=T BraDBF=F KetDBF=T FulRan=T
         wScrn=  0.000000 ICntrl=       500 IOpCl=  0 I1Cent=   200000004 NGrid=           0
         NMat0=    1 NMatS0=      1 NMatT0=    0 NMatD0=    1 NMtDS0=    0 NMtDT0=    0
 Petite list used in FoFCou.
 Harris En= -204.818460687275    
 JPrj=0 DoOrth=F DoCkMO=F.
 Leave Link  401 at Mon Jan 31 11:40:30 2022, MaxMem= 16106127360 cpu:               8.2 elap:               0.4
 (Enter /sw/contrib/gaussian/g16/B01/g16/l502.exe)
 Keep R1 ints in memory in canonical form, NReq=98814657.
 FoFCou: FMM=F IPFlag=           0 FMFlag=           0 FMFlg1=           0
         NFxFlg=           0 DoJE=F BraDBF=F KetDBF=F FulRan=T
         wScrn=  0.000000 ICntrl=       600 IOpCl=  0 I1Cent=           0 NGrid=           0
         NMat0=    1 NMatS0=  13041 NMatT0=    0 NMatD0=    1 NMtDS0=    0 NMtDT0=    0
 Symmetry not used in FoFCou.
 Two-electron integral symmetry not used.
 Closed shell SCF:
 Using DIIS extrapolation, IDIIS=  1040.
 NGot= 16106127360 LenX= 16021007853 LenY= 16020971312
 Requested convergence on RMS density matrix=1.00D-08 within 128 cycles.
 Requested convergence on MAX density matrix=1.00D-06.
 Requested convergence on             energy=1.00D-06.
 No special actions if energy rises.

 Cycle   1  Pass 1  IDiag  1:
 E= -204.613646229539    
 DIIS: error= 3.05D-02 at cycle   1 NSaved=   1.
 NSaved= 1 IEnMin= 1 EnMin= -204.613646229539     IErMin= 1 ErrMin= 3.05D-02
 ErrMax= 3.05D-02  0.00D+00 EMaxC= 1.00D-01 BMatC= 3.55D-01 BMatP= 3.55D-01
 IDIUse=3 WtCom= 6.95D-01 WtEn= 3.05D-01
 Coeff-Com:  0.100D+01
 Coeff-En:   0.100D+01
 Coeff:      0.100D+01
 Gap=     0.509 Goal=   None    Shift=    0.000
 GapD=    0.509 DampG=2.000 DampE=0.500 DampFc=1.0000 IDamp=-1.
 RMSDP=2.05D-03 MaxDP=1.22D-01              OVMax= 1.02D-01

 Cycle   2  Pass 1  IDiag  1:
 E= -204.678389112089     Delta-E=       -0.064742882550 Rises=F Damp=F
 DIIS: error= 2.09D-02 at cycle   2 NSaved=   2.
 NSaved= 2 IEnMin= 2 EnMin= -204.678389112089     IErMin= 2 ErrMin= 2.09D-02
 ErrMax= 2.09D-02  0.00D+00 EMaxC= 1.00D-01 BMatC= 6.83D-02 BMatP= 3.55D-01
 IDIUse=3 WtCom= 7.91D-01 WtEn= 2.09D-01
 Coeff-Com:  0.234D+00 0.766D+00
 Coeff-En:   0.111D+00 0.889D+00
 Coeff:      0.208D+00 0.792D+00
 Gap=     0.511 Goal=   None    Shift=    0.000
 RMSDP=9.98D-04 MaxDP=3.62D-02 DE=-6.47D-02 OVMax= 8.82D-02

 Cycle   3  Pass 1  IDiag  1:
 E= -204.712618197258     Delta-E=       -0.034229085169 Rises=F Damp=F
 DIIS: error= 7.25D-03 at cycle   3 NSaved=   3.
 NSaved= 3 IEnMin= 3 EnMin= -204.712618197258     IErMin= 3 ErrMin= 7.25D-03
 ErrMax= 7.25D-03  0.00D+00 EMaxC= 1.00D-01 BMatC= 1.54D-02 BMatP= 6.83D-02
 IDIUse=3 WtCom= 9.27D-01 WtEn= 7.25D-02
 Coeff-Com: -0.362D-01 0.302D+00 0.734D+00
 Coeff-En:   0.000D+00 0.837D-01 0.916D+00
 Coeff:     -0.336D-01 0.287D+00 0.747D+00
 Gap=     0.494 Goal=   None    Shift=    0.000
 RMSDP=4.08D-04 MaxDP=2.24D-02 DE=-3.42D-02 OVMax= 2.65D-02

 Cycle   4  Pass 1  IDiag  1:
 E= -204.722808603865     Delta-E=       -0.010190406606 Rises=F Damp=F
 DIIS: error= 1.49D-03 at cycle   4 NSaved=   4.
 NSaved= 4 IEnMin= 4 EnMin= -204.722808603865     IErMin= 4 ErrMin= 1.49D-03
 ErrMax= 1.49D-03  0.00D+00 EMaxC= 1.00D-01 BMatC= 2.44D-04 BMatP= 1.54D-02
 IDIUse=3 WtCom= 9.85D-01 WtEn= 1.49D-02
 Coeff-Com: -0.745D-02 0.229D-01 0.120D+00 0.865D+00
 Coeff-En:   0.000D+00 0.000D+00 0.000D+00 0.100D+01
 Coeff:     -0.734D-02 0.226D-01 0.118D+00 0.867D+00
 Gap=     0.489 Goal=   None    Shift=    0.000
 RMSDP=8.34D-05 MaxDP=1.55D-03 DE=-1.02D-02 OVMax= 8.18D-03

 Cycle   5  Pass 1  IDiag  1:
 E= -204.723176231752     Delta-E=       -0.000367627887 Rises=F Damp=F
 DIIS: error= 1.04D-03 at cycle   5 NSaved=   5.
 NSaved= 5 IEnMin= 5 EnMin= -204.723176231752     IErMin= 5 ErrMin= 1.04D-03
 ErrMax= 1.04D-03  0.00D+00 EMaxC= 1.00D-01 BMatC= 6.24D-05 BMatP= 2.44D-04
 IDIUse=3 WtCom= 9.90D-01 WtEn= 1.04D-02
 Coeff-Com:  0.703D-02-0.721D-01-0.155D+00 0.219D+00 0.100D+01
 Coeff-En:   0.000D+00 0.000D+00 0.000D+00 0.000D+00 0.100D+01
 Coeff:      0.696D-02-0.714D-01-0.153D+00 0.217D+00 0.100D+01
 Gap=     0.489 Goal=   None    Shift=    0.000
 RMSDP=6.76D-05 MaxDP=1.63D-03 DE=-3.68D-04 OVMax= 8.91D-03

 Cycle   6  Pass 1  IDiag  1:
 E= -204.723349112647     Delta-E=       -0.000172880896 Rises=F Damp=F
 DIIS: error= 2.29D-04 at cycle   6 NSaved=   6.
 NSaved= 6 IEnMin= 6 EnMin= -204.723349112647     IErMin= 6 ErrMin= 2.29D-04
 ErrMax= 2.29D-04  0.00D+00 EMaxC= 1.00D-01 BMatC= 1.13D-05 BMatP= 6.24D-05
 IDIUse=3 WtCom= 9.98D-01 WtEn= 2.29D-03
 Coeff-Com:  0.569D-03 0.952D-03-0.250D-02-0.206D+00-0.291D-02 0.121D+01
 Coeff-En:   0.000D+00 0.000D+00 0.000D+00 0.000D+00 0.000D+00 0.100D+01
 Coeff:      0.568D-03 0.950D-03-0.249D-02-0.205D+00-0.290D-02 0.121D+01
 Gap=     0.490 Goal=   None    Shift=    0.000
 RMSDP=3.81D-05 MaxDP=7.14D-04 DE=-1.73D-04 OVMax= 4.05D-03

 Cycle   7  Pass 1  IDiag  1:
 E= -204.723387839969     Delta-E=       -0.000038727322 Rises=F Damp=F
 DIIS: error= 1.12D-04 at cycle   7 NSaved=   7.
 NSaved= 7 IEnMin= 7 EnMin= -204.723387839969     IErMin= 7 ErrMin= 1.12D-04
 ErrMax= 1.12D-04  0.00D+00 EMaxC= 1.00D-01 BMatC= 1.76D-06 BMatP= 1.13D-05
 IDIUse=3 WtCom= 9.99D-01 WtEn= 1.12D-03
 Coeff-Com: -0.123D-02 0.125D-01 0.315D-01-0.494D-01-0.136D+00-0.762D-01
 Coeff-Com:  0.122D+01
 Coeff-En:   0.000D+00 0.000D+00 0.000D+00 0.000D+00 0.000D+00 0.000D+00
 Coeff-En:   0.100D+01
 Coeff:     -0.123D-02 0.125D-01 0.315D-01-0.494D-01-0.136D+00-0.761D-01
 Coeff:      0.122D+01
 Gap=     0.490 Goal=   None    Shift=    0.000
 RMSDP=1.50D-05 MaxDP=3.26D-04 DE=-3.87D-05 OVMax= 1.78D-03

 Cycle   8  Pass 1  IDiag  1:
 E= -204.723393341670     Delta-E=       -0.000005501701 Rises=F Damp=F
 DIIS: error= 4.40D-05 at cycle   8 NSaved=   8.
 NSaved= 8 IEnMin= 8 EnMin= -204.723393341670     IErMin= 8 ErrMin= 4.40D-05
 ErrMax= 4.40D-05  0.00D+00 EMaxC= 1.00D-01 BMatC= 1.86D-07 BMatP= 1.76D-06
 IDIUse=1 WtCom= 1.00D+00 WtEn= 0.00D+00
 Coeff-Com: -0.371D-04-0.783D-03-0.626D-03 0.202D-01 0.245D-01-0.151D+00
 Coeff-Com: -0.133D+00 0.124D+01
 Coeff:     -0.371D-04-0.783D-03-0.626D-03 0.202D-01 0.245D-01-0.151D+00
 Coeff:     -0.133D+00 0.124D+01
 Gap=     0.490 Goal=   None    Shift=    0.000
 RMSDP=4.91D-06 MaxDP=9.89D-05 DE=-5.50D-06 OVMax= 4.77D-04

 Cycle   9  Pass 1  IDiag  1:
 E= -204.723393881888     Delta-E=       -0.000000540218 Rises=F Damp=F
 DIIS: error= 1.14D-05 at cycle   9 NSaved=   9.
 NSaved= 9 IEnMin= 9 EnMin= -204.723393881888     IErMin= 9 ErrMin= 1.14D-05
 ErrMax= 1.14D-05  0.00D+00 EMaxC= 1.00D-01 BMatC= 1.55D-08 BMatP= 1.86D-07
 IDIUse=1 WtCom= 1.00D+00 WtEn= 0.00D+00
 Coeff-Com:  0.107D-03-0.994D-03-0.242D-02-0.135D-02 0.120D-01 0.384D-01
 Coeff-Com: -0.857D-01-0.282D+00 0.132D+01
 Coeff:      0.107D-03-0.994D-03-0.242D-02-0.135D-02 0.120D-01 0.384D-01
 Coeff:     -0.857D-01-0.282D+00 0.132D+01
 Gap=     0.490 Goal=   None    Shift=    0.000
 RMSDP=1.28D-06 MaxDP=3.46D-05 DE=-5.40D-07 OVMax= 9.76D-05

 Cycle  10  Pass 1  IDiag  1:
 E= -204.723393923734     Delta-E=       -0.000000041847 Rises=F Damp=F
 DIIS: error= 2.76D-06 at cycle  10 NSaved=  10.
 NSaved=10 IEnMin=10 EnMin= -204.723393923734     IErMin=10 ErrMin= 2.76D-06
 ErrMax= 2.76D-06  0.00D+00 EMaxC= 1.00D-01 BMatC= 1.29D-09 BMatP= 1.55D-08
 IDIUse=1 WtCom= 1.00D+00 WtEn= 0.00D+00
 Coeff-Com: -0.262D-04 0.318D-03 0.797D-03-0.204D-02-0.446D-02 0.196D-02
 Coeff-Com:  0.378D-01-0.511D-01-0.282D+00 0.130D+01
 Coeff:     -0.262D-04 0.318D-03 0.797D-03-0.204D-02-0.446D-02 0.196D-02
 Coeff:      0.378D-01-0.511D-01-0.282D+00 0.130D+01
 Gap=     0.490 Goal=   None    Shift=    0.000
 RMSDP=3.37D-07 MaxDP=1.15D-05 DE=-4.18D-08 OVMax= 3.06D-05

 Cycle  11  Pass 1  IDiag  1:
 E= -204.723393927208     Delta-E=       -0.000000003474 Rises=F Damp=F
 DIIS: error= 1.13D-06 at cycle  11 NSaved=  11.
 NSaved=11 IEnMin=11 EnMin= -204.723393927208     IErMin=11 ErrMin= 1.13D-06
 ErrMax= 1.13D-06  0.00D+00 EMaxC= 1.00D-01 BMatC= 1.20D-10 BMatP= 1.29D-09
 IDIUse=1 WtCom= 1.00D+00 WtEn= 0.00D+00
 Coeff-Com: -0.509D-06-0.182D-04-0.445D-04 0.546D-03 0.106D-02-0.462D-02
 Coeff-Com: -0.549D-02 0.450D-01-0.197D-01-0.480D+00 0.146D+01
 Coeff:     -0.509D-06-0.182D-04-0.445D-04 0.546D-03 0.106D-02-0.462D-02
 Coeff:     -0.549D-02 0.450D-01-0.197D-01-0.480D+00 0.146D+01
 Gap=     0.490 Goal=   None    Shift=    0.000
 RMSDP=1.12D-07 MaxDP=4.21D-06 DE=-3.47D-09 OVMax= 1.10D-05

 Cycle  12  Pass 1  IDiag  1:
 E= -204.723393927585     Delta-E=       -0.000000000377 Rises=F Damp=F
 DIIS: error= 1.86D-07 at cycle  12 NSaved=  12.
 NSaved=12 IEnMin=12 EnMin= -204.723393927585     IErMin=12 ErrMin= 1.86D-07
 ErrMax= 1.86D-07  0.00D+00 EMaxC= 1.00D-01 BMatC= 6.85D-12 BMatP= 1.20D-10
 IDIUse=1 WtCom= 1.00D+00 WtEn= 0.00D+00
 Coeff-Com:  0.240D-05-0.232D-04-0.556D-04-0.589D-04 0.150D-03 0.159D-02
 Coeff-Com: -0.203D-02-0.122D-01 0.385D-01 0.387D-01-0.473D+00 0.141D+01
 Coeff:      0.240D-05-0.232D-04-0.556D-04-0.589D-04 0.150D-03 0.159D-02
 Coeff:     -0.203D-02-0.122D-01 0.385D-01 0.387D-01-0.473D+00 0.141D+01
 Gap=     0.490 Goal=   None    Shift=    0.000
 RMSDP=3.15D-08 MaxDP=7.23D-07 DE=-3.77D-10 OVMax= 2.60D-06

 Cycle  13  Pass 1  IDiag  1:
 E= -204.723393927607     Delta-E=       -0.000000000022 Rises=F Damp=F
 DIIS: error= 4.30D-08 at cycle  13 NSaved=  13.
 NSaved=13 IEnMin=13 EnMin= -204.723393927607     IErMin=13 ErrMin= 4.30D-08
 ErrMax= 4.30D-08  0.00D+00 EMaxC= 1.00D-01 BMatC= 2.12D-13 BMatP= 6.85D-12
 IDIUse=1 WtCom= 1.00D+00 WtEn= 0.00D+00
 Coeff-Com: -0.443D-06 0.569D-05 0.137D-04-0.217D-04-0.883D-04-0.560D-04
 Coeff-Com:  0.750D-03-0.264D-03-0.525D-02 0.125D-01 0.253D-01-0.297D+00
 Coeff-Com:  0.126D+01
 Coeff:     -0.443D-06 0.569D-05 0.137D-04-0.217D-04-0.883D-04-0.560D-04
 Coeff:      0.750D-03-0.264D-03-0.525D-02 0.125D-01 0.253D-01-0.297D+00
 Coeff:      0.126D+01
 Gap=     0.490 Goal=   None    Shift=    0.000
 RMSDP=5.48D-09 MaxDP=9.30D-08 DE=-2.19D-11 OVMax= 4.22D-07

 SCF Done:  E(RHF) =  -204.723393928     A.U. after   13 cycles
            NFock= 13  Conv=0.55D-08     -V/T= 2.0024
 KE= 2.042400600988D+02 PE=-6.229515112757D+02 EE= 1.444840661364D+02
 Leave Link  502 at Mon Jan 31 11:40:33 2022, MaxMem= 16106127360 cpu:              27.4 elap:               3.2
 (Enter /sw/contrib/gaussian/g16/B01/g16/l801.exe)
 ExpMin= 2.53D-02 ExpMax= 1.53D+04 ExpMxC= 5.22D+02 IAcc=3 IRadAn=         5 AccDes= 0.00D+00
 HarFok:  IExCor=  205 AccDes= 0.00D+00 IRadAn=         5 IDoV=-2 UseB2=F ITyADJ=14
 ICtDFT= 12500011 ScaDFX=  1.000000  1.000000  1.000000  1.000000
 Largest valence mixing into a core orbital is  2.06D-04
 Largest core mixing into a valence orbital is  3.30D-05
 Range of M.O.s used for correlation:     4   161
 NBasis=   161 NAE=    12 NBE=    12 NFC=     3 NFV=     0
 NROrb=    158 NOA=     9 NOB=     9 NVA=   149 NVB=   149

 **** Warning!!: The largest alpha MO coefficient is  0.19498274D+02

 Leave Link  801 at Mon Jan 31 11:40:34 2022, MaxMem= 16106127360 cpu:               3.8 elap:               0.2
 (Enter /sw/contrib/gaussian/g16/B01/g16/l906.exe)
 Frozen-core derivative calculation, NFC=   3 NFV=   0.
 FulOut=F Deriv=T AODrv=F NAtomX=     4
   MMem=         161  MDisk=           9 MDiskD=           9
  W3Min=      367080 MinDsk=      792425 NBas6D=         190
 NBas2D=       18625    NTT=       18145    LW2=     3500000
    MDV= 16105827750 MDiskM=      423784 NBas2p=       18621
 Fully in-core method, ICMem=   359292905.
 IMap=   1   2   3   4   5   6   7   8   9  10  11  12
 JobTyp=1 Pass  1 fully in-core, NPsUse= 28.
 Compute canonical integrals.
 FoFCou: FMM=F IPFlag=           0 FMFlag=           0 FMFlg1=           0
         NFxFlg=           0 DoJE=F BraDBF=F KetDBF=F FulRan=T
         wScrn=  0.000000 ICntrl=       600 IOpCl=  1 I1Cent=           0 NGrid=           0
         NMat0=    1 NMatS0=  18625 NMatT0=    0 NMatD0=    1 NMtDS0=    0 NMtDT0=    0
 Symmetry not used in FoFCou.
 Spin components of T(2) and E(2):
     alpha-alpha T2 =       0.2531758087D-01 E2=     -0.9065741506D-01
     alpha-beta  T2 =       0.1374826671D+00 E2=     -0.5166403433D+00
     beta-beta   T2 =       0.2531758087D-01 E2=     -0.9065741506D-01
 The integrals were generated   1 times.
 ANorm=    0.1090008178D+01
 E2 =    -0.6979551734D+00 EUMP2 =    -0.20542134910104D+03
 Leave Link  906 at Mon Jan 31 11:40:37 2022, MaxMem= 16106127360 cpu:              85.7 elap:               3.1
 (Enter /sw/contrib/gaussian/g16/B01/g16/l1002.exe)
 Minotr:  Closed shell wavefunction.
          Computing MP2/KS-MP2 derivatives.
          Using Z-Vector for PSCF gradient.
          Skipping F1 and S1 gradient terms here.
          Frozen-core window.
          Direct CPHF calculation.
          Differentiating once with respect to electric field.
                with respect to dipole field.
          Electric field/nuclear overlap derivatives assumed to be zero.
          Requested convergence is 1.0D-10 RMS, and 1.0D-09 maximum.
          NewPWx=F KeepS1=T KeepF1=T KeepIn=T MapXYZ=F SortEE=F KeepMc=T.
 Keep R1 ints in memory in canonical form, NReq=98817301.
 FoFCou: FMM=F IPFlag=           0 FMFlag=           0 FMFlg1=           0
         NFxFlg=           0 DoJE=F BraDBF=F KetDBF=F FulRan=T
         wScrn=  0.000000 ICntrl=       600 IOpCl=  0 I1Cent=           0 NGrid=           0
         NMat0=    1 NMatS0=  13041 NMatT0=    0 NMatD0=    1 NMtDS0=    0 NMtDT0=    0
 Symmetry not used in FoFCou.
 Two-electron integral symmetry not used.
          MDV=   16106127360 using IRadAn=       5.
          Solving linear equations separately, MaxMat=       0.
          There are     1 degrees of freedom in the 1st order CPHF.  IDoFFX=0 NUNeed=     1.
 LinEq1:  Iter=  0 NonCon=     1 RMS=6.63D-03 Max=1.32D-01 NDo=     1
 AX will form     1 AO Fock derivatives at one time.
 LinEq1:  Iter=  1 NonCon=     1 RMS=2.26D-03 Max=4.07D-02 NDo=     1
 LinEq1:  Iter=  2 NonCon=     1 RMS=9.17D-04 Max=1.19D-02 NDo=     1
 LinEq1:  Iter=  3 NonCon=     1 RMS=4.41D-04 Max=8.66D-03 NDo=     1
 LinEq1:  Iter=  4 NonCon=     1 RMS=1.37D-04 Max=1.53D-03 NDo=     1
 LinEq1:  Iter=  5 NonCon=     1 RMS=6.13D-05 Max=9.91D-04 NDo=     1
 LinEq1:  Iter=  6 NonCon=     1 RMS=2.33D-05 Max=2.70D-04 NDo=     1
 LinEq1:  Iter=  7 NonCon=     1 RMS=5.92D-06 Max=6.11D-05 NDo=     1
 LinEq1:  Iter=  8 NonCon=     1 RMS=1.44D-06 Max=1.67D-05 NDo=     1
 LinEq1:  Iter=  9 NonCon=     1 RMS=2.67D-07 Max=1.98D-06 NDo=     1
 LinEq1:  Iter= 10 NonCon=     1 RMS=5.10D-08 Max=5.10D-07 NDo=     1
 LinEq1:  Iter= 11 NonCon=     1 RMS=1.13D-08 Max=2.83D-07 NDo=     1
 LinEq1:  Iter= 12 NonCon=     1 RMS=3.16D-09 Max=7.41D-08 NDo=     1
 LinEq1:  Iter= 13 NonCon=     1 RMS=6.43D-10 Max=5.02D-09 NDo=     1
 LinEq1:  Iter= 14 NonCon=     1 RMS=1.31D-10 Max=1.16D-09 NDo=     1
 LinEq1:  Iter= 15 NonCon=     0 RMS=2.19D-11 Max=2.17D-10 NDo=     1
 Linear equations converged to 1.000D-10 1.000D-09 after    15 iterations.
 End of Minotr F.D. properties file   721 does not exist.
 End of Minotr F.D. properties file   722 does not exist.
 End of Minotr F.D. properties file   788 does not exist.
 Leave Link 1002 at Mon Jan 31 11:40:40 2022, MaxMem= 16106127360 cpu:              28.3 elap:               3.0
 (Enter /sw/contrib/gaussian/g16/B01/g16/l601.exe)
 Copying SCF densities to generalized density rwf, IOpCl= 0 IROHF=0.

 **********************************************************************

            Population analysis using the MP2 Density.

 **********************************************************************

 Orbital symmetries:
       Occupied  (A) (A) (A) (A) (A) (A) (A) (A) (A) (A) (A) (A)
       Virtual   (A) (A) (A) (A) (A) (A) (A) (A) (A) (A) (A) (A)
                 (A) (A) (A) (A) (A) (A) (A) (A) (A) (A) (A) (A)
                 (A) (A) (A) (A) (A) (A) (A) (A) (A) (A) (A) (A)
                 (A) (A) (A) (A) (A) (A) (A) (A) (A) (A) (A) (A)
                 (A) (A) (A) (A) (A) (A) (A) (A) (A) (A) (A) (A)
                 (A) (A) (A) (A) (A) (A) (A) (A) (A) (A) (A) (A)
                 (A) (A) (A) (A) (A) (A) (A) (A) (A) (A) (A) (A)
                 (A) (A) (A) (A) (A) (A) (A) (A) (A) (A) (A) (A)
                 (A) (A) (A) (A) (A) (A) (A) (A) (A) (A) (A) (A)
                 (A) (A) (A) (A) (A) (A) (A) (A) (A) (A) (A) (A)
                 (A) (A) (A) (A) (A) (A) (A) (A) (A) (A) (A) (A)
                 (A) (A) (A) (A) (A) (A) (A) (A) (A) (A) (A) (A)
                 (A) (A) (A) (A) (A)
 The electronic state is 1-A.
 Alpha  occ. eigenvalues --  -20.66531 -20.64238 -15.79876  -1.60279  -1.40264
 Alpha  occ. eigenvalues --   -0.94853  -0.78414  -0.72980  -0.68156  -0.62543
 Alpha  occ. eigenvalues --   -0.52857  -0.46175
 Alpha virt. eigenvalues --    0.02799   0.08045   0.09396   0.09756   0.12889
 Alpha virt. eigenvalues --    0.14365   0.15689   0.17213   0.18723   0.19660
 Alpha virt. eigenvalues --    0.20558   0.23347   0.25791   0.29633   0.30785
 Alpha virt. eigenvalues --    0.32979   0.36575   0.38246   0.42391   0.52506
 Alpha virt. eigenvalues --    0.52653   0.54806   0.57330   0.61300   0.63130
 Alpha virt. eigenvalues --    0.64806   0.68023   0.71427   0.71794   0.74797
 Alpha virt. eigenvalues --    0.77483   0.78161   0.81130   0.81207   0.86114
 Alpha virt. eigenvalues --    0.87878   0.92572   0.93900   0.94510   0.99520
 Alpha virt. eigenvalues --    1.04956   1.06297   1.08120   1.10584   1.16087
 Alpha virt. eigenvalues --    1.19628   1.25219   1.26872   1.36165   1.43364
 Alpha virt. eigenvalues --    1.48882   1.52302   1.52439   1.54424   1.55417
 Alpha virt. eigenvalues --    1.60950   1.65822   1.72879   1.75467   1.82250
 Alpha virt. eigenvalues --    1.85595   1.96094   1.97626   1.99790   2.07457
 Alpha virt. eigenvalues --    2.13109   2.13489   2.18845   2.27089   2.30834
 Alpha virt. eigenvalues --    2.32916   2.38091   2.45127   2.47006   2.49867
 Alpha virt. eigenvalues --    2.50268   2.52136   2.54425   2.56926   2.60650
 Alpha virt. eigenvalues --    2.60889   2.66210   2.77173   2.77797   2.83938
 Alpha virt. eigenvalues --    2.93795   2.95229   3.11529   3.14678   3.18281
 Alpha virt. eigenvalues --    3.24715   3.46110   3.83130   3.85470   4.02881
 Alpha virt. eigenvalues --    4.17020   4.18274   4.21349   4.36342   4.37249
 Alpha virt. eigenvalues --    4.58152   4.63345   4.74698   4.81791   4.87180
 Alpha virt. eigenvalues --    4.88748   4.98002   5.00193   5.07376   5.08671
 Alpha virt. eigenvalues --    5.17092   5.24635   5.25778   5.33344   5.36829
 Alpha virt. eigenvalues --    5.37519   5.57964   5.66783   5.79365   5.98814
 Alpha virt. eigenvalues --    6.11954   6.43491   6.50705   6.51006   6.67439
 Alpha virt. eigenvalues --    6.71556   6.74547   6.84760   6.91674   7.06909
 Alpha virt. eigenvalues --    7.11949   7.17973   7.23375   7.25618   7.25816
 Alpha virt. eigenvalues --    7.33182   7.37987   7.43289   7.47876   7.60797
 Alpha virt. eigenvalues --    7.64779   7.69929   7.79106   7.98215   8.07087
 Alpha virt. eigenvalues --    8.42451  14.20113  15.12846  15.97185
          Condensed to atoms (all electrons):
               1          2          3          4
     1  H    0.586219   0.172989  -0.044072   0.012728
     2  O    0.172989   8.291805  -0.136991  -0.057280
     3  N   -0.044072  -0.136991   7.043498  -0.042118
     4  O    0.012728  -0.057280  -0.042118   8.267966
 Mulliken charges:
               1
     1  H    0.272136
     2  O   -0.270522
     3  N    0.179683
     4  O   -0.181297
 Sum of Mulliken charges =  -0.00000
 Mulliken charges with hydrogens summed into heavy atoms:
               1
     2  O    0.001614
     3  N    0.179683
     4  O   -0.181297
 Electronic spatial extent (au):  <R**2>=            123.4939
 Charge=             -0.0000 electrons
 Dipole moment (field-independent basis, Debye):
    X=             -1.4405    Y=              1.1991    Z=              0.0215  Tot=              1.8744
 Quadrupole moment (field-independent basis, Debye-Ang):
   XX=            -14.5656   YY=            -17.7854   ZZ=            -16.4575
   XY=             -2.0278   XZ=             -0.0493   YZ=              0.0209
 Traceless Quadrupole moment (field-independent basis, Debye-Ang):
   XX=              1.7039   YY=             -1.5159   ZZ=             -0.1880
   XY=             -2.0278   XZ=             -0.0493   YZ=              0.0209
 Octapole moment (field-independent basis, Debye-Ang**2):
  XXX=             -8.5859  YYY=             -1.4579  ZZZ=              0.0097  XYY=             -0.5411
  XXY=              3.2015  XXZ=              0.0933  XZZ=              1.0163  YZZ=             -0.1346
  YYZ=              0.0092  XYZ=             -0.0253
 Hexadecapole moment (field-independent basis, Debye-Ang**3):
 XXXX=            -85.2383 YYYY=            -30.3442 ZZZZ=            -13.9271 XXXY=             -7.0482
 XXXZ=             -0.1724 YYYX=             -1.6069 YYYZ=              0.0230 ZZZX=             -0.0159
 ZZZY=              0.0129 XXYY=            -19.9425 XXZZ=            -19.1246 YYZZ=             -7.0772
 XXYZ=              0.0475 YYXZ=             -0.0154 ZZXY=             -0.5479
 N-N= 6.950399111293D+01 E-N=-6.235513286503D+02  KE= 2.052386660278D+02
 No NMR shielding tensors so no spin-rotation constants.
 Leave Link  601 at Mon Jan 31 11:40:40 2022, MaxMem= 16106127360 cpu:               4.2 elap:               0.2
 (Enter /sw/contrib/gaussian/g16/B01/g16/l9999.exe)
 1\1\GINC-N2207\SP\RMP2-FC\Aug-CC-pVTZ\H1N1O2\CGAVINH\31-Jan-2022\0\\#p
  SP mp2/aug-cc-pvtz density=current\\title\\0,1\H\O,1,0.97026274\N,2,1
 .42776435,1,101.62778541\O,3,1.17680217,2,110.70859147,1,179.,0\\Versi
 on=ES64L-G16RevB.01\State=1-A\HF=-204.7233939\MP2=-205.4213491\RMSD=5.
 480e-09\Dipole=-0.0880269,-0.001772,-0.732186\Quadrupole=-1.3672077,-0
 .1405339,1.5077415,0.005656,1.280766,-0.0163692\PG=C01 [X(H1N1O2)]\\@


 MYSTERY IS THE WISDOM OF BLOCKHEADS... HORACE WALPOLE 
 Job cpu time:       0 days  0 hours  2 minutes 55.7 seconds.
 Elapsed time:       0 days  0 hours  0 minutes 10.9 seconds.
 File lengths (MBytes):  RWF=     15 Int=      0 D2E=      0 Chk=      8 Scr=      1
 Normal termination of Gaussian 16 at Mon Jan 31 11:40:40 2022.
