title                                                                   
SP        RMP2-FC                                                     Aug-CC-pVTZ         
Number of atoms                            I                4
Info1-9                                    I   N=           9
          29          20           0           0           0         110
           1           2           1
Full Title                                 C   N=           1
title       
Route                                      C   N=           4
#p SP mp2/aug-cc-pvtz density=current           
Charge                                     I                0
Multiplicity                               I                1
Number of electrons                        I               24
Number of alpha electrons                  I               12
Number of beta electrons                   I               12
Number of basis functions                  I              161
Number of independent functions            I              161
Number of point charges in /Mol/           I                0
Number of translation vectors              I                0
Atomic numbers                             I   N=           4
           1           8           7           8
Nuclear charges                            R   N=           4
  1.00000000E+00  8.00000000E+00  7.00000000E+00  8.00000000E+00
Current cartesian coordinates              R   N=          12
  3.31257924E+00 -2.23828080E-01 -8.91028380E-32  1.69146517E+00 -1.08046368E+00
 -1.37618263E-32  3.51750260E-16  9.72846700E-01 -1.74503935E-32 -2.10553758E+00
  2.57201325E-01  1.04628294E-31
Number of symbols in /Mol/                 I                0
Force Field                                I                0
Atom Types                                 C   N=           4
                                                
Int Atom Types                             I   N=           4
           0           0           0           0
MM charges                                 R   N=           4
  0.00000000E+00  0.00000000E+00  0.00000000E+00  0.00000000E+00
Integer atomic weights                     I   N=           4
           1          16          14          16
Real atomic weights                        R   N=           4
  1.00782504E+00  1.59949146E+01  1.40030740E+01  1.59949146E+01
Atom fragment info                         I   N=           4
           0           0           0           0
Atom residue num                           I   N=           4
           0           0           0           0
Nuclear spins                              I   N=           4
           1           0           2           0
Nuclear ZEff                               R   N=           4
 -1.00000000E+00 -5.60000000E+00 -4.55000000E+00 -5.60000000E+00
Nuclear ZNuc                               R   N=           4
  1.00000000E+00  8.00000000E+00  7.00000000E+00  8.00000000E+00
Nuclear QMom                               R   N=           4
  0.00000000E+00  0.00000000E+00  2.04400000E+00  0.00000000E+00
Nuclear GFac                               R   N=           4
  2.79284600E+00  0.00000000E+00  4.03761000E-01  0.00000000E+00
MicOpt                                     I   N=           4
          -1          -1          -1          -1
Number of residues                         I                0
Number of secondary structures             I                0
SymInf integers                            I   N=          26
           1           2           1           1           1           1
           1          -1           0           0           0           0
           0           0           0           0           0           0
           0           0           0           0           0           0
           0           0
RotTr to input orientation                 R   N=          12
 -4.67205446E-01 -1.16227050E-16 -8.84148783E-01  8.84148783E-01  3.85858880E-17
 -4.67205446E-01  8.84175765E-17 -1.00000000E+00  8.47344676E-17  1.74555239E+00
  0.00000000E+00  2.82423921E+00
Number of contracted shells                I               51
Number of primitive shells                 I               92
Pure/Cartesian d shells                    I                0
Pure/Cartesian f shells                    I                0
Highest angular momentum                   I                3
Largest degree of contraction              I                7
Shell types                                I   N=          51
           0           0           0           0           1           1
           1          -2          -2           0           0           0
           0           0           1           1           1           1
          -2          -2          -2          -3          -3           0
           0           0           0           0           1           1
           1           1          -2          -2          -2          -3
          -3           0           0           0           0           0
           1           1           1           1          -2          -2
          -2          -3          -3
Number of primitives per shell             I   N=          51
           3           1           1           1           1           1
           1           1           1           7           6           1
           1           1           3           1           1           1
           1           1           1           1           1           7
           6           1           1           1           3           1
           1           1           1           1           1           1
           1           7           6           1           1           1
           3           1           1           1           1           1
           1           1           1
Shell to atom map                          I   N=          51
           1           1           1           1           1           1
           1           1           1           2           2           2
           2           2           2           2           2           2
           2           2           2           2           2           3
           3           3           3           3           3           3
           3           3           3           3           3           3
           3           4           4           4           4           4
           4           4           4           4           4           4
           4           4           4
Primitive exponents                        R   N=          92
  3.38700000E+01  5.09500000E+00  1.15900000E+00  3.25800000E-01  1.02700000E-01
  2.52600000E-02  1.40700000E+00  3.88000000E-01  1.02000000E-01  1.05700000E+00
  2.47000000E-01  1.53300000E+04  2.29900000E+03  5.22400000E+02  1.47300000E+02
  4.75500000E+01  1.67600000E+01  6.20700000E+00  5.22400000E+02  1.47300000E+02
  4.75500000E+01  1.67600000E+01  6.20700000E+00  6.88200000E-01  1.75200000E+00
  2.38400000E-01  7.37600000E-02  3.44600000E+01  7.74900000E+00  2.28000000E+00
  7.15600000E-01  2.14000000E-01  5.97400000E-02  2.31400000E+00  6.45000000E-01
  2.14000000E-01  1.42800000E+00  5.00000000E-01  1.14200000E+04  1.71200000E+03
  3.89300000E+02  1.10000000E+02  3.55700000E+01  1.25400000E+01  4.64400000E+00
  3.89300000E+02  1.10000000E+02  3.55700000E+01  1.25400000E+01  4.64400000E+00
  5.11800000E-01  1.29300000E+00  1.78700000E-01  5.76000000E-02  2.66300000E+01
  5.94800000E+00  1.74200000E+00  5.55000000E-01  1.72500000E-01  4.91000000E-02
  1.65400000E+00  4.69000000E-01  1.51000000E-01  1.09300000E+00  3.64000000E-01
  1.53300000E+04  2.29900000E+03  5.22400000E+02  1.47300000E+02  4.75500000E+01
  1.67600000E+01  6.20700000E+00  5.22400000E+02  1.47300000E+02  4.75500000E+01
  1.67600000E+01  6.20700000E+00  6.88200000E-01  1.75200000E+00  2.38400000E-01
  7.37600000E-02  3.44600000E+01  7.74900000E+00  2.28000000E+00  7.15600000E-01
  2.14000000E-01  5.97400000E-02  2.31400000E+00  6.45000000E-01  2.14000000E-01
  1.42800000E+00  5.00000000E-01
Contraction coefficients                   R   N=          92
  2.54948632E-02  1.90362766E-01  8.52162022E-01  1.00000000E+00  1.00000000E+00
  1.00000000E+00  1.00000000E+00  1.00000000E+00  1.00000000E+00  1.00000000E+00
  1.00000000E+00  5.19808943E-04  4.02025621E-03  2.07128267E-02  8.10105536E-02
  2.35962985E-01  4.42653446E-01  3.57064423E-01 -4.42115008E-05 -1.22591041E-03
 -1.05517725E-02 -6.74452633E-02 -1.71198607E-01  1.07329856E+00  1.00000000E+00
  1.00000000E+00  1.00000000E+00  4.11634896E-02  2.57762836E-01  8.02419274E-01
  1.00000000E+00  1.00000000E+00  1.00000000E+00  1.00000000E+00  1.00000000E+00
  1.00000000E+00  1.00000000E+00  1.00000000E+00  5.34563860E-04  4.13435660E-03
  2.12335358E-02  8.25006224E-02  2.38138871E-01  4.42551547E-01  3.53757422E-01
 -4.89867350E-05 -1.19527323E-03 -1.03490714E-02 -6.48680190E-02 -1.71552477E-01
  1.07289568E+00  1.00000000E+00  1.00000000E+00  1.00000000E+00  3.98072123E-02
  2.49002660E-01  8.10479727E-01  1.00000000E+00  1.00000000E+00  1.00000000E+00
  1.00000000E+00  1.00000000E+00  1.00000000E+00  1.00000000E+00  1.00000000E+00
  5.19808943E-04  4.02025621E-03  2.07128267E-02  8.10105536E-02  2.35962985E-01
  4.42653446E-01  3.57064423E-01 -4.42115008E-05 -1.22591041E-03 -1.05517725E-02
 -6.74452633E-02 -1.71198607E-01  1.07329856E+00  1.00000000E+00  1.00000000E+00
  1.00000000E+00  4.11634896E-02  2.57762836E-01  8.02419274E-01  1.00000000E+00
  1.00000000E+00  1.00000000E+00  1.00000000E+00  1.00000000E+00  1.00000000E+00
  1.00000000E+00  1.00000000E+00
Coordinates of each shell                  R   N=         153
  3.31257924E+00 -2.23828080E-01 -5.22171538E-32  3.31257924E+00 -2.23828080E-01
 -5.22171538E-32  3.31257924E+00 -2.23828080E-01 -5.22171538E-32  3.31257924E+00
 -2.23828080E-01 -5.22171538E-32  3.31257924E+00 -2.23828080E-01 -5.22171538E-32
  3.31257924E+00 -2.23828080E-01 -5.22171538E-32  3.31257924E+00 -2.23828080E-01
 -5.22171538E-32  3.31257924E+00 -2.23828080E-01 -5.22171538E-32  3.31257924E+00
 -2.23828080E-01 -5.22171538E-32  1.69146517E+00 -1.08046368E+00 -1.83171350E-32
  1.69146517E+00 -1.08046368E+00 -1.83171350E-32  1.69146517E+00 -1.08046368E+00
 -1.83171350E-32  1.69146517E+00 -1.08046368E+00 -1.83171350E-32  1.69146517E+00
 -1.08046368E+00 -1.83171350E-32  1.69146517E+00 -1.08046368E+00 -1.83171350E-32
  1.69146517E+00 -1.08046368E+00 -1.83171350E-32  1.69146517E+00 -1.08046368E+00
 -1.83171350E-32  1.69146517E+00 -1.08046368E+00 -1.83171350E-32  1.69146517E+00
 -1.08046368E+00 -1.83171350E-32  1.69146517E+00 -1.08046368E+00 -1.83171350E-32
  1.69146517E+00 -1.08046368E+00 -1.83171350E-32  1.69146517E+00 -1.08046368E+00
 -1.83171350E-32  1.69146517E+00 -1.08046368E+00 -1.83171350E-32  1.95487986E-16
  9.72846700E-01 -8.40357394E-33  1.95487986E-16  9.72846700E-01 -8.40357394E-33
  1.95487986E-16  9.72846700E-01 -8.40357394E-33  1.95487986E-16  9.72846700E-01
 -8.40357394E-33  1.95487986E-16  9.72846700E-01 -8.40357394E-33  1.95487986E-16
  9.72846700E-01 -8.40357394E-33  1.95487986E-16  9.72846700E-01 -8.40357394E-33
  1.95487986E-16  9.72846700E-01 -8.40357394E-33  1.95487986E-16  9.72846700E-01
 -8.40357394E-33  1.95487986E-16  9.72846700E-01 -8.40357394E-33  1.95487986E-16
  9.72846700E-01 -8.40357394E-33  1.95487986E-16  9.72846700E-01 -8.40357394E-33
  1.95487986E-16  9.72846700E-01 -8.40357394E-33  1.95487986E-16  9.72846700E-01
 -8.40357394E-33 -2.10553758E+00  2.57201325E-01  3.21974064E-32 -2.10553758E+00
  2.57201325E-01  3.21974064E-32 -2.10553758E+00  2.57201325E-01  3.21974064E-32
 -2.10553758E+00  2.57201325E-01  3.21974064E-32 -2.10553758E+00  2.57201325E-01
  3.21974064E-32 -2.10553758E+00  2.57201325E-01  3.21974064E-32 -2.10553758E+00
  2.57201325E-01  3.21974064E-32 -2.10553758E+00  2.57201325E-01  3.21974064E-32
 -2.10553758E+00  2.57201325E-01  3.21974064E-32 -2.10553758E+00  2.57201325E-01
  3.21974064E-32 -2.10553758E+00  2.57201325E-01  3.21974064E-32 -2.10553758E+00
  2.57201325E-01  3.21974064E-32 -2.10553758E+00  2.57201325E-01  3.21974064E-32
 -2.10553758E+00  2.57201325E-01  3.21974064E-32
Num ILSW                                   I              100
ILSW                                       I   N=         100
           0           0           0           0           2           0
           0           0           0           0           0          -1
           5           0           0           0           0           0
           0           0           0           0           0           0
           1           0           0           0           0           0
           0           0      100000           0          -1           0
           0           0           0           0           0           0
           0           0           0           1           0           0
           0 -2000000000           1           0           0           0
           0           0           4          52           0           0
           0           0           0           0           0           0
           0           0           0           4           0           1
           0           0           0           0           0           0
           0           0           0           0           0           0
           0           0           0           0           0           0
           0           0           0           0           0           0
           0           0           0           0
Num RLSW                                   I               52
RLSW                                       R   N=          52
  1.00000000E+00  1.00000000E+00  1.00000000E+00  1.00000000E+00  1.00000000E+00
  0.00000000E+00  0.00000000E+00  1.00000000E+00  0.00000000E+00  0.00000000E+00
  0.00000000E+00  0.00000000E+00  1.00000000E+00  0.00000000E+00  0.00000000E+00
  0.00000000E+00  0.00000000E+00  1.00000000E+00  0.00000000E+00  0.00000000E+00
  0.00000000E+00  0.00000000E+00  1.00000000E+00  0.00000000E+00  0.00000000E+00
  0.00000000E+00  0.00000000E+00  1.00000000E+00  0.00000000E+00  0.00000000E+00
  0.00000000E+00  0.00000000E+00  1.00000000E+00  0.00000000E+00  0.00000000E+00
  0.00000000E+00  0.00000000E+00  0.00000000E+00  1.00000000E+00  1.00000000E+00
  0.00000000E+00  1.00000000E+00  0.00000000E+00  0.00000000E+00  0.00000000E+00
  0.00000000E+00  0.00000000E+00  0.00000000E+00  0.00000000E+00  0.00000000E+00
  0.00000000E+00  0.00000000E+00
MxBond                                     I                2
NBond                                      I   N=           4
           1           2           2           1
IBond                                      I   N=           8
           2           0           1           3           2           4
           3           0
RBond                                      R   N=           8
  1.00000000E+00  0.00000000E+00  1.00000000E+00  1.00000000E+00  1.00000000E+00
  2.00000000E+00  2.00000000E+00  0.00000000E+00
Virial Ratio                               R      2.002191373512066E+00
SCF Energy                                 R     -2.047250829326634E+02
MP2 Energy                                 R     -2.054212240561542E+02
Total Energy                               R     -2.054212240561542E+02
Post-SCF wavefunction norm                 R      1.089189925016922E+00
RMS Density                                R      4.970205471843756E-09
Job Status                                 I                1
Nuclear derivative order                   I                0
External E-field                           R   N=          35
  0.00000000E+00  0.00000000E+00  0.00000000E+00  0.00000000E+00  0.00000000E+00
  0.00000000E+00  0.00000000E+00  0.00000000E+00  0.00000000E+00  0.00000000E+00
  0.00000000E+00  0.00000000E+00  0.00000000E+00  0.00000000E+00  0.00000000E+00
  0.00000000E+00  0.00000000E+00  0.00000000E+00  0.00000000E+00  0.00000000E+00
  0.00000000E+00  0.00000000E+00  0.00000000E+00  0.00000000E+00  0.00000000E+00
  0.00000000E+00  0.00000000E+00  0.00000000E+00  0.00000000E+00  0.00000000E+00
  0.00000000E+00  0.00000000E+00  0.00000000E+00  0.00000000E+00  0.00000000E+00
IOpCl                                      I                0
IROHF                                      I                0
Alpha Orbital Energies                     R   N=         161
 -2.06605784E+01 -2.06456074E+01 -1.57958611E+01 -1.60436060E+00 -1.40874391E+00
 -9.48169358E-01 -7.87962124E-01 -7.31080326E-01 -6.84404440E-01 -6.23902984E-01
 -5.28413821E-01 -4.61957337E-01  2.74994168E-02  8.29518213E-02  9.44780369E-02
  9.76253864E-02  1.28688952E-01  1.42863314E-01  1.57108946E-01  1.71767765E-01
  1.86859067E-01  1.96770588E-01  2.06233320E-01  2.34410199E-01  2.58020304E-01
  2.95888313E-01  3.15596964E-01  3.30574331E-01  3.67817425E-01  3.84766305E-01
  4.23734655E-01  5.26492370E-01  5.27147448E-01  5.50189308E-01  5.73798513E-01
  6.14004464E-01  6.32442701E-01  6.48334984E-01  6.80202193E-01  7.13470126E-01
  7.18776189E-01  7.47511747E-01  7.75931075E-01  7.78858004E-01  8.12021953E-01
  8.13713174E-01  8.63520755E-01  8.79402374E-01  9.25822791E-01  9.38738382E-01
  9.43307694E-01  9.94054031E-01  1.05095747E+00  1.06510844E+00  1.08331549E+00
  1.10846574E+00  1.16177182E+00  1.19885110E+00  1.25285134E+00  1.27107992E+00
  1.35895356E+00  1.43508685E+00  1.48770798E+00  1.52348422E+00  1.52664403E+00
  1.54605817E+00  1.55662346E+00  1.61161702E+00  1.65982848E+00  1.73111282E+00
  1.75735635E+00  1.82702874E+00  1.86061163E+00  1.95943526E+00  1.98039450E+00
  2.00013753E+00  2.07844573E+00  2.13407828E+00  2.13522672E+00  2.19375415E+00
  2.27357302E+00  2.31002576E+00  2.33439025E+00  2.37898170E+00  2.45587512E+00
  2.47234794E+00  2.49822476E+00  2.50451385E+00  2.52551986E+00  2.54882076E+00
  2.57153243E+00  2.60763429E+00  2.61122515E+00  2.66651354E+00  2.77565209E+00
  2.78129905E+00  2.84789030E+00  2.94525790E+00  2.97729498E+00  3.12220236E+00
  3.15376491E+00  3.18254612E+00  3.25573939E+00  3.47255764E+00  3.83670692E+00
  3.86330403E+00  4.03167059E+00  4.17010842E+00  4.18716061E+00  4.22104069E+00
  4.36588706E+00  4.37545444E+00  4.58855931E+00  4.63973237E+00  4.74446269E+00
  4.83597549E+00  4.87307381E+00  4.88767951E+00  4.97990628E+00  5.00641601E+00
  5.07722540E+00  5.08539832E+00  5.17902396E+00  5.24695726E+00  5.26151703E+00
  5.33818477E+00  5.38183552E+00  5.39138029E+00  5.58877297E+00  5.67076817E+00
  5.78998210E+00  5.97971007E+00  6.14253224E+00  6.44991053E+00  6.51217734E+00
  6.51405448E+00  6.67647891E+00  6.72158823E+00  6.74660615E+00  6.85718145E+00
  6.92771772E+00  7.07940246E+00  7.12379319E+00  7.17796029E+00  7.24565971E+00
  7.25748068E+00  7.25919505E+00  7.33759353E+00  7.37904774E+00  7.44371408E+00
  7.48334415E+00  7.62147973E+00  7.65530500E+00  7.71434527E+00  7.81092693E+00
  8.02146910E+00  8.09518515E+00  8.43211794E+00  1.42869546E+01  1.52299253E+01
  1.60213346E+01
Alpha MO coefficients                      R   N=       25921
  5.95578403E-05  2.10227574E-04 -3.46765680E-04  8.60047553E-06 -5.60388595E-05
  9.33034989E-06  0.00000000E+00  5.32412511E-05  4.47239595E-05  0.00000000E+00
  2.61770922E-04  1.28249540E-05  0.00000000E+00  2.10865244E-05  0.00000000E+00
  0.00000000E+00  1.12605395E-05  9.53580528E-06  5.27512529E-05  0.00000000E+00
  0.00000000E+00 -3.82435628E-05  1.90121253E-05 -1.27698598E-03  8.35710134E-05
 -8.07926792E-05 -5.83834065E-05  2.42199365E-04  1.73600898E-05 -1.93673424E-05
  0.00000000E+00 -9.22609658E-05  5.56373343E-05  0.00000000E+00 -1.94391084E-04
  9.57670284E-05  0.00000000E+00 -1.34189789E-04  5.75776214E-05  0.00000000E+00
 -9.34911024E-06  0.00000000E+00  0.00000000E+00  2.87675927E-05  1.11518696E-05
  2.13701086E-06  0.00000000E+00  0.00000000E+00 -1.11299866E-04 -1.29813641E-04
 -2.30570589E-05  0.00000000E+00  0.00000000E+00 -8.82928224E-05 -2.57650844E-04
  0.00000000E+00  1.87988284E-06  1.91464936E-06  0.00000000E+00  0.00000000E+00
 -4.51974256E-06 -1.70155585E-05  0.00000000E+00 -1.66833898E-05 -2.01710126E-05
  0.00000000E+00  0.00000000E+00  1.95479283E-04 -4.62793828E-05  2.47581536E-04
  1.41246280E-03 -9.85379128E-05 -1.61388261E-03  3.41253337E-04 -1.11034363E-04
 -6.56714624E-05  0.00000000E+00 -2.05971517E-03 -5.70225310E-04  0.00000000E+00
  1.14372323E-03 -4.80224897E-05  0.00000000E+00 -1.12200776E-04 -9.09082761E-05
  0.00000000E+00 -1.24845593E-04  0.00000000E+00  0.00000000E+00  2.12548599E-04
  1.49430465E-04 -4.34570963E-04  0.00000000E+00  0.00000000E+00  5.24293320E-04
  8.16514039E-04  5.70935190E-06  0.00000000E+00  0.00000000E+00 -1.80145436E-04
 -1.48013050E-04  0.00000000E+00  1.40284570E-05 -1.29911721E-05  0.00000000E+00
  0.00000000E+00  1.61684968E-05  1.78751186E-05  0.00000000E+00  1.39726295E-04
  1.31735692E-04  0.00000000E+00  0.00000000E+00 -6.23765346E-06 -2.88056539E-04
  9.76645701E-01 -9.86044541E-03  4.35731951E-02  4.30218124E-03 -5.22822818E-04
  2.10537723E-03  5.84404898E-04  0.00000000E+00 -2.40715818E-03 -6.03885011E-04
  0.00000000E+00  9.70851715E-04  5.76452191E-04  0.00000000E+00 -5.33794668E-05
  3.34856481E-05  0.00000000E+00 -2.29065163E-04  0.00000000E+00  0.00000000E+00
  7.66103059E-05  5.50609854E-05  3.90705675E-04  0.00000000E+00  0.00000000E+00
 -8.24472355E-04 -4.54533314E-04 -1.56851814E-04  0.00000000E+00  0.00000000E+00
  1.62895798E-04  2.53912360E-04  0.00000000E+00  5.53954466E-05  1.11321194E-05
  0.00000000E+00  0.00000000E+00 -1.60793289E-05 -2.42712481E-05  0.00000000E+00
  1.25382765E-04  4.84717113E-05  0.00000000E+00  0.00000000E+00 -1.59562034E-04
 -1.57625978E-04  4.72164360E-04  2.46216923E-03  3.49512883E-04 -1.08989466E-05
 -2.18423967E-04 -1.06877398E-04  0.00000000E+00 -9.64654833E-04 -8.79241508E-04
  0.00000000E+00 -8.45365569E-05 -4.27513986E-04  0.00000000E+00  1.29805704E-05
  0.00000000E+00  0.00000000E+00 -4.99829908E-05 -5.99991075E-05 -1.51216043E-04
  0.00000000E+00  0.00000000E+00  1.51957609E-04  4.15742283E-04  9.76738628E-01
 -9.26877875E-03  4.35850984E-02  7.30331053E-04 -9.76057292E-04  3.67034138E-04
  1.87262685E-03  0.00000000E+00 -1.36087991E-04 -1.87705009E-03  0.00000000E+00
 -1.48254952E-03  2.54560642E-04  0.00000000E+00 -5.55117917E-05  2.05579770E-05
  0.00000000E+00 -4.79848363E-05  0.00000000E+00  0.00000000E+00  3.30638215E-05
  4.17613873E-05  6.64972558E-04  0.00000000E+00  0.00000000E+00 -3.01418774E-04
  2.78993645E-04 -7.63759889E-05  0.00000000E+00  0.00000000E+00 -2.74305361E-04
 -3.69741105E-04  0.00000000E+00 -3.40876374E-05  4.55514012E-05  0.00000000E+00
  0.00000000E+00 -1.39634116E-05 -2.77491190E-06  0.00000000E+00  8.98776826E-05
  6.38474708E-05  0.00000000E+00  0.00000000E+00 -2.31352356E-04 -2.38813971E-04
  6.90572706E-05  2.25687241E-04 -3.31461683E-04 -3.21613179E-04  8.98510770E-04
 -8.44007951E-05  7.55754941E-05  0.00000000E+00  7.94600236E-04 -7.31850192E-04
  0.00000000E+00 -3.38876785E-04  4.76939327E-04  0.00000000E+00  1.76010962E-04
 -1.81423684E-04  0.00000000E+00 -4.38952558E-05  0.00000000E+00  0.00000000E+00
 -3.80793199E-05 -6.87814760E-05 -4.15820812E-04  0.00000000E+00  0.00000000E+00
 -1.64757714E-04 -9.54528479E-04 -1.92524040E-04  0.00000000E+00  0.00000000E+00
  5.37965323E-04 -4.47294717E-05  0.00000000E+00 -8.92254287E-05  9.79323086E-05
  0.00000000E+00  0.00000000E+00 -1.41964962E-04 -6.50647194E-05  0.00000000E+00
 -5.79155162E-05  1.22248878E-04  0.00000000E+00  0.00000000E+00 -4.18282027E-04
 -2.85978897E-07  1.31071051E-03  4.05948897E-05  4.24901386E-05 -2.41055248E-04
 -1.59866429E-04 -1.40673429E-05  1.94818570E-05  0.00000000E+00  1.13486426E-04
 -1.12474176E-04  0.00000000E+00  4.30857373E-04 -3.78016396E-04  0.00000000E+00
 -1.27284424E-06  7.49272992E-06  0.00000000E+00 -5.11107602E-06  0.00000000E+00
  0.00000000E+00 -1.24456859E-05 -1.20849519E-05 -1.31691483E-06  0.00000000E+00
  0.00000000E+00  1.35561617E-04 -1.35811123E-05 -7.07288022E-05  0.00000000E+00
  0.00000000E+00  2.53964867E-04  2.43264349E-06  0.00000000E+00  3.98551634E-06
  8.64880037E-06  0.00000000E+00  0.00000000E+00 -1.45310339E-05 -6.71816338E-06
  0.00000000E+00  9.11830236E-06 -5.09963451E-05  0.00000000E+00  0.00000000E+00
  1.10478014E-04  8.19810714E-05 -8.67842812E-05 -5.16027420E-04 -3.57379905E-04
  2.08266128E-04  4.28293781E-05  2.89596078E-05  0.00000000E+00  4.76156683E-04
 -3.57138110E-04  0.00000000E+00  3.23530012E-04 -3.27768634E-04  0.00000000E+00
 -1.94300937E-05  0.00000000E+00  0.00000000E+00 -4.48697054E-05  3.27495300E-05
  1.08454087E-04  0.00000000E+00  0.00000000E+00 -3.78651309E-05  1.85803206E-04
 -1.24082935E-04 -1.45786478E-04 -2.07292244E-04  5.10192360E-03  3.31827383E-03
  5.21847737E-06 -3.25101120E-05  0.00000000E+00 -5.89746007E-04  9.01720183E-04
  0.00000000E+00 -2.44857555E-03  3.04198904E-03  0.00000000E+00 -8.34808477E-04
  5.56042812E-04  0.00000000E+00 -5.87210943E-06  0.00000000E+00  0.00000000E+00
 -3.48736919E-05 -5.77154950E-05 -4.41044045E-04  0.00000000E+00  0.00000000E+00
 -1.24501074E-05 -5.07977911E-04 -5.94746600E-04  0.00000000E+00  0.00000000E+00
 -2.49291949E-04 -9.09288780E-04  0.00000000E+00  1.67097758E-05 -1.74300667E-05
  0.00000000E+00  0.00000000E+00  3.08127492E-05  3.16314927E-05  0.00000000E+00
  8.29952351E-05 -1.28501378E-04  0.00000000E+00  0.00000000E+00 -2.24042398E-05
  2.39105698E-04  9.78261122E-01 -8.38602113E-03  4.18229746E-02 -5.49978977E-03
 -3.04897128E-03 -1.01924045E-03 -3.07471239E-03  0.00000000E+00 -1.92729436E-04
  2.99978527E-03  0.00000000E+00  3.79109773E-04  3.14643915E-03  0.00000000E+00
 -5.06491763E-05  5.48378184E-04  0.00000000E+00 -4.47044282E-04  0.00000000E+00
  0.00000000E+00  2.28796561E-04  2.25275609E-04  1.02833270E-03  0.00000000E+00
  0.00000000E+00 -1.24553098E-04  3.18194364E-04  3.63010868E-04  0.00000000E+00
  0.00000000E+00  1.57698113E-04  5.66174112E-05  0.00000000E+00  9.39072090E-05
 -6.67914601E-05  0.00000000E+00  0.00000000E+00 -6.58607127E-05 -2.05513032E-05
  0.00000000E+00 -2.24064964E-04 -2.39858495E-04  0.00000000E+00  0.00000000E+00
  4.65615162E-04  2.55794636E-04 -1.90281726E-04  9.06697919E-04  1.60543786E-04
  2.91551494E-03  8.19011339E-04  2.63124854E-04  1.26584932E-04  0.00000000E+00
  8.41375581E-04  2.71315303E-04  0.00000000E+00  1.17779135E-03 -1.62232368E-04
  0.00000000E+00 -5.60422705E-06  3.29886954E-05  0.00000000E+00 -3.84761465E-05
  0.00000000E+00  0.00000000E+00  6.94099669E-05  8.53671044E-05  7.95050289E-05
  0.00000000E+00  0.00000000E+00 -5.80807121E-06 -2.86885985E-04 -2.78852216E-05
  0.00000000E+00  0.00000000E+00  2.77843623E-04 -1.43648127E-04  0.00000000E+00
  9.18873094E-05  3.80494468E-05  0.00000000E+00  0.00000000E+00 -5.11142935E-05
 -1.15762456E-04  0.00000000E+00  1.57646033E-04  1.26081076E-04  0.00000000E+00
  0.00000000E+00  3.40599332E-05 -3.58390696E-04  2.31633455E-02  1.90265845E-02
 -2.38165183E-03  2.51510819E-04 -3.54795957E-03 -1.02400289E-03  0.00000000E+00
 -3.19442097E-03 -9.50449263E-04  0.00000000E+00  2.65367265E-03  2.60306818E-04
  0.00000000E+00 -2.58164828E-04  0.00000000E+00  0.00000000E+00  4.93345057E-04
  3.05313832E-04  2.49889747E-04  0.00000000E+00  0.00000000E+00  5.54696581E-04
  5.31165162E-04 -7.23841099E-02  1.75405994E-01  4.67774863E-02  9.82883640E-02
  6.18499882E-03 -1.64528264E-02  2.55482749E-02  0.00000000E+00 -2.19056547E-02
  3.63283699E-02  0.00000000E+00 -1.13668224E-02  9.59619608E-03  0.00000000E+00
 -1.61021887E-03 -2.32885490E-03  0.00000000E+00 -2.00490783E-03  0.00000000E+00
  0.00000000E+00  1.19428804E-04 -1.97261901E-03 -4.39185317E-03  0.00000000E+00
  0.00000000E+00  8.64140805E-04 -4.58925331E-03  1.37480094E-03  0.00000000E+00
  0.00000000E+00  3.90635584E-04 -1.29568627E-03  0.00000000E+00  5.31996107E-04
 -9.79517389E-04  0.00000000E+00  0.00000000E+00  7.60976770E-04  1.46784466E-03
  0.00000000E+00 -3.02424314E-04  5.56189263E-04  0.00000000E+00  0.00000000E+00
 -1.23813217E-04  7.68725180E-05 -1.30666202E-01  3.09023468E-01  8.11634765E-02
  6.62037134E-02  2.44800599E-03 -6.90157569E-02 -4.93903106E-02  0.00000000E+00
 -7.17518613E-02 -6.80497825E-02  0.00000000E+00 -2.51019023E-03  8.05851919E-03
  0.00000000E+00  2.08048816E-04  2.88248217E-03  0.00000000E+00 -9.39600711E-03
  0.00000000E+00  0.00000000E+00  8.02659976E-03  5.89221727E-03 -1.18474777E-02
  0.00000000E+00  0.00000000E+00  8.63218666E-03  5.07586961E-03  5.90420514E-03
  0.00000000E+00  0.00000000E+00  2.51128520E-04  3.23260222E-04  0.00000000E+00
  2.33596186E-03  2.56073681E-03  0.00000000E+00  0.00000000E+00 -4.82492697E-03
 -5.62596076E-03  0.00000000E+00 -1.37962334E-03 -3.96039834E-04  0.00000000E+00
  0.00000000E+00  7.49200069E-04  1.89887477E-05 -1.46728123E-01  3.50659765E-01
  9.39192237E-02  1.73878510E-01 -1.54236064E-02  7.85156806E-02  2.17610077E-02
  0.00000000E+00  9.94545178E-02  2.72213964E-02  0.00000000E+00  1.70106365E-02
  2.65789461E-03  0.00000000E+00 -8.56939276E-03 -2.46643108E-03  0.00000000E+00
 -5.07431164E-03  0.00000000E+00  0.00000000E+00  7.12108322E-03  4.47491205E-03
 -9.25423106E-03  0.00000000E+00  0.00000000E+00  1.47117502E-02  9.29589366E-03
  2.55071654E-03  0.00000000E+00  0.00000000E+00 -3.52080228E-03 -2.76835405E-03
  0.00000000E+00 -3.08737521E-03 -8.67315259E-04  0.00000000E+00  0.00000000E+00
  3.20167017E-03  3.58696237E-03  0.00000000E+00 -5.78316575E-05 -2.53621468E-04
  0.00000000E+00  0.00000000E+00  9.75110715E-04  1.89730829E-03  7.88553250E-02
  7.83171247E-02 -2.02668564E-02 -2.79239417E-03 -1.16017824E-02 -4.76026598E-03
  0.00000000E+00 -1.48833430E-02 -1.23933113E-03  0.00000000E+00  7.42611212E-03
  2.49171083E-03  0.00000000E+00 -1.27894119E-03  0.00000000E+00  0.00000000E+00
  2.23567355E-03  1.17380222E-03  3.92686614E-04  0.00000000E+00  0.00000000E+00
  2.22501086E-03 -1.47197499E-03 -1.78418767E-01  4.34550098E-01  1.18335797E-01
  2.53166349E-01  1.16344337E-02  1.49664116E-02  3.87238822E-02  0.00000000E+00