title                                                                   
SP        RMP2-FC                                                     Aug-CC-pVTZ         
Number of atoms                            I                4
Info1-9                                    I   N=           9
          29          20           0           0           0         110
           1           2           1
Full Title                                 C   N=           1
title       
Route                                      C   N=           4
#p SP mp2/aug-cc-pvtz density=current           
Charge                                     I                0
Multiplicity                               I                1
Number of electrons                        I               24
Number of alpha electrons                  I               12
Number of beta electrons                   I               12
Number of basis functions                  I              161
Number of independent functions            I              161
Number of point charges in /Mol/           I                0
Number of translation vectors              I                0
Atomic numbers                             I   N=           4
           1           8           7           8
Nuclear charges                            R   N=           4
  1.00000000E+00  8.00000000E+00  7.00000000E+00  8.00000000E+00
Current cartesian coordinates              R   N=          12
  3.33213323E+00 -2.87209627E-01 -4.70301002E-31  1.69570217E+00 -1.11420948E+00
  1.41497009E-31  1.78478349E-16  9.84420837E-01 -8.96974619E-32 -2.11221883E+00
  2.88742452E-01  7.56453594E-32
Number of symbols in /Mol/                 I                0
Force Field                                I                0
Atom Types                                 C   N=           4
                                                
Int Atom Types                             I   N=           4
           0           0           0           0
MM charges                                 R   N=           4
  0.00000000E+00  0.00000000E+00  0.00000000E+00  0.00000000E+00
Integer atomic weights                     I   N=           4
           1          16          14          16
Real atomic weights                        R   N=           4
  1.00782504E+00  1.59949146E+01  1.40030740E+01  1.59949146E+01
Atom fragment info                         I   N=           4
           0           0           0           0
Atom residue num                           I   N=           4
           0           0           0           0
Nuclear spins                              I   N=           4
           1           0           2           0
Nuclear ZEff                               R   N=           4
 -1.00000000E+00 -5.60000000E+00 -4.55000000E+00 -5.60000000E+00
Nuclear ZNuc                               R   N=           4
  1.00000000E+00  8.00000000E+00  7.00000000E+00  8.00000000E+00
Nuclear QMom                               R   N=           4
  0.00000000E+00  0.00000000E+00  2.04400000E+00  0.00000000E+00
Nuclear GFac                               R   N=           4
  2.79284600E+00  0.00000000E+00  4.03761000E-01  0.00000000E+00
MicOpt                                     I   N=           4
          -1          -1          -1          -1
Number of residues                         I                0
Number of secondary structures             I                0
SymInf integers                            I   N=          26
           1           2           1           1           1           1
           1          -1           0           0           0           0
           0           0           0           0           0           0
           0           0           0           0           0           0
           0           0
RotTr to input orientation                 R   N=          12
 -4.51042236E-01 -3.12695458E-16 -8.92502606E-01  8.92502606E-01 -9.22153719E-16
 -4.51042236E-01 -6.81985738E-16 -1.00000000E+00  6.95011787E-16  1.75926816E+00
  0.00000000E+00  2.84439392E+00
Number of contracted shells                I               51
Number of primitive shells                 I               92
Pure/Cartesian d shells                    I                0
Pure/Cartesian f shells                    I                0
Highest angular momentum                   I                3
Largest degree of contraction              I                7
Shell types                                I   N=          51
           0           0           0           0           1           1
           1          -2          -2           0           0           0
           0           0           1           1           1           1
          -2          -2          -2          -3          -3           0
           0           0           0           0           1           1
           1           1          -2          -2          -2          -3
          -3           0           0           0           0           0
           1           1           1           1          -2          -2
          -2          -3          -3
Number of primitives per shell             I   N=          51
           3           1           1           1           1           1
           1           1           1           7           6           1
           1           1           3           1           1           1
           1           1           1           1           1           7
           6           1           1           1           3           1
           1           1           1           1           1           1
           1           7           6           1           1           1
           3           1           1           1           1           1
           1           1           1
Shell to atom map                          I   N=          51
           1           1           1           1           1           1
           1           1           1           2           2           2
           2           2           2           2           2           2
           2           2           2           2           2           3
           3           3           3           3           3           3
           3           3           3           3           3           3
           3           4           4           4           4           4
           4           4           4           4           4           4
           4           4           4
Primitive exponents                        R   N=          92
  3.38700000E+01  5.09500000E+00  1.15900000E+00  3.25800000E-01  1.02700000E-01
  2.52600000E-02  1.40700000E+00  3.88000000E-01  1.02000000E-01  1.05700000E+00
  2.47000000E-01  1.53300000E+04  2.29900000E+03  5.22400000E+02  1.47300000E+02
  4.75500000E+01  1.67600000E+01  6.20700000E+00  5.22400000E+02  1.47300000E+02
  4.75500000E+01  1.67600000E+01  6.20700000E+00  6.88200000E-01  1.75200000E+00
  2.38400000E-01  7.37600000E-02  3.44600000E+01  7.74900000E+00  2.28000000E+00
  7.15600000E-01  2.14000000E-01  5.97400000E-02  2.31400000E+00  6.45000000E-01
  2.14000000E-01  1.42800000E+00  5.00000000E-01  1.14200000E+04  1.71200000E+03
  3.89300000E+02  1.10000000E+02  3.55700000E+01  1.25400000E+01  4.64400000E+00
  3.89300000E+02  1.10000000E+02  3.55700000E+01  1.25400000E+01  4.64400000E+00
  5.11800000E-01  1.29300000E+00  1.78700000E-01  5.76000000E-02  2.66300000E+01
  5.94800000E+00  1.74200000E+00  5.55000000E-01  1.72500000E-01  4.91000000E-02
  1.65400000E+00  4.69000000E-01  1.51000000E-01  1.09300000E+00  3.64000000E-01
  1.53300000E+04  2.29900000E+03  5.22400000E+02  1.47300000E+02  4.75500000E+01
  1.67600000E+01  6.20700000E+00  5.22400000E+02  1.47300000E+02  4.75500000E+01
  1.67600000E+01  6.20700000E+00  6.88200000E-01  1.75200000E+00  2.38400000E-01
  7.37600000E-02  3.44600000E+01  7.74900000E+00  2.28000000E+00  7.15600000E-01
  2.14000000E-01  5.97400000E-02  2.31400000E+00  6.45000000E-01  2.14000000E-01
  1.42800000E+00  5.00000000E-01
Contraction coefficients                   R   N=          92
  2.54948632E-02  1.90362766E-01  8.52162022E-01  1.00000000E+00  1.00000000E+00
  1.00000000E+00  1.00000000E+00  1.00000000E+00  1.00000000E+00  1.00000000E+00
  1.00000000E+00  5.19808943E-04  4.02025621E-03  2.07128267E-02  8.10105536E-02
  2.35962985E-01  4.42653446E-01  3.57064423E-01 -4.42115008E-05 -1.22591041E-03
 -1.05517725E-02 -6.74452633E-02 -1.71198607E-01  1.07329856E+00  1.00000000E+00
  1.00000000E+00  1.00000000E+00  4.11634896E-02  2.57762836E-01  8.02419274E-01
  1.00000000E+00  1.00000000E+00  1.00000000E+00  1.00000000E+00  1.00000000E+00
  1.00000000E+00  1.00000000E+00  1.00000000E+00  5.34563860E-04  4.13435660E-03
  2.12335358E-02  8.25006224E-02  2.38138871E-01  4.42551547E-01  3.53757422E-01
 -4.89867350E-05 -1.19527323E-03 -1.03490714E-02 -6.48680190E-02 -1.71552477E-01
  1.07289568E+00  1.00000000E+00  1.00000000E+00  1.00000000E+00  3.98072123E-02
  2.49002660E-01  8.10479727E-01  1.00000000E+00  1.00000000E+00  1.00000000E+00
  1.00000000E+00  1.00000000E+00  1.00000000E+00  1.00000000E+00  1.00000000E+00
  5.19808943E-04  4.02025621E-03  2.07128267E-02  8.10105536E-02  2.35962985E-01
  4.42653446E-01  3.57064423E-01 -4.42115008E-05 -1.22591041E-03 -1.05517725E-02
 -6.74452633E-02 -1.71198607E-01  1.07329856E+00  1.00000000E+00  1.00000000E+00
  1.00000000E+00  4.11634896E-02  2.57762836E-01  8.02419274E-01  1.00000000E+00
  1.00000000E+00  1.00000000E+00  1.00000000E+00  1.00000000E+00  1.00000000E+00
  1.00000000E+00  1.00000000E+00
Coordinates of each shell                  R   N=         153
  3.33213323E+00 -2.87209627E-01 -2.13949907E-31  3.33213323E+00 -2.87209627E-01
 -2.13949907E-31  3.33213323E+00 -2.87209627E-01 -2.13949907E-31  3.33213323E+00
 -2.87209627E-01 -2.13949907E-31  3.33213323E+00 -2.87209627E-01 -2.13949907E-31
  3.33213323E+00 -2.87209627E-01 -2.13949907E-31  3.33213323E+00 -2.87209627E-01
 -2.13949907E-31  3.33213323E+00 -2.87209627E-01 -2.13949907E-31  3.33213323E+00
 -2.87209627E-01 -2.13949907E-31  1.69570217E+00 -1.11420948E+00  9.88906859E-32
  1.69570217E+00 -1.11420948E+00  9.88906859E-32  1.69570217E+00 -1.11420948E+00
  9.88906859E-32  1.69570217E+00 -1.11420948E+00  9.88906859E-32  1.69570217E+00
 -1.11420948E+00  9.88906859E-32  1.69570217E+00 -1.11420948E+00  9.88906859E-32
  1.69570217E+00 -1.11420948E+00  9.88906859E-32  1.69570217E+00 -1.11420948E+00
  9.88906859E-32  1.69570217E+00 -1.11420948E+00  9.88906859E-32  1.69570217E+00
 -1.11420948E+00  9.88906859E-32  1.69570217E+00 -1.11420948E+00  9.88906859E-32
  1.69570217E+00 -1.11420948E+00  9.88906859E-32  1.69570217E+00 -1.11420948E+00
  9.88906859E-32  1.69570217E+00 -1.11420948E+00  9.88906859E-32  3.71898847E-19
  9.84420837E-01 -2.11282028E-31  3.71898847E-19  9.84420837E-01 -2.11282028E-31
  3.71898847E-19  9.84420837E-01 -2.11282028E-31  3.71898847E-19  9.84420837E-01
 -2.11282028E-31  3.71898847E-19  9.84420837E-01 -2.11282028E-31  3.71898847E-19
  9.84420837E-01 -2.11282028E-31  3.71898847E-19  9.84420837E-01 -2.11282028E-31
  3.71898847E-19  9.84420837E-01 -2.11282028E-31  3.71898847E-19  9.84420837E-01
 -2.11282028E-31  3.71898847E-19  9.84420837E-01 -2.11282028E-31  3.71898847E-19
  9.84420837E-01 -2.11282028E-31  3.71898847E-19  9.84420837E-01 -2.11282028E-31
  3.71898847E-19  9.84420837E-01 -2.11282028E-31  3.71898847E-19  9.84420837E-01
 -2.11282028E-31 -2.11221883E+00  2.88742452E-01  1.12724827E-31 -2.11221883E+00
  2.88742452E-01  1.12724827E-31 -2.11221883E+00  2.88742452E-01  1.12724827E-31
 -2.11221883E+00  2.88742452E-01  1.12724827E-31 -2.11221883E+00  2.88742452E-01
  1.12724827E-31 -2.11221883E+00  2.88742452E-01  1.12724827E-31 -2.11221883E+00
  2.88742452E-01  1.12724827E-31 -2.11221883E+00  2.88742452E-01  1.12724827E-31
 -2.11221883E+00  2.88742452E-01  1.12724827E-31 -2.11221883E+00  2.88742452E-01
  1.12724827E-31 -2.11221883E+00  2.88742452E-01  1.12724827E-31 -2.11221883E+00
  2.88742452E-01  1.12724827E-31 -2.11221883E+00  2.88742452E-01  1.12724827E-31
 -2.11221883E+00  2.88742452E-01  1.12724827E-31
Num ILSW                                   I              100
ILSW                                       I   N=         100
           0           0           0           0           2           0
           0           0           0           0           0          -1
           5           0           0           0           0           0
           0           0           0           0           0           0
           1           0           0           0           0           0
           0           0      100000           0          -1           0
           0           0           0           0           0           0
           0           0           0           1           0           0
           0 -2000000000           1           0           0           0
           0           0           4          52           0           0
           0           0           0           0           0           0
           0           0           0           4           0           1
           0           0           0           0           0           0
           0           0           0           0           0           0
           0           0           0           0           0           0
           0           0           0           0           0           0
           0           0           0           0
Num RLSW                                   I               52
RLSW                                       R   N=          52
  1.00000000E+00  1.00000000E+00  1.00000000E+00  1.00000000E+00  1.00000000E+00
  0.00000000E+00  0.00000000E+00  1.00000000E+00  0.00000000E+00  0.00000000E+00
  0.00000000E+00  0.00000000E+00  1.00000000E+00  0.00000000E+00  0.00000000E+00
  0.00000000E+00  0.00000000E+00  1.00000000E+00  0.00000000E+00  0.00000000E+00
  0.00000000E+00  0.00000000E+00  1.00000000E+00  0.00000000E+00  0.00000000E+00
  0.00000000E+00  0.00000000E+00  1.00000000E+00  0.00000000E+00  0.00000000E+00
  0.00000000E+00  0.00000000E+00  1.00000000E+00  0.00000000E+00  0.00000000E+00
  0.00000000E+00  0.00000000E+00  0.00000000E+00  1.00000000E+00  1.00000000E+00
  0.00000000E+00  1.00000000E+00  0.00000000E+00  0.00000000E+00  0.00000000E+00
  0.00000000E+00  0.00000000E+00  0.00000000E+00  0.00000000E+00  0.00000000E+00
  0.00000000E+00  0.00000000E+00
MxBond                                     I                2
NBond                                      I   N=           4
           1           2           2           1
IBond                                      I   N=           8
           2           0           1           3           2           4
           3           0
RBond                                      R   N=           8
  1.00000000E+00  0.00000000E+00  1.00000000E+00  1.00000000E+00  1.00000000E+00
  2.00000000E+00  2.00000000E+00  0.00000000E+00
Virial Ratio                               R      2.002374253489427E+00
SCF Energy                                 R     -2.047234610013534E+02
MP2 Energy                                 R     -2.054213477498620E+02
Total Energy                               R     -2.054213477498620E+02
Post-SCF wavefunction norm                 R      1.089994050247381E+00
RMS Density                                R      5.496613214020736E-09
Job Status                                 I                1
Nuclear derivative order                   I                0
External E-field                           R   N=          35
  0.00000000E+00  0.00000000E+00  0.00000000E+00  0.00000000E+00  0.00000000E+00
  0.00000000E+00  0.00000000E+00  0.00000000E+00  0.00000000E+00  0.00000000E+00
  0.00000000E+00  0.00000000E+00  0.00000000E+00  0.00000000E+00  0.00000000E+00
  0.00000000E+00  0.00000000E+00  0.00000000E+00  0.00000000E+00  0.00000000E+00
  0.00000000E+00  0.00000000E+00  0.00000000E+00  0.00000000E+00  0.00000000E+00
  0.00000000E+00  0.00000000E+00  0.00000000E+00  0.00000000E+00  0.00000000E+00
  0.00000000E+00  0.00000000E+00  0.00000000E+00  0.00000000E+00  0.00000000E+00
IOpCl                                      I                0
IROHF                                      I                0
Alpha Orbital Energies                     R   N=         161
 -2.06653247E+01 -2.06421501E+01 -1.57987924E+01 -1.60270703E+00 -1.40233046E+00
 -9.48823578E-01 -7.84323246E-01 -7.29585063E-01 -6.81460326E-01 -6.25042920E-01
 -5.28480348E-01 -4.61678909E-01  2.79558675E-02  8.05224121E-02  9.39956948E-02
  9.76279231E-02  1.28962023E-01  1.43636983E-01  1.56866172E-01  1.72054073E-01
  1.87182124E-01  1.96697404E-01  2.05622746E-01  2.33403170E-01  2.58152682E-01
  2.96292708E-01  3.07885770E-01  3.29928700E-01  3.65393327E-01  3.82497069E-01
  4.24063029E-01  5.25414444E-01  5.26248825E-01  5.47471392E-01  5.73037176E-01
  6.13094937E-01  6.31431492E-01  6.48172436E-01  6.80280534E-01  7.14206248E-01
  7.17957330E-01  7.48153605E-01  7.75200370E-01  7.81053987E-01  8.11487097E-01
  8.11641144E-01  8.61133815E-01  8.77800611E-01  9.25739014E-01  9.39101414E-01
  9.45197689E-01  9.94973531E-01  1.04904418E+00  1.06236541E+00  1.08096339E+00
  1.10558164E+00  1.16061369E+00  1.19535508E+00  1.25379245E+00  1.26798608E+00
  1.36240581E+00  1.43411433E+00  1.48997963E+00  1.52314746E+00  1.52503274E+00
  1.54409819E+00  1.55513249E+00  1.60880833E+00  1.65806345E+00  1.72826676E+00
  1.75436820E+00  1.82295275E+00  1.85529538E+00  1.96138164E+00  1.97528358E+00
  1.99727693E+00  2.07411156E+00  2.13319921E+00  2.13353119E+00  2.18571942E+00
  2.27072886E+00  2.30909753E+00  2.32897659E+00  2.38066607E+00  2.45122819E+00
  2.46913189E+00  2.49971949E+00  2.50261514E+00  2.52151893E+00  2.54424811E+00
  2.56742553E+00  2.60730345E+00  2.60797110E+00  2.66223348E+00  2.77109805E+00
  2.78042851E+00  2.83884534E+00  2.93823610E+00  2.95199743E+00  3.11577806E+00
  3.15016771E+00  3.18347196E+00  3.24562600E+00  3.45800709E+00  3.83295246E+00
  3.85363272E+00  4.02972386E+00  4.17145956E+00  4.18103693E+00  4.21360441E+00
  4.36653743E+00  4.37251489E+00  4.57907334E+00  4.63203221E+00  4.74762083E+00
  4.81785580E+00  4.87089807E+00  4.88761385E+00  4.98459662E+00  5.00264056E+00
  5.07452335E+00  5.08710735E+00  5.17011032E+00  5.24621223E+00  5.25634919E+00
  5.33228726E+00  5.36862211E+00  5.37353197E+00  5.57987609E+00  5.66793690E+00
  5.79336108E+00  5.98837033E+00  6.11461235E+00  6.43640883E+00  6.50731040E+00
  6.51030749E+00  6.67371555E+00  6.71613007E+00  6.74416919E+00  6.84685915E+00
  6.91680136E+00  7.07154017E+00  7.11919075E+00  7.17988347E+00  7.23455837E+00
  7.25552813E+00  7.25773029E+00  7.33168097E+00  7.37963057E+00  7.43425116E+00
  7.47847162E+00  7.60704664E+00  7.64719304E+00  7.70099868E+00  7.78764871E+00
  7.97922939E+00  8.07419339E+00  8.42570357E+00  1.41959642E+01  1.51336899E+01
  1.59683880E+01
Alpha MO coefficients                      R   N=       25921
  5.53711372E-05  2.11920463E-04 -3.65278076E-04  5.10281011E-06 -5.59917779E-05
  1.12964942E-05  0.00000000E+00  3.54766282E-05  6.45753321E-05  0.00000000E+00
  2.60116817E-04  1.90953556E-05  0.00000000E+00  1.98053766E-05  0.00000000E+00
  0.00000000E+00  1.55955342E-05  6.14541442E-06  5.23895384E-05  0.00000000E+00
  0.00000000E+00 -2.98934873E-05  1.59677847E-05 -7.94938740E-04  7.83703899E-05
 -5.99740705E-05 -9.85336118E-05  2.17082509E-04  1.85391422E-05 -1.71163598E-05
  0.00000000E+00 -9.17692428E-05  4.39116699E-05  0.00000000E+00 -1.54079966E-04
  3.15427060E-05  0.00000000E+00 -1.17999228E-04  5.09758071E-05  0.00000000E+00
 -8.84256249E-06  0.00000000E+00  0.00000000E+00  2.68534876E-05  1.06763635E-05
  2.61598074E-06  0.00000000E+00  0.00000000E+00 -9.62248912E-05 -1.25148273E-04
 -1.54027413E-05  0.00000000E+00  0.00000000E+00 -7.17808431E-05 -2.43234873E-04
  0.00000000E+00  4.19137731E-06  1.85030224E-06  0.00000000E+00  0.00000000E+00
 -7.97375535E-06 -1.44058108E-05  0.00000000E+00 -2.06588418E-05 -1.69163428E-05
  0.00000000E+00  0.00000000E+00  1.95291517E-04 -5.10883069E-05  2.49292063E-04
  1.41869337E-03 -1.01484090E-04 -1.54119439E-03  3.75887077E-04 -1.12978679E-04
 -6.46387925E-05  0.00000000E+00 -2.04286867E-03 -5.57486308E-04  0.00000000E+00
  1.13423712E-03 -6.22120696E-05  0.00000000E+00 -1.15367307E-04 -9.18956474E-05
  0.00000000E+00 -1.25266368E-04  0.00000000E+00  0.00000000E+00  2.13818448E-04
  1.44495296E-04 -4.38207708E-04  0.00000000E+00  0.00000000E+00  5.52205011E-04
  7.92613927E-04 -1.42279017E-06  0.00000000E+00  0.00000000E+00 -1.61254092E-04
 -1.51682716E-04  0.00000000E+00  1.25530143E-05 -1.28739937E-05  0.00000000E+00
  0.00000000E+00  1.65208041E-05  1.51694881E-05  0.00000000E+00  1.45085211E-04
  1.28680437E-04  0.00000000E+00  0.00000000E+00 -2.32348803E-05 -2.91700989E-04
  9.76650817E-01 -9.86528954E-03  4.35625888E-02  4.27752759E-03 -5.28122037E-04
  2.10905281E-03  5.64238449E-04  0.00000000E+00 -2.41242354E-03 -5.83994710E-04
  0.00000000E+00  9.90308628E-04  5.47815888E-04  0.00000000E+00 -5.06661320E-05
  2.91863010E-05  0.00000000E+00 -2.29101757E-04  0.00000000E+00  0.00000000E+00
  7.68862875E-05  5.57192905E-05  3.87573862E-04  0.00000000E+00  0.00000000E+00
 -8.27234354E-04 -4.39852654E-04 -1.60038373E-04  0.00000000E+00  0.00000000E+00
  1.78755615E-04  2.47537667E-04  0.00000000E+00  5.52444574E-05  1.05914638E-05
  0.00000000E+00  0.00000000E+00 -1.72136203E-05 -2.42012461E-05  0.00000000E+00
  1.24025251E-04  4.68100030E-05  0.00000000E+00  0.00000000E+00 -1.60481715E-04
 -1.52857406E-04  4.75279900E-04  2.50897308E-03  3.51679127E-04 -6.75823340E-06
 -2.24892608E-04 -1.05458297E-04  0.00000000E+00 -1.00230763E-03 -8.68398891E-04
  0.00000000E+00 -9.68943809E-05 -4.20842971E-04  0.00000000E+00  1.24225401E-05
  0.00000000E+00  0.00000000E+00 -4.97455138E-05 -5.32796817E-05 -1.52174964E-04
  0.00000000E+00  0.00000000E+00  1.72964867E-04  4.14298386E-04  9.76754040E-01
 -9.25092640E-03  4.35575943E-02  8.02067482E-04 -8.94039858E-04  4.21058239E-04
  1.83839266E-03  0.00000000E+00 -2.17697496E-04 -1.83076282E-03  0.00000000E+00
 -1.54107245E-03  3.27563203E-04  0.00000000E+00 -5.75286630E-05  3.37456004E-05
  0.00000000E+00 -4.29390969E-05  0.00000000E+00  0.00000000E+00  3.83036625E-05
  4.56405054E-05  6.53210679E-04  0.00000000E+00  0.00000000E+00 -3.14577973E-04
  2.55274200E-04 -8.91998020E-05  0.00000000E+00  0.00000000E+00 -2.87211987E-04
 -3.85483637E-04  0.00000000E+00 -3.11032304E-05  4.54909550E-05  0.00000000E+00
  0.00000000E+00 -1.33570068E-05 -3.74975723E-06  0.00000000E+00  9.54395495E-05
  5.32574548E-05  0.00000000E+00  0.00000000E+00 -2.30305504E-04 -2.28366727E-04
  6.00291285E-05  1.64736358E-04 -3.20335891E-04 -3.74319045E-04  8.59101010E-04
 -8.34993179E-05  7.74587823E-05  0.00000000E+00  7.09686667E-04 -6.56346796E-04
  0.00000000E+00 -4.10696997E-04  5.51418358E-04  0.00000000E+00  1.56137921E-04
 -1.72521997E-04  0.00000000E+00 -3.49013686E-05  0.00000000E+00  0.00000000E+00
 -3.50471125E-05 -4.96011504E-05 -4.00565315E-04  0.00000000E+00  0.00000000E+00
 -1.62112280E-04 -9.31828761E-04 -1.88560916E-04  0.00000000E+00  0.00000000E+00
  5.55780627E-04 -6.04351148E-05  0.00000000E+00 -8.66826946E-05  9.87493056E-05
  0.00000000E+00  0.00000000E+00 -1.48346497E-04 -5.78193320E-05  0.00000000E+00
 -5.39985258E-05  1.19531270E-04  0.00000000E+00  0.00000000E+00 -4.26421647E-04
  1.91212948E-05  8.29129250E-04  4.77036955E-05  2.04199724E-05 -2.88968238E-04
 -1.91472952E-04 -1.50956583E-05  2.23433799E-05  0.00000000E+00  1.10977474E-04
 -1.27888615E-04  0.00000000E+00  4.12920943E-04 -4.31326423E-04  0.00000000E+00
 -5.05917195E-06  9.38877620E-07  0.00000000E+00 -5.28393553E-06  0.00000000E+00
  0.00000000E+00 -1.30195021E-05 -1.08748042E-05  1.21852236E-06  0.00000000E+00
  0.00000000E+00  1.39565838E-04 -3.37112627E-05 -6.54478626E-05  0.00000000E+00
  0.00000000E+00  2.58893896E-04 -1.73794810E-05  0.00000000E+00  2.96396691E-06
  1.02088554E-05  0.00000000E+00  0.00000000E+00 -1.29773850E-05 -1.03752683E-05
  0.00000000E+00  1.24601916E-05 -5.14755296E-05  0.00000000E+00  0.00000000E+00
  1.16835755E-04  7.53823155E-05 -7.33397105E-05 -4.70406500E-04 -3.15499789E-04
  2.08896295E-04  3.48177485E-05  3.28711916E-05  0.00000000E+00  4.88204591E-04
 -3.48645461E-04  0.00000000E+00  3.16551179E-04 -3.28110728E-04  0.00000000E+00
 -1.15133057E-05  0.00000000E+00  0.00000000E+00 -4.32803710E-05  3.24573923E-05
  1.19262525E-04  0.00000000E+00  0.00000000E+00 -4.26439393E-05  1.78161614E-04
 -1.25587858E-04 -2.06729361E-04 -2.08308589E-04  4.98571944E-03  3.25102367E-03
  9.05830769E-06 -4.11141308E-05  0.00000000E+00 -5.16922088E-04  8.59427392E-04
  0.00000000E+00 -2.43486153E-03  3.10209057E-03  0.00000000E+00 -8.35608940E-04
  5.66958083E-04  0.00000000E+00  3.44367447E-08  0.00000000E+00  0.00000000E+00
 -3.07878817E-05 -4.33773779E-05 -4.46726376E-04  0.00000000E+00  0.00000000E+00
 -4.15141227E-05 -5.23184956E-04 -6.04884854E-04  0.00000000E+00  0.00000000E+00
 -3.14023509E-04 -9.48959869E-04  0.00000000E+00  1.84736102E-05 -2.14874245E-05
  0.00000000E+00  0.00000000E+00  3.90922733E-05  3.31412482E-05  0.00000000E+00
  9.66139931E-05 -1.45327968E-04  0.00000000E+00  0.00000000E+00  2.07719576E-05
  2.30425072E-04  9.78282002E-01 -8.39793657E-03  4.17857561E-02 -5.54170667E-03
 -3.06542148E-03 -1.09834068E-03 -3.04169892E-03  0.00000000E+00 -1.00078049E-04
  2.98682262E-03  0.00000000E+00  4.25598124E-04  3.09268230E-03  0.00000000E+00
 -3.56565326E-05  5.45751050E-04  0.00000000E+00 -4.39604554E-04  0.00000000E+00
  0.00000000E+00  2.39482753E-04  2.29431877E-04  1.03229355E-03  0.00000000E+00
  0.00000000E+00 -1.71315339E-04  3.02816637E-04  3.64800244E-04  0.00000000E+00
  0.00000000E+00  1.19750324E-04  5.11325131E-05  0.00000000E+00  9.01312381E-05
 -6.91177162E-05  0.00000000E+00  0.00000000E+00 -6.02580285E-05 -1.00388809E-05
  0.00000000E+00 -2.25394373E-04 -2.28259846E-04  0.00000000E+00  0.00000000E+00
  4.58487603E-04  2.55312762E-04 -1.89190019E-04  9.19571954E-04  1.57378094E-04
  3.02619796E-03  8.89985091E-04  2.62073431E-04  1.23594717E-04  0.00000000E+00
  8.76937807E-04  2.73299094E-04  0.00000000E+00  1.23649299E-03 -1.42285219E-04
  0.00000000E+00  5.89993209E-06  3.97698545E-05  0.00000000E+00 -3.98319149E-05
  0.00000000E+00  0.00000000E+00  7.19112551E-05  8.42756233E-05  7.38748211E-05
  0.00000000E+00  0.00000000E+00 -7.76824647E-07 -2.73693606E-04 -3.69233202E-05
  0.00000000E+00  0.00000000E+00  2.86076176E-04 -1.38962084E-04  0.00000000E+00
  9.22442200E-05  3.66252861E-05  0.00000000E+00  0.00000000E+00 -5.45592656E-05
 -1.12441913E-04  0.00000000E+00  1.58744181E-04  1.23822733E-04  0.00000000E+00
  0.00000000E+00  2.38245735E-05 -3.55005718E-04  2.10108350E-02  1.70799918E-02
 -1.52639647E-03  4.65477118E-04 -3.22103992E-03 -8.67207030E-04  0.00000000E+00
 -2.57807540E-03 -9.55778724E-04  0.00000000E+00  2.32912648E-03  2.35951145E-04
  0.00000000E+00 -2.35455900E-04  0.00000000E+00  0.00000000E+00  4.04280040E-04
  2.73020064E-04  2.79259468E-04  0.00000000E+00  0.00000000E+00  3.63472214E-04
  5.07505756E-04 -6.62128618E-02  1.60436343E-01  4.27422978E-02  9.26500885E-02
  7.75818624E-03 -1.50446772E-02  2.33615027E-02  0.00000000E+00 -2.01797924E-02
  3.36208089E-02  0.00000000E+00 -1.18309967E-02  1.05898687E-02  0.00000000E+00
 -2.01442272E-03 -1.84147666E-03  0.00000000E+00 -1.82441430E-03  0.00000000E+00
  0.00000000E+00  9.25694743E-05 -1.81812853E-03 -4.10727231E-03  0.00000000E+00
  0.00000000E+00  8.03039799E-04 -4.31493521E-03  1.03710776E-03  0.00000000E+00
  0.00000000E+00  1.38270713E-04 -1.58470399E-03  0.00000000E+00  4.56454173E-04
 -8.81704104E-04  0.00000000E+00  0.00000000E+00  7.21185562E-04  1.30828710E-03
  0.00000000E+00 -2.55451099E-04  5.45489210E-04  0.00000000E+00  0.00000000E+00
 -2.54564419E-04  1.74069134E-04 -1.30086709E-01  3.07482633E-01  8.09915314E-02
  6.33762240E-02  4.36062742E-04 -7.35898927E-02 -4.70822068E-02  0.00000000E+00
 -7.71334205E-02 -6.48538134E-02  0.00000000E+00 -3.42397992E-03  8.90373976E-03
  0.00000000E+00 -7.14063100E-05  3.18107896E-03  0.00000000E+00 -9.28986021E-03
  0.00000000E+00  0.00000000E+00  8.52588613E-03  6.32693304E-03 -1.14665577E-02
  0.00000000E+00  0.00000000E+00  9.25231811E-03  6.00587229E-03  6.18184942E-03
  0.00000000E+00  0.00000000E+00 -1.72427452E-04  5.56631963E-04  0.00000000E+00
  2.49512379E-03  2.43178380E-03  0.00000000E+00  0.00000000E+00 -4.84992426E-03
 -5.46811901E-03  0.00000000E+00 -1.36064206E-03 -4.31306749E-04  0.00000000E+00
  0.00000000E+00  8.90748144E-04 -4.64211343E-05 -1.50245913E-01  3.59342893E-01
  9.63239374E-02  1.79338624E-01 -1.50652966E-02  7.98130738E-02  2.18800092E-02
  0.00000000E+00  1.01216103E-01  2.74529248E-02  0.00000000E+00  1.76085498E-02
  3.24847536E-03  0.00000000E+00 -8.58204320E-03 -2.41051934E-03  0.00000000E+00
 -5.16161381E-03  0.00000000E+00  0.00000000E+00  7.29466389E-03  4.46709050E-03
 -9.47990131E-03  0.00000000E+00  0.00000000E+00  1.50731349E-02  9.39227578E-03
  2.50310471E-03  0.00000000E+00  0.00000000E+00 -3.64603522E-03 -2.62638159E-03
  0.00000000E+00 -3.14859802E-03 -8.68059482E-04  0.00000000E+00  0.00000000E+00
  3.32903085E-03  3.61109505E-03  0.00000000E+00 -1.05083719E-04 -2.69215881E-04
  0.00000000E+00  0.00000000E+00  1.03539452E-03  1.90788056E-03  8.02055335E-02
  7.86987563E-02 -2.05369737E-02 -2.87347993E-03 -1.17917669E-02 -4.66146236E-03
  0.00000000E+00 -1.48649171E-02 -1.16326890E-03  0.00000000E+00  7.60819990E-03
  2.30054199E-03  0.00000000E+00 -1.33907150E-03  0.00000000E+00  0.00000000E+00
  2.28942688E-03  1.14751446E-03  3.69787074E-04  0.00000000E+00  0.00000000E+00
  2.23698030E-03 -1.39389122E-03 -1.81555842E-01  4.42271388E-01  1.20671135E-01
  2.57945592E-01  1.14255344E-02  1.60586527E-02  3.77803222E-02  0.00000000E+00