title                                                                   
SP        RMP2-FC                                                     Aug-CC-pVTZ         
Number of atoms                            I                4
Info1-9                                    I   N=           9
          29          20           0           0           0         110
           1           2           1
Full Title                                 C   N=           1
title       
Route                                      C   N=           4
#p SP mp2/aug-cc-pvtz density=current           
Charge                                     I                0
Multiplicity                               I                1
Number of electrons                        I               24
Number of alpha electrons                  I               12
Number of beta electrons                   I               12
Number of basis functions                  I              161
Number of independent functions            I              161
Number of point charges in /Mol/           I                0
Number of translation vectors              I                0
Atomic numbers                             I   N=           4
           1           8           7           8
Nuclear charges                            R   N=           4
  1.00000000E+00  8.00000000E+00  7.00000000E+00  8.00000000E+00
Current cartesian coordinates              R   N=          12
  3.32780303E+00 -2.71879064E-01 -1.37237097E-31  1.70063478E+00 -1.11695826E+00
 -3.66593593E-32 -1.68051163E-16  9.77676892E-01 -2.75103325E-31 -2.11661015E+00
  2.95475864E-01 -1.89214396E-31
Number of symbols in /Mol/                 I                0
Force Field                                I                0
Atom Types                                 C   N=           4
                                                
Int Atom Types                             I   N=           4
           0           0           0           0
MM charges                                 R   N=           4
  0.00000000E+00  0.00000000E+00  0.00000000E+00  0.00000000E+00
Integer atomic weights                     I   N=           4
           1          16          14          16
Real atomic weights                        R   N=           4
  1.00782504E+00  1.59949146E+01  1.40030740E+01  1.59949146E+01
Atom fragment info                         I   N=           4
           0           0           0           0
Atom residue num                           I   N=           4
           0           0           0           0
Nuclear spins                              I   N=           4
           1           0           2           0
Nuclear ZEff                               R   N=           4
 -1.00000000E+00 -5.60000000E+00 -4.55000000E+00 -5.60000000E+00
Nuclear ZNuc                               R   N=           4
  1.00000000E+00  8.00000000E+00  7.00000000E+00  8.00000000E+00
Nuclear QMom                               R   N=           4
  0.00000000E+00  0.00000000E+00  2.04400000E+00  0.00000000E+00
Nuclear GFac                               R   N=           4
  2.79284600E+00  0.00000000E+00  4.03761000E-01  0.00000000E+00
MicOpt                                     I   N=           4
          -1          -1          -1          -1
Number of residues                         I                0
Number of secondary structures             I                0
SymInf integers                            I   N=          26
           1           2           1           1           1           1
           1          -1           0           0           0           0
           0           0           0           0           0           0
           0           0           0           0           0           0
           0           0
RotTr to input orientation                 R   N=          12
 -4.60902634E-01  8.00641572E-17 -8.87450710E-01  8.87450710E-01  1.00021913E-15
 -4.60902634E-01  8.50743397E-16 -1.00000000E+00 -5.32056625E-16  1.77507245E+00
  0.00000000E+00  2.82795138E+00
Number of contracted shells                I               51
Number of primitive shells                 I               92
Pure/Cartesian d shells                    I                0
Pure/Cartesian f shells                    I                0
Highest angular momentum                   I                3
Largest degree of contraction              I                7
Shell types                                I   N=          51
           0           0           0           0           1           1
           1          -2          -2           0           0           0
           0           0           1           1           1           1
          -2          -2          -2          -3          -3           0
           0           0           0           0           1           1
           1           1          -2          -2          -2          -3
          -3           0           0           0           0           0
           1           1           1           1          -2          -2
          -2          -3          -3
Number of primitives per shell             I   N=          51
           3           1           1           1           1           1
           1           1           1           7           6           1
           1           1           3           1           1           1
           1           1           1           1           1           7
           6           1           1           1           3           1
           1           1           1           1           1           1
           1           7           6           1           1           1
           3           1           1           1           1           1
           1           1           1
Shell to atom map                          I   N=          51
           1           1           1           1           1           1
           1           1           1           2           2           2
           2           2           2           2           2           2
           2           2           2           2           2           3
           3           3           3           3           3           3
           3           3           3           3           3           3
           3           4           4           4           4           4
           4           4           4           4           4           4
           4           4           4
Primitive exponents                        R   N=          92
  3.38700000E+01  5.09500000E+00  1.15900000E+00  3.25800000E-01  1.02700000E-01
  2.52600000E-02  1.40700000E+00  3.88000000E-01  1.02000000E-01  1.05700000E+00
  2.47000000E-01  1.53300000E+04  2.29900000E+03  5.22400000E+02  1.47300000E+02
  4.75500000E+01  1.67600000E+01  6.20700000E+00  5.22400000E+02  1.47300000E+02
  4.75500000E+01  1.67600000E+01  6.20700000E+00  6.88200000E-01  1.75200000E+00
  2.38400000E-01  7.37600000E-02  3.44600000E+01  7.74900000E+00  2.28000000E+00
  7.15600000E-01  2.14000000E-01  5.97400000E-02  2.31400000E+00  6.45000000E-01
  2.14000000E-01  1.42800000E+00  5.00000000E-01  1.14200000E+04  1.71200000E+03
  3.89300000E+02  1.10000000E+02  3.55700000E+01  1.25400000E+01  4.64400000E+00
  3.89300000E+02  1.10000000E+02  3.55700000E+01  1.25400000E+01  4.64400000E+00
  5.11800000E-01  1.29300000E+00  1.78700000E-01  5.76000000E-02  2.66300000E+01
  5.94800000E+00  1.74200000E+00  5.55000000E-01  1.72500000E-01  4.91000000E-02
  1.65400000E+00  4.69000000E-01  1.51000000E-01  1.09300000E+00  3.64000000E-01
  1.53300000E+04  2.29900000E+03  5.22400000E+02  1.47300000E+02  4.75500000E+01
  1.67600000E+01  6.20700000E+00  5.22400000E+02  1.47300000E+02  4.75500000E+01
  1.67600000E+01  6.20700000E+00  6.88200000E-01  1.75200000E+00  2.38400000E-01
  7.37600000E-02  3.44600000E+01  7.74900000E+00  2.28000000E+00  7.15600000E-01
  2.14000000E-01  5.97400000E-02  2.31400000E+00  6.45000000E-01  2.14000000E-01
  1.42800000E+00  5.00000000E-01
Contraction coefficients                   R   N=          92
  2.54948632E-02  1.90362766E-01  8.52162022E-01  1.00000000E+00  1.00000000E+00
  1.00000000E+00  1.00000000E+00  1.00000000E+00  1.00000000E+00  1.00000000E+00
  1.00000000E+00  5.19808943E-04  4.02025621E-03  2.07128267E-02  8.10105536E-02
  2.35962985E-01  4.42653446E-01  3.57064423E-01 -4.42115008E-05 -1.22591041E-03
 -1.05517725E-02 -6.74452633E-02 -1.71198607E-01  1.07329856E+00  1.00000000E+00
  1.00000000E+00  1.00000000E+00  4.11634896E-02  2.57762836E-01  8.02419274E-01
  1.00000000E+00  1.00000000E+00  1.00000000E+00  1.00000000E+00  1.00000000E+00
  1.00000000E+00  1.00000000E+00  1.00000000E+00  5.34563860E-04  4.13435660E-03
  2.12335358E-02  8.25006224E-02  2.38138871E-01  4.42551547E-01  3.53757422E-01
 -4.89867350E-05 -1.19527323E-03 -1.03490714E-02 -6.48680190E-02 -1.71552477E-01
  1.07289568E+00  1.00000000E+00  1.00000000E+00  1.00000000E+00  3.98072123E-02
  2.49002660E-01  8.10479727E-01  1.00000000E+00  1.00000000E+00  1.00000000E+00
  1.00000000E+00  1.00000000E+00  1.00000000E+00  1.00000000E+00  1.00000000E+00
  5.19808943E-04  4.02025621E-03  2.07128267E-02  8.10105536E-02  2.35962985E-01
  4.42653446E-01  3.57064423E-01 -4.42115008E-05 -1.22591041E-03 -1.05517725E-02
 -6.74452633E-02 -1.71198607E-01  1.07329856E+00  1.00000000E+00  1.00000000E+00
  1.00000000E+00  4.11634896E-02  2.57762836E-01  8.02419274E-01  1.00000000E+00
  1.00000000E+00  1.00000000E+00  1.00000000E+00  1.00000000E+00  1.00000000E+00
  1.00000000E+00  1.00000000E+00
Coordinates of each shell                  R   N=         153
  3.32780303E+00 -2.71879064E-01 -1.39428768E-31  3.32780303E+00 -2.71879064E-01
 -1.39428768E-31  3.32780303E+00 -2.71879064E-01 -1.39428768E-31  3.32780303E+00
 -2.71879064E-01 -1.39428768E-31  3.32780303E+00 -2.71879064E-01 -1.39428768E-31
  3.32780303E+00 -2.71879064E-01 -1.39428768E-31  3.32780303E+00 -2.71879064E-01
 -1.39428768E-31  3.32780303E+00 -2.71879064E-01 -1.39428768E-31  3.32780303E+00
 -2.71879064E-01 -1.39428768E-31  1.70063478E+00 -1.11695826E+00 -4.90287176E-32
  1.70063478E+00 -1.11695826E+00 -4.90287176E-32  1.70063478E+00 -1.11695826E+00
 -4.90287176E-32  1.70063478E+00 -1.11695826E+00 -4.90287176E-32  1.70063478E+00
 -1.11695826E+00 -4.90287176E-32  1.70063478E+00 -1.11695826E+00 -4.90287176E-32
  1.70063478E+00 -1.11695826E+00 -4.90287176E-32  1.70063478E+00 -1.11695826E+00
 -4.90287176E-32  1.70063478E+00 -1.11695826E+00 -4.90287176E-32  1.70063478E+00
 -1.11695826E+00 -4.90287176E-32  1.70063478E+00 -1.11695826E+00 -4.90287176E-32
  1.70063478E+00 -1.11695826E+00 -4.90287176E-32  1.70063478E+00 -1.11695826E+00
 -4.90287176E-32  1.70063478E+00 -1.11695826E+00 -4.90287176E-32 -1.67241550E-16
  9.77676892E-01 -2.22169783E-32 -1.67241550E-16  9.77676892E-01 -2.22169783E-32
 -1.67241550E-16  9.77676892E-01 -2.22169783E-32 -1.67241550E-16  9.77676892E-01
 -2.22169783E-32 -1.67241550E-16  9.77676892E-01 -2.22169783E-32 -1.67241550E-16
  9.77676892E-01 -2.22169783E-32 -1.67241550E-16  9.77676892E-01 -2.22169783E-32
 -1.67241550E-16  9.77676892E-01 -2.22169783E-32 -1.67241550E-16  9.77676892E-01
 -2.22169783E-32 -1.67241550E-16  9.77676892E-01 -2.22169783E-32 -1.67241550E-16
  9.77676892E-01 -2.22169783E-32 -1.67241550E-16  9.77676892E-01 -2.22169783E-32
 -1.67241550E-16  9.77676892E-01 -2.22169783E-32 -1.67241550E-16  9.77676892E-01
 -2.22169783E-32 -2.11661015E+00  2.95475864E-01  8.58971697E-32 -2.11661015E+00
  2.95475864E-01  8.58971697E-32 -2.11661015E+00  2.95475864E-01  8.58971697E-32
 -2.11661015E+00  2.95475864E-01  8.58971697E-32 -2.11661015E+00  2.95475864E-01
  8.58971697E-32 -2.11661015E+00  2.95475864E-01  8.58971697E-32 -2.11661015E+00
  2.95475864E-01  8.58971697E-32 -2.11661015E+00  2.95475864E-01  8.58971697E-32
 -2.11661015E+00  2.95475864E-01  8.58971697E-32 -2.11661015E+00  2.95475864E-01
  8.58971697E-32 -2.11661015E+00  2.95475864E-01  8.58971697E-32 -2.11661015E+00
  2.95475864E-01  8.58971697E-32 -2.11661015E+00  2.95475864E-01  8.58971697E-32
 -2.11661015E+00  2.95475864E-01  8.58971697E-32
Num ILSW                                   I              100
ILSW                                       I   N=         100
           0           0           0           0           2           0
           0           0           0           0           0          -1
           5           0           0           0           0           0
           0           0           0           0           0           0
           1           0           0           0           0           0
           0           0      100000           0          -1           0
           0           0           0           0           0           0
           0           0           0           1           0           0
           0 -2000000000           1           0           0           0
           0           0           4          52           0           0
           0           0           0           0           0           0
           0           0           0           4           0           1
           0           0           0           0           0           0
           0           0           0           0           0           0
           0           0           0           0           0           0
           0           0           0           0           0           0
           0           0           0           0
Num RLSW                                   I               52
RLSW                                       R   N=          52
  1.00000000E+00  1.00000000E+00  1.00000000E+00  1.00000000E+00  1.00000000E+00
  0.00000000E+00  0.00000000E+00  1.00000000E+00  0.00000000E+00  0.00000000E+00
  0.00000000E+00  0.00000000E+00  1.00000000E+00  0.00000000E+00  0.00000000E+00
  0.00000000E+00  0.00000000E+00  1.00000000E+00  0.00000000E+00  0.00000000E+00
  0.00000000E+00  0.00000000E+00  1.00000000E+00  0.00000000E+00  0.00000000E+00
  0.00000000E+00  0.00000000E+00  1.00000000E+00  0.00000000E+00  0.00000000E+00
  0.00000000E+00  0.00000000E+00  1.00000000E+00  0.00000000E+00  0.00000000E+00
  0.00000000E+00  0.00000000E+00  0.00000000E+00  1.00000000E+00  1.00000000E+00
  0.00000000E+00  1.00000000E+00  0.00000000E+00  0.00000000E+00  0.00000000E+00
  0.00000000E+00  0.00000000E+00  0.00000000E+00  0.00000000E+00  0.00000000E+00
  0.00000000E+00  0.00000000E+00
MxBond                                     I                2
NBond                                      I   N=           4
           1           2           2           1
IBond                                      I   N=           8
           2           0           1           3           2           4
           3           0
RBond                                      R   N=           8
  1.00000000E+00  0.00000000E+00  1.00000000E+00  1.00000000E+00  1.00000000E+00
  2.00000000E+00  2.00000000E+00  0.00000000E+00
Virial Ratio                               R      2.002382661899219E+00
SCF Energy                                 R     -2.047233511397415E+02
MP2 Energy                                 R     -2.054213345209619E+02
Total Energy                               R     -2.054213345209619E+02
Post-SCF wavefunction norm                 R      1.090025493732525E+00
RMS Density                                R      5.506071762484944E-09
Job Status                                 I                1
Nuclear derivative order                   I                0
External E-field                           R   N=          35
  0.00000000E+00  0.00000000E+00  0.00000000E+00  0.00000000E+00  0.00000000E+00
  0.00000000E+00  0.00000000E+00  0.00000000E+00  0.00000000E+00  0.00000000E+00
  0.00000000E+00  0.00000000E+00  0.00000000E+00  0.00000000E+00  0.00000000E+00
  0.00000000E+00  0.00000000E+00  0.00000000E+00  0.00000000E+00  0.00000000E+00
  0.00000000E+00  0.00000000E+00  0.00000000E+00  0.00000000E+00  0.00000000E+00
  0.00000000E+00  0.00000000E+00  0.00000000E+00  0.00000000E+00  0.00000000E+00
  0.00000000E+00  0.00000000E+00  0.00000000E+00  0.00000000E+00  0.00000000E+00
IOpCl                                      I                0
IROHF                                      I                0
Alpha Orbital Energies                     R   N=         161
 -2.06655780E+01 -2.06426995E+01 -1.57986673E+01 -1.60244468E+00 -1.40323534E+00
 -9.48604617E-01 -7.83958571E-01 -7.30093955E-01 -6.81491540E-01 -6.26011531E-01
 -5.28910057E-01 -4.61135958E-01  2.79666456E-02  8.06305115E-02  9.39172607E-02
  9.75989743E-02  1.28908959E-01  1.43582161E-01  1.56885353E-01  1.72196913E-01
  1.87167631E-01  1.96640522E-01  2.05532710E-01  2.33370361E-01  2.57675472E-01
  2.96151042E-01  3.07812092E-01  3.29857038E-01  3.65765029E-01  3.82382339E-01
  4.23885301E-01  5.25165080E-01  5.26652337E-01  5.48228554E-01  5.73806034E-01
  6.12236171E-01  6.31462788E-01  6.47356300E-01  6.80125004E-01  7.14621070E-01
  7.17919047E-01  7.47829655E-01  7.74595278E-01  7.81514571E-01  8.11117182E-01
  8.11699660E-01  8.61108880E-01  8.79190770E-01  9.25116782E-01  9.38732080E-01
  9.45284523E-01  9.94970616E-01  1.04969023E+00  1.06267379E+00  1.08089748E+00
  1.10487181E+00  1.16162414E+00  1.19696418E+00  1.25223137E+00  1.26958037E+00
  1.36131174E+00  1.43098870E+00  1.48816904E+00  1.52368642E+00  1.52447025E+00
  1.54355279E+00  1.55358404E+00  1.60945427E+00  1.65790017E+00  1.72822769E+00
  1.75697175E+00  1.82180944E+00  1.85624164E+00  1.96013558E+00  1.97733155E+00
  1.99796605E+00  2.07581785E+00  2.13264105E+00  2.13397820E+00  2.18931865E+00
  2.26945824E+00  2.30715801E+00  2.32707663E+00  2.38058982E+00  2.45098574E+00
  2.47165269E+00  2.49792667E+00  2.50334735E+00  2.52002767E+00  2.54456453E+00
  2.56790619E+00  2.60693929E+00  2.60719994E+00  2.65931836E+00  2.77390389E+00
  2.77953673E+00  2.84384921E+00  2.93781955E+00  2.95087458E+00  3.11656514E+00
  3.14517825E+00  3.18338683E+00  3.24542675E+00  3.46097288E+00  3.83171720E+00
  3.85440588E+00  4.02699352E+00  4.17049103E+00  4.18333410E+00  4.21353943E+00
  4.36174963E+00  4.37078977E+00  4.58389616E+00  4.63447257E+00  4.74770784E+00
  4.81635436E+00  4.87179135E+00  4.88735271E+00  4.98073609E+00  5.00165110E+00
  5.07423065E+00  5.08786411E+00  5.17296166E+00  5.24424990E+00  5.25581625E+00
  5.33447049E+00  5.36730750E+00  5.36883021E+00  5.57892026E+00  5.66746213E+00
  5.79291579E+00  5.98722617E+00  6.11894599E+00  6.43481722E+00  6.50580550E+00
  6.50870464E+00  6.67320216E+00  6.71409456E+00  6.74598700E+00  6.84440741E+00
  6.91876822E+00  7.06888043E+00  7.11863409E+00  7.18007201E+00  7.23436460E+00
  7.25662357E+00  7.25945984E+00  7.33195419E+00  7.38169854E+00  7.43237209E+00
  7.47882655E+00  7.60724722E+00  7.64900731E+00  7.69334235E+00  7.79280425E+00
  7.98157019E+00  8.07081560E+00  8.42357877E+00  1.41890281E+01  1.51462637E+01
  1.59592558E+01
Alpha MO coefficients                      R   N=       25921
  5.64416760E-05  1.98411455E-04 -3.80976855E-04  4.62759534E-06 -5.53314278E-05
  1.08175090E-05  0.00000000E+00  4.23671733E-05  6.69449880E-05  0.00000000E+00
  2.64329998E-04  2.02288211E-05  0.00000000E+00  2.08279894E-05  0.00000000E+00
  0.00000000E+00  1.45598300E-05  6.33230026E-06  5.40202914E-05  0.00000000E+00
  0.00000000E+00 -2.99657422E-05  1.71338639E-05 -8.00198015E-04  7.87278290E-05
 -6.24255625E-05 -7.37750631E-05  2.33035277E-04  1.96712786E-05 -1.78447349E-05
  0.00000000E+00 -9.35192671E-05  4.79726455E-05  0.00000000E+00 -1.61619509E-04
  3.37261494E-05  0.00000000E+00 -1.16142623E-04  5.28466038E-05  0.00000000E+00
 -8.70862099E-06  0.00000000E+00  0.00000000E+00  2.61940132E-05  1.11121464E-05
 -8.29634618E-07  0.00000000E+00  0.00000000E+00 -9.03110151E-05 -1.27951141E-04
 -1.86955970E-05  0.00000000E+00  0.00000000E+00 -6.19130614E-05 -2.45248693E-04
  0.00000000E+00  5.06356834E-06  1.33943493E-06  0.00000000E+00  0.00000000E+00
 -8.18212290E-06 -1.31596901E-05  0.00000000E+00 -2.10453880E-05 -1.67627956E-05
  0.00000000E+00  0.00000000E+00  1.95852960E-04 -4.76280394E-05  2.49621015E-04
  1.42185244E-03 -1.00316385E-04 -1.55807265E-03  3.69879279E-04 -1.12585172E-04
 -6.45104395E-05  0.00000000E+00 -2.05304558E-03 -5.45932084E-04  0.00000000E+00
  1.15764770E-03 -6.12819049E-05  0.00000000E+00 -1.18180612E-04 -8.88894351E-05
  0.00000000E+00 -1.25674462E-04  0.00000000E+00  0.00000000E+00  2.14976679E-04
  1.41863224E-04 -4.36089182E-04  0.00000000E+00  0.00000000E+00  5.63641055E-04
  7.91511154E-04  1.15549779E-06  0.00000000E+00  0.00000000E+00 -1.60946595E-04
 -1.50646874E-04  0.00000000E+00  1.33069898E-05 -1.30622725E-05  0.00000000E+00
  0.00000000E+00  1.69443510E-05  1.46888766E-05  0.00000000E+00  1.43154187E-04
  1.26858978E-04  0.00000000E+00  0.00000000E+00 -2.36759441E-05 -2.94950865E-04
  9.76651471E-01 -9.86478886E-03  4.35617681E-02  4.29015555E-03 -5.26869627E-04
  2.11451841E-03  5.46292841E-04  0.00000000E+00 -2.41878489E-03 -5.64952712E-04
  0.00000000E+00  9.89931404E-04  5.50499668E-04  0.00000000E+00 -5.03133590E-05
  2.87665305E-05  0.00000000E+00 -2.28742288E-04  0.00000000E+00  0.00000000E+00
  7.76632719E-05  5.52225969E-05  3.88067944E-04  0.00000000E+00  0.00000000E+00
 -8.36545376E-04 -4.27583022E-04 -1.57782835E-04  0.00000000E+00  0.00000000E+00
  1.77569426E-04  2.49750356E-04  0.00000000E+00  5.51777147E-05  1.05607947E-05
  0.00000000E+00  0.00000000E+00 -1.78869327E-05 -2.42523459E-05  0.00000000E+00
  1.25234929E-04  4.48958796E-05  0.00000000E+00  0.00000000E+00 -1.64820024E-04
 -1.48970147E-04  4.72879659E-04  2.46339295E-03  3.49852896E-04 -8.03797778E-06
 -2.22884126E-04 -1.06301530E-04  0.00000000E+00 -9.84281384E-04 -8.72426470E-04
  0.00000000E+00 -9.10574250E-05 -4.25986981E-04  0.00000000E+00  1.23855102E-05
  0.00000000E+00  0.00000000E+00 -4.73498878E-05 -5.58370415E-05 -1.55372954E-04
  0.00000000E+00  0.00000000E+00  1.63978371E-04  4.14808495E-04  9.76755005E-01
 -9.25196665E-03  4.35548137E-02  8.46344955E-04 -9.14749690E-04  4.04321103E-04
  1.84316554E-03  0.00000000E+00 -2.00446350E-04 -1.83596555E-03  0.00000000E+00
 -1.50291922E-03  3.28831450E-04  0.00000000E+00 -6.08573066E-05  2.95610194E-05
  0.00000000E+00 -4.23775980E-05  0.00000000E+00  0.00000000E+00  3.51667562E-05
  4.66646470E-05  6.49609291E-04  0.00000000E+00  0.00000000E+00 -3.06633591E-04
  2.50449017E-04 -8.83194474E-05  0.00000000E+00  0.00000000E+00 -2.87210279E-04
 -3.77779128E-04  0.00000000E+00 -3.09546416E-05  4.55952862E-05  0.00000000E+00
  0.00000000E+00 -1.37240930E-05 -3.30201220E-06  0.00000000E+00  9.17252086E-05
  5.37838904E-05  0.00000000E+00  0.00000000E+00 -2.21377038E-04 -2.31596025E-04
  5.95854895E-05  1.62000176E-04 -3.20503776E-04 -3.56160480E-04  8.77437218E-04
 -8.42917812E-05  7.74535858E-05  0.00000000E+00  7.13516189E-04 -6.56341224E-04
  0.00000000E+00 -4.37360071E-04  5.55857728E-04  0.00000000E+00  1.65502184E-04
 -1.76977802E-04  0.00000000E+00 -3.46403277E-05  0.00000000E+00  0.00000000E+00
 -3.49761069E-05 -4.94939752E-05 -4.00705369E-04  0.00000000E+00  0.00000000E+00
 -1.60666098E-04 -9.34451821E-04 -1.88365205E-04  0.00000000E+00  0.00000000E+00
  5.58260557E-04 -5.63933013E-05  0.00000000E+00 -8.77686949E-05  9.88603560E-05
  0.00000000E+00  0.00000000E+00 -1.47575701E-04 -5.88799127E-05  0.00000000E+00
 -5.21955859E-05  1.18343971E-04  0.00000000E+00  0.00000000E+00 -4.30112359E-04
  2.14793990E-05  8.33811669E-04  4.24928156E-05  1.92532728E-05 -3.04182243E-04
 -1.93050250E-04 -1.57503221E-05  2.29459922E-05  0.00000000E+00  1.10975153E-04
 -1.31321877E-04  0.00000000E+00  4.16949965E-04 -4.44270652E-04  0.00000000E+00
 -8.48969028E-06  4.76700529E-06  0.00000000E+00 -4.96017417E-06  0.00000000E+00
  0.00000000E+00 -1.33536736E-05 -1.02260704E-05 -1.39447947E-06  0.00000000E+00
  0.00000000E+00  1.41354868E-04 -3.88850907E-05 -7.01342568E-05  0.00000000E+00
  0.00000000E+00  2.60423351E-04 -2.65772824E-05  0.00000000E+00  2.40572310E-06
  1.03234607E-05  0.00000000E+00  0.00000000E+00 -1.30398069E-05 -1.04385446E-05
  0.00000000E+00  1.12030848E-05 -5.19313988E-05  0.00000000E+00  0.00000000E+00
  1.16898670E-04  7.14538982E-05 -7.49182298E-05 -4.52877041E-04 -3.17010394E-04
  2.06783495E-04  3.44144850E-05  3.29162472E-05  0.00000000E+00  4.72092667E-04
 -3.42557159E-04  0.00000000E+00  3.13259037E-04 -3.23655784E-04  0.00000000E+00
 -1.35799375E-05  0.00000000E+00  0.00000000E+00 -4.03652708E-05  3.09694493E-05
  1.16288298E-04  0.00000000E+00  0.00000000E+00 -3.60010710E-05  1.77817118E-04
 -1.26070474E-04 -2.09542107E-04 -2.07197705E-04  4.94510109E-03  3.23884498E-03
  9.21059107E-06 -4.12539210E-05  0.00000000E+00 -5.26259533E-04  8.56755210E-04
  0.00000000E+00 -2.45524226E-03  3.06222062E-03  0.00000000E+00 -8.29999443E-04
  5.59436089E-04  0.00000000E+00 -3.49015238E-08  0.00000000E+00  0.00000000E+00
 -3.03116262E-05 -4.36865863E-05 -4.44295893E-04  0.00000000E+00  0.00000000E+00
 -4.12906236E-05 -5.27168063E-04 -6.04526107E-04  0.00000000E+00  0.00000000E+00
 -2.91457678E-04 -9.59062346E-04  0.00000000E+00  1.83628347E-05 -2.14610999E-05
  0.00000000E+00  0.00000000E+00  3.89795868E-05  3.22995322E-05  0.00000000E+00
  9.66003944E-05 -1.42940858E-04  0.00000000E+00  0.00000000E+00  2.12404627E-05
  2.29265510E-04  9.78280971E-01 -8.39424126E-03  4.17903629E-02 -5.58787877E-03
 -3.06691184E-03 -1.10906042E-03 -3.03897610E-03  0.00000000E+00 -9.01317242E-05
  2.98212578E-03  0.00000000E+00  4.95392056E-04  3.09902621E-03  0.00000000E+00
 -3.35315235E-05  5.48082771E-04  0.00000000E+00 -4.40855901E-04  0.00000000E+00
  0.00000000E+00  2.44741519E-04  2.25699164E-04  1.03616844E-03  0.00000000E+00
  0.00000000E+00 -1.92541536E-04  3.08193636E-04  3.65883603E-04  0.00000000E+00
  0.00000000E+00  1.19426761E-04  3.77663746E-05  0.00000000E+00  9.04256766E-05
 -6.85690509E-05  0.00000000E+00  0.00000000E+00 -6.08190446E-05 -7.00935324E-06
  0.00000000E+00 -2.29081212E-04 -2.28219914E-04  0.00000000E+00  0.00000000E+00
  4.72005255E-04  2.59534656E-04 -1.88129276E-04  9.25984602E-04  1.58679908E-04
  3.08929343E-03  9.15795835E-04  2.62745130E-04  1.21352116E-04  0.00000000E+00
  8.84035496E-04  2.73289782E-04  0.00000000E+00  1.25665822E-03 -1.50524993E-04
  0.00000000E+00  1.20016879E-05  3.45978821E-05  0.00000000E+00 -3.99502686E-05
  0.00000000E+00  0.00000000E+00  7.32555241E-05  8.33632512E-05  7.45489737E-05
  0.00000000E+00  0.00000000E+00 -5.50132897E-06 -2.71375062E-04 -3.30961953E-05
  0.00000000E+00  0.00000000E+00  2.87985680E-04 -1.42741750E-04  0.00000000E+00
  9.24795436E-05  3.58571128E-05  0.00000000E+00  0.00000000E+00 -5.71383663E-05
 -1.11239335E-04  0.00000000E+00  1.61567267E-04  1.23921092E-04  0.00000000E+00
  0.00000000E+00  1.76300722E-05 -3.54178143E-04  2.10934861E-02  1.71506181E-02
 -1.65141583E-03  4.62279477E-04 -3.22168862E-03 -9.00756792E-04  0.00000000E+00
 -2.52207917E-03 -1.09733030E-03  0.00000000E+00  2.43746961E-03  1.38738566E-04
  0.00000000E+00 -2.34035568E-04  0.00000000E+00  0.00000000E+00  3.93938856E-04
  2.97357474E-04  2.99500127E-04  0.00000000E+00  0.00000000E+00  3.29044278E-04
  5.75826806E-04 -6.60988676E-02  1.60155397E-01  4.26789577E-02  9.23695287E-02
  7.72822251E-03 -1.50029448E-02  2.33466302E-02  0.00000000E+00 -2.01568170E-02
  3.35682017E-02  0.00000000E+00 -1.19129908E-02  1.05245932E-02  0.00000000E+00
 -2.08366645E-03 -1.82385960E-03  0.00000000E+00 -1.82130983E-03  0.00000000E+00
  0.00000000E+00  9.26029344E-05 -1.80552315E-03 -4.08988718E-03  0.00000000E+00
  0.00000000E+00  7.96536464E-04 -4.24194063E-03  1.03229585E-03  0.00000000E+00
  0.00000000E+00  1.74420393E-04 -1.58107426E-03  0.00000000E+00  4.52386584E-04
 -8.76377680E-04  0.00000000E+00  0.00000000E+00  6.96094146E-04  1.30351333E-03
  0.00000000E+00 -2.63395853E-04  5.35245856E-04  0.00000000E+00  0.00000000E+00
 -2.82380508E-04  1.78469422E-04 -1.30141674E-01  3.07593235E-01  8.10204265E-02
  6.36542550E-02  5.06816576E-04 -7.37842700E-02 -4.65241793E-02  0.00000000E+00
 -7.73876861E-02 -6.42655963E-02  0.00000000E+00 -3.17275204E-03  8.93639490E-03
  0.00000000E+00 -2.48123554E-05  3.18210269E-03  0.00000000E+00 -9.28670935E-03
  0.00000000E+00  0.00000000E+00  8.65089020E-03  6.21892675E-03 -1.14730685E-02
  0.00000000E+00  0.00000000E+00  9.43945441E-03  5.84784972E-03  6.15907558E-03
  0.00000000E+00  0.00000000E+00 -1.40651228E-04  5.48280527E-04  0.00000000E+00
  2.50561955E-03  2.40958286E-03  0.00000000E+00  0.00000000E+00 -4.94657400E-03
 -5.42666410E-03  0.00000000E+00 -1.39991975E-03 -4.30169003E-04  0.00000000E+00
  0.00000000E+00  9.19877617E-04 -7.63689439E-05 -1.50321997E-01  3.59543136E-01
  9.63890769E-02  1.79526258E-01 -1.50588543E-02  7.99146311E-02  2.14486748E-02
  0.00000000E+00  1.01343937E-01  2.68998403E-02  0.00000000E+00  1.76428186E-02
  3.08272545E-03  0.00000000E+00 -8.59727150E-03 -2.37369627E-03  0.00000000E+00
 -5.15815284E-03  0.00000000E+00  0.00000000E+00  7.34814306E-03  4.37647594E-03
 -9.47781296E-03  0.00000000E+00  0.00000000E+00  1.51842319E-02  9.19737796E-03
  2.49869918E-03  0.00000000E+00  0.00000000E+00 -3.67972600E-03 -2.64047197E-03
  0.00000000E+00 -3.15165696E-03 -8.48445189E-04  0.00000000E+00  0.00000000E+00
  3.39472207E-03  3.54861591E-03  0.00000000E+00 -1.11605451E-04 -2.68402769E-04
  0.00000000E+00  0.00000000E+00  1.07079888E-03  1.87303875E-03  8.02474368E-02
  7.89228078E-02 -2.06236997E-02 -2.88484810E-03 -1.17594331E-02 -4.79517125E-03
  0.00000000E+00 -1.48508706E-02 -1.37554950E-03  0.00000000E+00  7.61826781E-03
  2.34910810E-03  0.00000000E+00 -1.33140889E-03  0.00000000E+00  0.00000000E+00
  2.24798276E-03  1.20591041E-03  3.78572738E-04  0.00000000E+00  0.00000000E+00
  2.23631894E-03 -1.37611309E-03 -1.81493860E-01  4.42132016E-01  1.20635295E-01
  2.57845530E-01  1.14379570E-02  1.57401129E-02  3.81350143E-02  0.00000000E+00