 Entering Gaussian System, Link 0=g16
 Input=hono_r1_p_01.gjf
 Output=hono_r1_p_01.log
 Initial command:
 /sw/contrib/gaussian/g16/B01/g16/l1.exe "/scr/Gau-7433.inp" -scrdir="/scr/"
 Entering Link 1 = /sw/contrib/gaussian/g16/B01/g16/l1.exe PID=      7434.
  
 Copyright (c) 1988-2017, Gaussian, Inc.  All Rights Reserved.
  
 This is part of the Gaussian(R) 16 program.  It is based on
 the Gaussian(R) 09 system (copyright 2009, Gaussian, Inc.),
 the Gaussian(R) 03 system (copyright 2003, Gaussian, Inc.),
 the Gaussian(R) 98 system (copyright 1998, Gaussian, Inc.),
 the Gaussian(R) 94 system (copyright 1995, Gaussian, Inc.),
 the Gaussian 92(TM) system (copyright 1992, Gaussian, Inc.),
 the Gaussian 90(TM) system (copyright 1990, Gaussian, Inc.),
 the Gaussian 88(TM) system (copyright 1988, Gaussian, Inc.),
 the Gaussian 86(TM) system (copyright 1986, Carnegie Mellon
 University), and the Gaussian 82(TM) system (copyright 1983,
 Carnegie Mellon University). Gaussian is a federally registered
 trademark of Gaussian, Inc.
  
 This software contains proprietary and confidential information,
 including trade secrets, belonging to Gaussian, Inc.
  
 This software is provided under written license and may be
 used, copied, transmitted, or stored only in accord with that
 written license.
  
 The following legend is applicable only to US Government
 contracts under FAR:
  
                    RESTRICTED RIGHTS LEGEND
  
 Use, reproduction and disclosure by the US Government is
 subject to restrictions as set forth in subparagraphs (a)
 and (c) of the Commercial Computer Software - Restricted
 Rights clause in FAR 52.227-19.
  
 Gaussian, Inc.
 340 Quinnipiac St., Bldg. 40, Wallingford CT 06492
  
  
 ---------------------------------------------------------------
 Warning -- This program may not be used in any manner that
 competes with the business of Gaussian, Inc. or will provide
 assistance to any competitor of Gaussian, Inc.  The licensee
 of this program is prohibited from giving any competitor of
 Gaussian, Inc. access to this program.  By using this program,
 the user acknowledges that Gaussian, Inc. is engaged in the
 business of creating and licensing software in the field of
 computational chemistry and represents and warrants to the
 licensee that it is not a competitor of Gaussian, Inc. and that
 it will not use this program in any manner prohibited above.
 ---------------------------------------------------------------
  

 Cite this work as:
 Gaussian 16, Revision B.01,
 M. J. Frisch, G. W. Trucks, H. B. Schlegel, G. E. Scuseria, 
 M. A. Robb, J. R. Cheeseman, G. Scalmani, V. Barone, 
 G. A. Petersson, H. Nakatsuji, X. Li, M. Caricato, A. V. Marenich, 
 J. Bloino, B. G. Janesko, R. Gomperts, B. Mennucci, H. P. Hratchian, 
 J. V. Ortiz, A. F. Izmaylov, J. L. Sonnenberg, D. Williams-Young, 
 F. Ding, F. Lipparini, F. Egidi, J. Goings, B. Peng, A. Petrone, 
 T. Henderson, D. Ranasinghe, V. G. Zakrzewski, J. Gao, N. Rega, 
 G. Zheng, W. Liang, M. Hada, M. Ehara, K. Toyota, R. Fukuda, 
 J. Hasegawa, M. Ishida, T. Nakajima, Y. Honda, O. Kitao, H. Nakai, 
 T. Vreven, K. Throssell, J. A. Montgomery, Jr., J. E. Peralta, 
 F. Ogliaro, M. J. Bearpark, J. J. Heyd, E. N. Brothers, K. N. Kudin, 
 V. N. Staroverov, T. A. Keith, R. Kobayashi, J. Normand, 
 K. Raghavachari, A. P. Rendell, J. C. Burant, S. S. Iyengar, 
 J. Tomasi, M. Cossi, J. M. Millam, M. Klene, C. Adamo, R. Cammi, 
 J. W. Ochterski, R. L. Martin, K. Morokuma, O. Farkas, 
 J. B. Foresman, and D. J. Fox, Gaussian, Inc., Wallingford CT, 2016.
 
 ******************************************
 Gaussian 16:  ES64L-G16RevB.01 20-Dec-2017
                31-Jan-2022 
 ******************************************
 %nproc=28
 Will use up to   28 processors via shared memory.
 %mem=120GB
 %chk=/gscratch/ilahie/mccoygrp/coire_hoono/hono/hono_r1_p_01.chk
 -------------------------------------
 #p SP mp2/aug-cc-pvtz density=current
 -------------------------------------
 1/30=1,38=1,172=1/1;
 2/12=2,17=6,18=5,40=1/2;
 3/5=16,6=1,7=10,11=9,25=1,30=1,71=1/1,2,3;
 4//1;
 5/5=2,38=5/2;
 8/6=4,10=1/1;
 9/15=1,16=-3/6;
 10/5=1,13=10/2;
 6/7=2,8=2,9=2,10=2,22=-1/1;
 99/5=1,9=1/99;
 Leave Link    1 at Mon Jan 31 11:39:14 2022, MaxMem= 16106127360 cpu:               2.6 elap:               0.1
 (Enter /sw/contrib/gaussian/g16/B01/g16/l101.exe)
 -----
 title
 -----
 Symbolic Z-matrix:
 Charge =  0 Multiplicity = 1
 H
 O                    1    r1
 N                    2    r2       1    a1
 O                    3    r3       2    a2       1    d1       0
       Variables:
  r1                    0.98026                  
  r2                    1.42776                  
  r3                    1.1768                   
  a1                  101.62779                  
  a2                  110.70859                  
  d1                  180.                       
 
 ITRead=  0  0  0  0
 MicOpt= -1 -1 -1 -1
 NAtoms=      4 NQM=        4 NQMF=       0 NMMI=      0 NMMIF=      0
                NMic=       0 NMicF=      0.
                    Isotopes and Nuclear Properties:
 (Nuclear quadrupole moments (NQMom) in fm**2, nuclear magnetic moments (NMagM)
  in nuclear magnetons)

  Atom         1           2           3           4
 IAtWgt=           1          16          14          16
 AtmWgt=   1.0078250  15.9949146  14.0030740  15.9949146
 NucSpn=           1           0           2           0
 AtZEff=  -0.0000000  -0.0000000  -0.0000000  -0.0000000
 NQMom=    0.0000000   0.0000000   2.0440000   0.0000000
 NMagM=    2.7928460   0.0000000   0.4037610   0.0000000
 AtZNuc=   1.0000000   8.0000000   7.0000000   8.0000000
 Leave Link  101 at Mon Jan 31 11:39:14 2022, MaxMem= 16106127360 cpu:               2.3 elap:               0.1
 (Enter /sw/contrib/gaussian/g16/B01/g16/l202.exe)
                          Input orientation:                          
 ---------------------------------------------------------------------
 Center     Atomic      Atomic             Coordinates (Angstroms)
 Number     Number       Type             X           Y           Z
 ---------------------------------------------------------------------
      1          1           0        0.000000    0.000000    0.000000
      2          8           0        0.000000    0.000000    0.980263
      3          7           0        1.398463    0.000000    1.268033
      4          8           0        1.584195    0.000000    2.430086
 ---------------------------------------------------------------------
                    Distance matrix (angstroms):
                    1          2          3          4
     1  H    0.000000
     2  O    0.980263   0.000000
     3  N    1.887752   1.427764   0.000000
     4  O    2.900860   2.147478   1.176802   0.000000
 Stoichiometry    HNO2
 Framework group  CS[SG(HNO2)]
 Deg. of freedom     5
 Full point group                 CS      NOp   2
 Largest Abelian subgroup         CS      NOp   2
 Largest concise Abelian subgroup C1      NOp   1
                         Standard orientation:                         
 ---------------------------------------------------------------------
 Center     Atomic      Atomic             Coordinates (Angstroms)
 Number     Number       Type             X           Y           Z
 ---------------------------------------------------------------------
      1          1           0        1.768056   -0.141074    0.000000
      2          8           0        0.896879   -0.590481    0.000000
      3          7           0       -0.000000    0.520428   -0.000000
      4          8           0       -1.117886    0.152741   -0.000000
 ---------------------------------------------------------------------
 Rotational constants (GHZ):          92.5208588          12.5592220          11.0581378
 Leave Link  202 at Mon Jan 31 11:39:14 2022, MaxMem= 16106127360 cpu:               0.2 elap:               0.0
 (Enter /sw/contrib/gaussian/g16/B01/g16/l301.exe)
 Standard basis: Aug-CC-pVTZ (5D, 7F)
 Ernie: Thresh=  0.10000D-02 Tol=  0.10000D-05 Strict=F.
 Ernie:  9 primitive shells out of 101 were deleted.
 There are   129 symmetry adapted cartesian basis functions of A'  symmetry.
 There are    61 symmetry adapted cartesian basis functions of A"  symmetry.
 There are   106 symmetry adapted basis functions of A'  symmetry.
 There are    55 symmetry adapted basis functions of A"  symmetry.
   161 basis functions,   243 primitive gaussians,   190 cartesian basis functions
    12 alpha electrons       12 beta electrons
       nuclear repulsion energy        69.4482371986 Hartrees.
 IExCor=    0 DFT=F Ex=HF Corr=None ExCW=0 ScaHFX=  1.000000
 ScaDFX=  1.000000  1.000000  1.000000  1.000000 ScalE2=  1.000000  1.000000
 IRadAn=      5 IRanWt=     -1 IRanGd=            0 ICorTp=0 IEmpDi=  4
 NAtoms=    4 NActive=    4 NUniq=    4 SFac= 1.00D+00 NAtFMM=   60 NAOKFM=F Big=F
 Integral buffers will be    131072 words long.
 Raffenetti 1 integral format.
 Two-electron integral symmetry is turned on.
 Leave Link  301 at Mon Jan 31 11:39:15 2022, MaxMem= 16106127360 cpu:               2.2 elap:               0.1
 (Enter /sw/contrib/gaussian/g16/B01/g16/l302.exe)
 NPDir=0 NMtPBC=     1 NCelOv=     1 NCel=       1 NClECP=     1 NCelD=      1
         NCelK=      1 NCelE2=     1 NClLst=     1 CellRange=     0.0.
 One-electron integrals computed using PRISM.
 One-electron integral symmetry used in STVInt
 NBasis=   161 RedAO= T EigKep=  1.98D-04  NBF=   106    55
 NBsUse=   161 1.00D-06 EigRej= -1.00D+00 NBFU=   106    55
 Leave Link  302 at Mon Jan 31 11:39:15 2022, MaxMem= 16106127360 cpu:               5.1 elap:               0.2
 (Enter /sw/contrib/gaussian/g16/B01/g16/l303.exe)
 DipDrv:  MaxL=1.
 Leave Link  303 at Mon Jan 31 11:39:15 2022, MaxMem= 16106127360 cpu:               2.1 elap:               0.1
 (Enter /sw/contrib/gaussian/g16/B01/g16/l401.exe)
 ExpMin= 2.53D-02 ExpMax= 1.53D+04 ExpMxC= 5.22D+02 IAcc=3 IRadAn=         5 AccDes= 0.00D+00
 Harris functional with IExCor=  205 and IRadAn=       5 diagonalized for initial guess.
 HarFok:  IExCor=  205 AccDes= 0.00D+00 IRadAn=         5 IDoV= 1 UseB2=F ITyADJ=14
 ICtDFT=  3500011 ScaDFX=  1.000000  1.000000  1.000000  1.000000
 FoFCou: FMM=F IPFlag=           0 FMFlag=      100000 FMFlg1=           0
         NFxFlg=           0 DoJE=T BraDBF=F KetDBF=T FulRan=T
         wScrn=  0.000000 ICntrl=       500 IOpCl=  0 I1Cent=   200000004 NGrid=           0
         NMat0=    1 NMatS0=      1 NMatT0=    0 NMatD0=    1 NMtDS0=    0 NMtDT0=    0
 Petite list used in FoFCou.
 Harris En= -204.818185707994    
 JPrj=0 DoOrth=F DoCkMO=F.
 Initial guess orbital symmetries:
       Occupied  (A') (A') (A') (A') (A') (A') (A') (A') (A") (A')
                 (A") (A')
       Virtual   (A") (A') (A') (A') (A') (A") (A') (A') (A') (A")
                 (A') (A") (A') (A') (A") (A') (A') (A') (A') (A')
                 (A") (A') (A") (A') (A') (A') (A") (A') (A") (A')
                 (A") (A') (A') (A") (A") (A') (A') (A') (A") (A')
                 (A') (A') (A") (A') (A") (A') (A') (A") (A') (A')
                 (A") (A') (A") (A') (A') (A") (A') (A") (A') (A")
                 (A') (A') (A") (A') (A') (A') (A") (A') (A") (A")
                 (A') (A') (A') (A") (A') (A") (A') (A') (A") (A")
                 (A') (A') (A') (A") (A') (A') (A") (A") (A') (A')
                 (A') (A') (A") (A') (A') (A") (A') (A") (A') (A")
                 (A") (A') (A') (A') (A') (A") (A') (A") (A') (A")
                 (A') (A') (A") (A') (A") (A') (A') (A") (A') (A')
                 (A') (A') (A") (A') (A") (A") (A') (A') (A") (A')
                 (A") (A") (A') (A") (A') (A") (A') (A") (A") (A')
                 (A') (A') (A') (A') (A') (A') (A') (A') (A')
 The electronic state of the initial guess is 1-A'.
 Leave Link  401 at Mon Jan 31 11:39:15 2022, MaxMem= 16106127360 cpu:               8.5 elap:               0.4
 (Enter /sw/contrib/gaussian/g16/B01/g16/l502.exe)
 Keep R1 ints in memory in symmetry-blocked form, NReq=128070121.
 FoFCou: FMM=F IPFlag=           0 FMFlag=           0 FMFlg1=           0
         NFxFlg=           0 DoJE=F BraDBF=F KetDBF=F FulRan=T
         wScrn=  0.000000 ICntrl=       600 IOpCl=  0 I1Cent=           0 NGrid=           0
         NMat0=    1 NMatS0=  13041 NMatT0=    0 NMatD0=    1 NMtDS0=    0 NMtDT0=    0
 Petite list used in FoFCou.
 Closed shell SCF:
 Using DIIS extrapolation, IDIIS=  1040.
 NGot= 16106127360 LenX= 16063019402 LenY= 16062982861
 Requested convergence on RMS density matrix=1.00D-08 within 128 cycles.
 Requested convergence on MAX density matrix=1.00D-06.
 Requested convergence on             energy=1.00D-06.
 No special actions if energy rises.

 Cycle   1  Pass 1  IDiag  1:
 E= -204.613677443887    
 DIIS: error= 3.16D-02 at cycle   1 NSaved=   1.
 NSaved= 1 IEnMin= 1 EnMin= -204.613677443887     IErMin= 1 ErrMin= 3.16D-02
 ErrMax= 3.16D-02  0.00D+00 EMaxC= 1.00D-01 BMatC= 3.54D-01 BMatP= 3.54D-01
 IDIUse=3 WtCom= 6.84D-01 WtEn= 3.16D-01
 Coeff-Com:  0.100D+01
 Coeff-En:   0.100D+01
 Coeff:      0.100D+01
 Gap=     0.509 Goal=   None    Shift=    0.000
 GapD=    0.509 DampG=2.000 DampE=0.500 DampFc=1.0000 IDamp=-1.
 RMSDP=2.04D-03 MaxDP=1.22D-01              OVMax= 1.02D-01

 Cycle   2  Pass 1  IDiag  1:
 E= -204.678160690342     Delta-E=       -0.064483246455 Rises=F Damp=F
 DIIS: error= 2.07D-02 at cycle   2 NSaved=   2.
 NSaved= 2 IEnMin= 2 EnMin= -204.678160690342     IErMin= 2 ErrMin= 2.07D-02
 ErrMax= 2.07D-02  0.00D+00 EMaxC= 1.00D-01 BMatC= 6.77D-02 BMatP= 3.54D-01
 IDIUse=3 WtCom= 7.93D-01 WtEn= 2.07D-01
 Coeff-Com:  0.233D+00 0.767D+00
 Coeff-En:   0.108D+00 0.892D+00
 Coeff:      0.207D+00 0.793D+00
 Gap=     0.511 Goal=   None    Shift=    0.000
 RMSDP=9.95D-04 MaxDP=3.59D-02 DE=-6.45D-02 OVMax= 8.82D-02

 Cycle   3  Pass 1  IDiag  1:
 E= -204.711966566317     Delta-E=       -0.033805875975 Rises=F Damp=F
 DIIS: error= 7.36D-03 at cycle   3 NSaved=   3.
 NSaved= 3 IEnMin= 3 EnMin= -204.711966566317     IErMin= 3 ErrMin= 7.36D-03
 ErrMax= 7.36D-03  0.00D+00 EMaxC= 1.00D-01 BMatC= 1.55D-02 BMatP= 6.77D-02
 IDIUse=3 WtCom= 9.26D-01 WtEn= 7.36D-02
 Coeff-Com: -0.363D-01 0.304D+00 0.732D+00
 Coeff-En:   0.000D+00 0.876D-01 0.912D+00
 Coeff:     -0.336D-01 0.288D+00 0.745D+00
 Gap=     0.493 Goal=   None    Shift=    0.000
 RMSDP=4.09D-04 MaxDP=2.24D-02 DE=-3.38D-02 OVMax= 2.66D-02

 Cycle   4  Pass 1  IDiag  1:
 E= -204.722220532860     Delta-E=       -0.010253966543 Rises=F Damp=F
 DIIS: error= 1.55D-03 at cycle   4 NSaved=   4.
 NSaved= 4 IEnMin= 4 EnMin= -204.722220532860     IErMin= 4 ErrMin= 1.55D-03
 ErrMax= 1.55D-03  0.00D+00 EMaxC= 1.00D-01 BMatC= 2.42D-04 BMatP= 1.55D-02
 IDIUse=3 WtCom= 9.85D-01 WtEn= 1.55D-02
 Coeff-Com: -0.721D-02 0.209D-01 0.115D+00 0.872D+00
 Coeff-En:   0.000D+00 0.000D+00 0.000D+00 0.100D+01
 Coeff:     -0.710D-02 0.206D-01 0.113D+00 0.874D+00
 Gap=     0.488 Goal=   None    Shift=    0.000
 RMSDP=8.40D-05 MaxDP=1.85D-03 DE=-1.03D-02 OVMax= 8.20D-03

 Cycle   5  Pass 1  IDiag  1:
 E= -204.722590248902     Delta-E=       -0.000369716043 Rises=F Damp=F
 DIIS: error= 1.04D-03 at cycle   5 NSaved=   5.
 NSaved= 5 IEnMin= 5 EnMin= -204.722590248902     IErMin= 5 ErrMin= 1.04D-03
 ErrMax= 1.04D-03  0.00D+00 EMaxC= 1.00D-01 BMatC= 6.24D-05 BMatP= 2.42D-04
 IDIUse=3 WtCom= 9.90D-01 WtEn= 1.04D-02
 Coeff-Com:  0.705D-02-0.727D-01-0.154D+00 0.223D+00 0.997D+00
 Coeff-En:   0.000D+00 0.000D+00 0.000D+00 0.000D+00 0.100D+01
 Coeff:      0.698D-02-0.719D-01-0.153D+00 0.221D+00 0.997D+00
 Gap=     0.488 Goal=   None    Shift=    0.000
 RMSDP=6.74D-05 MaxDP=1.63D-03 DE=-3.70D-04 OVMax= 8.91D-03

 Cycle   6  Pass 1  IDiag  1:
 E= -204.722762651021     Delta-E=       -0.000172402119 Rises=F Damp=F
 DIIS: error= 2.31D-04 at cycle   6 NSaved=   6.
 NSaved= 6 IEnMin= 6 EnMin= -204.722762651021     IErMin= 6 ErrMin= 2.31D-04
 ErrMax= 2.31D-04  0.00D+00 EMaxC= 1.00D-01 BMatC= 1.14D-05 BMatP= 6.24D-05
 IDIUse=3 WtCom= 9.98D-01 WtEn= 2.31D-03
 Coeff-Com:  0.558D-03 0.107D-02-0.232D-02-0.208D+00 0.233D-02 0.121D+01
 Coeff-En:   0.000D+00 0.000D+00 0.000D+00 0.000D+00 0.000D+00 0.100D+01
 Coeff:      0.557D-03 0.107D-02-0.231D-02-0.208D+00 0.233D-02 0.121D+01
 Gap=     0.490 Goal=   None    Shift=    0.000
 RMSDP=3.81D-05 MaxDP=7.16D-04 DE=-1.72D-04 OVMax= 4.05D-03

 Cycle   7  Pass 1  IDiag  1:
 E= -204.722801443946     Delta-E=       -0.000038792924 Rises=F Damp=F
 DIIS: error= 1.16D-04 at cycle   7 NSaved=   7.
 NSaved= 7 IEnMin= 7 EnMin= -204.722801443946     IErMin= 7 ErrMin= 1.16D-04
 ErrMax= 1.16D-04  0.00D+00 EMaxC= 1.00D-01 BMatC= 1.77D-06 BMatP= 1.14D-05
 IDIUse=3 WtCom= 9.99D-01 WtEn= 1.16D-03
 Coeff-Com: -0.123D-02 0.127D-01 0.316D-01-0.506D-01-0.136D+00-0.715D-01
 Coeff-Com:  0.122D+01
 Coeff-En:   0.000D+00 0.000D+00 0.000D+00 0.000D+00 0.000D+00 0.000D+00
 Coeff-En:   0.100D+01
 Coeff:     -0.123D-02 0.126D-01 0.315D-01-0.506D-01-0.136D+00-0.715D-01
 Coeff:      0.122D+01
 Gap=     0.489 Goal=   None    Shift=    0.000
 RMSDP=1.50D-05 MaxDP=3.27D-04 DE=-3.88D-05 OVMax= 1.78D-03

 Cycle   8  Pass 1  IDiag  1:
 E= -204.722806972615     Delta-E=       -0.000005528669 Rises=F Damp=F
 DIIS: error= 4.41D-05 at cycle   8 NSaved=   8.
 NSaved= 8 IEnMin= 8 EnMin= -204.722806972615     IErMin= 8 ErrMin= 4.41D-05
 ErrMax= 4.41D-05  0.00D+00 EMaxC= 1.00D-01 BMatC= 1.88D-07 BMatP= 1.77D-06
 IDIUse=1 WtCom= 1.00D+00 WtEn= 0.00D+00
 Coeff-Com: -0.376D-04-0.795D-03-0.605D-03 0.207D-01 0.237D-01-0.152D+00
 Coeff-Com: -0.133D+00 0.124D+01
 Coeff:     -0.376D-04-0.795D-03-0.605D-03 0.207D-01 0.237D-01-0.152D+00
 Coeff:     -0.133D+00 0.124D+01
 Gap=     0.489 Goal=   None    Shift=    0.000
 RMSDP=4.96D-06 MaxDP=1.00D-04 DE=-5.53D-06 OVMax= 4.82D-04

 Cycle   9  Pass 1  IDiag  1:
 E= -204.722807521456     Delta-E=       -0.000000548841 Rises=F Damp=F
 DIIS: error= 1.14D-05 at cycle   9 NSaved=   9.
 NSaved= 9 IEnMin= 9 EnMin= -204.722807521456     IErMin= 9 ErrMin= 1.14D-05
 ErrMax= 1.14D-05  0.00D+00 EMaxC= 1.00D-01 BMatC= 1.56D-08 BMatP= 1.88D-07
 IDIUse=1 WtCom= 1.00D+00 WtEn= 0.00D+00
 Coeff-Com:  0.107D-03-0.100D-02-0.241D-02-0.139D-02 0.122D-01 0.383D-01
 Coeff-Com: -0.849D-01-0.284D+00 0.132D+01
 Coeff:      0.107D-03-0.100D-02-0.241D-02-0.139D-02 0.122D-01 0.383D-01
 Coeff:     -0.849D-01-0.284D+00 0.132D+01
 Gap=     0.489 Goal=   None    Shift=    0.000
 RMSDP=1.29D-06 MaxDP=3.47D-05 DE=-5.49D-07 OVMax= 9.80D-05

 Cycle  10  Pass 1  IDiag  1:
 E= -204.722807563659     Delta-E=       -0.000000042203 Rises=F Damp=F
 DIIS: error= 2.78D-06 at cycle  10 NSaved=  10.
 NSaved=10 IEnMin=10 EnMin= -204.722807563659     IErMin=10 ErrMin= 2.78D-06
 ErrMax= 2.78D-06  0.00D+00 EMaxC= 1.00D-01 BMatC= 1.29D-09 BMatP= 1.56D-08
 IDIUse=1 WtCom= 1.00D+00 WtEn= 0.00D+00
 Coeff-Com: -0.261D-04 0.319D-03 0.790D-03-0.206D-02-0.441D-02 0.201D-02
 Coeff-Com:  0.374D-01-0.500D-01-0.281D+00 0.130D+01
 Coeff:     -0.261D-04 0.319D-03 0.790D-03-0.206D-02-0.441D-02 0.201D-02
 Coeff:      0.374D-01-0.500D-01-0.281D+00 0.130D+01
 Gap=     0.489 Goal=   None    Shift=    0.000
 RMSDP=3.36D-07 MaxDP=1.13D-05 DE=-4.22D-08 OVMax= 3.06D-05

 Cycle  11  Pass 1  IDiag  1:
 E= -204.722807567128     Delta-E=       -0.000000003469 Rises=F Damp=F
 DIIS: error= 1.14D-06 at cycle  11 NSaved=  11.
 NSaved=11 IEnMin=11 EnMin= -204.722807567128     IErMin=11 ErrMin= 1.14D-06
 ErrMax= 1.14D-06  0.00D+00 EMaxC= 1.00D-01 BMatC= 1.20D-10 BMatP= 1.29D-09
 IDIUse=1 WtCom= 1.00D+00 WtEn= 0.00D+00
 Coeff-Com: -0.577D-06-0.180D-04-0.422D-04 0.562D-03 0.102D-02-0.464D-02
 Coeff-Com: -0.539D-02 0.449D-01-0.206D-01-0.477D+00 0.146D+01
 Coeff:     -0.577D-06-0.180D-04-0.422D-04 0.562D-03 0.102D-02-0.464D-02
 Coeff:     -0.539D-02 0.449D-01-0.206D-01-0.477D+00 0.146D+01
 Gap=     0.489 Goal=   None    Shift=    0.000
 RMSDP=1.12D-07 MaxDP=4.19D-06 DE=-3.47D-09 OVMax= 1.11D-05

 Cycle  12  Pass 1  IDiag  1:
 E= -204.722807567505     Delta-E=       -0.000000000377 Rises=F Damp=F
 DIIS: error= 1.86D-07 at cycle  12 NSaved=  12.
 NSaved=12 IEnMin=12 EnMin= -204.722807567505     IErMin=12 ErrMin= 1.86D-07
 ErrMax= 1.86D-07  0.00D+00 EMaxC= 1.00D-01 BMatC= 6.96D-12 BMatP= 1.20D-10
 IDIUse=1 WtCom= 1.00D+00 WtEn= 0.00D+00
 Coeff-Com:  0.245D-05-0.238D-04-0.568D-04-0.603D-04 0.169D-03 0.157D-02
 Coeff-Com: -0.204D-02-0.122D-01 0.389D-01 0.370D-01-0.471D+00 0.141D+01
 Coeff:      0.245D-05-0.238D-04-0.568D-04-0.603D-04 0.169D-03 0.157D-02
 Coeff:     -0.204D-02-0.122D-01 0.389D-01 0.370D-01-0.471D+00 0.141D+01
 Gap=     0.489 Goal=   None    Shift=    0.000
 RMSDP=3.16D-08 MaxDP=7.28D-07 DE=-3.77D-10 OVMax= 2.62D-06

 Cycle  13  Pass 1  IDiag  1:
 E= -204.722807567528     Delta-E=       -0.000000000023 Rises=F Damp=F
 DIIS: error= 4.55D-08 at cycle  13 NSaved=  13.
 NSaved=13 IEnMin=13 EnMin= -204.722807567528     IErMin=13 ErrMin= 4.55D-08
 ErrMax= 4.55D-08  0.00D+00 EMaxC= 1.00D-01 BMatC= 2.18D-13 BMatP= 6.96D-12
 IDIUse=1 WtCom= 1.00D+00 WtEn= 0.00D+00
 Coeff-Com: -0.449D-06 0.579D-05 0.138D-04-0.223D-04-0.905D-04-0.497D-04
 Coeff-Com:  0.752D-03-0.284D-03-0.527D-02 0.130D-01 0.244D-01-0.297D+00
 Coeff-Com:  0.126D+01
 Coeff:     -0.449D-06 0.579D-05 0.138D-04-0.223D-04-0.905D-04-0.497D-04
 Coeff:      0.752D-03-0.284D-03-0.527D-02 0.130D-01 0.244D-01-0.297D+00
 Coeff:      0.126D+01
 Gap=     0.489 Goal=   None    Shift=    0.000
 RMSDP=5.55D-09 MaxDP=9.55D-08 DE=-2.34D-11 OVMax= 4.28D-07

 SCF Done:  E(RHF) =  -204.722807568     A.U. after   13 cycles
            NFock= 13  Conv=0.56D-08     -V/T= 2.0025
 KE= 2.042214973006D+02 PE=-6.228350915715D+02 EE= 1.444425495048D+02
 Leave Link  502 at Mon Jan 31 11:39:17 2022, MaxMem= 16106127360 cpu:              34.2 elap:               1.7
 (Enter /sw/contrib/gaussian/g16/B01/g16/l801.exe)
 ExpMin= 2.53D-02 ExpMax= 1.53D+04 ExpMxC= 5.22D+02 IAcc=3 IRadAn=         5 AccDes= 0.00D+00
 HarFok:  IExCor=  205 AccDes= 0.00D+00 IRadAn=         5 IDoV=-2 UseB2=F ITyADJ=14
 ICtDFT= 12500011 ScaDFX=  1.000000  1.000000  1.000000  1.000000
 Largest valence mixing into a core orbital is  2.06D-04
 Largest core mixing into a valence orbital is  3.32D-05
 Range of M.O.s used for correlation:     4   161
 NBasis=   161 NAE=    12 NBE=    12 NFC=     3 NFV=     0
 NROrb=    158 NOA=     9 NOB=     9 NVA=   149 NVB=   149

 **** Warning!!: The largest alpha MO coefficient is  0.19470689D+02

 Leave Link  801 at Mon Jan 31 11:39:17 2022, MaxMem= 16106127360 cpu:               2.0 elap:               0.1
 (Enter /sw/contrib/gaussian/g16/B01/g16/l906.exe)
 Frozen-core derivative calculation, NFC=   3 NFV=   0.
 FulOut=F Deriv=T AODrv=F NAtomX=     4
   MMem=         161  MDisk=           9 MDiskD=           9
  W3Min=      367080 MinDsk=      792425 NBas6D=         190
 NBas2D=       18625    NTT=       18145    LW2=     3500000
    MDV= 16105788771 MDiskM=      423783 NBas2p=       18621
 Fully in-core method, ICMem=   359292905.
 IMap=   1   2   3   4   5   6   7   8   9  10  11  12
 JobTyp=1 Pass  1 fully in-core, NPsUse= 28.
 Compute canonical integrals.
 FoFCou: FMM=F IPFlag=           0 FMFlag=           0 FMFlg1=           0
         NFxFlg=           0 DoJE=F BraDBF=F KetDBF=F FulRan=T
         wScrn=  0.000000 ICntrl=       600 IOpCl=  1 I1Cent=           0 NGrid=           0
         NMat0=    1 NMatS0=  18625 NMatT0=    0 NMatD0=    1 NMtDS0=    0 NMtDT0=    0
 Symmetry not used in FoFCou.
 Spin components of T(2) and E(2):
     alpha-alpha T2 =       0.2537124828D-01 E2=     -0.9072569295D-01
     alpha-beta  T2 =       0.1377894047D+00 E2=     -0.5170073386D+00
     beta-beta   T2 =       0.2537124828D-01 E2=     -0.9072569295D-01
 The integrals were generated   1 times.
 ANorm=    0.1090198102D+01
 E2 =    -0.6984587245D+00 EUMP2 =    -0.20542126629206D+03
 Leave Link  906 at Mon Jan 31 11:39:20 2022, MaxMem= 16106127360 cpu:              92.1 elap:               3.4
 (Enter /sw/contrib/gaussian/g16/B01/g16/l1002.exe)
 Minotr:  Closed shell wavefunction.
          Computing MP2/KS-MP2 derivatives.
          Using Z-Vector for PSCF gradient.
          Skipping F1 and S1 gradient terms here.
          Frozen-core window.
          Direct CPHF calculation.
          Differentiating once with respect to electric field.
                with respect to dipole field.
          Electric field/nuclear overlap derivatives assumed to be zero.
          Using symmetry in CPHF.
          Requested convergence is 1.0D-10 RMS, and 1.0D-09 maximum.
          NewPWx=F KeepS1=T KeepF1=T KeepIn=T MapXYZ=F SortEE=F KeepMc=T.
 Keep R1 ints in memory in symmetry-blocked form, NReq=128071053.
 FoFCou: FMM=F IPFlag=           0 FMFlag=           0 FMFlg1=           0
         NFxFlg=           0 DoJE=F BraDBF=F KetDBF=F FulRan=T
         wScrn=  0.000000 ICntrl=       600 IOpCl=  0 I1Cent=           0 NGrid=           0
         NMat0=    1 NMatS0=  13041 NMatT0=    0 NMatD0=    1 NMtDS0=    0 NMtDT0=    0
 Petite list used in FoFCou.
          MDV=   16106127360 using IRadAn=       5.
          Solving linear equations separately, MaxMat=       0.
          There are     1 degrees of freedom in the 1st order CPHF.  IDoFFX=0 NUNeed=     1.
 LinEq1:  Iter=  0 NonCon=     1 RMS=6.65D-03 Max=1.33D-01 NDo=     1
 AX will form     1 AO Fock derivatives at one time.
 LinEq1:  Iter=  1 NonCon=     1 RMS=2.27D-03 Max=4.08D-02 NDo=     1
 LinEq1:  Iter=  2 NonCon=     1 RMS=9.20D-04 Max=1.19D-02 NDo=     1
 LinEq1:  Iter=  3 NonCon=     1 RMS=4.41D-04 Max=8.66D-03 NDo=     1
 LinEq1:  Iter=  4 NonCon=     1 RMS=1.37D-04 Max=1.53D-03 NDo=     1
 LinEq1:  Iter=  5 NonCon=     1 RMS=6.13D-05 Max=9.90D-04 NDo=     1
 LinEq1:  Iter=  6 NonCon=     1 RMS=2.34D-05 Max=2.71D-04 NDo=     1
 LinEq1:  Iter=  7 NonCon=     1 RMS=5.98D-06 Max=6.18D-05 NDo=     1
 LinEq1:  Iter=  8 NonCon=     1 RMS=1.45D-06 Max=1.69D-05 NDo=     1
 LinEq1:  Iter=  9 NonCon=     1 RMS=2.69D-07 Max=2.00D-06 NDo=     1
 LinEq1:  Iter= 10 NonCon=     1 RMS=4.97D-08 Max=4.00D-07 NDo=     1
 LinEq1:  Iter= 11 NonCon=     1 RMS=8.09D-09 Max=8.19D-08 NDo=     1
 LinEq1:  Iter= 12 NonCon=     1 RMS=1.09D-09 Max=7.93D-09 NDo=     1
 LinEq1:  Iter= 13 NonCon=     1 RMS=2.26D-10 Max=2.32D-09 NDo=     1
 LinEq1:  Iter= 14 NonCon=     0 RMS=4.33D-11 Max=3.88D-10 NDo=     1
 Linear equations converged to 1.000D-10 1.000D-09 after    14 iterations.
 End of Minotr F.D. properties file   721 does not exist.
 End of Minotr F.D. properties file   722 does not exist.
 End of Minotr F.D. properties file   788 does not exist.
 Leave Link 1002 at Mon Jan 31 11:39:22 2022, MaxMem= 16106127360 cpu:              34.2 elap:               1.8
 (Enter /sw/contrib/gaussian/g16/B01/g16/l601.exe)
 Copying SCF densities to generalized density rwf, IOpCl= 0 IROHF=0.

 **********************************************************************

            Population analysis using the MP2 Density.

 **********************************************************************

 Orbital symmetries:
       Occupied  (A') (A') (A') (A') (A') (A') (A') (A') (A") (A')
                 (A") (A')
       Virtual   (A') (A") (A') (A') (A") (A') (A') (A') (A") (A')
                 (A") (A') (A') (A") (A') (A') (A') (A') (A') (A")
                 (A') (A') (A") (A') (A') (A') (A") (A") (A') (A')
                 (A') (A") (A") (A') (A") (A') (A') (A") (A') (A')
                 (A') (A') (A') (A") (A") (A') (A') (A") (A') (A')
                 (A") (A') (A") (A') (A') (A") (A') (A") (A') (A")
                 (A') (A') (A") (A') (A') (A') (A") (A') (A") (A")
                 (A') (A') (A') (A") (A') (A") (A') (A') (A") (A")
                 (A') (A') (A') (A") (A') (A") (A') (A") (A') (A')
                 (A') (A') (A') (A") (A') (A") (A') (A") (A') (A")
                 (A') (A") (A') (A') (A') (A") (A') (A") (A") (A')
                 (A') (A") (A') (A') (A") (A') (A') (A") (A') (A')
                 (A') (A') (A") (A') (A") (A") (A') (A') (A") (A')
                 (A") (A") (A') (A') (A") (A") (A') (A") (A") (A')
                 (A') (A') (A') (A') (A') (A') (A') (A') (A')
 The electronic state is 1-A'.
 Alpha  occ. eigenvalues --  -20.66509 -20.64318 -15.79852  -1.60244  -1.40044
 Alpha  occ. eigenvalues --   -0.94752  -0.78251  -0.72951  -0.68130  -0.62407
 Alpha  occ. eigenvalues --   -0.52819  -0.46148
 Alpha virt. eigenvalues --    0.02780   0.08063   0.09401   0.09761   0.12897
 Alpha virt. eigenvalues --    0.14300   0.15696   0.17211   0.18738   0.19668
 Alpha virt. eigenvalues --    0.20562   0.23339   0.25725   0.29596   0.30800
 Alpha virt. eigenvalues --    0.32983   0.36611   0.38205   0.42130   0.52543
 Alpha virt. eigenvalues --    0.52634   0.54804   0.57334   0.61326   0.63140
 Alpha virt. eigenvalues --    0.64716   0.68027   0.71406   0.71771   0.74777
 Alpha virt. eigenvalues --    0.77472   0.78176   0.81178   0.81195   0.86106
 Alpha virt. eigenvalues --    0.87841   0.92426   0.93862   0.94448   0.99430
 Alpha virt. eigenvalues --    1.04886   1.06115   1.08047   1.10495   1.16009
 Alpha virt. eigenvalues --    1.19645   1.25233   1.26844   1.36028   1.43271
 Alpha virt. eigenvalues --    1.48561   1.52342   1.52454   1.54317   1.55301
 Alpha virt. eigenvalues --    1.60885   1.65827   1.72815   1.75533   1.82266
 Alpha virt. eigenvalues --    1.85554   1.95608   1.97607   1.99684   2.07340
 Alpha virt. eigenvalues --    2.13250   2.13341   2.18673   2.26992   2.30649
 Alpha virt. eigenvalues --    2.32900   2.38011   2.45044   2.47116   2.49950
 Alpha virt. eigenvalues --    2.50293   2.52051   2.54288   2.56774   2.60794
 Alpha virt. eigenvalues --    2.60815   2.66099   2.77379   2.77724   2.84390
 Alpha virt. eigenvalues --    2.93720   2.95394   3.11460   3.14546   3.18368
 Alpha virt. eigenvalues --    3.24617   3.45853   3.81914   3.85356   4.02593
 Alpha virt. eigenvalues --    4.16139   4.18096   4.21059   4.35436   4.36860
 Alpha virt. eigenvalues --    4.57878   4.63274   4.73357   4.81652   4.86820
 Alpha virt. eigenvalues --    4.88673   4.97200   5.00079   5.07154   5.07389
 Alpha virt. eigenvalues --    5.16592   5.23695   5.25563   5.32633   5.35386
 Alpha virt. eigenvalues --    5.36436   5.57599   5.66801   5.78866   5.98613
 Alpha virt. eigenvalues --    6.12250   6.43428   6.50691   6.50961   6.67427
 Alpha virt. eigenvalues --    6.71416   6.74513   6.84599   6.91699   7.06089
 Alpha virt. eigenvalues --    7.11990   7.15946   7.23168   7.24982   7.25419
 Alpha virt. eigenvalues --    7.33211   7.37544   7.43245   7.47886   7.60577
 Alpha virt. eigenvalues --    7.64336   7.69463   7.78730   7.97734   8.06771
 Alpha virt. eigenvalues --    8.40834  14.15705  15.02422  15.96199
          Condensed to atoms (all electrons):
               1          2          3          4
     1  H    0.576289   0.174852  -0.043074   0.012495
     2  O    0.174852   8.296596  -0.137077  -0.056971
     3  N   -0.043074  -0.137077   7.042905  -0.042191
     4  O    0.012495  -0.056971  -0.042191   8.268142
 Mulliken charges:
               1
     1  H    0.279438
     2  O   -0.277400
     3  N    0.179437
     4  O   -0.181475
 Sum of Mulliken charges =  -0.00000
 Mulliken charges with hydrogens summed into heavy atoms:
               1
     2  O    0.002038
     3  N    0.179437
     4  O   -0.181475
 Electronic spatial extent (au):  <R**2>=            123.5927
 Charge=             -0.0000 electrons
 Dipole moment (field-independent basis, Debye):
    X=              1.7700    Y=              0.6565    Z=              0.0000  Tot=              1.8878
 Quadrupole moment (field-independent basis, Debye-Ang):
   XX=            -13.6167   YY=            -18.7089   ZZ=            -16.4710
   XY=              0.5867   XZ=              0.0000   YZ=              0.0000
 Traceless Quadrupole moment (field-independent basis, Debye-Ang):
   XX=              2.6489   YY=             -2.4434   ZZ=             -0.2055
   XY=              0.5867   XZ=              0.0000   YZ=              0.0000
 Octapole moment (field-independent basis, Debye-Ang**2):
  XXX=             10.2677  YYY=             -1.0183  ZZZ=             -0.0000  XYY=             -0.9816
  XXY=             -0.3318  XXZ=              0.0000  XZZ=             -1.0184  YZZ=              0.2126
  YYZ=             -0.0000  XYZ=              0.0000
 Hexadecapole moment (field-independent basis, Debye-Ang**3):
 XXXX=            -71.4367 YYYY=            -39.5380 ZZZZ=            -13.9494 XXXY=             12.0898
 XXXZ=             -0.0000 YYYX=             11.8541 YYYZ=              0.0000 ZZZX=             -0.0000
 ZZZY=              0.0000 XXYY=            -22.2471 XXZZ=            -17.5107 YYZZ=             -8.7487
 XXYZ=              0.0000 YYXZ=             -0.0000 ZZXY=              4.1932
 N-N= 6.944823719861D+01 E-N=-6.234359484936D+02  KE= 2.052216788416D+02
 Symmetry A'   KE= 1.963966103527D+02
 Symmetry A"   KE= 8.825068488978D+00
 No NMR shielding tensors so no spin-rotation constants.
 Leave Link  601 at Mon Jan 31 11:39:22 2022, MaxMem= 16106127360 cpu:               4.1 elap:               0.2
 (Enter /sw/contrib/gaussian/g16/B01/g16/l9999.exe)
 1\1\GINC-N2207\SP\RMP2-FC\Aug-CC-pVTZ\H1N1O2\CGAVINH\31-Jan-2022\0\\#p
  SP mp2/aug-cc-pvtz density=current\\title\\0,1\H\O,1,0.98026274\N,2,1
 .42776435,1,101.62778541\O,3,1.17680217,2,110.70859147,1,180.,0\\Versi
 on=ES64L-G16RevB.01\State=1-A'\HF=-204.7228076\MP2=-205.4212663\RMSD=5
 .550e-09\Dipole=-0.089727,0.,-0.7372857\Quadrupole=-1.3763163,-0.15275
 22,1.5290685,0.,1.2897058,0.\PG=CS [SG(H1N1O2)]\\@


 FIREWORKS ENDED
 AND SPECTATORS GONE AWAY....
 AH, HOW VAST AND DARK
                     SHIKI
 Job cpu time:       0 days  0 hours  3 minutes 11.1 seconds.
 Elapsed time:       0 days  0 hours  0 minutes  8.3 seconds.
 File lengths (MBytes):  RWF=     16 Int=      0 D2E=      0 Chk=      8 Scr=      1
 Normal termination of Gaussian 16 at Mon Jan 31 11:39:23 2022.
