title                                                                   
SP        RMP2-FC                                                     Aug-CC-pVTZ         
Number of atoms                            I                4
Info1-9                                    I   N=           9
          29          20           0           0           0         110
           1           2           1
Full Title                                 C   N=           1
title       
Route                                      C   N=           4
#p SP mp2/aug-cc-pvtz density=current           
Charge                                     I                0
Multiplicity                               I                1
Number of electrons                        I               24
Number of alpha electrons                  I               12
Number of beta electrons                   I               12
Number of basis functions                  I              161
Number of independent functions            I              161
Number of point charges in /Mol/           I                0
Number of translation vectors              I                0
Atomic numbers                             I   N=           4
           1           8           7           8
Nuclear charges                            R   N=           4
  1.00000000E+00  8.00000000E+00  7.00000000E+00  8.00000000E+00
Current cartesian coordinates              R   N=          12
  3.33518405E+00 -2.70572498E-01  6.28467637E-31  1.71307634E+00 -1.12532507E+00
  4.27134477E-31  1.67070786E-16  9.59147171E-01  9.38212975E-32 -2.12997435E+00
  3.19892858E-01 -6.36099867E-31
Number of symbols in /Mol/                 I                0
Force Field                                I                0
Atom Types                                 C   N=           4
                                                
Int Atom Types                             I   N=           4
           0           0           0           0
MM charges                                 R   N=           4
  0.00000000E+00  0.00000000E+00  0.00000000E+00  0.00000000E+00
Integer atomic weights                     I   N=           4
           1          16          14          16
Real atomic weights                        R   N=           4
  1.00782504E+00  1.59949146E+01  1.40030740E+01  1.59949146E+01
Atom fragment info                         I   N=           4
           0           0           0           0
Atom residue num                           I   N=           4
           0           0           0           0
Nuclear spins                              I   N=           4
           1           0           2           0
Nuclear ZEff                               R   N=           4
 -1.00000000E+00 -5.60000000E+00 -4.55000000E+00 -5.60000000E+00
Nuclear ZNuc                               R   N=           4
  1.00000000E+00  8.00000000E+00  7.00000000E+00  8.00000000E+00
Nuclear QMom                               R   N=           4
  0.00000000E+00  0.00000000E+00  2.04400000E+00  0.00000000E+00
Nuclear GFac                               R   N=           4
  2.79284600E+00  0.00000000E+00  4.03761000E-01  0.00000000E+00
MicOpt                                     I   N=           4
          -1          -1          -1          -1
Number of residues                         I                0
Number of secondary structures             I                0
SymInf integers                            I   N=          26
           1           2           1           1           1           1
           1          -1           0           0           0           0
           0           0           0           0           0           0
           0           0           0           0           0           0
           0           0
RotTr to input orientation                 R   N=          12
 -4.66178452E-01  9.15833836E-17 -8.84690709E-01  8.84690709E-01  1.01909438E-15
 -4.66178452E-01  8.58889134E-16 -1.00000000E+00 -5.56102811E-16  1.79416391E+00
  0.00000000E+00  2.82447127E+00
Number of contracted shells                I               51
Number of primitive shells                 I               92
Pure/Cartesian d shells                    I                0
Pure/Cartesian f shells                    I                0
Highest angular momentum                   I                3
Largest degree of contraction              I                7
Shell types                                I   N=          51
           0           0           0           0           1           1
           1          -2          -2           0           0           0
           0           0           1           1           1           1
          -2          -2          -2          -3          -3           0
           0           0           0           0           1           1
           1           1          -2          -2          -2          -3
          -3           0           0           0           0           0
           1           1           1           1          -2          -2
          -2          -3          -3
Number of primitives per shell             I   N=          51
           3           1           1           1           1           1
           1           1           1           7           6           1
           1           1           3           1           1           1
           1           1           1           1           1           7
           6           1           1           1           3           1
           1           1           1           1           1           1
           1           7           6           1           1           1
           3           1           1           1           1           1
           1           1           1
Shell to atom map                          I   N=          51
           1           1           1           1           1           1
           1           1           1           2           2           2
           2           2           2           2           2           2
           2           2           2           2           2           3
           3           3           3           3           3           3
           3           3           3           3           3           3
           3           4           4           4           4           4
           4           4           4           4           4           4
           4           4           4
Primitive exponents                        R   N=          92
  3.38700000E+01  5.09500000E+00  1.15900000E+00  3.25800000E-01  1.02700000E-01
  2.52600000E-02  1.40700000E+00  3.88000000E-01  1.02000000E-01  1.05700000E+00
  2.47000000E-01  1.53300000E+04  2.29900000E+03  5.22400000E+02  1.47300000E+02
  4.75500000E+01  1.67600000E+01  6.20700000E+00  5.22400000E+02  1.47300000E+02
  4.75500000E+01  1.67600000E+01  6.20700000E+00  6.88200000E-01  1.75200000E+00
  2.38400000E-01  7.37600000E-02  3.44600000E+01  7.74900000E+00  2.28000000E+00
  7.15600000E-01  2.14000000E-01  5.97400000E-02  2.31400000E+00  6.45000000E-01
  2.14000000E-01  1.42800000E+00  5.00000000E-01  1.14200000E+04  1.71200000E+03
  3.89300000E+02  1.10000000E+02  3.55700000E+01  1.25400000E+01  4.64400000E+00
  3.89300000E+02  1.10000000E+02  3.55700000E+01  1.25400000E+01  4.64400000E+00
  5.11800000E-01  1.29300000E+00  1.78700000E-01  5.76000000E-02  2.66300000E+01
  5.94800000E+00  1.74200000E+00  5.55000000E-01  1.72500000E-01  4.91000000E-02
  1.65400000E+00  4.69000000E-01  1.51000000E-01  1.09300000E+00  3.64000000E-01
  1.53300000E+04  2.29900000E+03  5.22400000E+02  1.47300000E+02  4.75500000E+01
  1.67600000E+01  6.20700000E+00  5.22400000E+02  1.47300000E+02  4.75500000E+01
  1.67600000E+01  6.20700000E+00  6.88200000E-01  1.75200000E+00  2.38400000E-01
  7.37600000E-02  3.44600000E+01  7.74900000E+00  2.28000000E+00  7.15600000E-01
  2.14000000E-01  5.97400000E-02  2.31400000E+00  6.45000000E-01  2.14000000E-01
  1.42800000E+00  5.00000000E-01
Contraction coefficients                   R   N=          92
  2.54948632E-02  1.90362766E-01  8.52162022E-01  1.00000000E+00  1.00000000E+00
  1.00000000E+00  1.00000000E+00  1.00000000E+00  1.00000000E+00  1.00000000E+00
  1.00000000E+00  5.19808943E-04  4.02025621E-03  2.07128267E-02  8.10105536E-02
  2.35962985E-01  4.42653446E-01  3.57064423E-01 -4.42115008E-05 -1.22591041E-03
 -1.05517725E-02 -6.74452633E-02 -1.71198607E-01  1.07329856E+00  1.00000000E+00
  1.00000000E+00  1.00000000E+00  4.11634896E-02  2.57762836E-01  8.02419274E-01
  1.00000000E+00  1.00000000E+00  1.00000000E+00  1.00000000E+00  1.00000000E+00
  1.00000000E+00  1.00000000E+00  1.00000000E+00  5.34563860E-04  4.13435660E-03
  2.12335358E-02  8.25006224E-02  2.38138871E-01  4.42551547E-01  3.53757422E-01
 -4.89867350E-05 -1.19527323E-03 -1.03490714E-02 -6.48680190E-02 -1.71552477E-01
  1.07289568E+00  1.00000000E+00  1.00000000E+00  1.00000000E+00  3.98072123E-02
  2.49002660E-01  8.10479727E-01  1.00000000E+00  1.00000000E+00  1.00000000E+00
  1.00000000E+00  1.00000000E+00  1.00000000E+00  1.00000000E+00  1.00000000E+00
  5.19808943E-04  4.02025621E-03  2.07128267E-02  8.10105536E-02  2.35962985E-01
  4.42653446E-01  3.57064423E-01 -4.42115008E-05 -1.22591041E-03 -1.05517725E-02
 -6.74452633E-02 -1.71198607E-01  1.07329856E+00  1.00000000E+00  1.00000000E+00
  1.00000000E+00  4.11634896E-02  2.57762836E-01  8.02419274E-01  1.00000000E+00
  1.00000000E+00  1.00000000E+00  1.00000000E+00  1.00000000E+00  1.00000000E+00
  1.00000000E+00  1.00000000E+00
Coordinates of each shell                  R   N=         153
  3.33518405E+00 -2.70572498E-01  1.03721184E-31  3.33518405E+00 -2.70572498E-01
  1.03721184E-31  3.33518405E+00 -2.70572498E-01  1.03721184E-31  3.33518405E+00
 -2.70572498E-01  1.03721184E-31  3.33518405E+00 -2.70572498E-01  1.03721184E-31
  3.33518405E+00 -2.70572498E-01  1.03721184E-31  3.33518405E+00 -2.70572498E-01
  1.03721184E-31  3.33518405E+00 -2.70572498E-01  1.03721184E-31  3.33518405E+00
 -2.70572498E-01  1.03721184E-31  1.71307634E+00 -1.12532507E+00  2.93139338E-31
  1.71307634E+00 -1.12532507E+00  2.93139338E-31  1.71307634E+00 -1.12532507E+00
  2.93139338E-31  1.71307634E+00 -1.12532507E+00  2.93139338E-31  1.71307634E+00
 -1.12532507E+00  2.93139338E-31  1.71307634E+00 -1.12532507E+00  2.93139338E-31
  1.71307634E+00 -1.12532507E+00  2.93139338E-31  1.71307634E+00 -1.12532507E+00
  2.93139338E-31  1.71307634E+00 -1.12532507E+00  2.93139338E-31  1.71307634E+00
 -1.12532507E+00  2.93139338E-31  1.71307634E+00 -1.12532507E+00  2.93139338E-31
  1.71307634E+00 -1.12532507E+00  2.93139338E-31  1.71307634E+00 -1.12532507E+00
  2.93139338E-31  1.71307634E+00 -1.12532507E+00  2.93139338E-31  1.15944188E-16
  9.59147171E-01 -2.33249218E-31  1.15944188E-16  9.59147171E-01 -2.33249218E-31
  1.15944188E-16  9.59147171E-01 -2.33249218E-31  1.15944188E-16  9.59147171E-01
 -2.33249218E-31  1.15944188E-16  9.59147171E-01 -2.33249218E-31  1.15944188E-16
  9.59147171E-01 -2.33249218E-31  1.15944188E-16  9.59147171E-01 -2.33249218E-31
  1.15944188E-16  9.59147171E-01 -2.33249218E-31  1.15944188E-16  9.59147171E-01
 -2.33249218E-31  1.15944188E-16  9.59147171E-01 -2.33249218E-31  1.15944188E-16
  9.59147171E-01 -2.33249218E-31  1.15944188E-16  9.59147171E-01 -2.33249218E-31
  1.15944188E-16  9.59147171E-01 -2.33249218E-31  1.15944188E-16  9.59147171E-01
 -2.33249218E-31 -2.12997435E+00  3.19892858E-01 -1.02011420E-31 -2.12997435E+00
  3.19892858E-01 -1.02011420E-31 -2.12997435E+00  3.19892858E-01 -1.02011420E-31
 -2.12997435E+00  3.19892858E-01 -1.02011420E-31 -2.12997435E+00  3.19892858E-01
 -1.02011420E-31 -2.12997435E+00  3.19892858E-01 -1.02011420E-31 -2.12997435E+00
  3.19892858E-01 -1.02011420E-31 -2.12997435E+00  3.19892858E-01 -1.02011420E-31
 -2.12997435E+00  3.19892858E-01 -1.02011420E-31 -2.12997435E+00  3.19892858E-01
 -1.02011420E-31 -2.12997435E+00  3.19892858E-01 -1.02011420E-31 -2.12997435E+00
  3.19892858E-01 -1.02011420E-31 -2.12997435E+00  3.19892858E-01 -1.02011420E-31
 -2.12997435E+00  3.19892858E-01 -1.02011420E-31
Num ILSW                                   I              100
ILSW                                       I   N=         100
           0           0           0           0           2           0
           0           0           0           0           0          -1
           5           0           0           0           0           0
           0           0           0           0           0           0
           1           0           0           0           0           0
           0           0      100000           0          -1           0
           0           0           0           0           0           0
           0           0           0           1           0           0
           0 -2000000000           1           0           0           0
           0           0           4          52           0           0
           0           0           0           0           0           0
           0           0           0           4           0           1
           0           0           0           0           0           0
           0           0           0           0           0           0
           0           0           0           0           0           0
           0           0           0           0           0           0
           0           0           0           0
Num RLSW                                   I               52
RLSW                                       R   N=          52
  1.00000000E+00  1.00000000E+00  1.00000000E+00  1.00000000E+00  1.00000000E+00
  0.00000000E+00  0.00000000E+00  1.00000000E+00  0.00000000E+00  0.00000000E+00
  0.00000000E+00  0.00000000E+00  1.00000000E+00  0.00000000E+00  0.00000000E+00
  0.00000000E+00  0.00000000E+00  1.00000000E+00  0.00000000E+00  0.00000000E+00
  0.00000000E+00  0.00000000E+00  1.00000000E+00  0.00000000E+00  0.00000000E+00
  0.00000000E+00  0.00000000E+00  1.00000000E+00  0.00000000E+00  0.00000000E+00
  0.00000000E+00  0.00000000E+00  1.00000000E+00  0.00000000E+00  0.00000000E+00
  0.00000000E+00  0.00000000E+00  0.00000000E+00  1.00000000E+00  1.00000000E+00
  0.00000000E+00  1.00000000E+00  0.00000000E+00  0.00000000E+00  0.00000000E+00
  0.00000000E+00  0.00000000E+00  0.00000000E+00  0.00000000E+00  0.00000000E+00
  0.00000000E+00  0.00000000E+00
MxBond                                     I                2
NBond                                      I   N=           4
           1           2           2           1
IBond                                      I   N=           8
           2           0           1           3           2           4
           3           0
RBond                                      R   N=           8
  1.00000000E+00  0.00000000E+00  1.00000000E+00  1.00000000E+00  1.00000000E+00
  2.00000000E+00  2.00000000E+00  0.00000000E+00
Virial Ratio                               R      2.002426228132570E+00
SCF Energy                                 R     -2.047229591818265E+02
MP2 Energy                                 R     -2.054210375805918E+02
Total Energy                               R     -2.054210375805918E+02
Post-SCF wavefunction norm                 R      1.090080319055834E+00
RMS Density                                R      5.605962784370362E-09
Job Status                                 I                1
Nuclear derivative order                   I                0
External E-field                           R   N=          35
  0.00000000E+00  0.00000000E+00  0.00000000E+00  0.00000000E+00  0.00000000E+00
  0.00000000E+00  0.00000000E+00  0.00000000E+00  0.00000000E+00  0.00000000E+00
  0.00000000E+00  0.00000000E+00  0.00000000E+00  0.00000000E+00  0.00000000E+00
  0.00000000E+00  0.00000000E+00  0.00000000E+00  0.00000000E+00  0.00000000E+00
  0.00000000E+00  0.00000000E+00  0.00000000E+00  0.00000000E+00  0.00000000E+00
  0.00000000E+00  0.00000000E+00  0.00000000E+00  0.00000000E+00  0.00000000E+00
  0.00000000E+00  0.00000000E+00  0.00000000E+00  0.00000000E+00  0.00000000E+00
IOpCl                                      I                0
IROHF                                      I                0
Alpha Orbital Energies                     R   N=         161
 -2.06663611E+01 -2.06436392E+01 -1.57983739E+01 -1.60143092E+00 -1.40497825E+00
 -9.48815883E-01 -7.83454928E-01 -7.30910061E-01 -6.81322664E-01 -6.27682999E-01
 -5.29919976E-01 -4.59199318E-01  2.78968518E-02  8.11781379E-02  9.37870852E-02
  9.77171870E-02  1.28954800E-01  1.43386494E-01  1.56844394E-01  1.72407402E-01
  1.86981182E-01  1.96767228E-01  2.05403343E-01  2.33074337E-01  2.56992623E-01
  2.95591055E-01  3.07544162E-01  3.30112371E-01  3.65741788E-01  3.82101708E-01
  4.23820331E-01  5.24734973E-01  5.27665923E-01  5.48801922E-01  5.75319169E-01
  6.09571145E-01  6.31959797E-01  6.45648202E-01  6.79882444E-01  7.15855422E-01
  7.17858160E-01  7.47203855E-01  7.74205628E-01  7.81280858E-01  8.09871115E-01
  8.11441326E-01  8.61007815E-01  8.80209069E-01  9.23309877E-01  9.37927482E-01
  9.45879854E-01  9.94308661E-01  1.04981652E+00  1.06200206E+00  1.07987527E+00
  1.10199389E+00  1.16385799E+00  1.19903836E+00  1.25235078E+00  1.27270510E+00
  1.36032369E+00  1.42304797E+00  1.48634198E+00  1.52478211E+00  1.52549646E+00
  1.54158831E+00  1.55225410E+00  1.60914375E+00  1.65694109E+00  1.72653741E+00
  1.76413399E+00  1.81954951E+00  1.85707688E+00  1.95769204E+00  1.98010375E+00
  1.99855765E+00  2.07954549E+00  2.13213680E+00  2.13651678E+00  2.19129388E+00
  2.26575559E+00  2.30385290E+00  2.32021003E+00  2.37964907E+00  2.44990024E+00
  2.47638128E+00  2.49530610E+00  2.50532272E+00  2.51543605E+00  2.54586680E+00
  2.56402299E+00  2.60330103E+00  2.60770100E+00  2.65073133E+00  2.78045044E+00
  2.78372029E+00  2.85907552E+00  2.93790429E+00  2.94669153E+00  3.12055062E+00
  3.14032379E+00  3.18435450E+00  3.24273396E+00  3.46062754E+00  3.83188448E+00
  3.85440722E+00  4.02227123E+00  4.17164300E+00  4.18491067E+00  4.21432523E+00
  4.35701720E+00  4.36609826E+00  4.59098808E+00  4.63742660E+00  4.74988286E+00
  4.81148925E+00  4.87093637E+00  4.88714794E+00  4.98262896E+00  5.00079317E+00
  5.07561457E+00  5.09119266E+00  5.17909734E+00  5.23808591E+00  5.24948030E+00
  5.33742681E+00  5.34624344E+00  5.36747659E+00  5.57740446E+00  5.66627996E+00
  5.79079047E+00  5.98408666E+00  6.11819094E+00  6.43396828E+00  6.50232195E+00
  6.50484351E+00  6.66984414E+00  6.71018584E+00  6.74703064E+00  6.83378723E+00
  6.92450672E+00  7.07013703E+00  7.11604339E+00  7.18114448E+00  7.23618145E+00
  7.25767099E+00  7.26312925E+00  7.33245502E+00  7.38787354E+00  7.43081537E+00
  7.47947723E+00  7.60426601E+00  7.65090836E+00  7.67775848E+00  7.79937027E+00
  7.97978422E+00  8.07230360E+00  8.42056770E+00  1.41513871E+01  1.51958757E+01
  1.59254763E+01
Alpha MO coefficients                      R   N=       25921
  5.42955609E-05  2.05322598E-04 -4.05678221E-04  4.52690709E-06 -5.65716512E-05
  1.19013092E-05  0.00000000E+00  3.43680841E-05  9.05018315E-05  0.00000000E+00
  2.67339356E-04  3.09290498E-05  0.00000000E+00  2.06534635E-05  0.00000000E+00
  0.00000000E+00  1.82713589E-05  3.24565880E-06  5.94778517E-05  0.00000000E+00
  0.00000000E+00 -2.42657560E-05  1.54266298E-05 -7.85675535E-04  7.55187349E-05
 -6.78350920E-05 -2.45307063E-05  2.75576659E-04  2.34251935E-05 -1.92420822E-05
  0.00000000E+00 -1.04754451E-04  5.38931055E-05  0.00000000E+00 -2.06341494E-04
  1.36941804E-05  0.00000000E+00 -1.10415189E-04  5.49998139E-05  0.00000000E+00
 -7.97178667E-06  0.00000000E+00  0.00000000E+00  2.33271368E-05  1.30246817E-05
 -9.74239174E-06  0.00000000E+00  0.00000000E+00 -6.98738968E-05 -1.45192685E-04
 -2.60958936E-05  0.00000000E+00  0.00000000E+00 -2.62928892E-05 -2.66284508E-04
  0.00000000E+00  8.32123611E-06 -1.08892457E-07  0.00000000E+00  0.00000000E+00
 -8.85349614E-06 -1.02393351E-05  0.00000000E+00 -2.26260471E-05 -1.45347878E-05
  0.00000000E+00  0.00000000E+00  2.03737959E-04 -3.86821473E-05  2.50423411E-04
  1.43044863E-03 -9.64269448E-05 -1.63104438E-03  3.43073011E-04 -1.11244555E-04
 -6.43810102E-05  0.00000000E+00 -2.08438277E-03 -5.06391352E-04  0.00000000E+00
  1.21657972E-03 -4.72037428E-05  0.00000000E+00 -1.29956480E-04 -7.76691638E-05
  0.00000000E+00 -1.26824347E-04  0.00000000E+00  0.00000000E+00  2.18662919E-04
  1.33326787E-04 -4.29122954E-04  0.00000000E+00  0.00000000E+00  5.99258343E-04
  7.90345429E-04  8.64968869E-06  0.00000000E+00  0.00000000E+00 -1.54206420E-04
 -1.48360056E-04  0.00000000E+00  1.52198776E-05 -1.36485480E-05  0.00000000E+00
  0.00000000E+00  1.93365329E-05  1.33290928E-05  0.00000000E+00  1.39881632E-04
  1.21673697E-04  0.00000000E+00  0.00000000E+00 -2.65273067E-05 -3.03985065E-04
  9.76653532E-01 -9.86478514E-03  4.35587130E-02  4.32623902E-03 -5.18202391E-04
  2.13195833E-03  4.87601582E-04  0.00000000E+00 -2.43939912E-03 -5.01898444E-04
  0.00000000E+00  9.95669481E-04  5.50568162E-04  0.00000000E+00 -4.63941860E-05
  2.61334844E-05  0.00000000E+00 -2.27501642E-04  0.00000000E+00  0.00000000E+00
  7.98836058E-05  5.39631188E-05  3.90034054E-04  0.00000000E+00  0.00000000E+00
 -8.64544058E-04 -3.86593390E-04 -1.51608968E-04  0.00000000E+00  0.00000000E+00
  1.77837469E-04  2.54475637E-04  0.00000000E+00  5.49542321E-05  1.01948052E-05
  0.00000000E+00  0.00000000E+00 -2.01021398E-05 -2.40191550E-05  0.00000000E+00
  1.28938508E-04  3.95115297E-05  0.00000000E+00  0.00000000E+00 -1.77800119E-04
 -1.35915275E-04  4.69868526E-04  2.43494846E-03  3.58133128E-04 -1.01266252E-05
 -2.19388416E-04 -1.05367628E-04  0.00000000E+00 -9.66438969E-04 -8.71843968E-04
  0.00000000E+00 -8.54511984E-05 -4.30516215E-04  0.00000000E+00  1.38138426E-05
  0.00000000E+00  0.00000000E+00 -4.66999752E-05 -5.80527286E-05 -1.55867628E-04
  0.00000000E+00  0.00000000E+00  1.56877078E-04  4.11831182E-04  9.76755573E-01
 -9.24942267E-03  4.35540319E-02  8.91536920E-04 -9.45774632E-04  3.78815929E-04
  1.84695688E-03  0.00000000E+00 -1.70312342E-04 -1.83749589E-03  0.00000000E+00
 -1.49019082E-03  3.35535890E-04  0.00000000E+00 -6.67694640E-05  2.42828349E-05
  0.00000000E+00 -4.26807975E-05  0.00000000E+00  0.00000000E+00  3.20463998E-05
  4.64726254E-05  6.46413305E-04  0.00000000E+00  0.00000000E+00 -3.06846861E-04
  2.55695650E-04 -8.28660718E-05  0.00000000E+00  0.00000000E+00 -2.96645320E-04
 -3.76026714E-04  0.00000000E+00 -3.13854498E-05  4.55956597E-05  0.00000000E+00
  0.00000000E+00 -1.49226050E-05 -2.27423072E-06  0.00000000E+00  8.78262296E-05
  5.39204945E-05  0.00000000E+00  0.00000000E+00 -2.15648399E-04 -2.37899496E-04
  5.93695193E-05  1.60260570E-04 -3.22660722E-04 -3.18640441E-04  9.07418279E-04
 -8.61208606E-05  7.74889824E-05  0.00000000E+00  7.22892280E-04 -6.61059971E-04
  0.00000000E+00 -5.06303639E-04  5.76118685E-04  0.00000000E+00  1.77856381E-04
 -1.83325443E-04  0.00000000E+00 -3.44150534E-05  0.00000000E+00  0.00000000E+00
 -3.58982853E-05 -4.89182180E-05 -4.03146108E-04  0.00000000E+00  0.00000000E+00
 -1.50004262E-04 -9.46846224E-04 -1.91314989E-04  0.00000000E+00  0.00000000E+00
  5.74631036E-04 -5.28794155E-05  0.00000000E+00 -8.94295407E-05  9.89596951E-05
  0.00000000E+00  0.00000000E+00 -1.47350437E-04 -6.06982383E-05  0.00000000E+00
 -5.10245501E-05  1.14917833E-04  0.00000000E+00  0.00000000E+00 -4.39721800E-04
  2.07602994E-05  8.17057618E-04  2.77082787E-05  1.43490134E-05 -3.61079158E-04
 -2.01560435E-04 -1.73115466E-05  2.49101070E-05  0.00000000E+00  1.07544369E-04
 -1.42961857E-04  0.00000000E+00  4.15023798E-04 -4.77616561E-04  0.00000000E+00
 -1.43464197E-05  1.08850029E-05  0.00000000E+00 -3.78343050E-06  0.00000000E+00
  0.00000000E+00 -1.40394159E-05 -8.35871301E-06 -9.36109802E-06  0.00000000E+00
  0.00000000E+00  1.43325428E-04 -5.63454695E-05 -8.09230877E-05  0.00000000E+00
  0.00000000E+00  2.58883128E-04 -4.94073507E-05  0.00000000E+00  7.59749640E-07
  1.11082188E-05  0.00000000E+00  0.00000000E+00 -1.30143296E-05 -1.15417341E-05
  0.00000000E+00  7.54129696E-06 -5.41207547E-05  0.00000000E+00  0.00000000E+00
  1.16094189E-04  6.00923736E-05 -7.23399176E-05 -3.08151491E-04 -2.66933937E-04
  2.06654459E-04  3.06400143E-05  3.19853737E-05  0.00000000E+00  4.61262662E-04
 -3.65307958E-04  0.00000000E+00  3.15358866E-04 -3.30351951E-04  0.00000000E+00
 -1.41375254E-05  0.00000000E+00  0.00000000E+00 -4.30239402E-05  3.35178821E-05
  1.27031185E-04  0.00000000E+00  0.00000000E+00 -4.46430957E-05  1.83035095E-04
 -1.25653023E-04 -2.06465629E-04 -2.04880824E-04  4.90256621E-03  3.21036451E-03
  9.23851735E-06 -4.24088412E-05  0.00000000E+00 -5.34275658E-04  8.58465415E-04
  0.00000000E+00 -2.66437372E-03  3.02853996E-03  0.00000000E+00 -8.48137228E-04
  5.46930256E-04  0.00000000E+00 -6.99818054E-07  0.00000000E+00  0.00000000E+00
 -2.78461926E-05 -4.35906947E-05 -4.38556071E-04  0.00000000E+00  0.00000000E+00
 -4.90932466E-05 -5.34649317E-04 -5.99348380E-04  0.00000000E+00  0.00000000E+00
 -2.74541209E-04 -1.02561292E-03  0.00000000E+00  1.68394861E-05 -2.19201839E-05
  0.00000000E+00  0.00000000E+00  3.89511736E-05  3.16766815E-05  0.00000000E+00
  1.05632676E-04 -1.38613071E-04  0.00000000E+00  0.00000000E+00  1.41806825E-05
  2.24593264E-04  9.78280407E-01 -8.37686403E-03  4.18034120E-02 -5.87640944E-03
 -3.11908648E-03 -1.14096647E-03 -3.04158742E-03  0.00000000E+00 -6.99347799E-05
  2.98668541E-03  0.00000000E+00  6.42278929E-04  3.18099187E-03  0.00000000E+00
 -2.07355606E-05  5.59627979E-04  0.00000000E+00 -4.45136101E-04  0.00000000E+00
  0.00000000E+00  2.58935246E-04  2.14221677E-04  1.05340580E-03  0.00000000E+00
  0.00000000E+00 -2.50700350E-04  3.29907637E-04  3.81990039E-04  0.00000000E+00
  0.00000000E+00  1.16871353E-04  1.18408860E-05  0.00000000E+00  9.19162384E-05
 -6.79425036E-05  0.00000000E+00  0.00000000E+00 -6.24727299E-05  3.16801783E-06
  0.00000000E+00 -2.40130623E-04 -2.28259955E-04  0.00000000E+00  0.00000000E+00
  5.08435823E-04  2.66402996E-04 -1.84987370E-04  9.44672551E-04  1.62252633E-04
  3.27848446E-03  9.97375643E-04  2.64432703E-04  1.14892768E-04  0.00000000E+00
  9.06949263E-04  2.68242953E-04  0.00000000E+00  1.31839290E-03 -1.89622285E-04
  0.00000000E+00  2.61883957E-05  2.44265132E-05  0.00000000E+00 -4.05970501E-05
  0.00000000E+00  0.00000000E+00  7.73962689E-05  8.02729501E-05  7.75185082E-05
  0.00000000E+00  0.00000000E+00 -1.88221428E-05 -2.67227758E-04 -2.36529409E-05
  0.00000000E+00  0.00000000E+00  2.89520418E-04 -1.59918755E-04  0.00000000E+00
  9.28558704E-05  3.39381023E-05  0.00000000E+00  0.00000000E+00 -6.41737115E-05
 -1.07921470E-04  0.00000000E+00  1.71443513E-04  1.22934719E-04  0.00000000E+00
  0.00000000E+00 -3.35296474E-06 -3.51520338E-04  2.09655928E-02  1.70267650E-02
 -1.75675623E-03  4.67862196E-04 -3.18651821E-03 -9.11388005E-04  0.00000000E+00
 -2.30380826E-03 -1.28169761E-03  0.00000000E+00  2.60944097E-03 -1.54671438E-05
  0.00000000E+00 -2.15658990E-04  0.00000000E+00  0.00000000E+00  3.50642163E-04
  3.30836169E-04  3.56532592E-04  0.00000000E+00  0.00000000E+00  2.21928835E-04
  6.69188958E-04 -6.54061231E-02  1.58507812E-01  4.22589877E-02  9.14513038E-02
  7.59167829E-03 -1.48134357E-02  2.30640792E-02  0.00000000E+00 -1.98920072E-02
  3.31078737E-02  0.00000000E+00 -1.21002087E-02  1.03315651E-02  0.00000000E+00
 -2.23747343E-03 -1.81487643E-03  0.00000000E+00 -1.80151211E-03  0.00000000E+00
  0.00000000E+00  1.14943427E-04 -1.78831537E-03 -4.00824551E-03  0.00000000E+00
  0.00000000E+00  8.50078193E-04 -4.05600947E-03  1.03343638E-03  0.00000000E+00
  0.00000000E+00  2.25098022E-04 -1.57182259E-03  0.00000000E+00  4.33337655E-04
 -8.50778320E-04  0.00000000E+00  0.00000000E+00  6.54387607E-04  1.28734885E-03
  0.00000000E+00 -2.77024434E-04  5.21417278E-04  0.00000000E+00  0.00000000E+00
 -3.60555768E-04  1.78897032E-04 -1.30272660E-01  3.07854787E-01  8.11046140E-02
  6.41380111E-02  5.89745707E-04 -7.46563508E-02 -4.47475799E-02  0.00000000E+00
 -7.84440043E-02 -6.23709102E-02  0.00000000E+00 -2.91970029E-03  9.12930561E-03
  0.00000000E+00  5.58494948E-05  3.20717220E-03  0.00000000E+00 -9.27814828E-03
  0.00000000E+00  0.00000000E+00  9.03743060E-03  5.90258966E-03 -1.14730316E-02
  0.00000000E+00  0.00000000E+00  1.00082536E-02  5.41060332E-03  6.12688986E-03
  0.00000000E+00  0.00000000E+00 -8.55330435E-05  5.86815749E-04  0.00000000E+00
  2.54031089E-03  2.33696910E-03  0.00000000E+00  0.00000000E+00 -5.23746222E-03
 -5.27553350E-03  0.00000000E+00 -1.47028560E-03 -4.29910665E-04  0.00000000E+00
  0.00000000E+00  9.52724588E-04 -1.62956129E-04 -1.50756045E-01  3.60631180E-01
  9.67134197E-02  1.80214443E-01 -1.50037639E-02  8.02934892E-02  2.01106093E-02
  0.00000000E+00  1.01843011E-01  2.51564301E-02  0.00000000E+00  1.77962719E-02
  2.53806817E-03  0.00000000E+00 -8.62538239E-03 -2.27408068E-03  0.00000000E+00
 -5.15393818E-03  0.00000000E+00  0.00000000E+00  7.51803001E-03  4.08901824E-03
 -9.48998276E-03  0.00000000E+00  0.00000000E+00  1.55646954E-02  8.57483499E-03
  2.46482986E-03  0.00000000E+00  0.00000000E+00 -3.75927392E-03 -2.68072199E-03
  0.00000000E+00 -3.16799402E-03 -7.86843248E-04  0.00000000E+00  0.00000000E+00
  3.60201098E-03  3.34492706E-03  0.00000000E+00 -1.35774489E-04 -2.65662196E-04
  0.00000000E+00  0.00000000E+00  1.18623829E-03  1.76848963E-03  8.01548657E-02
  7.90076332E-02 -2.05137062E-02 -2.89063923E-03 -1.17342772E-02 -4.85801560E-03
  0.00000000E+00 -1.50102731E-02 -1.39317640E-03  0.00000000E+00  7.46760720E-03
  2.47502176E-03  0.00000000E+00 -1.34127519E-03  0.00000000E+00  0.00000000E+00
  2.25889638E-03  1.22062429E-03  3.42170164E-04  0.00000000E+00  0.00000000E+00
  2.31763017E-03 -1.39428317E-03 -1.81653089E-01  4.42498711E-01  1.20721510E-01
  2.58058950E-01  1.14704735E-02  1.51633913E-02  3.84629455E-02  0.00000000E+00