 Entering Gaussian System, Link 0=g16
 Input=hono_r2_m_005.gjf
 Output=hono_r2_m_005.log
 Initial command:
 /sw/contrib/gaussian/g16/B01/g16/l1.exe "/scr/Gau-23405.inp" -scrdir="/scr/"
 Entering Link 1 = /sw/contrib/gaussian/g16/B01/g16/l1.exe PID=     23406.
  
 Copyright (c) 1988-2017, Gaussian, Inc.  All Rights Reserved.
  
 This is part of the Gaussian(R) 16 program.  It is based on
 the Gaussian(R) 09 system (copyright 2009, Gaussian, Inc.),
 the Gaussian(R) 03 system (copyright 2003, Gaussian, Inc.),
 the Gaussian(R) 98 system (copyright 1998, Gaussian, Inc.),
 the Gaussian(R) 94 system (copyright 1995, Gaussian, Inc.),
 the Gaussian 92(TM) system (copyright 1992, Gaussian, Inc.),
 the Gaussian 90(TM) system (copyright 1990, Gaussian, Inc.),
 the Gaussian 88(TM) system (copyright 1988, Gaussian, Inc.),
 the Gaussian 86(TM) system (copyright 1986, Carnegie Mellon
 University), and the Gaussian 82(TM) system (copyright 1983,
 Carnegie Mellon University). Gaussian is a federally registered
 trademark of Gaussian, Inc.
  
 This software contains proprietary and confidential information,
 including trade secrets, belonging to Gaussian, Inc.
  
 This software is provided under written license and may be
 used, copied, transmitted, or stored only in accord with that
 written license.
  
 The following legend is applicable only to US Government
 contracts under FAR:
  
                    RESTRICTED RIGHTS LEGEND
  
 Use, reproduction and disclosure by the US Government is
 subject to restrictions as set forth in subparagraphs (a)
 and (c) of the Commercial Computer Software - Restricted
 Rights clause in FAR 52.227-19.
  
 Gaussian, Inc.
 340 Quinnipiac St., Bldg. 40, Wallingford CT 06492
  
  
 ---------------------------------------------------------------
 Warning -- This program may not be used in any manner that
 competes with the business of Gaussian, Inc. or will provide
 assistance to any competitor of Gaussian, Inc.  The licensee
 of this program is prohibited from giving any competitor of
 Gaussian, Inc. access to this program.  By using this program,
 the user acknowledges that Gaussian, Inc. is engaged in the
 business of creating and licensing software in the field of
 computational chemistry and represents and warrants to the
 licensee that it is not a competitor of Gaussian, Inc. and that
 it will not use this program in any manner prohibited above.
 ---------------------------------------------------------------
  

 Cite this work as:
 Gaussian 16, Revision B.01,
 M. J. Frisch, G. W. Trucks, H. B. Schlegel, G. E. Scuseria, 
 M. A. Robb, J. R. Cheeseman, G. Scalmani, V. Barone, 
 G. A. Petersson, H. Nakatsuji, X. Li, M. Caricato, A. V. Marenich, 
 J. Bloino, B. G. Janesko, R. Gomperts, B. Mennucci, H. P. Hratchian, 
 J. V. Ortiz, A. F. Izmaylov, J. L. Sonnenberg, D. Williams-Young, 
 F. Ding, F. Lipparini, F. Egidi, J. Goings, B. Peng, A. Petrone, 
 T. Henderson, D. Ranasinghe, V. G. Zakrzewski, J. Gao, N. Rega, 
 G. Zheng, W. Liang, M. Hada, M. Ehara, K. Toyota, R. Fukuda, 
 J. Hasegawa, M. Ishida, T. Nakajima, Y. Honda, O. Kitao, H. Nakai, 
 T. Vreven, K. Throssell, J. A. Montgomery, Jr., J. E. Peralta, 
 F. Ogliaro, M. J. Bearpark, J. J. Heyd, E. N. Brothers, K. N. Kudin, 
 V. N. Staroverov, T. A. Keith, R. Kobayashi, J. Normand, 
 K. Raghavachari, A. P. Rendell, J. C. Burant, S. S. Iyengar, 
 J. Tomasi, M. Cossi, J. M. Millam, M. Klene, C. Adamo, R. Cammi, 
 J. W. Ochterski, R. L. Martin, K. Morokuma, O. Farkas, 
 J. B. Foresman, and D. J. Fox, Gaussian, Inc., Wallingford CT, 2016.
 
 ******************************************
 Gaussian 16:  ES64L-G16RevB.01 20-Dec-2017
                30-Jan-2022 
 ******************************************
 %nproc=28
 Will use up to   28 processors via shared memory.
 %mem=120GB
 %chk=/gscratch/ilahie/mccoygrp/coire_hoono/hono/hono_r2_m_005.chk
 -------------------------------------
 #p SP mp2/aug-cc-pvtz density=current
 -------------------------------------
 1/30=1,38=1,172=1/1;
 2/12=2,17=6,18=5,40=1/2;
 3/5=16,6=1,7=10,11=9,25=1,30=1,71=1/1,2,3;
 4//1;
 5/5=2,38=5/2;
 8/6=4,10=1/1;
 9/15=1,16=-3/6;
 10/5=1,13=10/2;
 6/7=2,8=2,9=2,10=2,22=-1/1;
 99/5=1,9=1/99;
 Leave Link    1 at Sun Jan 30 15:50:34 2022, MaxMem= 16106127360 cpu:               2.0 elap:               0.1
 (Enter /sw/contrib/gaussian/g16/B01/g16/l101.exe)
 -----
 title
 -----
 Symbolic Z-matrix:
 Charge =  0 Multiplicity = 1
 H
 O                    1    r1
 N                    2    r2       1    a1
 O                    3    r3       2    a2       1    d1       0
       Variables:
  r1                    0.97026                  
  r2                    1.42276                  
  r3                    1.1768                   
  a1                  101.62779                  
  a2                  110.70859                  
  d1                  180.                       
 
 ITRead=  0  0  0  0
 MicOpt= -1 -1 -1 -1
 NAtoms=      4 NQM=        4 NQMF=       0 NMMI=      0 NMMIF=      0
                NMic=       0 NMicF=      0.
                    Isotopes and Nuclear Properties:
 (Nuclear quadrupole moments (NQMom) in fm**2, nuclear magnetic moments (NMagM)
  in nuclear magnetons)

  Atom         1           2           3           4
 IAtWgt=           1          16          14          16
 AtmWgt=   1.0078250  15.9949146  14.0030740  15.9949146
 NucSpn=           1           0           2           0
 AtZEff=  -0.0000000  -0.0000000  -0.0000000  -0.0000000
 NQMom=    0.0000000   0.0000000   2.0440000   0.0000000
 NMagM=    2.7928460   0.0000000   0.4037610   0.0000000
 AtZNuc=   1.0000000   8.0000000   7.0000000   8.0000000
 Leave Link  101 at Sun Jan 30 15:50:34 2022, MaxMem= 16106127360 cpu:               3.4 elap:               0.2
 (Enter /sw/contrib/gaussian/g16/B01/g16/l202.exe)
                          Input orientation:                          
 ---------------------------------------------------------------------
 Center     Atomic      Atomic             Coordinates (Angstroms)
 Number     Number       Type             X           Y           Z
 ---------------------------------------------------------------------
      1          1           0        0.000000    0.000000    0.000000
      2          8           0        0.000000    0.000000    0.970263
      3          7           0        1.393566    0.000000    1.257025
      4          8           0        1.579297    0.000000    2.419078
 ---------------------------------------------------------------------
                    Distance matrix (angstroms):
                    1          2          3          4
     1  H    0.000000
     2  O    0.970263   0.000000
     3  N    1.876736   1.422764   0.000000
     4  O    2.888965   2.143186   1.176802   0.000000
 Stoichiometry    HNO2
 Framework group  CS[SG(HNO2)]
 Deg. of freedom     5
 Full point group                 CS      NOp   2
 Largest Abelian subgroup         CS      NOp   2
 Largest concise Abelian subgroup C1      NOp   1
                         Standard orientation:                         
 ---------------------------------------------------------------------
 Center     Atomic      Atomic             Coordinates (Angstroms)
 Number     Number       Type             X           Y           Z
 ---------------------------------------------------------------------
      1          1           0        1.757995   -0.137795    0.000000
      2          8           0        0.897036   -0.585186    0.000000
      3          7           0        0.000000    0.519162   -0.000000
      4          8           0       -1.116785    0.148144   -0.000000
 ---------------------------------------------------------------------
 Rotational constants (GHZ):          92.9174598          12.6180481          11.1094076
 Leave Link  202 at Sun Jan 30 15:50:35 2022, MaxMem= 16106127360 cpu:               2.5 elap:               0.1
 (Enter /sw/contrib/gaussian/g16/B01/g16/l301.exe)
 Standard basis: Aug-CC-pVTZ (5D, 7F)
 Ernie: Thresh=  0.10000D-02 Tol=  0.10000D-05 Strict=F.
 Ernie:  9 primitive shells out of 101 were deleted.
 There are   129 symmetry adapted cartesian basis functions of A'  symmetry.
 There are    61 symmetry adapted cartesian basis functions of A"  symmetry.
 There are   106 symmetry adapted basis functions of A'  symmetry.
 There are    55 symmetry adapted basis functions of A"  symmetry.
   161 basis functions,   243 primitive gaussians,   190 cartesian basis functions
    12 alpha electrons       12 beta electrons
       nuclear repulsion energy        69.6147949679 Hartrees.
 IExCor=    0 DFT=F Ex=HF Corr=None ExCW=0 ScaHFX=  1.000000
 ScaDFX=  1.000000  1.000000  1.000000  1.000000 ScalE2=  1.000000  1.000000
 IRadAn=      5 IRanWt=     -1 IRanGd=            0 ICorTp=0 IEmpDi=  4
 NAtoms=    4 NActive=    4 NUniq=    4 SFac= 1.00D+00 NAtFMM=   60 NAOKFM=F Big=F
 Integral buffers will be    131072 words long.
 Raffenetti 1 integral format.
 Two-electron integral symmetry is turned on.
 Leave Link  301 at Sun Jan 30 15:50:35 2022, MaxMem= 16106127360 cpu:               3.1 elap:               0.1
 (Enter /sw/contrib/gaussian/g16/B01/g16/l302.exe)
 NPDir=0 NMtPBC=     1 NCelOv=     1 NCel=       1 NClECP=     1 NCelD=      1
         NCelK=      1 NCelE2=     1 NClLst=     1 CellRange=     0.0.
 One-electron integrals computed using PRISM.
 One-electron integral symmetry used in STVInt
 NBasis=   161 RedAO= T EigKep=  1.97D-04  NBF=   106    55
 NBsUse=   161 1.00D-06 EigRej= -1.00D+00 NBFU=   106    55
 Leave Link  302 at Sun Jan 30 15:50:35 2022, MaxMem= 16106127360 cpu:               4.1 elap:               0.2
 (Enter /sw/contrib/gaussian/g16/B01/g16/l303.exe)
 DipDrv:  MaxL=1.
 Leave Link  303 at Sun Jan 30 15:50:35 2022, MaxMem= 16106127360 cpu:               3.3 elap:               0.2
 (Enter /sw/contrib/gaussian/g16/B01/g16/l401.exe)
 ExpMin= 2.53D-02 ExpMax= 1.53D+04 ExpMxC= 5.22D+02 IAcc=3 IRadAn=         5 AccDes= 0.00D+00
 Harris functional with IExCor=  205 and IRadAn=       5 diagonalized for initial guess.
 HarFok:  IExCor=  205 AccDes= 0.00D+00 IRadAn=         5 IDoV= 1 UseB2=F ITyADJ=14
 ICtDFT=  3500011 ScaDFX=  1.000000  1.000000  1.000000  1.000000
 FoFCou: FMM=F IPFlag=           0 FMFlag=      100000 FMFlg1=           0
         NFxFlg=           0 DoJE=T BraDBF=F KetDBF=T FulRan=T
         wScrn=  0.000000 ICntrl=       500 IOpCl=  0 I1Cent=   200000004 NGrid=           0
         NMat0=    1 NMatS0=      1 NMatT0=    0 NMatD0=    1 NMtDS0=    0 NMtDT0=    0
 Petite list used in FoFCou.
 Harris En= -204.818461795962    
 JPrj=0 DoOrth=F DoCkMO=F.
 Initial guess orbital symmetries:
       Occupied  (A') (A') (A') (A') (A') (A') (A') (A') (A") (A')
                 (A") (A')
       Virtual   (A") (A') (A') (A') (A") (A') (A') (A') (A') (A")
                 (A') (A") (A') (A') (A") (A') (A') (A') (A') (A')
                 (A") (A') (A") (A') (A') (A') (A") (A') (A") (A')
                 (A") (A') (A') (A") (A") (A') (A') (A') (A") (A')
                 (A') (A') (A") (A') (A") (A') (A') (A") (A') (A')
                 (A") (A') (A") (A') (A') (A") (A') (A") (A') (A")
                 (A') (A') (A") (A') (A') (A') (A") (A') (A") (A")
                 (A') (A') (A') (A") (A') (A") (A') (A') (A") (A")
                 (A') (A') (A') (A") (A') (A') (A") (A") (A') (A')
                 (A') (A') (A") (A') (A') (A") (A') (A") (A') (A")
                 (A") (A') (A') (A') (A') (A") (A') (A") (A') (A")
                 (A') (A') (A") (A') (A') (A") (A') (A") (A') (A')
                 (A') (A') (A") (A') (A") (A") (A') (A') (A") (A')
                 (A") (A") (A') (A") (A') (A") (A') (A") (A") (A')
                 (A') (A') (A') (A') (A') (A') (A') (A') (A')
 The electronic state of the initial guess is 1-A'.
 Leave Link  401 at Sun Jan 30 15:50:35 2022, MaxMem= 16106127360 cpu:               5.9 elap:               0.3
 (Enter /sw/contrib/gaussian/g16/B01/g16/l502.exe)
 Keep R1 ints in memory in symmetry-blocked form, NReq=128070121.
 FoFCou: FMM=F IPFlag=           0 FMFlag=           0 FMFlg1=           0
         NFxFlg=           0 DoJE=F BraDBF=F KetDBF=F FulRan=T
         wScrn=  0.000000 ICntrl=       600 IOpCl=  0 I1Cent=           0 NGrid=           0
         NMat0=    1 NMatS0=  13041 NMatT0=    0 NMatD0=    1 NMtDS0=    0 NMtDT0=    0
 Petite list used in FoFCou.
 Closed shell SCF:
 Using DIIS extrapolation, IDIIS=  1040.
 NGot= 16106127360 LenX= 16063019402 LenY= 16062982861
 Requested convergence on RMS density matrix=1.00D-08 within 128 cycles.
 Requested convergence on MAX density matrix=1.00D-06.
 Requested convergence on             energy=1.00D-06.
 No special actions if energy rises.

 Cycle   1  Pass 1  IDiag  1:
 E= -204.614542021452    
 DIIS: error= 2.92D-02 at cycle   1 NSaved=   1.
 NSaved= 1 IEnMin= 1 EnMin= -204.614542021452     IErMin= 1 ErrMin= 2.92D-02
 ErrMax= 2.92D-02  0.00D+00 EMaxC= 1.00D-01 BMatC= 3.54D-01 BMatP= 3.54D-01
 IDIUse=3 WtCom= 7.08D-01 WtEn= 2.92D-01
 Coeff-Com:  0.100D+01
 Coeff-En:   0.100D+01
 Coeff:      0.100D+01
 Gap=     0.510 Goal=   None    Shift=    0.000
 GapD=    0.510 DampG=2.000 DampE=0.500 DampFc=1.0000 IDamp=-1.
 RMSDP=2.05D-03 MaxDP=1.22D-01              OVMax= 1.02D-01

 Cycle   2  Pass 1  IDiag  1:
 E= -204.679419795758     Delta-E=       -0.064877774306 Rises=F Damp=F
 DIIS: error= 2.07D-02 at cycle   2 NSaved=   2.
 NSaved= 2 IEnMin= 2 EnMin= -204.679419795758     IErMin= 2 ErrMin= 2.07D-02
 ErrMax= 2.07D-02  0.00D+00 EMaxC= 1.00D-01 BMatC= 6.76D-02 BMatP= 3.54D-01
 IDIUse=3 WtCom= 7.93D-01 WtEn= 2.07D-01
 Coeff-Com:  0.233D+00 0.767D+00
 Coeff-En:   0.105D+00 0.895D+00
 Coeff:      0.206D+00 0.794D+00
 Gap=     0.512 Goal=   None    Shift=    0.000
 RMSDP=9.94D-04 MaxDP=3.59D-02 DE=-6.49D-02 OVMax= 8.81D-02

 Cycle   3  Pass 1  IDiag  1:
 E= -204.713094939752     Delta-E=       -0.033675143994 Rises=F Damp=F
 DIIS: error= 7.30D-03 at cycle   3 NSaved=   3.
 NSaved= 3 IEnMin= 3 EnMin= -204.713094939752     IErMin= 3 ErrMin= 7.30D-03
 ErrMax= 7.30D-03  0.00D+00 EMaxC= 1.00D-01 BMatC= 1.54D-02 BMatP= 6.76D-02
 IDIUse=3 WtCom= 9.27D-01 WtEn= 7.30D-02
 Coeff-Com: -0.360D-01 0.304D+00 0.732D+00
 Coeff-En:   0.000D+00 0.865D-01 0.914D+00
 Coeff:     -0.334D-01 0.288D+00 0.745D+00
 Gap=     0.494 Goal=   None    Shift=    0.000
 RMSDP=4.08D-04 MaxDP=2.23D-02 DE=-3.37D-02 OVMax= 2.64D-02

 Cycle   4  Pass 1  IDiag  1:
 E= -204.723270845623     Delta-E=       -0.010175905870 Rises=F Damp=F
 DIIS: error= 1.55D-03 at cycle   4 NSaved=   4.
 NSaved= 4 IEnMin= 4 EnMin= -204.723270845623     IErMin= 4 ErrMin= 1.55D-03
 ErrMax= 1.55D-03  0.00D+00 EMaxC= 1.00D-01 BMatC= 2.46D-04 BMatP= 1.54D-02
 IDIUse=3 WtCom= 9.85D-01 WtEn= 1.55D-02
 Coeff-Com: -0.779D-02 0.260D-01 0.126D+00 0.856D+00
 Coeff-En:   0.000D+00 0.000D+00 0.000D+00 0.100D+01
 Coeff:     -0.767D-02 0.256D-01 0.124D+00 0.858D+00
 Gap=     0.489 Goal=   None    Shift=    0.000
 RMSDP=8.24D-05 MaxDP=1.82D-03 DE=-1.02D-02 OVMax= 8.06D-03

 Cycle   5  Pass 1  IDiag  1:
 E= -204.723633256612     Delta-E=       -0.000362410989 Rises=F Damp=F
 DIIS: error= 1.03D-03 at cycle   5 NSaved=   5.
 NSaved= 5 IEnMin= 5 EnMin= -204.723633256612     IErMin= 5 ErrMin= 1.03D-03
 ErrMax= 1.03D-03  0.00D+00 EMaxC= 1.00D-01 BMatC= 6.12D-05 BMatP= 2.46D-04
 IDIUse=3 WtCom= 9.90D-01 WtEn= 1.03D-02
 Coeff-Com:  0.696D-02-0.718D-01-0.153D+00 0.208D+00 0.101D+01
 Coeff-En:   0.000D+00 0.000D+00 0.000D+00 0.000D+00 0.100D+01
 Coeff:      0.689D-02-0.710D-01-0.152D+00 0.206D+00 0.101D+01
 Gap=     0.489 Goal=   None    Shift=    0.000
 RMSDP=6.73D-05 MaxDP=1.62D-03 DE=-3.62D-04 OVMax= 8.86D-03

 Cycle   6  Pass 1  IDiag  1:
 E= -204.723803912008     Delta-E=       -0.000170655396 Rises=F Damp=F
 DIIS: error= 2.28D-04 at cycle   6 NSaved=   6.
 NSaved= 6 IEnMin= 6 EnMin= -204.723803912008     IErMin= 6 ErrMin= 2.28D-04
 ErrMax= 2.28D-04  0.00D+00 EMaxC= 1.00D-01 BMatC= 1.11D-05 BMatP= 6.12D-05
 IDIUse=3 WtCom= 9.98D-01 WtEn= 2.28D-03
 Coeff-Com:  0.605D-03 0.520D-03-0.343D-02-0.201D+00-0.243D-02 0.121D+01
 Coeff-En:   0.000D+00 0.000D+00 0.000D+00 0.000D+00 0.000D+00 0.100D+01
 Coeff:      0.604D-03 0.519D-03-0.342D-02-0.201D+00-0.242D-02 0.121D+01
 Gap=     0.490 Goal=   None    Shift=    0.000
 RMSDP=3.75D-05 MaxDP=7.01D-04 DE=-1.71D-04 OVMax= 3.98D-03

 Cycle   7  Pass 1  IDiag  1:
 E= -204.723841544780     Delta-E=       -0.000037632772 Rises=F Damp=F
 DIIS: error= 1.15D-04 at cycle   7 NSaved=   7.
 NSaved= 7 IEnMin= 7 EnMin= -204.723841544780     IErMin= 7 ErrMin= 1.15D-04
 ErrMax= 1.15D-04  0.00D+00 EMaxC= 1.00D-01 BMatC= 1.73D-06 BMatP= 1.11D-05
 IDIUse=3 WtCom= 9.99D-01 WtEn= 1.15D-03
 Coeff-Com: -0.121D-02 0.125D-01 0.313D-01-0.478D-01-0.139D+00-0.730D-01
 Coeff-Com:  0.122D+01
 Coeff-En:   0.000D+00 0.000D+00 0.000D+00 0.000D+00 0.000D+00 0.000D+00
 Coeff-En:   0.100D+01
 Coeff:     -0.121D-02 0.125D-01 0.313D-01-0.477D-01-0.139D+00-0.729D-01
 Coeff:      0.122D+01
 Gap=     0.490 Goal=   None    Shift=    0.000
 RMSDP=1.48D-05 MaxDP=3.23D-04 DE=-3.76D-05 OVMax= 1.76D-03

 Cycle   8  Pass 1  IDiag  1:
 E= -204.723846943175     Delta-E=       -0.000005398395 Rises=F Damp=F
 DIIS: error= 4.37D-05 at cycle   8 NSaved=   8.
 NSaved= 8 IEnMin= 8 EnMin= -204.723846943175     IErMin= 8 ErrMin= 4.37D-05
 ErrMax= 4.37D-05  0.00D+00 EMaxC= 1.00D-01 BMatC= 1.83D-07 BMatP= 1.73D-06
 IDIUse=1 WtCom= 1.00D+00 WtEn= 0.00D+00
 Coeff-Com: -0.413D-04-0.737D-03-0.513D-03 0.198D-01 0.241D-01-0.150D+00
 Coeff-Com: -0.136D+00 0.124D+01
 Coeff:     -0.413D-04-0.737D-03-0.513D-03 0.198D-01 0.241D-01-0.150D+00
 Coeff:     -0.136D+00 0.124D+01
 Gap=     0.490 Goal=   None    Shift=    0.000
 RMSDP=4.89D-06 MaxDP=9.90D-05 DE=-5.40D-06 OVMax= 4.79D-04

 Cycle   9  Pass 1  IDiag  1:
 E= -204.723847478105     Delta-E=       -0.000000534930 Rises=F Damp=F
 DIIS: error= 1.14D-05 at cycle   9 NSaved=   9.
 NSaved= 9 IEnMin= 9 EnMin= -204.723847478105     IErMin= 9 ErrMin= 1.14D-05
 ErrMax= 1.14D-05  0.00D+00 EMaxC= 1.00D-01 BMatC= 1.53D-08 BMatP= 1.83D-07
 IDIUse=1 WtCom= 1.00D+00 WtEn= 0.00D+00
 Coeff-Com:  0.107D-03-0.100D-02-0.242D-02-0.146D-02 0.123D-01 0.383D-01
 Coeff-Com: -0.847D-01-0.285D+00 0.132D+01
 Coeff:      0.107D-03-0.100D-02-0.242D-02-0.146D-02 0.123D-01 0.383D-01
 Coeff:     -0.847D-01-0.285D+00 0.132D+01
 Gap=     0.490 Goal=   None    Shift=    0.000
 RMSDP=1.27D-06 MaxDP=3.45D-05 DE=-5.35D-07 OVMax= 9.69D-05

 Cycle  10  Pass 1  IDiag  1:
 E= -204.723847519509     Delta-E=       -0.000000041404 Rises=F Damp=F
 DIIS: error= 2.75D-06 at cycle  10 NSaved=  10.
 NSaved=10 IEnMin=10 EnMin= -204.723847519509     IErMin=10 ErrMin= 2.75D-06
 ErrMax= 2.75D-06  0.00D+00 EMaxC= 1.00D-01 BMatC= 1.27D-09 BMatP= 1.53D-08
 IDIUse=1 WtCom= 1.00D+00 WtEn= 0.00D+00
 Coeff-Com: -0.260D-04 0.317D-03 0.793D-03-0.196D-02-0.455D-02 0.185D-02
 Coeff-Com:  0.379D-01-0.500D-01-0.286D+00 0.130D+01
 Coeff:     -0.260D-04 0.317D-03 0.793D-03-0.196D-02-0.455D-02 0.185D-02
 Coeff:      0.379D-01-0.500D-01-0.286D+00 0.130D+01
 Gap=     0.490 Goal=   None    Shift=    0.000
 RMSDP=3.35D-07 MaxDP=1.14D-05 DE=-4.14D-08 OVMax= 3.04D-05

 Cycle  11  Pass 1  IDiag  1:
 E= -204.723847522943     Delta-E=       -0.000000003434 Rises=F Damp=F
 DIIS: error= 1.12D-06 at cycle  11 NSaved=  11.
 NSaved=11 IEnMin=11 EnMin= -204.723847522943     IErMin=11 ErrMin= 1.12D-06
 ErrMax= 1.12D-06  0.00D+00 EMaxC= 1.00D-01 BMatC= 1.16D-10 BMatP= 1.27D-09
 IDIUse=1 WtCom= 1.00D+00 WtEn= 0.00D+00
 Coeff-Com: -0.560D-06-0.177D-04-0.427D-04 0.535D-03 0.103D-02-0.451D-02
 Coeff-Com: -0.573D-02 0.449D-01-0.185D-01-0.479D+00 0.146D+01
 Coeff:     -0.560D-06-0.177D-04-0.427D-04 0.535D-03 0.103D-02-0.451D-02
 Coeff:     -0.573D-02 0.449D-01-0.185D-01-0.479D+00 0.146D+01
 Gap=     0.490 Goal=   None    Shift=    0.000
 RMSDP=1.11D-07 MaxDP=4.17D-06 DE=-3.43D-09 OVMax= 1.09D-05

 Cycle  12  Pass 1  IDiag  1:
 E= -204.723847523309     Delta-E=       -0.000000000366 Rises=F Damp=F
 DIIS: error= 1.82D-07 at cycle  12 NSaved=  12.
 NSaved=12 IEnMin=12 EnMin= -204.723847523309     IErMin=12 ErrMin= 1.82D-07
 ErrMax= 1.82D-07  0.00D+00 EMaxC= 1.00D-01 BMatC= 6.61D-12 BMatP= 1.16D-10
 IDIUse=1 WtCom= 1.00D+00 WtEn= 0.00D+00
 Coeff-Com:  0.238D-05-0.231D-04-0.557D-04-0.617D-04 0.168D-03 0.154D-02
 Coeff-Com: -0.194D-02-0.121D-01 0.380D-01 0.377D-01-0.466D+00 0.140D+01
 Coeff:      0.238D-05-0.231D-04-0.557D-04-0.617D-04 0.168D-03 0.154D-02
 Coeff:     -0.194D-02-0.121D-01 0.380D-01 0.377D-01-0.466D+00 0.140D+01
 Gap=     0.490 Goal=   None    Shift=    0.000
 RMSDP=3.08D-08 MaxDP=7.01D-07 DE=-3.66D-10 OVMax= 2.51D-06

 Cycle  13  Pass 1  IDiag  1:
 E= -204.723847523330     Delta-E=       -0.000000000020 Rises=F Damp=F
 DIIS: error= 4.34D-08 at cycle  13 NSaved=  13.
 NSaved=13 IEnMin=13 EnMin= -204.723847523330     IErMin=13 ErrMin= 4.34D-08
 ErrMax= 4.34D-08  0.00D+00 EMaxC= 1.00D-01 BMatC= 2.01D-13 BMatP= 6.61D-12
 IDIUse=1 WtCom= 1.00D+00 WtEn= 0.00D+00
 Coeff-Com: -0.435D-06 0.561D-05 0.135D-04-0.202D-04-0.904D-04-0.524D-04
 Coeff-Com:  0.742D-03-0.271D-03-0.520D-02 0.127D-01 0.237D-01-0.293D+00
 Coeff-Com:  0.126D+01
 Coeff:     -0.435D-06 0.561D-05 0.135D-04-0.202D-04-0.904D-04-0.524D-04
 Coeff:      0.742D-03-0.271D-03-0.520D-02 0.127D-01 0.237D-01-0.293D+00
 Coeff:      0.126D+01
 Gap=     0.490 Goal=   None    Shift=    0.000
 RMSDP=5.34D-09 MaxDP=8.94D-08 DE=-2.02D-11 OVMax= 4.07D-07

 SCF Done:  E(RHF) =  -204.723847523     A.U. after   13 cycles
            NFock= 13  Conv=0.53D-08     -V/T= 2.0023
 KE= 2.042491476061D+02 PE=-6.231785524070D+02 EE= 1.445907623097D+02
 Leave Link  502 at Sun Jan 30 15:50:37 2022, MaxMem= 16106127360 cpu:              34.3 elap:               1.7
 (Enter /sw/contrib/gaussian/g16/B01/g16/l801.exe)
 ExpMin= 2.53D-02 ExpMax= 1.53D+04 ExpMxC= 5.22D+02 IAcc=3 IRadAn=         5 AccDes= 0.00D+00
 HarFok:  IExCor=  205 AccDes= 0.00D+00 IRadAn=         5 IDoV=-2 UseB2=F ITyADJ=14
 ICtDFT= 12500011 ScaDFX=  1.000000  1.000000  1.000000  1.000000
 Largest valence mixing into a core orbital is  2.06D-04
 Largest core mixing into a valence orbital is  3.27D-05
 Range of M.O.s used for correlation:     4   161
 NBasis=   161 NAE=    12 NBE=    12 NFC=     3 NFV=     0
 NROrb=    158 NOA=     9 NOB=     9 NVA=   149 NVB=   149

 **** Warning!!: The largest alpha MO coefficient is  0.19528724D+02

 Leave Link  801 at Sun Jan 30 15:50:37 2022, MaxMem= 16106127360 cpu:               2.2 elap:               0.1
 (Enter /sw/contrib/gaussian/g16/B01/g16/l906.exe)
 Frozen-core derivative calculation, NFC=   3 NFV=   0.
 FulOut=F Deriv=T AODrv=F NAtomX=     4
   MMem=         161  MDisk=           9 MDiskD=           9
  W3Min=      367080 MinDsk=      792425 NBas6D=         190
 NBas2D=       18625    NTT=       18145    LW2=     3500000
    MDV= 16105788701 MDiskM=      423783 NBas2p=       18621
 Fully in-core method, ICMem=   359292905.
 IMap=   1   2   3   4   5   6   7   8   9  10  11  12
 JobTyp=1 Pass  1 fully in-core, NPsUse= 28.
 Compute canonical integrals.
 FoFCou: FMM=F IPFlag=           0 FMFlag=           0 FMFlg1=           0
         NFxFlg=           0 DoJE=F BraDBF=F KetDBF=F FulRan=T
         wScrn=  0.000000 ICntrl=       600 IOpCl=  1 I1Cent=           0 NGrid=           0
         NMat0=    1 NMatS0=  18625 NMatT0=    0 NMatD0=    1 NMtDS0=    0 NMtDT0=    0
 Symmetry not used in FoFCou.
 Spin components of T(2) and E(2):
     alpha-alpha T2 =       0.2526057681D-01 E2=     -0.9060661495D-01
     alpha-beta  T2 =       0.1371477655D+00 E2=     -0.5162859755D+00
     beta-beta   T2 =       0.2526057681D-01 E2=     -0.9060661495D-01
 The integrals were generated   1 times.
 ANorm=    0.1089802239D+01
 E2 =    -0.6974992054D+00 EUMP2 =    -0.20542134672876D+03
 Leave Link  906 at Sun Jan 30 15:50:40 2022, MaxMem= 16106127360 cpu:              84.2 elap:               3.0
 (Enter /sw/contrib/gaussian/g16/B01/g16/l1002.exe)
 Minotr:  Closed shell wavefunction.
          Computing MP2/KS-MP2 derivatives.
          Using Z-Vector for PSCF gradient.
          Skipping F1 and S1 gradient terms here.
          Frozen-core window.
          Direct CPHF calculation.
          Differentiating once with respect to electric field.
                with respect to dipole field.
          Electric field/nuclear overlap derivatives assumed to be zero.
          Using symmetry in CPHF.
          Requested convergence is 1.0D-10 RMS, and 1.0D-09 maximum.
          NewPWx=F KeepS1=T KeepF1=T KeepIn=T MapXYZ=F SortEE=F KeepMc=T.
 Keep R1 ints in memory in symmetry-blocked form, NReq=128071053.
 FoFCou: FMM=F IPFlag=           0 FMFlag=           0 FMFlg1=           0
         NFxFlg=           0 DoJE=F BraDBF=F KetDBF=F FulRan=T
         wScrn=  0.000000 ICntrl=       600 IOpCl=  0 I1Cent=           0 NGrid=           0
         NMat0=    1 NMatS0=  13041 NMatT0=    0 NMatD0=    1 NMtDS0=    0 NMtDT0=    0
 Petite list used in FoFCou.
          MDV=   16106127360 using IRadAn=       5.
          Solving linear equations separately, MaxMat=       0.
          There are     1 degrees of freedom in the 1st order CPHF.  IDoFFX=0 NUNeed=     1.
 LinEq1:  Iter=  0 NonCon=     1 RMS=6.60D-03 Max=1.33D-01 NDo=     1
 AX will form     1 AO Fock derivatives at one time.
 LinEq1:  Iter=  1 NonCon=     1 RMS=2.24D-03 Max=4.05D-02 NDo=     1
 LinEq1:  Iter=  2 NonCon=     1 RMS=9.08D-04 Max=1.16D-02 NDo=     1
 LinEq1:  Iter=  3 NonCon=     1 RMS=4.36D-04 Max=8.62D-03 NDo=     1
 LinEq1:  Iter=  4 NonCon=     1 RMS=1.36D-04 Max=1.49D-03 NDo=     1
 LinEq1:  Iter=  5 NonCon=     1 RMS=6.07D-05 Max=9.84D-04 NDo=     1
 LinEq1:  Iter=  6 NonCon=     1 RMS=2.30D-05 Max=2.67D-04 NDo=     1
 LinEq1:  Iter=  7 NonCon=     1 RMS=5.86D-06 Max=5.96D-05 NDo=     1
 LinEq1:  Iter=  8 NonCon=     1 RMS=1.42D-06 Max=1.63D-05 NDo=     1
 LinEq1:  Iter=  9 NonCon=     1 RMS=2.62D-07 Max=1.96D-06 NDo=     1
 LinEq1:  Iter= 10 NonCon=     1 RMS=4.82D-08 Max=3.79D-07 NDo=     1
 LinEq1:  Iter= 11 NonCon=     1 RMS=7.80D-09 Max=7.84D-08 NDo=     1
 LinEq1:  Iter= 12 NonCon=     1 RMS=1.05D-09 Max=7.47D-09 NDo=     1
 LinEq1:  Iter= 13 NonCon=     1 RMS=2.17D-10 Max=2.26D-09 NDo=     1
 LinEq1:  Iter= 14 NonCon=     0 RMS=4.15D-11 Max=3.69D-10 NDo=     1
 Linear equations converged to 1.000D-10 1.000D-09 after    14 iterations.
 End of Minotr F.D. properties file   721 does not exist.
 End of Minotr F.D. properties file   722 does not exist.
 End of Minotr F.D. properties file   788 does not exist.
 Leave Link 1002 at Sun Jan 30 15:50:42 2022, MaxMem= 16106127360 cpu:              40.4 elap:               2.0
 (Enter /sw/contrib/gaussian/g16/B01/g16/l601.exe)
 Copying SCF densities to generalized density rwf, IOpCl= 0 IROHF=0.

 **********************************************************************

            Population analysis using the MP2 Density.

 **********************************************************************

 Orbital symmetries:
       Occupied  (A') (A') (A') (A') (A') (A') (A') (A') (A") (A')
                 (A") (A')
       Virtual   (A') (A") (A') (A') (A") (A') (A') (A') (A") (A')
                 (A") (A') (A') (A") (A') (A') (A') (A') (A') (A")
                 (A') (A') (A") (A') (A') (A') (A") (A") (A') (A')
                 (A') (A") (A") (A') (A") (A') (A') (A") (A') (A')
                 (A') (A') (A') (A") (A") (A') (A') (A") (A') (A')
                 (A") (A') (A") (A') (A') (A") (A') (A") (A') (A")
                 (A') (A') (A") (A') (A') (A') (A") (A') (A") (A")
                 (A') (A') (A') (A") (A') (A") (A') (A') (A") (A')
                 (A") (A') (A') (A") (A') (A") (A') (A") (A') (A')
                 (A') (A') (A') (A") (A') (A") (A') (A") (A') (A")
                 (A') (A") (A') (A') (A') (A") (A') (A") (A") (A')
                 (A') (A") (A') (A') (A") (A') (A') (A") (A') (A')
                 (A') (A') (A") (A') (A") (A") (A') (A') (A") (A')
                 (A") (A") (A') (A") (A') (A") (A') (A") (A") (A')
                 (A') (A') (A') (A') (A') (A') (A') (A') (A')
 The electronic state is 1-A'.
 Alpha  occ. eigenvalues --  -20.66413 -20.64319 -15.79803  -1.60312  -1.40418
 Alpha  occ. eigenvalues --   -0.94842  -0.78508  -0.73011  -0.68222  -0.62508
 Alpha  occ. eigenvalues --   -0.52856  -0.46182
 Alpha virt. eigenvalues --    0.02787   0.08107   0.09409   0.09758   0.12885
 Alpha virt. eigenvalues --    0.14345   0.15695   0.17204   0.18714   0.19664
 Alpha virt. eigenvalues --    0.20574   0.23371   0.25794   0.29623   0.30989
 Alpha virt. eigenvalues --    0.32998   0.36627   0.38295   0.42381   0.52560
 Alpha virt. eigenvalues --    0.52652   0.54857   0.57344   0.61326   0.63158
 Alpha virt. eigenvalues --    0.64809   0.68022   0.71407   0.71815   0.74786
 Alpha virt. eigenvalues --    0.77512   0.78090   0.81165   0.81229   0.86174
 Alpha virt. eigenvalues --    0.87896   0.92574   0.93894   0.94464   0.99491
 Alpha virt. eigenvalues --    1.04992   1.06351   1.08176   1.10651   1.16109
 Alpha virt. eigenvalues --    1.19695   1.25233   1.26923   1.36100   1.43404
 Alpha virt. eigenvalues --    1.48855   1.52318   1.52491   1.54467   1.55473
 Alpha virt. eigenvalues --    1.61006   1.65860   1.72936   1.75531   1.82365
 Alpha virt. eigenvalues --    1.85709   1.96062   1.97737   1.99839   2.07566
 Alpha virt. eigenvalues --    2.13311   2.13363   2.18981   2.27152   2.30874
 Alpha virt. eigenvalues --    2.33055   2.38040   2.45245   2.47062   2.49872
 Alpha virt. eigenvalues --    2.50313   2.52242   2.54517   2.56985   2.60724
 Alpha virt. eigenvalues --    2.60888   2.66315   2.77279   2.77882   2.84138
 Alpha virt. eigenvalues --    2.93987   2.95866   3.11714   3.14884   3.18245
 Alpha virt. eigenvalues --    3.24921   3.46375   3.83282   3.85670   4.02940
 Alpha virt. eigenvalues --    4.17015   4.18389   4.21513   4.36405   4.37312
 Alpha virt. eigenvalues --    4.58327   4.63508   4.74632   4.82242   4.87228
 Alpha virt. eigenvalues --    4.88749   4.97998   5.00303   5.07463   5.08639
 Alpha virt. eigenvalues --    5.17300   5.24653   5.25872   5.33462   5.37226
 Alpha virt. eigenvalues --    5.37838   5.58206   5.66854   5.79301   5.98623
 Alpha virt. eigenvalues --    6.12508   6.43865   6.50833   6.51105   6.67503
 Alpha virt. eigenvalues --    6.71680   6.74568   6.85002   6.91940   7.07164
 Alpha virt. eigenvalues --    7.12055   7.17927   7.23681   7.25698   7.25790
 Alpha virt. eigenvalues --    7.33322   7.37962   7.43558   7.47989   7.61160
 Alpha virt. eigenvalues --    7.64942   7.70305   7.79639   7.99152   8.07669
 Alpha virt. eigenvalues --    8.42649  14.22094  15.15359  15.98366
          Condensed to atoms (all electrons):
               1          2          3          4
     1  H    0.586200   0.173604  -0.045362   0.012953
     2  O    0.173604   8.290560  -0.138529  -0.058490
     3  N   -0.045362  -0.138529   7.048747  -0.042697
     4  O    0.012953  -0.058490  -0.042697   8.271535
 Mulliken charges:
               1
     1  H    0.272605
     2  O   -0.267144
     3  N    0.177841
     4  O   -0.183302
 Sum of Mulliken charges =  -0.00000
 Mulliken charges with hydrogens summed into heavy atoms:
               1
     2  O    0.005461
     3  N    0.177841
     4  O   -0.183302
 Electronic spatial extent (au):  <R**2>=            123.1514
 Charge=              0.0000 electrons
 Dipole moment (field-independent basis, Debye):
    X=              1.7855    Y=              0.6431    Z=              0.0000  Tot=              1.8978
 Quadrupole moment (field-independent basis, Debye-Ang):
   XX=            -13.6528   YY=            -18.6950   ZZ=            -16.4503
   XY=              0.5861   XZ=             -0.0000   YZ=              0.0000
 Traceless Quadrupole moment (field-independent basis, Debye-Ang):
   XX=              2.6132   YY=             -2.4290   ZZ=             -0.1842
   XY=              0.5861   XZ=             -0.0000   YZ=              0.0000
 Octapole moment (field-independent basis, Debye-Ang**2):
  XXX=             10.2193  YYY=             -1.0625  ZZZ=             -0.0000  XYY=             -0.9475
  XXY=             -0.3281  XXZ=              0.0000  XZZ=             -0.9842  YZZ=              0.1942
  YYZ=             -0.0000  XYZ=              0.0000
 Hexadecapole moment (field-independent basis, Debye-Ang**3):
 XXXX=            -71.4992 YYYY=            -39.2145 ZZZZ=            -13.9104 XXXY=             11.9449
 XXXZ=             -0.0000 YYYX=             11.6489 YYYZ=              0.0000 ZZZX=             -0.0000
 ZZZY=              0.0000 XXYY=            -22.1267 XXZZ=            -17.4378 YYZZ=             -8.6858
 XXYZ=              0.0000 YYXZ=             -0.0000 ZZXY=              4.1252
 N-N= 6.961479496791D+01 E-N=-6.237753508886D+02  KE= 2.052460155748D+02
 Symmetry A'   KE= 1.964183526616D+02
 Symmetry A"   KE= 8.827662913213D+00
 No NMR shielding tensors so no spin-rotation constants.
 Leave Link  601 at Sun Jan 30 15:50:43 2022, MaxMem= 16106127360 cpu:              13.4 elap:               0.5
 (Enter /sw/contrib/gaussian/g16/B01/g16/l9999.exe)
 1\1\GINC-N2130\SP\RMP2-FC\Aug-CC-pVTZ\H1N1O2\CGAVINH\30-Jan-2022\0\\#p
  SP mp2/aug-cc-pvtz density=current\\title\\0,1\H\O,1,0.97026274\N,2,1
 .42276435,1,101.62778541\O,3,1.17680217,2,110.70859147,1,180.,0\\Versi
 on=ES64L-G16RevB.01\State=1-A'\HF=-204.7238475\MP2=-205.4213467\RMSD=5
 .336e-09\Dipole=-0.0993896,0.,-0.7400078\Quadrupole=-1.3654079,-0.1369
 82,1.5023899,0.,1.2833984,0.\PG=CS [SG(H1N1O2)]\\@


 WE ARE PERHAPS NOT FAR REMOVED FROM THE TIME WHEN WE SHALL BE ABLE TO SUBMIT
 THE BULK OF CHEMICAL PHENOMENA TO CALCULATION.

            -- JOSEPH LOUIS GAY-LUSSAC
               MEMOIRES DE LA SOCIETE D'ARCUEIL, 2, 207 (1808)
 Job cpu time:       0 days  0 hours  3 minutes 19.7 seconds.
 Elapsed time:       0 days  0 hours  0 minutes  8.6 seconds.
 File lengths (MBytes):  RWF=     16 Int=      0 D2E=      0 Chk=      8 Scr=      1
 Normal termination of Gaussian 16 at Sun Jan 30 15:50:43 2022.
