title                                                                   
SP        RMP2-FC                                                     Aug-CC-pVTZ         
Number of atoms                            I                4
Info1-9                                    I   N=           9
          29          20           0           0           0         110
           1           2           1
Full Title                                 C   N=           1
title       
Route                                      C   N=           4
#p SP mp2/aug-cc-pvtz density=current           
Charge                                     I                0
Multiplicity                               I                1
Number of electrons                        I               24
Number of alpha electrons                  I               12
Number of beta electrons                   I               12
Number of basis functions                  I              161
Number of independent functions            I              161
Number of point charges in /Mol/           I                0
Number of translation vectors              I                0
Atomic numbers                             I   N=           4
           1           8           7           8
Nuclear charges                            R   N=           4
  1.00000000E+00  8.00000000E+00  7.00000000E+00  8.00000000E+00
Current cartesian coordinates              R   N=          12
  3.35204812E+00 -3.31519681E-01  2.10515577E-33  1.69383177E+00 -1.11392233E+00
 -1.39318778E-32  1.03711140E-17  9.86217902E-01 -1.57646579E-32 -2.11283779E+00
  2.92421626E-01 -2.01938861E-33
Number of symbols in /Mol/                 I                0
Force Field                                I                0
Atom Types                                 C   N=           4
                                                
Int Atom Types                             I   N=           4
           0           0           0           0
MM charges                                 R   N=           4
  0.00000000E+00  0.00000000E+00  0.00000000E+00  0.00000000E+00
Integer atomic weights                     I   N=           4
           1          16          14          16
Real atomic weights                        R   N=           4
  1.00782504E+00  1.59949146E+01  1.40030740E+01  1.59949146E+01
Atom fragment info                         I   N=           4
           0           0           0           0
Atom residue num                           I   N=           4
           0           0           0           0
Nuclear spins                              I   N=           4
           1           0           2           0
Nuclear ZEff                               R   N=           4
 -1.00000000E+00 -5.60000000E+00 -4.55000000E+00 -5.60000000E+00
Nuclear ZNuc                               R   N=           4
  1.00000000E+00  8.00000000E+00  7.00000000E+00  8.00000000E+00
Nuclear QMom                               R   N=           4
  0.00000000E+00  0.00000000E+00  2.04400000E+00  0.00000000E+00
Nuclear GFac                               R   N=           4
  2.79284600E+00  0.00000000E+00  4.03761000E-01  0.00000000E+00
MicOpt                                     I   N=           4
          -1          -1          -1          -1
Number of residues                         I                0
Number of secondary structures             I                0
SymInf integers                            I   N=          26
           1           2           1           1           1           1
           1          -1           0           0           0           0
           0           0           0           0           0           0
           0           0           0           0           0           0
           0           0
RotTr to input orientation                 R   N=          12
 -4.26719109E-01 -3.70947956E-17 -9.04384211E-01  9.04384211E-01 -1.25297644E-16
 -4.26719109E-01 -9.74881525E-17 -1.00000000E+00  8.70148463E-17  1.73020415E+00
  0.00000000E+00  2.89007361E+00
Number of contracted shells                I               51
Number of primitive shells                 I               92
Pure/Cartesian d shells                    I                0
Pure/Cartesian f shells                    I                0
Highest angular momentum                   I                3
Largest degree of contraction              I                7
Shell types                                I   N=          51
           0           0           0           0           1           1
           1          -2          -2           0           0           0
           0           0           1           1           1           1
          -2          -2          -2          -3          -3           0
           0           0           0           0           1           1
           1           1          -2          -2          -2          -3
          -3           0           0           0           0           0
           1           1           1           1          -2          -2
          -2          -3          -3
Number of primitives per shell             I   N=          51
           3           1           1           1           1           1
           1           1           1           7           6           1
           1           1           3           1           1           1
           1           1           1           1           1           7
           6           1           1           1           3           1
           1           1           1           1           1           1
           1           7           6           1           1           1
           3           1           1           1           1           1
           1           1           1
Shell to atom map                          I   N=          51
           1           1           1           1           1           1
           1           1           1           2           2           2
           2           2           2           2           2           2
           2           2           2           2           2           3
           3           3           3           3           3           3
           3           3           3           3           3           3
           3           4           4           4           4           4
           4           4           4           4           4           4
           4           4           4
Primitive exponents                        R   N=          92
  3.38700000E+01  5.09500000E+00  1.15900000E+00  3.25800000E-01  1.02700000E-01
  2.52600000E-02  1.40700000E+00  3.88000000E-01  1.02000000E-01  1.05700000E+00
  2.47000000E-01  1.53300000E+04  2.29900000E+03  5.22400000E+02  1.47300000E+02
  4.75500000E+01  1.67600000E+01  6.20700000E+00  5.22400000E+02  1.47300000E+02
  4.75500000E+01  1.67600000E+01  6.20700000E+00  6.88200000E-01  1.75200000E+00
  2.38400000E-01  7.37600000E-02  3.44600000E+01  7.74900000E+00  2.28000000E+00
  7.15600000E-01  2.14000000E-01  5.97400000E-02  2.31400000E+00  6.45000000E-01
  2.14000000E-01  1.42800000E+00  5.00000000E-01  1.14200000E+04  1.71200000E+03
  3.89300000E+02  1.10000000E+02  3.55700000E+01  1.25400000E+01  4.64400000E+00
  3.89300000E+02  1.10000000E+02  3.55700000E+01  1.25400000E+01  4.64400000E+00
  5.11800000E-01  1.29300000E+00  1.78700000E-01  5.76000000E-02  2.66300000E+01
  5.94800000E+00  1.74200000E+00  5.55000000E-01  1.72500000E-01  4.91000000E-02
  1.65400000E+00  4.69000000E-01  1.51000000E-01  1.09300000E+00  3.64000000E-01
  1.53300000E+04  2.29900000E+03  5.22400000E+02  1.47300000E+02  4.75500000E+01
  1.67600000E+01  6.20700000E+00  5.22400000E+02  1.47300000E+02  4.75500000E+01
  1.67600000E+01  6.20700000E+00  6.88200000E-01  1.75200000E+00  2.38400000E-01
  7.37600000E-02  3.44600000E+01  7.74900000E+00  2.28000000E+00  7.15600000E-01
  2.14000000E-01  5.97400000E-02  2.31400000E+00  6.45000000E-01  2.14000000E-01
  1.42800000E+00  5.00000000E-01
Contraction coefficients                   R   N=          92
  2.54948632E-02  1.90362766E-01  8.52162022E-01  1.00000000E+00  1.00000000E+00
  1.00000000E+00  1.00000000E+00  1.00000000E+00  1.00000000E+00  1.00000000E+00
  1.00000000E+00  5.19808943E-04  4.02025621E-03  2.07128267E-02  8.10105536E-02
  2.35962985E-01  4.42653446E-01  3.57064423E-01 -4.42115008E-05 -1.22591041E-03
 -1.05517725E-02 -6.74452633E-02 -1.71198607E-01  1.07329856E+00  1.00000000E+00
  1.00000000E+00  1.00000000E+00  4.11634896E-02  2.57762836E-01  8.02419274E-01
  1.00000000E+00  1.00000000E+00  1.00000000E+00  1.00000000E+00  1.00000000E+00
  1.00000000E+00  1.00000000E+00  1.00000000E+00  5.34563860E-04  4.13435660E-03
  2.12335358E-02  8.25006224E-02  2.38138871E-01  4.42551547E-01  3.53757422E-01
 -4.89867350E-05 -1.19527323E-03 -1.03490714E-02 -6.48680190E-02 -1.71552477E-01
  1.07289568E+00  1.00000000E+00  1.00000000E+00  1.00000000E+00  3.98072123E-02
  2.49002660E-01  8.10479727E-01  1.00000000E+00  1.00000000E+00  1.00000000E+00
  1.00000000E+00  1.00000000E+00  1.00000000E+00  1.00000000E+00  1.00000000E+00
  5.19808943E-04  4.02025621E-03  2.07128267E-02  8.10105536E-02  2.35962985E-01
  4.42653446E-01  3.57064423E-01 -4.42115008E-05 -1.22591041E-03 -1.05517725E-02
 -6.74452633E-02 -1.71198607E-01  1.07329856E+00  1.00000000E+00  1.00000000E+00
  1.00000000E+00  4.11634896E-02  2.57762836E-01  8.02419274E-01  1.00000000E+00
  1.00000000E+00  1.00000000E+00  1.00000000E+00  1.00000000E+00  1.00000000E+00
  1.00000000E+00  1.00000000E+00
Coordinates of each shell                  R   N=         153
  3.35204812E+00 -3.31519681E-01  0.00000000E+00  3.35204812E+00 -3.31519681E-01
  0.00000000E+00  3.35204812E+00 -3.31519681E-01  0.00000000E+00  3.35204812E+00
 -3.31519681E-01  0.00000000E+00  3.35204812E+00 -3.31519681E-01  0.00000000E+00
  3.35204812E+00 -3.31519681E-01  0.00000000E+00  3.35204812E+00 -3.31519681E-01
  0.00000000E+00  3.35204812E+00 -3.31519681E-01  0.00000000E+00  3.35204812E+00
 -3.31519681E-01  0.00000000E+00  1.69383177E+00 -1.11392233E+00  0.00000000E+00
  1.69383177E+00 -1.11392233E+00  0.00000000E+00  1.69383177E+00 -1.11392233E+00
  0.00000000E+00  1.69383177E+00 -1.11392233E+00  0.00000000E+00  1.69383177E+00
 -1.11392233E+00  0.00000000E+00  1.69383177E+00 -1.11392233E+00  0.00000000E+00
  1.69383177E+00 -1.11392233E+00  0.00000000E+00  1.69383177E+00 -1.11392233E+00
  0.00000000E+00  1.69383177E+00 -1.11392233E+00  0.00000000E+00  1.69383177E+00
 -1.11392233E+00  0.00000000E+00  1.69383177E+00 -1.11392233E+00  0.00000000E+00
  1.69383177E+00 -1.11392233E+00  0.00000000E+00  1.69383177E+00 -1.11392233E+00
  0.00000000E+00  1.69383177E+00 -1.11392233E+00  0.00000000E+00 -2.25840542E-17
  9.86217902E-01  0.00000000E+00 -2.25840542E-17  9.86217902E-01  0.00000000E+00
 -2.25840542E-17  9.86217902E-01  0.00000000E+00 -2.25840542E-17  9.86217902E-01
  0.00000000E+00 -2.25840542E-17  9.86217902E-01  0.00000000E+00 -2.25840542E-17
  9.86217902E-01  0.00000000E+00 -2.25840542E-17  9.86217902E-01  0.00000000E+00
 -2.25840542E-17  9.86217902E-01  0.00000000E+00 -2.25840542E-17  9.86217902E-01
  0.00000000E+00 -2.25840542E-17  9.86217902E-01  0.00000000E+00 -2.25840542E-17
  9.86217902E-01  0.00000000E+00 -2.25840542E-17  9.86217902E-01  0.00000000E+00
 -2.25840542E-17  9.86217902E-01  0.00000000E+00 -2.25840542E-17  9.86217902E-01
  0.00000000E+00 -2.11283779E+00  2.92421626E-01  0.00000000E+00 -2.11283779E+00
  2.92421626E-01  0.00000000E+00 -2.11283779E+00  2.92421626E-01  0.00000000E+00
 -2.11283779E+00  2.92421626E-01  0.00000000E+00 -2.11283779E+00  2.92421626E-01
  0.00000000E+00 -2.11283779E+00  2.92421626E-01  0.00000000E+00 -2.11283779E+00
  2.92421626E-01  0.00000000E+00 -2.11283779E+00  2.92421626E-01  0.00000000E+00
 -2.11283779E+00  2.92421626E-01  0.00000000E+00 -2.11283779E+00  2.92421626E-01
  0.00000000E+00 -2.11283779E+00  2.92421626E-01  0.00000000E+00 -2.11283779E+00
  2.92421626E-01  0.00000000E+00 -2.11283779E+00  2.92421626E-01  0.00000000E+00
 -2.11283779E+00  2.92421626E-01  0.00000000E+00
Num ILSW                                   I              100
ILSW                                       I   N=         100
           0           0           0           0           2           0
           0           0           0           0           0          -1
           5           0           0           0           0           0
           0           0           0           0           0           0
           1           0           0           0           0           0
           0           0      100000           0          -1           0
           0           0           0           0           0           0
           0           0           0           1           0           0
           0 -2000000000           1           0           0           0
           0           0           4          52           0           0
           0           0           0           0           0           0
           0           0           0           4           0           1
           0           0           0           0           0           0
           0           0           0           0           0           0
           0           0           0           0           0           0
           0           0           0           0           0           0
           0           0           0           0
Num RLSW                                   I               52
RLSW                                       R   N=          52
  1.00000000E+00  1.00000000E+00  1.00000000E+00  1.00000000E+00  1.00000000E+00
  0.00000000E+00  0.00000000E+00  1.00000000E+00  0.00000000E+00  0.00000000E+00
  0.00000000E+00  0.00000000E+00  1.00000000E+00  0.00000000E+00  0.00000000E+00
  0.00000000E+00  0.00000000E+00  1.00000000E+00  0.00000000E+00  0.00000000E+00
  0.00000000E+00  0.00000000E+00  1.00000000E+00  0.00000000E+00  0.00000000E+00
  0.00000000E+00  0.00000000E+00  1.00000000E+00  0.00000000E+00  0.00000000E+00
  0.00000000E+00  0.00000000E+00  1.00000000E+00  0.00000000E+00  0.00000000E+00
  0.00000000E+00  0.00000000E+00  0.00000000E+00  1.00000000E+00  1.00000000E+00
  0.00000000E+00  1.00000000E+00  0.00000000E+00  0.00000000E+00  0.00000000E+00
  0.00000000E+00  0.00000000E+00  0.00000000E+00  0.00000000E+00  0.00000000E+00
  0.00000000E+00  0.00000000E+00
MxBond                                     I                2
NBond                                      I   N=           4
           1           2           2           1
IBond                                      I   N=           8
           2           0           1           3           2           4
           3           0
RBond                                      R   N=           8
  1.00000000E+00  0.00000000E+00  1.00000000E+00  1.00000000E+00  1.00000000E+00
  2.00000000E+00  2.00000000E+00  0.00000000E+00
Virial Ratio                               R      2.002396269071645E+00
SCF Energy                                 R     -2.047235467096488E+02
MP2 Energy                                 R     -2.054212441427588E+02
Total Energy                               R     -2.054212441427588E+02
Post-SCF wavefunction norm                 R      1.089955582381834E+00
RMS Density                                R      5.559596706554337E-09
Job Status                                 I                1
Nuclear derivative order                   I                0
External E-field                           R   N=          35
  0.00000000E+00  0.00000000E+00  0.00000000E+00  0.00000000E+00  0.00000000E+00
  0.00000000E+00  0.00000000E+00  0.00000000E+00  0.00000000E+00  0.00000000E+00
  0.00000000E+00  0.00000000E+00  0.00000000E+00  0.00000000E+00  0.00000000E+00
  0.00000000E+00  0.00000000E+00  0.00000000E+00  0.00000000E+00  0.00000000E+00
  0.00000000E+00  0.00000000E+00  0.00000000E+00  0.00000000E+00  0.00000000E+00
  0.00000000E+00  0.00000000E+00  0.00000000E+00  0.00000000E+00  0.00000000E+00
  0.00000000E+00  0.00000000E+00  0.00000000E+00  0.00000000E+00  0.00000000E+00
IOpCl                                      I                0
IROHF                                      I                0
Alpha Orbital Energies                     R   N=         161
 -2.06653867E+01 -2.06414265E+01 -1.57989286E+01 -1.60247081E+00 -1.40140825E+00
 -9.49711360E-01 -7.84877904E-01 -7.28948124E-01 -6.81201243E-01 -6.23785578E-01
 -5.28209420E-01 -4.61465555E-01  2.78556522E-02  8.07305014E-02  9.41016684E-02
  9.78374565E-02  1.29159322E-01  1.43596213E-01  1.56790801E-01  1.71837741E-01
  1.87038077E-01  1.96984642E-01  2.05751941E-01  2.33213860E-01  2.58913281E-01
  2.96175620E-01  3.07964395E-01  3.30325799E-01  3.64254542E-01  3.82580791E-01
  4.24608872E-01  5.25756018E-01  5.25967196E-01  5.45802819E-01  5.72208979E-01
  6.13223689E-01  6.31893878E-01  6.48659104E-01  6.80520915E-01  7.14087773E-01
  7.18000486E-01  7.48669144E-01  7.76238838E-01  7.79414853E-01  8.10452903E-01
  8.11966766E-01  8.61068808E-01  8.74759029E-01  9.25810577E-01  9.39407946E-01
  9.45588986E-01  9.94277900E-01  1.04740662E+00  1.06034662E+00  1.08039157E+00
  1.10470227E+00  1.15989791E+00  1.19276191E+00  1.25853625E+00  1.26610579E+00
  1.36491137E+00  1.43536516E+00  1.49362418E+00  1.52304881E+00  1.52710090E+00
  1.54385226E+00  1.55809442E+00  1.60655945E+00  1.65785411E+00  1.72689673E+00
  1.75330265E+00  1.82426970E+00  1.85372429E+00  1.96245712E+00  1.97209361E+00
  1.99556558E+00  2.07282258E+00  2.13420416E+00  2.13478096E+00  2.17754578E+00
  2.27052568E+00  2.31127490E+00  2.32856598E+00  2.37972023E+00  2.45102820E+00
  2.46609612E+00  2.50254464E+00  2.50279947E+00  2.52160842E+00  2.54420342E+00
  2.56187363E+00  2.60762357E+00  2.60792421E+00  2.66332432E+00  2.76887338E+00
  2.78760880E+00  2.83765951E+00  2.93862448E+00  2.95111702E+00  3.11710408E+00
  3.15989547E+00  3.18578287E+00  3.24082886E+00  3.44955668E+00  3.83685005E+00
  3.85111870E+00  4.03265761E+00  4.17568370E+00  4.17593741E+00  4.21448054E+00
  4.37314672E+00  4.37551981E+00  4.57237578E+00  4.62754889E+00  4.74922727E+00
  4.81772343E+00  4.86765296E+00  4.88829193E+00  4.99903477E+00  5.00482013E+00
  5.07672597E+00  5.08828892E+00  5.16757698E+00  5.24606484E+00  5.25206696E+00
  5.32868345E+00  5.36674996E+00  5.37099491E+00  5.58184200E+00  5.66834478E+00
  5.79235430E+00  5.98802871E+00  6.10058063E+00  6.44073967E+00  6.50809911E+00
  6.51104243E+00  6.67169249E+00  6.71778183E+00  6.74011710E+00  6.84471323E+00
  6.91704218E+00  7.07880486E+00  7.11842050E+00  7.18024781E+00  7.23688412E+00
  7.25322137E+00  7.25656034E+00  7.33126394E+00  7.37891366E+00  7.43840769E+00
  7.47769950E+00  7.60370096E+00  7.64585921E+00  7.70554503E+00  7.77793990E+00
  7.97062997E+00  8.08426891E+00  8.42855440E+00  1.41796904E+01  1.51484663E+01
  1.59581635E+01
Alpha MO coefficients                      R   N=       25921
  5.00481657E-05  2.59412987E-04 -3.40413612E-04  6.47556369E-06 -5.92038034E-05
  1.37214502E-05  0.00000000E+00  5.64422138E-06  8.24019684E-05  0.00000000E+00
  2.49499712E-04  2.68422249E-05  0.00000000E+00  1.65181955E-05  0.00000000E+00
  0.00000000E+00  2.24098430E-05  2.26835897E-06  5.24594994E-05  0.00000000E+00
  0.00000000E+00 -2.35092297E-05  1.02465769E-05 -7.63507475E-04  7.47587972E-05
 -5.81627975E-05 -1.24839200E-04  2.08342197E-04  1.90972093E-05 -1.64267945E-05
  0.00000000E+00 -1.00066337E-04  3.83186668E-05  0.00000000E+00 -1.73426842E-04
  5.44504284E-06  0.00000000E+00 -1.17253596E-04  4.70848192E-05  0.00000000E+00
 -8.62492272E-06  0.00000000E+00  0.00000000E+00  2.63017639E-05  1.12450689E-05
  4.32546407E-06  0.00000000E+00  0.00000000E+00 -9.53862748E-05 -1.34879779E-04
 -1.25215669E-05  0.00000000E+00  0.00000000E+00 -6.78212990E-05 -2.58125137E-04
  0.00000000E+00  5.07368007E-06  1.84814698E-06  0.00000000E+00  0.00000000E+00
 -8.27094079E-06 -1.51861850E-05  0.00000000E+00 -2.20184067E-05 -1.49333563E-05
  0.00000000E+00  0.00000000E+00  2.02913112E-04 -5.45721028E-05  2.49120938E-04
  1.41788410E-03 -1.00991844E-04 -1.56454423E-03  3.67473144E-04 -1.12775016E-04
 -6.48567732E-05  0.00000000E+00 -2.04355724E-03 -5.53971534E-04  0.00000000E+00
  1.12227205E-03 -5.12374012E-05  0.00000000E+00 -1.18557579E-04 -9.00220953E-05
  0.00000000E+00 -1.25180628E-04  0.00000000E+00  0.00000000E+00  2.14267755E-04
  1.43972570E-04 -4.37475908E-04  0.00000000E+00  0.00000000E+00  5.51425019E-04
  7.96072563E-04 -1.42613741E-06  0.00000000E+00  0.00000000E+00 -1.57136454E-04
 -1.52258315E-04  0.00000000E+00  1.22030107E-05 -1.28654328E-05  0.00000000E+00
  0.00000000E+00  1.77358842E-05  1.54846056E-05  0.00000000E+00  1.47802276E-04
  1.29042169E-04  0.00000000E+00  0.00000000E+00 -2.38944287E-05 -2.90013059E-04
  9.76651048E-01 -9.86647148E-03  4.35618057E-02  4.27689462E-03 -5.21910462E-04
  2.11096781E-03  5.60050833E-04  0.00000000E+00 -2.41460235E-03 -5.78770278E-04
  0.00000000E+00  9.97175930E-04  5.41680746E-04  0.00000000E+00 -4.75807794E-05
  2.78376579E-05  0.00000000E+00 -2.28922296E-04  0.00000000E+00  0.00000000E+00
  7.67437822E-05  5.60550752E-05  3.88058855E-04  0.00000000E+00  0.00000000E+00
 -8.28184148E-04 -4.36727855E-04 -1.60710482E-04  0.00000000E+00  0.00000000E+00
  1.82365012E-04  2.45870137E-04  0.00000000E+00  5.52303948E-05  1.02915337E-05
  0.00000000E+00  0.00000000E+00 -1.73947732E-05 -2.39017274E-05  0.00000000E+00
  1.24107666E-04  4.73135758E-05  0.00000000E+00  0.00000000E+00 -1.60820634E-04
 -1.52237853E-04  4.79533830E-04  2.61614948E-03  3.67105200E-04 -4.82856261E-06
 -2.27459724E-04 -1.01989726E-04  0.00000000E+00 -1.03852685E-03 -8.52910066E-04
  0.00000000E+00 -1.09323950E-04 -4.08946517E-04  0.00000000E+00  1.40627569E-05
  0.00000000E+00  0.00000000E+00 -5.57680567E-05 -4.77873728E-05 -1.43209699E-04
  0.00000000E+00  0.00000000E+00  1.92488880E-04  4.08363102E-04  9.76751635E-01
 -9.24527333E-03  4.35652714E-02  7.18368576E-04 -8.62695449E-04  4.44909740E-04
  1.82773727E-03  0.00000000E+00 -2.37964350E-04 -1.81675733E-03  0.00000000E+00
 -1.64169599E-03  3.34516151E-04  0.00000000E+00 -5.33302730E-05  4.07546324E-05
  0.00000000E+00 -4.49693830E-05  0.00000000E+00  0.00000000E+00  4.43769321E-05
  4.22068162E-05  6.60630052E-04  0.00000000E+00  0.00000000E+00 -3.37582175E-04
  2.75930588E-04 -8.62946099E-05  0.00000000E+00  0.00000000E+00 -2.98735996E-04
 -4.06427365E-04  0.00000000E+00 -3.19957335E-05  4.52395819E-05  0.00000000E+00
  0.00000000E+00 -1.33901696E-05 -4.00224311E-06  0.00000000E+00  1.02582973E-04
  5.16309107E-05  0.00000000E+00  0.00000000E+00 -2.50966075E-04 -2.24051807E-04
  6.12063731E-05  1.71576193E-04 -3.21983360E-04 -3.94513841E-04  8.33004493E-04
 -8.30819777E-05  7.74519092E-05  0.00000000E+00  7.08067317E-04 -6.60866349E-04
  0.00000000E+00 -4.04300682E-04  5.58889440E-04  0.00000000E+00  1.39795433E-04
 -1.65302788E-04  0.00000000E+00 -3.55046614E-05  0.00000000E+00  0.00000000E+00
 -3.60266889E-05 -4.93237336E-05 -4.02545031E-04  0.00000000E+00  0.00000000E+00
 -1.55831776E-04 -9.36293452E-04 -1.91613559E-04  0.00000000E+00  0.00000000E+00
  5.63756146E-04 -6.78144275E-05  0.00000000E+00 -8.52092366E-05  9.84975419E-05
  0.00000000E+00  0.00000000E+00 -1.50349925E-04 -5.67974109E-05  0.00000000E+00
 -5.77345921E-05  1.19702284E-04  0.00000000E+00  0.00000000E+00 -4.25572156E-04
  1.14686703E-05  7.97499091E-04  4.95402997E-05  1.88502329E-05 -3.00255053E-04
 -1.95694053E-04 -1.47911667E-05  2.25407547E-05  0.00000000E+00  1.08843373E-04
 -1.30108151E-04  0.00000000E+00  3.99798303E-04 -4.27840226E-04  0.00000000E+00
 -6.21519529E-07 -4.52665544E-06  0.00000000E+00 -5.21814807E-06  0.00000000E+00
  0.00000000E+00 -1.26797412E-05 -1.11653153E-05  1.45385451E-06  0.00000000E+00
  0.00000000E+00  1.37019032E-04 -3.55165397E-05 -6.19975760E-05  0.00000000E+00
  0.00000000E+00  2.53585490E-04 -1.28780420E-05  0.00000000E+00  2.93080376E-06
  1.06898732E-05  0.00000000E+00  0.00000000E+00 -1.26820170E-05 -1.15392196E-05
  0.00000000E+00  1.32186591E-05 -5.26473371E-05  0.00000000E+00  0.00000000E+00
  1.16253295E-04  7.65692091E-05 -6.61081872E-05 -3.73738875E-04 -2.59649884E-04
  2.15196979E-04  3.21354134E-05  3.19536113E-05  0.00000000E+00  5.23167617E-04
 -3.87834532E-04  0.00000000E+00  3.27616836E-04 -3.47004972E-04  0.00000000E+00
 -6.02067470E-06  0.00000000E+00  0.00000000E+00 -5.38935499E-05  3.91744737E-05
  1.39402272E-04  0.00000000E+00  0.00000000E+00 -7.04600292E-05  1.84971720E-04
 -1.23787804E-04 -1.95407493E-04 -2.09177281E-04  5.06954336E-03  3.25730330E-03
  8.44060089E-06 -4.16338918E-05  0.00000000E+00 -4.95015859E-04  8.67862646E-04
  0.00000000E+00 -2.58780588E-03  3.19144589E-03  0.00000000E+00 -8.70454839E-04
  5.77241128E-04  0.00000000E+00 -3.96841949E-07  0.00000000E+00  0.00000000E+00
 -2.98416877E-05 -4.23937055E-05 -4.48350352E-04  0.00000000E+00  0.00000000E+00
 -4.82955013E-05 -5.18164827E-04 -5.99856209E-04  0.00000000E+00  0.00000000E+00
 -3.67284462E-04 -9.85283441E-04  0.00000000E+00  1.70957402E-05 -2.19538335E-05
  0.00000000E+00  0.00000000E+00  3.97942257E-05  3.51046136E-05  0.00000000E+00
  1.06332555E-04 -1.48135993E-04  0.00000000E+00  0.00000000E+00  1.17435317E-05
  2.30308571E-04  9.78284719E-01 -8.39189053E-03  4.17843562E-02 -5.69988812E-03
 -3.11358206E-03 -1.09749904E-03 -3.05285724E-03  0.00000000E+00 -1.08794700E-04
  3.00567893E-03  0.00000000E+00  3.59606108E-04  3.15774981E-03  0.00000000E+00
 -2.96778487E-05  5.49951306E-04  0.00000000E+00 -4.40112650E-04  0.00000000E+00
  0.00000000E+00  2.38192364E-04  2.29531980E-04  1.03803061E-03  0.00000000E+00
  0.00000000E+00 -1.66446525E-04  3.07456971E-04  3.77955601E-04  0.00000000E+00
  0.00000000E+00  1.18405124E-04  6.68999078E-05  0.00000000E+00  9.05518985E-05
 -7.01103675E-05  0.00000000E+00  0.00000000E+00 -6.00845081E-05 -9.18134502E-06
  0.00000000E+00 -2.24834392E-04 -2.28289408E-04  0.00000000E+00  0.00000000E+00
  4.53065079E-04  2.50591240E-04 -1.89423055E-04  9.17957022E-04  1.56858658E-04
  3.02849258E-03  8.95529169E-04  2.61783002E-04  1.23892677E-04  0.00000000E+00
  8.78278692E-04  2.69298979E-04  0.00000000E+00  1.23904503E-03 -1.48914531E-04
  0.00000000E+00  2.25072526E-06  4.61524426E-05  0.00000000E+00 -4.01079535E-05
  0.00000000E+00  0.00000000E+00  7.21307495E-05  8.40342742E-05  7.44966953E-05
  0.00000000E+00  0.00000000E+00 -5.13037308E-07 -2.75969105E-04 -3.92166836E-05
  0.00000000E+00  0.00000000E+00  2.82196018E-04 -1.41501298E-04  0.00000000E+00
  9.18759028E-05  3.70212222E-05  0.00000000E+00  0.00000000E+00 -5.40484524E-05
 -1.12966363E-04  0.00000000E+00  1.60006992E-04  1.22501984E-04  0.00000000E+00
  0.00000000E+00  2.12000312E-05 -3.55144958E-04  2.06381730E-02  1.67352263E-02
 -1.29307255E-03  4.78099425E-04 -3.18378479E-03 -7.79709702E-04  0.00000000E+00
 -2.53392951E-03 -7.13397610E-04  0.00000000E+00  2.18319244E-03  3.81957428E-04
  0.00000000E+00 -2.23648259E-04  0.00000000E+00  0.00000000E+00  3.94564876E-04
  2.35565859E-04  2.73801196E-04  0.00000000E+00  0.00000000E+00  3.64060125E-04
  3.97605983E-04 -6.58517242E-02  1.59604059E-01  4.25066286E-02  9.25469747E-02
  7.72170583E-03 -1.49824333E-02  2.31225862E-02  0.00000000E+00 -1.99954841E-02
  3.33078814E-02  0.00000000E+00 -1.17448787E-02  1.05622428E-02  0.00000000E+00
 -1.95370031E-03 -1.88807804E-03  0.00000000E+00 -1.81339016E-03  0.00000000E+00
  0.00000000E+00  1.12652266E-04 -1.83904640E-03 -4.07526993E-03  0.00000000E+00
  0.00000000E+00  8.83907349E-04 -4.35248709E-03  1.05283984E-03  0.00000000E+00
  0.00000000E+00  9.73744611E-05 -1.58507873E-03  0.00000000E+00  4.49926335E-04
 -8.70665126E-04  0.00000000E+00  0.00000000E+00  7.52333774E-04  1.30419112E-03
  0.00000000E+00 -2.48573393E-04  5.63233018E-04  0.00000000E+00  0.00000000E+00
 -2.44762770E-04  1.70297009E-04 -1.30063142E-01  3.07440091E-01  8.09965542E-02
  6.30921137E-02  3.23852843E-04 -7.38918984E-02 -4.70060945E-02  0.00000000E+00
 -7.74381820E-02 -6.47531895E-02  0.00000000E+00 -3.90912041E-03  8.98768691E-03
  0.00000000E+00 -1.34087707E-04  3.20276691E-03  0.00000000E+00 -9.29069583E-03
  0.00000000E+00  0.00000000E+00  8.54402389E-03  6.34819369E-03 -1.14514900E-02
  0.00000000E+00  0.00000000E+00  9.27986641E-03  6.05681613E-03  6.21604441E-03
  0.00000000E+00  0.00000000E+00 -2.08726566E-04  6.15301756E-04  0.00000000E+00
  2.49843825E-03  2.42686767E-03  0.00000000E+00  0.00000000E+00 -4.85407167E-03
 -5.45793176E-03  0.00000000E+00 -1.31398298E-03 -4.35662466E-04  0.00000000E+00
  0.00000000E+00  8.40362324E-04 -4.47330138E-05 -1.50455164E-01  3.59836637E-01
  9.64561770E-02  1.79462059E-01 -1.50411160E-02  7.98964190E-02  2.18666849E-02
  0.00000000E+00  1.01340813E-01  2.74071673E-02  0.00000000E+00  1.76604012E-02
  3.20571005E-03  0.00000000E+00 -8.56576771E-03 -2.42542043E-03  0.00000000E+00
 -5.16759885E-03  0.00000000E+00  0.00000000E+00  7.30933775E-03  4.45991852E-03
 -9.49732894E-03  0.00000000E+00  0.00000000E+00  1.51314294E-02  9.37260739E-03
  2.48399113E-03  0.00000000E+00  0.00000000E+00 -3.62025165E-03 -2.62903807E-03
  0.00000000E+00 -3.15618744E-03 -8.66232141E-04  0.00000000E+00  0.00000000E+00
  3.34509737E-03  3.60548101E-03  0.00000000E+00 -1.09188552E-04 -2.70188047E-04
  0.00000000E+00  0.00000000E+00  1.04863840E-03  1.91333319E-03  7.99878693E-02
  7.80748684E-02 -2.01601811E-02 -2.84520137E-03 -1.18530263E-02 -4.32520037E-03
  0.00000000E+00 -1.50230198E-02 -5.65424193E-04  0.00000000E+00  7.43659309E-03
  2.26815573E-03  0.00000000E+00 -1.37062963E-03  0.00000000E+00  0.00000000E+00
  2.40837419E-03  9.85725597E-04  3.07788927E-04  0.00000000E+00  0.00000000E+00
  2.30568498E-03 -1.46675868E-03 -1.81895014E-01  4.43036184E-01  1.20856094E-01
  2.58466845E-01  1.13916955E-02  1.64042319E-02  3.70526603E-02  0.00000000E+00