title                                                                   
SP        RMP2-FC                                                     Aug-CC-pVTZ         
Number of atoms                            I                4
Info1-9                                    I   N=           9
          29          20           0           0           0         110
           1           2           1
Full Title                                 C   N=           1
title       
Route                                      C   N=           4
#p SP mp2/aug-cc-pvtz density=current           
Charge                                     I                0
Multiplicity                               I                1
Number of electrons                        I               24
Number of alpha electrons                  I               12
Number of beta electrons                   I               12
Number of basis functions                  I              161
Number of independent functions            I              161
Number of point charges in /Mol/           I                0
Number of translation vectors              I                0
Atomic numbers                             I   N=           4
           1           8           7           8
Nuclear charges                            R   N=           4
  1.00000000E+00  8.00000000E+00  7.00000000E+00  8.00000000E+00
Current cartesian coordinates              R   N=          12
  3.31996800E+00 -2.74139545E-01 -4.87998214E-31  1.68757588E+00 -1.10908345E+00
 -1.38670322E-31  2.22829129E-16  9.96087027E-01  6.57112660E-32 -2.10257188E+00
  2.71774742E-01  3.70138598E-31
Number of symbols in /Mol/                 I                0
Force Field                                I                0
Atom Types                                 C   N=           4
                                                
Int Atom Types                             I   N=           4
           0           0           0           0
MM charges                                 R   N=           4
  0.00000000E+00  0.00000000E+00  0.00000000E+00  0.00000000E+00
Integer atomic weights                     I   N=           4
           1          16          14          16
Real atomic weights                        R   N=           4
  1.00782504E+00  1.59949146E+01  1.40030740E+01  1.59949146E+01
Atom fragment info                         I   N=           4
           0           0           0           0
Atom residue num                           I   N=           4
           0           0           0           0
Nuclear spins                              I   N=           4
           1           0           2           0
Nuclear ZEff                               R   N=           4
 -1.00000000E+00 -5.60000000E+00 -4.55000000E+00 -5.60000000E+00
Nuclear ZNuc                               R   N=           4
  1.00000000E+00  8.00000000E+00  7.00000000E+00  8.00000000E+00
Nuclear QMom                               R   N=           4
  0.00000000E+00  0.00000000E+00  2.04400000E+00  0.00000000E+00
Nuclear GFac                               R   N=           4
  2.79284600E+00  0.00000000E+00  4.03761000E-01  0.00000000E+00
MicOpt                                     I   N=           4
          -1          -1          -1          -1
Number of residues                         I                0
Number of secondary structures             I                0
SymInf integers                            I   N=          26
           1           2           1           1           1           1
           1          -1           0           0           0           0
           0           0           0           0           0           0
           0           0           0           0           0           0
           0           0
RotTr to input orientation                 R   N=          12
 -4.55374887E-01 -2.32153568E-17 -8.90299788E-01  8.90299788E-01  5.11063564E-16
 -4.55374887E-01  4.65571473E-16 -1.00000000E+00 -2.12056886E-16  1.75589643E+00
  0.00000000E+00  2.83093054E+00
Number of contracted shells                I               51
Number of primitive shells                 I               92
Pure/Cartesian d shells                    I                0
Pure/Cartesian f shells                    I                0
Highest angular momentum                   I                3
Largest degree of contraction              I                7
Shell types                                I   N=          51
           0           0           0           0           1           1
           1          -2          -2           0           0           0
           0           0           1           1           1           1
          -2          -2          -2          -3          -3           0
           0           0           0           0           1           1
           1           1          -2          -2          -2          -3
          -3           0           0           0           0           0
           1           1           1           1          -2          -2
          -2          -3          -3
Number of primitives per shell             I   N=          51
           3           1           1           1           1           1
           1           1           1           7           6           1
           1           1           3           1           1           1
           1           1           1           1           1           7
           6           1           1           1           3           1
           1           1           1           1           1           1
           1           7           6           1           1           1
           3           1           1           1           1           1
           1           1           1
Shell to atom map                          I   N=          51
           1           1           1           1           1           1
           1           1           1           2           2           2
           2           2           2           2           2           2
           2           2           2           2           2           3
           3           3           3           3           3           3
           3           3           3           3           3           3
           3           4           4           4           4           4
           4           4           4           4           4           4
           4           4           4
Primitive exponents                        R   N=          92
  3.38700000E+01  5.09500000E+00  1.15900000E+00  3.25800000E-01  1.02700000E-01
  2.52600000E-02  1.40700000E+00  3.88000000E-01  1.02000000E-01  1.05700000E+00
  2.47000000E-01  1.53300000E+04  2.29900000E+03  5.22400000E+02  1.47300000E+02
  4.75500000E+01  1.67600000E+01  6.20700000E+00  5.22400000E+02  1.47300000E+02
  4.75500000E+01  1.67600000E+01  6.20700000E+00  6.88200000E-01  1.75200000E+00
  2.38400000E-01  7.37600000E-02  3.44600000E+01  7.74900000E+00  2.28000000E+00
  7.15600000E-01  2.14000000E-01  5.97400000E-02  2.31400000E+00  6.45000000E-01
  2.14000000E-01  1.42800000E+00  5.00000000E-01  1.14200000E+04  1.71200000E+03
  3.89300000E+02  1.10000000E+02  3.55700000E+01  1.25400000E+01  4.64400000E+00
  3.89300000E+02  1.10000000E+02  3.55700000E+01  1.25400000E+01  4.64400000E+00
  5.11800000E-01  1.29300000E+00  1.78700000E-01  5.76000000E-02  2.66300000E+01
  5.94800000E+00  1.74200000E+00  5.55000000E-01  1.72500000E-01  4.91000000E-02
  1.65400000E+00  4.69000000E-01  1.51000000E-01  1.09300000E+00  3.64000000E-01
  1.53300000E+04  2.29900000E+03  5.22400000E+02  1.47300000E+02  4.75500000E+01
  1.67600000E+01  6.20700000E+00  5.22400000E+02  1.47300000E+02  4.75500000E+01
  1.67600000E+01  6.20700000E+00  6.88200000E-01  1.75200000E+00  2.38400000E-01
  7.37600000E-02  3.44600000E+01  7.74900000E+00  2.28000000E+00  7.15600000E-01
  2.14000000E-01  5.97400000E-02  2.31400000E+00  6.45000000E-01  2.14000000E-01
  1.42800000E+00  5.00000000E-01
Contraction coefficients                   R   N=          92
  2.54948632E-02  1.90362766E-01  8.52162022E-01  1.00000000E+00  1.00000000E+00
  1.00000000E+00  1.00000000E+00  1.00000000E+00  1.00000000E+00  1.00000000E+00
  1.00000000E+00  5.19808943E-04  4.02025621E-03  2.07128267E-02  8.10105536E-02
  2.35962985E-01  4.42653446E-01  3.57064423E-01 -4.42115008E-05 -1.22591041E-03
 -1.05517725E-02 -6.74452633E-02 -1.71198607E-01  1.07329856E+00  1.00000000E+00
  1.00000000E+00  1.00000000E+00  4.11634896E-02  2.57762836E-01  8.02419274E-01
  1.00000000E+00  1.00000000E+00  1.00000000E+00  1.00000000E+00  1.00000000E+00
  1.00000000E+00  1.00000000E+00  1.00000000E+00  5.34563860E-04  4.13435660E-03
  2.12335358E-02  8.25006224E-02  2.38138871E-01  4.42551547E-01  3.53757422E-01
 -4.89867350E-05 -1.19527323E-03 -1.03490714E-02 -6.48680190E-02 -1.71552477E-01
  1.07289568E+00  1.00000000E+00  1.00000000E+00  1.00000000E+00  3.98072123E-02
  2.49002660E-01  8.10479727E-01  1.00000000E+00  1.00000000E+00  1.00000000E+00
  1.00000000E+00  1.00000000E+00  1.00000000E+00  1.00000000E+00  1.00000000E+00
  5.19808943E-04  4.02025621E-03  2.07128267E-02  8.10105536E-02  2.35962985E-01
  4.42653446E-01  3.57064423E-01 -4.42115008E-05 -1.22591041E-03 -1.05517725E-02
 -6.74452633E-02 -1.71198607E-01  1.07329856E+00  1.00000000E+00  1.00000000E+00
  1.00000000E+00  4.11634896E-02  2.57762836E-01  8.02419274E-01  1.00000000E+00
  1.00000000E+00  1.00000000E+00  1.00000000E+00  1.00000000E+00  1.00000000E+00
  1.00000000E+00  1.00000000E+00
Coordinates of each shell                  R   N=         153
  3.31996800E+00 -2.74139545E-01 -2.44257391E-31  3.31996800E+00 -2.74139545E-01
 -2.44257391E-31  3.31996800E+00 -2.74139545E-01 -2.44257391E-31  3.31996800E+00
 -2.74139545E-01 -2.44257391E-31  3.31996800E+00 -2.74139545E-01 -2.44257391E-31
  3.31996800E+00 -2.74139545E-01 -2.44257391E-31  3.31996800E+00 -2.74139545E-01
 -2.44257391E-31  3.31996800E+00 -2.74139545E-01 -2.44257391E-31  3.31996800E+00
 -2.74139545E-01 -2.44257391E-31  1.68757588E+00 -1.10908345E+00 -8.60573030E-32
  1.68757588E+00 -1.10908345E+00 -8.60573030E-32  1.68757588E+00 -1.10908345E+00
 -8.60573030E-32  1.68757588E+00 -1.10908345E+00 -8.60573030E-32  1.68757588E+00
 -1.10908345E+00 -8.60573030E-32  1.68757588E+00 -1.10908345E+00 -8.60573030E-32
  1.68757588E+00 -1.10908345E+00 -8.60573030E-32  1.68757588E+00 -1.10908345E+00
 -8.60573030E-32  1.68757588E+00 -1.10908345E+00 -8.60573030E-32  1.68757588E+00
 -1.10908345E+00 -8.60573030E-32  1.68757588E+00 -1.10908345E+00 -8.60573030E-32
  1.68757588E+00 -1.10908345E+00 -8.60573030E-32  1.68757588E+00 -1.10908345E+00
 -8.60573030E-32  1.68757588E+00 -1.10908345E+00 -8.60573030E-32  9.58040911E-17
  9.96087027E-01 -3.91367592E-32  9.58040911E-17  9.96087027E-01 -3.91367592E-32
  9.58040911E-17  9.96087027E-01 -3.91367592E-32  9.58040911E-17  9.96087027E-01
 -3.91367592E-32  9.58040911E-17  9.96087027E-01 -3.91367592E-32  9.58040911E-17
  9.96087027E-01 -3.91367592E-32  9.58040911E-17  9.96087027E-01 -3.91367592E-32
  9.58040911E-17  9.96087027E-01 -3.91367592E-32  9.58040911E-17  9.96087027E-01
 -3.91367592E-32  9.58040911E-17  9.96087027E-01 -3.91367592E-32  9.58040911E-17
  9.96087027E-01 -3.91367592E-32  9.58040911E-17  9.96087027E-01 -3.91367592E-32
  9.58040911E-17  9.96087027E-01 -3.91367592E-32  9.58040911E-17  9.96087027E-01
 -3.91367592E-32 -2.10257188E+00  2.71774742E-01  1.50834141E-31 -2.10257188E+00
  2.71774742E-01  1.50834141E-31 -2.10257188E+00  2.71774742E-01  1.50834141E-31
 -2.10257188E+00  2.71774742E-01  1.50834141E-31 -2.10257188E+00  2.71774742E-01
  1.50834141E-31 -2.10257188E+00  2.71774742E-01  1.50834141E-31 -2.10257188E+00
  2.71774742E-01  1.50834141E-31 -2.10257188E+00  2.71774742E-01  1.50834141E-31
 -2.10257188E+00  2.71774742E-01  1.50834141E-31 -2.10257188E+00  2.71774742E-01
  1.50834141E-31 -2.10257188E+00  2.71774742E-01  1.50834141E-31 -2.10257188E+00
  2.71774742E-01  1.50834141E-31 -2.10257188E+00  2.71774742E-01  1.50834141E-31
 -2.10257188E+00  2.71774742E-01  1.50834141E-31
Num ILSW                                   I              100
ILSW                                       I   N=         100
           0           0           0           0           2           0
           0           0           0           0           0          -1
           5           0           0           0           0           0
           0           0           0           0           0           0
           1           0           0           0           0           0
           0           0      100000           0          -1           0
           0           0           0           0           0           0
           0           0           0           1           0           0
           0 -2000000000           1           0           0           0
           0           0           4          52           0           0
           0           0           0           0           0           0
           0           0           0           4           0           1
           0           0           0           0           0           0
           0           0           0           0           0           0
           0           0           0           0           0           0
           0           0           0           0           0           0
           0           0           0           0
Num RLSW                                   I               52
RLSW                                       R   N=          52
  1.00000000E+00  1.00000000E+00  1.00000000E+00  1.00000000E+00  1.00000000E+00
  0.00000000E+00  0.00000000E+00  1.00000000E+00  0.00000000E+00  0.00000000E+00
  0.00000000E+00  0.00000000E+00  1.00000000E+00  0.00000000E+00  0.00000000E+00
  0.00000000E+00  0.00000000E+00  1.00000000E+00  0.00000000E+00  0.00000000E+00
  0.00000000E+00  0.00000000E+00  1.00000000E+00  0.00000000E+00  0.00000000E+00
  0.00000000E+00  0.00000000E+00  1.00000000E+00  0.00000000E+00  0.00000000E+00
  0.00000000E+00  0.00000000E+00  1.00000000E+00  0.00000000E+00  0.00000000E+00
  0.00000000E+00  0.00000000E+00  0.00000000E+00  1.00000000E+00  1.00000000E+00
  0.00000000E+00  1.00000000E+00  0.00000000E+00  0.00000000E+00  0.00000000E+00
  0.00000000E+00  0.00000000E+00  0.00000000E+00  0.00000000E+00  0.00000000E+00
  0.00000000E+00  0.00000000E+00
MxBond                                     I                2
NBond                                      I   N=           4
           1           2           2           1
IBond                                      I   N=           8
           2           0           1           3           2           4
           3           0
RBond                                      R   N=           8
  1.00000000E+00  0.00000000E+00  1.00000000E+00  1.00000000E+00  1.00000000E+00
  2.00000000E+00  2.00000000E+00  0.00000000E+00
Virial Ratio                               R      2.002332058044613E+00
SCF Energy                                 R     -2.047233621766649E+02
MP2 Energy                                 R     -2.054212729923520E+02
Total Energy                               R     -2.054212729923520E+02
Post-SCF wavefunction norm                 R      1.089976952293701E+00
RMS Density                                R      5.427841927285995E-09
Job Status                                 I                1
Nuclear derivative order                   I                0
External E-field                           R   N=          35
  0.00000000E+00  0.00000000E+00  0.00000000E+00  0.00000000E+00  0.00000000E+00
  0.00000000E+00  0.00000000E+00  0.00000000E+00  0.00000000E+00  0.00000000E+00
  0.00000000E+00  0.00000000E+00  0.00000000E+00  0.00000000E+00  0.00000000E+00
  0.00000000E+00  0.00000000E+00  0.00000000E+00  0.00000000E+00  0.00000000E+00
  0.00000000E+00  0.00000000E+00  0.00000000E+00  0.00000000E+00  0.00000000E+00
  0.00000000E+00  0.00000000E+00  0.00000000E+00  0.00000000E+00  0.00000000E+00
  0.00000000E+00  0.00000000E+00  0.00000000E+00  0.00000000E+00  0.00000000E+00
IOpCl                                      I                0
IROHF                                      I                0
Alpha Orbital Energies                     R   N=         161
 -2.06647605E+01 -2.06417350E+01 -1.57989217E+01 -1.60349948E+00 -1.40141908E+00
 -9.48386484E-01 -7.84519796E-01 -7.29201314E-01 -6.81670325E-01 -6.24276162E-01
 -5.27866630E-01 -4.62950248E-01  2.80388536E-02  8.00815185E-02  9.40439610E-02
  9.74761515E-02  1.28863922E-01  1.43775210E-01  1.56900254E-01  1.71995399E-01
  1.87352648E-01  1.96523999E-01  2.05684757E-01  2.33661325E-01  2.58377700E-01
  2.96716145E-01  3.07795409E-01  3.29689744E-01  3.65723576E-01  3.82654711E-01
  4.23958459E-01  5.25538190E-01  5.25646261E-01  5.47704043E-01  5.72338272E-01
  6.14308382E-01  6.30991757E-01  6.49643347E-01  6.80371350E-01  7.13581879E-01
  7.17986549E-01  7.48189914E-01  7.75552398E-01  7.81728273E-01  8.12117651E-01
  8.12437590E-01  8.61236060E-01  8.77932674E-01  9.26908727E-01  9.39580940E-01
  9.44676641E-01  9.95599480E-01  1.04925879E+00  1.06368821E+00  1.08198226E+00
  1.10787487E+00  1.15934785E+00  1.19496845E+00  1.25217626E+00  1.26682176E+00
  1.36226790E+00  1.43916224E+00  1.49006229E+00  1.52173471E+00  1.52417002E+00
  1.54527242E+00  1.55586520E+00  1.60969579E+00  1.65869613E+00  1.72980750E+00
  1.75004612E+00  1.82392401E+00  1.85519665E+00  1.96258186E+00  1.97439321E+00
  1.99754412E+00  2.07188709E+00  2.13136364E+00  2.13344914E+00  2.18673024E+00
  2.27365571E+00  2.31094395E+00  2.33310878E+00  2.38168233E+00  2.45181465E+00
  2.46684670E+00  2.50005138E+00  2.50131792E+00  2.52371262E+00  2.54390891E+00
  2.57200090E+00  2.60705254E+00  2.61055639E+00  2.66721884E+00  2.76782202E+00
  2.77494259E+00  2.83075961E+00  2.93901496E+00  2.95510716E+00  3.11300634E+00
  3.14979113E+00  3.18112572E+00  3.25175863E+00  3.46126350E+00  3.83122327E+00
  3.85459870E+00  4.03284846E+00  4.16965330E+00  4.18195893E+00  4.21291987E+00
  4.36702516E+00  4.37570212E+00  4.57674928E+00  4.63173028E+00  4.74546770E+00
  4.82086157E+00  4.87215496E+00  4.88740449E+00  4.97876036E+00  5.00240695E+00
  5.07285858E+00  5.08414504E+00  5.16685681E+00  5.25055059E+00  5.26147962E+00
  5.33153544E+00  5.37013766E+00  5.38754918E+00  5.58154217E+00  5.66838310E+00
  5.79517352E+00  5.98962020E+00  6.12120736E+00  6.43491083E+00  6.50960109E+00
  6.51292165E+00  6.67667625E+00  6.71884303E+00  6.74423597E+00  6.85329128E+00
  6.91245924E+00  7.07057372E+00  7.12102070E+00  7.17918190E+00  7.23283847E+00
  7.25540372E+00  7.25555840E+00  7.33152251E+00  7.37657722E+00  7.43379439E+00
  7.47881766E+00  7.60892289E+00  7.64514274E+00  7.71136475E+00  7.78817381E+00
  7.98326146E+00  8.07194164E+00  8.42651515E+00  1.42251601E+01  1.50921985E+01
  1.59984256E+01
Alpha MO coefficients                      R   N=       25921
  5.79701915E-05  1.87258497E-04 -3.59686752E-04  4.57820336E-06 -5.35942187E-05
  9.97147133E-06  0.00000000E+00  5.30345327E-05  4.20670139E-05  0.00000000E+00
  2.62642498E-04  8.90930121E-06  0.00000000E+00  2.08761053E-05  0.00000000E+00
  0.00000000E+00  1.04833719E-05  9.19884449E-06  4.88382788E-05  0.00000000E+00
  0.00000000E+00 -3.65751169E-05  1.94700495E-05 -8.16235326E-04  8.04073659E-05
 -5.68669363E-05 -1.21905215E-04  1.94473982E-04  1.56723664E-05 -1.63686401E-05
  0.00000000E+00 -7.96052153E-05  4.14499960E-05  0.00000000E+00 -1.18648203E-04
  5.46925053E-05  0.00000000E+00 -1.22635277E-04  5.11653508E-05  0.00000000E+00
 -9.23698465E-06  0.00000000E+00  0.00000000E+00  2.85746639E-05  9.25566354E-06
  7.51161551E-06  0.00000000E+00  0.00000000E+00 -1.08769145E-04 -1.09316170E-04
 -1.24830693E-05  0.00000000E+00  0.00000000E+00 -9.56475734E-05 -2.23645537E-04
  0.00000000E+00  1.49225404E-06  2.88384263E-06  0.00000000E+00  0.00000000E+00
 -7.34255562E-06 -1.61301436E-05  0.00000000E+00 -1.83227802E-05 -1.94091341E-05
  0.00000000E+00  0.00000000E+00  1.85678185E-04 -5.42886094E-05  2.48810644E-04
  1.41320053E-03 -1.04386608E-04 -1.48049624E-03  3.97002472E-04 -1.13944664E-04
 -6.46492039E-05  0.00000000E+00 -2.02257361E-03 -5.84044845E-04  0.00000000E+00
  1.10237476E-03 -7.76014400E-05  0.00000000E+00 -1.06364326E-04 -9.97951006E-05
  0.00000000E+00 -1.24508091E-04  0.00000000E+00  0.00000000E+00  2.10898662E-04
  1.50241308E-04 -4.43508349E-04  0.00000000E+00  0.00000000E+00  5.30732198E-04
  7.91069346E-04 -6.77601694E-06  0.00000000E+00  0.00000000E+00 -1.66479327E-04
 -1.53497952E-04  0.00000000E+00  1.15002318E-05 -1.25088591E-05  0.00000000E+00
  0.00000000E+00  1.43122589E-05  1.57285199E-05  0.00000000E+00  1.45606768E-04
  1.32043625E-04  0.00000000E+00  0.00000000E+00 -2.13625831E-05 -2.87325817E-04
  9.76649269E-01 -9.86500163E-03  4.35651601E-02  4.25287939E-03 -5.37499102E-04
  2.09572723E-03  6.04113790E-04  0.00000000E+00 -2.39732379E-03 -6.26913237E-04
  0.00000000E+00  9.82958679E-04  5.48846610E-04  0.00000000E+00 -5.46566411E-05
  3.14384239E-05  0.00000000E+00 -2.29995882E-04  0.00000000E+00  0.00000000E+00
  7.55173523E-05  5.63252229E-05  3.86170102E-04  0.00000000E+00  0.00000000E+00
 -8.07482162E-04 -4.66991275E-04 -1.63611776E-04  0.00000000E+00  0.00000000E+00
  1.77008360E-04  2.44831131E-04  0.00000000E+00  5.54133451E-05  1.09734216E-05
  0.00000000E+00  0.00000000E+00 -1.56985956E-05 -2.43600336E-05  0.00000000E+00
  1.21523021E-04  5.00640252E-05  0.00000000E+00  0.00000000E+00 -1.51350890E-04
 -1.60926912E-04  4.76116595E-04  2.49306544E-03  3.41420915E-04 -6.20770246E-06
 -2.26459497E-04 -1.07191653E-04  0.00000000E+00 -1.00248666E-03 -8.72904512E-04
  0.00000000E+00 -9.70208414E-05 -4.21380644E-04  0.00000000E+00  1.09703349E-05
  0.00000000E+00  0.00000000E+00 -4.80745244E-05 -5.35838644E-05 -1.54803637E-04
  0.00000000E+00  0.00000000E+00  1.71248727E-04  4.17734133E-04  9.76754404E-01
 -9.25457308E-03  4.35557142E-02  7.98656173E-04 -8.85310953E-04  4.30556175E-04
  1.83897062E-03  0.00000000E+00 -2.31179229E-04 -1.83397796E-03  0.00000000E+00
 -1.51806779E-03  3.20172467E-04  0.00000000E+00 -5.39472069E-05  3.46482054E-05
  0.00000000E+00 -4.20793004E-05  0.00000000E+00  0.00000000E+00  3.83607036E-05
  4.68167158E-05  6.53059760E-04  0.00000000E+00  0.00000000E+00 -3.06348961E-04
  2.45336372E-04 -9.39017053E-05  0.00000000E+00  0.00000000E+00 -2.76715873E-04
 -3.79402934E-04  0.00000000E+00 -3.05615055E-05  4.55473917E-05  0.00000000E+00
  0.00000000E+00 -1.24889111E-05 -4.32074819E-06  0.00000000E+00  9.59336977E-05
  5.38177663E-05  0.00000000E+00  0.00000000E+00 -2.27622058E-04 -2.25074804E-04
  5.97082416E-05  1.63139327E-04 -3.18392788E-04 -3.92376075E-04  8.48260882E-04
 -8.23703501E-05  7.73852038E-05  0.00000000E+00  7.04085240E-04 -6.50986846E-04
  0.00000000E+00 -3.65784464E-04  5.36019838E-04  0.00000000E+00  1.53382006E-04
 -1.70668525E-04  0.00000000E+00 -3.48011921E-05  0.00000000E+00  0.00000000E+00
 -3.42301592E-05 -5.01384070E-05 -3.98230257E-04  0.00000000E+00  0.00000000E+00
 -1.70756629E-04 -9.22637595E-04 -1.85476228E-04  0.00000000E+00  0.00000000E+00
  5.42151857E-04 -6.13535967E-05  0.00000000E+00 -8.60913860E-05  9.87360472E-05
  0.00000000E+00  0.00000000E+00 -1.47814083E-04 -5.67552360E-05  0.00000000E+00
 -5.38242842E-05  1.21807405E-04  0.00000000E+00  0.00000000E+00 -4.20431950E-04
  2.17934626E-05  8.51486963E-04  5.54154044E-05  2.43047211E-05 -2.47011800E-04
 -1.82999279E-04 -1.41185585E-05  2.09323993E-05  0.00000000E+00  1.12771965E-04
 -1.18531942E-04  0.00000000E+00  4.18262929E-04 -4.08819441E-04  0.00000000E+00
 -2.28279656E-06 -1.59800573E-06  0.00000000E+00 -5.92611326E-06  0.00000000E+00
  0.00000000E+00 -1.27348415E-05 -1.17668835E-05  5.90626827E-06  0.00000000E+00
  0.00000000E+00  1.38446461E-04 -2.16933975E-05 -5.98981102E-05  0.00000000E+00
  0.00000000E+00  2.61049372E-04 -3.98923816E-06  0.00000000E+00  4.11390349E-06
  9.46529468E-06  0.00000000E+00  0.00000000E+00 -1.31709331E-05 -8.93342731E-06
  0.00000000E+00  1.38524571E-05 -4.92174448E-05  0.00000000E+00  0.00000000E+00
  1.17109652E-04  8.15201947E-05 -7.75761139E-05 -5.93905181E-04 -3.70645791E-04
  2.06730952E-04  3.78240141E-05  3.36399027E-05  0.00000000E+00  4.79617763E-04
 -3.18720148E-04  0.00000000E+00  3.10857314E-04 -3.15612352E-04  0.00000000E+00
 -1.32502258E-05  0.00000000E+00  0.00000000E+00 -3.72124948E-05  2.84710777E-05
  1.05149322E-04  0.00000000E+00  0.00000000E+00 -2.63440642E-05  1.72238337E-04
 -1.26288678E-04 -2.11733927E-04 -2.09651319E-04  4.98115409E-03  3.27206559E-03
  9.46246880E-06 -4.01226274E-05  0.00000000E+00 -5.20332759E-04  8.55072798E-04
  0.00000000E+00 -2.24427338E-03  3.08782486E-03  0.00000000E+00 -8.10384552E-04
  5.72216814E-04  0.00000000E+00  5.46980006E-07  0.00000000E+00  0.00000000E+00
 -3.27989739E-05 -4.36295566E-05 -4.49644378E-04  0.00000000E+00  0.00000000E+00
 -3.35531374E-05 -5.21571974E-04 -6.09121801E-04  0.00000000E+00  0.00000000E+00
 -3.04102365E-04 -8.92149213E-04  0.00000000E+00  2.01123171E-05 -2.10786596E-05
  0.00000000E+00  0.00000000E+00  3.90324023E-05  3.27728896E-05  0.00000000E+00
  8.70529419E-05 -1.46850110E-04  0.00000000E+00  0.00000000E+00  2.96917247E-05
  2.34238920E-04  9.78281205E-01 -8.41182603E-03  4.17782827E-02 -5.29365404E-03
 -3.01467983E-03 -1.07788903E-03 -3.03612045E-03  0.00000000E+00 -1.09998373E-04
  2.97880253E-03  0.00000000E+00  3.47384940E-04  3.02309247E-03  0.00000000E+00
 -4.75955074E-05  5.37737526E-04  0.00000000E+00 -4.36630375E-04  0.00000000E+00
  0.00000000E+00  2.30172813E-04  2.36633259E-04  1.01935371E-03  0.00000000E+00
  0.00000000E+00 -1.32257994E-04  2.86961434E-04  3.49382752E-04  0.00000000E+00
  0.00000000E+00  1.25980121E-04  6.14684323E-05  0.00000000E+00  8.89039369E-05
 -6.92601644E-05  0.00000000E+00  0.00000000E+00 -5.89981744E-05 -1.70902124E-05
  0.00000000E+00 -2.17736504E-04 -2.28859428E-04  0.00000000E+00  0.00000000E+00
  4.36024012E-04  2.51813800E-04 -1.91051810E-04  9.08462476E-04  1.55199190E-04
  2.89634003E-03  8.32268794E-04  2.60873481E-04  1.27795191E-04  0.00000000E+00
  8.62193884E-04  2.76675272E-04  0.00000000E+00  1.19759611E-03 -1.28266571E-04
  0.00000000E+00 -1.89184313E-06  4.20133062E-05  0.00000000E+00 -3.93465663E-05
  0.00000000E+00  0.00000000E+00  6.88424999E-05  8.63524158E-05  7.18552872E-05
  0.00000000E+00  0.00000000E+00  9.73659952E-06 -2.76533565E-04 -4.27810657E-05
  0.00000000E+00  0.00000000E+00  2.88405758E-04 -1.32121775E-04  0.00000000E+00
  9.20686611E-05  3.77204529E-05  0.00000000E+00  0.00000000E+00 -4.98271236E-05
 -1.14141477E-04  0.00000000E+00  1.51871537E-04  1.25095675E-04  0.00000000E+00
  0.00000000E+00  3.94813545E-05 -3.56402627E-04  2.12246701E-02  1.73178829E-02
 -1.52093860E-03  4.56816510E-04 -3.25807413E-03 -8.91019493E-04  0.00000000E+00
 -2.74238394E-03 -9.14872440E-04  0.00000000E+00  2.26141421E-03  2.92114349E-04
  0.00000000E+00 -2.51123510E-04  0.00000000E+00  0.00000000E+00  4.35189992E-04
  2.63806396E-04  2.45076447E-04  0.00000000E+00  0.00000000E+00  4.32400330E-04
  4.77262963E-04 -6.68042343E-02  1.61832141E-01  4.31051162E-02  9.32713018E-02
  7.84031655E-03 -1.51950697E-02  2.36330207E-02  0.00000000E+00 -2.04225899E-02
  3.40379331E-02  0.00000000E+00 -1.17697174E-02  1.07130355E-02  0.00000000E+00
 -1.92988943E-03 -1.83636132E-03  0.00000000E+00 -1.84189541E-03  0.00000000E+00
  0.00000000E+00  7.15050128E-05 -1.82300555E-03 -4.17332481E-03  0.00000000E+00
  0.00000000E+00  7.27988701E-04 -4.43259440E-03  1.03260121E-03  0.00000000E+00
  0.00000000E+00  1.15979701E-04 -1.60113840E-03  0.00000000E+00  4.71881898E-04
 -9.03829206E-04  0.00000000E+00  0.00000000E+00  7.40969237E-04  1.31942611E-03
  0.00000000E+00 -2.45318590E-04  5.48481074E-04  0.00000000E+00  0.00000000E+00
 -2.07213124E-04  1.63172294E-04 -1.29997878E-01  3.07295662E-01  8.09269673E-02
  6.31097785E-02  4.20384324E-04 -7.28866586E-02 -4.82634125E-02  0.00000000E+00
 -7.63090487E-02 -6.61190346E-02  0.00000000E+00 -3.39516899E-03  8.75280464E-03
  0.00000000E+00 -9.99749004E-05  3.15682901E-03  0.00000000E+00 -9.29498012E-03
  0.00000000E+00  0.00000000E+00  8.25396696E-03  6.51584592E-03 -1.14684437E-02
  0.00000000E+00  0.00000000E+00  8.84480020E-03  6.26638551E-03  6.19293538E-03
  0.00000000E+00  0.00000000E+00 -1.99653300E-04  5.10877913E-04  0.00000000E+00
  2.47060056E-03  2.48087916E-03  0.00000000E+00  0.00000000E+00 -4.64956045E-03
 -5.55451336E-03  0.00000000E+00 -1.33133497E-03 -4.28915743E-04  0.00000000E+00
  0.00000000E+00  8.87724605E-04  1.31625308E-05 -1.49879961E-01  3.58439965E-01
  9.60588472E-02  1.78850121E-01 -1.50969947E-02  7.95207402E-02  2.27445881E-02
  0.00000000E+00  1.00827221E-01  2.85929098E-02  0.00000000E+00  1.74816704E-02
  3.62925566E-03  0.00000000E+00 -8.56583722E-03 -2.46981946E-03  0.00000000E+00
 -5.16255780E-03  0.00000000E+00  0.00000000E+00  7.17007026E-03  4.65189227E-03
 -9.46672549E-03  0.00000000E+00  0.00000000E+00  1.47842148E-02  9.79508992E-03
  2.53295176E-03  0.00000000E+00  0.00000000E+00 -3.61010419E-03 -2.59153366E-03
  0.00000000E+00 -3.13456460E-03 -9.08924888E-04  0.00000000E+00  0.00000000E+00
  3.17793417E-03  3.73683221E-03  0.00000000E+00 -8.82633939E-05 -2.69126820E-04
  0.00000000E+00  0.00000000E+00  9.49176180E-04  1.96930548E-03  8.03443692E-02
  7.88113772E-02 -2.07492247E-02 -2.88044711E-03 -1.17853650E-02 -4.72890614E-03
  0.00000000E+00 -1.46852699E-02 -1.35477325E-03  0.00000000E+00  7.76859673E-03
  2.22652649E-03  0.00000000E+00 -1.32175858E-03  0.00000000E+00  0.00000000E+00
  2.23778487E-03  1.19082807E-03  4.14620904E-04  0.00000000E+00  0.00000000E+00
  2.15443699E-03 -1.35487183E-03 -1.81332746E-01  4.41765562E-01  1.20551049E-01
  2.57654390E-01  1.14304079E-02  1.63420964E-02  3.77877151E-02  0.00000000E+00