 Entering Gaussian System, Link 0=g16
 Input=hono_a2_p_10.gjf
 Output=hono_a2_p_10.log
 Initial command:
 /sw/contrib/gaussian/g16/B01/g16/l1.exe "/scr/Gau-10695.inp" -scrdir="/scr/"
 Entering Link 1 = /sw/contrib/gaussian/g16/B01/g16/l1.exe PID=     10696.
  
 Copyright (c) 1988-2017, Gaussian, Inc.  All Rights Reserved.
  
 This is part of the Gaussian(R) 16 program.  It is based on
 the Gaussian(R) 09 system (copyright 2009, Gaussian, Inc.),
 the Gaussian(R) 03 system (copyright 2003, Gaussian, Inc.),
 the Gaussian(R) 98 system (copyright 1998, Gaussian, Inc.),
 the Gaussian(R) 94 system (copyright 1995, Gaussian, Inc.),
 the Gaussian 92(TM) system (copyright 1992, Gaussian, Inc.),
 the Gaussian 90(TM) system (copyright 1990, Gaussian, Inc.),
 the Gaussian 88(TM) system (copyright 1988, Gaussian, Inc.),
 the Gaussian 86(TM) system (copyright 1986, Carnegie Mellon
 University), and the Gaussian 82(TM) system (copyright 1983,
 Carnegie Mellon University). Gaussian is a federally registered
 trademark of Gaussian, Inc.
  
 This software contains proprietary and confidential information,
 including trade secrets, belonging to Gaussian, Inc.
  
 This software is provided under written license and may be
 used, copied, transmitted, or stored only in accord with that
 written license.
  
 The following legend is applicable only to US Government
 contracts under FAR:
  
                    RESTRICTED RIGHTS LEGEND
  
 Use, reproduction and disclosure by the US Government is
 subject to restrictions as set forth in subparagraphs (a)
 and (c) of the Commercial Computer Software - Restricted
 Rights clause in FAR 52.227-19.
  
 Gaussian, Inc.
 340 Quinnipiac St., Bldg. 40, Wallingford CT 06492
  
  
 ---------------------------------------------------------------
 Warning -- This program may not be used in any manner that
 competes with the business of Gaussian, Inc. or will provide
 assistance to any competitor of Gaussian, Inc.  The licensee
 of this program is prohibited from giving any competitor of
 Gaussian, Inc. access to this program.  By using this program,
 the user acknowledges that Gaussian, Inc. is engaged in the
 business of creating and licensing software in the field of
 computational chemistry and represents and warrants to the
 licensee that it is not a competitor of Gaussian, Inc. and that
 it will not use this program in any manner prohibited above.
 ---------------------------------------------------------------
  

 Cite this work as:
 Gaussian 16, Revision B.01,
 M. J. Frisch, G. W. Trucks, H. B. Schlegel, G. E. Scuseria, 
 M. A. Robb, J. R. Cheeseman, G. Scalmani, V. Barone, 
 G. A. Petersson, H. Nakatsuji, X. Li, M. Caricato, A. V. Marenich, 
 J. Bloino, B. G. Janesko, R. Gomperts, B. Mennucci, H. P. Hratchian, 
 J. V. Ortiz, A. F. Izmaylov, J. L. Sonnenberg, D. Williams-Young, 
 F. Ding, F. Lipparini, F. Egidi, J. Goings, B. Peng, A. Petrone, 
 T. Henderson, D. Ranasinghe, V. G. Zakrzewski, J. Gao, N. Rega, 
 G. Zheng, W. Liang, M. Hada, M. Ehara, K. Toyota, R. Fukuda, 
 J. Hasegawa, M. Ishida, T. Nakajima, Y. Honda, O. Kitao, H. Nakai, 
 T. Vreven, K. Throssell, J. A. Montgomery, Jr., J. E. Peralta, 
 F. Ogliaro, M. J. Bearpark, J. J. Heyd, E. N. Brothers, K. N. Kudin, 
 V. N. Staroverov, T. A. Keith, R. Kobayashi, J. Normand, 
 K. Raghavachari, A. P. Rendell, J. C. Burant, S. S. Iyengar, 
 J. Tomasi, M. Cossi, J. M. Millam, M. Klene, C. Adamo, R. Cammi, 
 J. W. Ochterski, R. L. Martin, K. Morokuma, O. Farkas, 
 J. B. Foresman, and D. J. Fox, Gaussian, Inc., Wallingford CT, 2016.
 
 ******************************************
 Gaussian 16:  ES64L-G16RevB.01 20-Dec-2017
                31-Jan-2022 
 ******************************************
 %nproc=28
 Will use up to   28 processors via shared memory.
 %mem=120GB
 %chk=/gscratch/ilahie/mccoygrp/coire_hoono/hono/hono_a2_p_10.chk
 -------------------------------------
 #p SP mp2/aug-cc-pvtz density=current
 -------------------------------------
 1/30=1,38=1,172=1/1;
 2/12=2,17=6,18=5,40=1/2;
 3/5=16,6=1,7=10,11=9,25=1,30=1,71=1/1,2,3;
 4//1;
 5/5=2,38=5/2;
 8/6=4,10=1/1;
 9/15=1,16=-3/6;
 10/5=1,13=10/2;
 6/7=2,8=2,9=2,10=2,22=-1/1;
 99/5=1,9=1/99;
 Leave Link    1 at Mon Jan 31 11:40:21 2022, MaxMem= 16106127360 cpu:               3.0 elap:               0.1
 (Enter /sw/contrib/gaussian/g16/B01/g16/l101.exe)
 -----
 title
 -----
 Symbolic Z-matrix:
 Charge =  0 Multiplicity = 1
 H
 O                    1    r1
 N                    2    r2       1    a1
 O                    3    r3       2    a2       1    d1       0
       Variables:
  r1                    0.97026                  
  r2                    1.42776                  
  r3                    1.1768                   
  a1                  101.62779                  
  a2                  111.70859                  
  d1                  180.                       
 
 ITRead=  0  0  0  0
 MicOpt= -1 -1 -1 -1
 NAtoms=      4 NQM=        4 NQMF=       0 NMMI=      0 NMMIF=      0
                NMic=       0 NMicF=      0.
                    Isotopes and Nuclear Properties:
 (Nuclear quadrupole moments (NQMom) in fm**2, nuclear magnetic moments (NMagM)
  in nuclear magnetons)

  Atom         1           2           3           4
 IAtWgt=           1          16          14          16
 AtmWgt=   1.0078250  15.9949146  14.0030740  15.9949146
 NucSpn=           1           0           2           0
 AtZEff=  -0.0000000  -0.0000000  -0.0000000  -0.0000000
 NQMom=    0.0000000   0.0000000   2.0440000   0.0000000
 NMagM=    2.7928460   0.0000000   0.4037610   0.0000000
 AtZNuc=   1.0000000   8.0000000   7.0000000   8.0000000
 Leave Link  101 at Mon Jan 31 11:40:21 2022, MaxMem= 16106127360 cpu:               2.6 elap:               0.1
 (Enter /sw/contrib/gaussian/g16/B01/g16/l202.exe)
                          Input orientation:                          
 ---------------------------------------------------------------------
 Center     Atomic      Atomic             Coordinates (Angstroms)
 Number     Number       Type             X           Y           Z
 ---------------------------------------------------------------------
      1          1           0        0.000000    0.000000    0.000000
      2          8           0        0.000000    0.000000    0.970263
      3          7           0        1.398463    0.000000    1.258033
      4          8           0        1.604447    0.000000    2.416667
 ---------------------------------------------------------------------
                    Distance matrix (angstroms):
                    1          2          3          4
     1  H    0.000000
     2  O    0.970263   0.000000
     3  N    1.881049   1.427764   0.000000
     4  O    2.900781   2.160171   1.176802   0.000000
 Stoichiometry    HNO2
 Framework group  CS[SG(HNO2)]
 Deg. of freedom     5
 Full point group                 CS      NOp   2
 Largest Abelian subgroup         CS      NOp   2
 Largest concise Abelian subgroup C1      NOp   1
                         Standard orientation:                         
 ---------------------------------------------------------------------
 Center     Atomic      Atomic             Coordinates (Angstroms)
 Number     Number       Type             X           Y           Z
 ---------------------------------------------------------------------
      1          1           0        1.762326   -0.143584    0.000000
      2          8           0        0.902169   -0.592515    0.000000
      3          7           0       -0.000000    0.514103   -0.000000
      4          8           0       -1.122460    0.160623   -0.000000
 ---------------------------------------------------------------------
 Rotational constants (GHZ):          94.7758107          12.4315839          10.9900389
 Leave Link  202 at Mon Jan 31 11:40:22 2022, MaxMem= 16106127360 cpu:               2.0 elap:               0.1
 (Enter /sw/contrib/gaussian/g16/B01/g16/l301.exe)
 Standard basis: Aug-CC-pVTZ (5D, 7F)
 Ernie: Thresh=  0.10000D-02 Tol=  0.10000D-05 Strict=F.
 Ernie:  9 primitive shells out of 101 were deleted.
 There are   129 symmetry adapted cartesian basis functions of A'  symmetry.
 There are    61 symmetry adapted cartesian basis functions of A"  symmetry.
 There are   106 symmetry adapted basis functions of A'  symmetry.
 There are    55 symmetry adapted basis functions of A"  symmetry.
   161 basis functions,   243 primitive gaussians,   190 cartesian basis functions
    12 alpha electrons       12 beta electrons
       nuclear repulsion energy        69.4071115070 Hartrees.
 IExCor=    0 DFT=F Ex=HF Corr=None ExCW=0 ScaHFX=  1.000000
 ScaDFX=  1.000000  1.000000  1.000000  1.000000 ScalE2=  1.000000  1.000000
 IRadAn=      5 IRanWt=     -1 IRanGd=            0 ICorTp=0 IEmpDi=  4
 NAtoms=    4 NActive=    4 NUniq=    4 SFac= 1.00D+00 NAtFMM=   60 NAOKFM=F Big=F
 Integral buffers will be    131072 words long.
 Raffenetti 1 integral format.
 Two-electron integral symmetry is turned on.
 Leave Link  301 at Mon Jan 31 11:40:22 2022, MaxMem= 16106127360 cpu:               2.2 elap:               0.1
 (Enter /sw/contrib/gaussian/g16/B01/g16/l302.exe)
 NPDir=0 NMtPBC=     1 NCelOv=     1 NCel=       1 NClECP=     1 NCelD=      1
         NCelK=      1 NCelE2=     1 NClLst=     1 CellRange=     0.0.
 One-electron integrals computed using PRISM.
 One-electron integral symmetry used in STVInt
 NBasis=   161 RedAO= T EigKep=  1.97D-04  NBF=   106    55
 NBsUse=   161 1.00D-06 EigRej= -1.00D+00 NBFU=   106    55
 Leave Link  302 at Mon Jan 31 11:40:22 2022, MaxMem= 16106127360 cpu:               4.9 elap:               0.2
 (Enter /sw/contrib/gaussian/g16/B01/g16/l303.exe)
 DipDrv:  MaxL=1.
 Leave Link  303 at Mon Jan 31 11:40:22 2022, MaxMem= 16106127360 cpu:               0.9 elap:               0.1
 (Enter /sw/contrib/gaussian/g16/B01/g16/l401.exe)
 ExpMin= 2.53D-02 ExpMax= 1.53D+04 ExpMxC= 5.22D+02 IAcc=3 IRadAn=         5 AccDes= 0.00D+00
 Harris functional with IExCor=  205 and IRadAn=       5 diagonalized for initial guess.
 HarFok:  IExCor=  205 AccDes= 0.00D+00 IRadAn=         5 IDoV= 1 UseB2=F ITyADJ=14
 ICtDFT=  3500011 ScaDFX=  1.000000  1.000000  1.000000  1.000000
 FoFCou: FMM=F IPFlag=           0 FMFlag=      100000 FMFlg1=           0
         NFxFlg=           0 DoJE=T BraDBF=F KetDBF=T FulRan=T
         wScrn=  0.000000 ICntrl=       500 IOpCl=  0 I1Cent=   200000004 NGrid=           0
         NMat0=    1 NMatS0=      1 NMatT0=    0 NMatD0=    1 NMtDS0=    0 NMtDT0=    0
 Petite list used in FoFCou.
 Harris En= -204.818311621263    
 JPrj=0 DoOrth=F DoCkMO=F.
 Initial guess orbital symmetries:
       Occupied  (A') (A') (A') (A') (A') (A') (A') (A') (A") (A')
                 (A") (A')
       Virtual   (A") (A') (A') (A') (A') (A") (A') (A') (A') (A")
                 (A') (A") (A') (A') (A") (A') (A') (A') (A') (A')
                 (A") (A') (A") (A') (A') (A') (A") (A') (A") (A')
                 (A") (A') (A') (A") (A") (A') (A') (A') (A") (A')
                 (A') (A') (A") (A') (A") (A') (A') (A") (A') (A')
                 (A") (A') (A") (A') (A') (A") (A') (A") (A') (A")
                 (A') (A') (A") (A') (A') (A') (A") (A') (A") (A")
                 (A') (A') (A') (A") (A') (A") (A') (A') (A") (A")
                 (A') (A') (A') (A") (A') (A') (A") (A") (A') (A')
                 (A') (A') (A") (A') (A') (A") (A') (A") (A') (A")
                 (A") (A') (A') (A') (A') (A") (A') (A") (A') (A")
                 (A') (A') (A") (A') (A') (A") (A') (A") (A') (A')
                 (A') (A') (A") (A') (A") (A") (A') (A') (A") (A')
                 (A") (A") (A') (A") (A') (A") (A') (A") (A") (A')
                 (A') (A') (A') (A') (A') (A') (A') (A') (A')
 The electronic state of the initial guess is 1-A'.
 Leave Link  401 at Mon Jan 31 11:40:22 2022, MaxMem= 16106127360 cpu:               6.6 elap:               0.3
 (Enter /sw/contrib/gaussian/g16/B01/g16/l502.exe)
 Keep R1 ints in memory in symmetry-blocked form, NReq=128070121.
 FoFCou: FMM=F IPFlag=           0 FMFlag=           0 FMFlg1=           0
         NFxFlg=           0 DoJE=F BraDBF=F KetDBF=F FulRan=T
         wScrn=  0.000000 ICntrl=       600 IOpCl=  0 I1Cent=           0 NGrid=           0
         NMat0=    1 NMatS0=  13041 NMatT0=    0 NMatD0=    1 NMtDS0=    0 NMtDT0=    0
 Petite list used in FoFCou.
 Closed shell SCF:
 Using DIIS extrapolation, IDIIS=  1040.
 NGot= 16106127360 LenX= 16063019402 LenY= 16062982861
 Requested convergence on RMS density matrix=1.00D-08 within 128 cycles.
 Requested convergence on MAX density matrix=1.00D-06.
 Requested convergence on             energy=1.00D-06.
 No special actions if energy rises.

 Cycle   1  Pass 1  IDiag  1:
 E= -204.614187792582    
 DIIS: error= 2.87D-02 at cycle   1 NSaved=   1.
 NSaved= 1 IEnMin= 1 EnMin= -204.614187792582     IErMin= 1 ErrMin= 2.87D-02
 ErrMax= 2.87D-02  0.00D+00 EMaxC= 1.00D-01 BMatC= 3.54D-01 BMatP= 3.54D-01
 IDIUse=3 WtCom= 7.13D-01 WtEn= 2.87D-01
 Coeff-Com:  0.100D+01
 Coeff-En:   0.100D+01
 Coeff:      0.100D+01
 Gap=     0.509 Goal=   None    Shift=    0.000
 GapD=    0.509 DampG=2.000 DampE=0.500 DampFc=1.0000 IDamp=-1.
 RMSDP=2.04D-03 MaxDP=1.21D-01              OVMax= 1.01D-01

 Cycle   2  Pass 1  IDiag  1:
 E= -204.678985901520     Delta-E=       -0.064798108938 Rises=F Damp=F
 DIIS: error= 2.08D-02 at cycle   2 NSaved=   2.
 NSaved= 2 IEnMin= 2 EnMin= -204.678985901520     IErMin= 2 ErrMin= 2.08D-02
 ErrMax= 2.08D-02  0.00D+00 EMaxC= 1.00D-01 BMatC= 6.72D-02 BMatP= 3.54D-01
 IDIUse=3 WtCom= 7.92D-01 WtEn= 2.08D-01
 Coeff-Com:  0.232D+00 0.768D+00
 Coeff-En:   0.103D+00 0.897D+00
 Coeff:      0.205D+00 0.795D+00
 Gap=     0.509 Goal=   None    Shift=    0.000
 RMSDP=9.92D-04 MaxDP=3.61D-02 DE=-6.48D-02 OVMax= 8.79D-02

 Cycle   3  Pass 1  IDiag  1:
 E= -204.712478156369     Delta-E=       -0.033492254849 Rises=F Damp=F
 DIIS: error= 7.14D-03 at cycle   3 NSaved=   3.
 NSaved= 3 IEnMin= 3 EnMin= -204.712478156369     IErMin= 3 ErrMin= 7.14D-03
 ErrMax= 7.14D-03  0.00D+00 EMaxC= 1.00D-01 BMatC= 1.54D-02 BMatP= 6.72D-02
 IDIUse=3 WtCom= 9.29D-01 WtEn= 7.14D-02
 Coeff-Com: -0.361D-01 0.305D+00 0.731D+00
 Coeff-En:   0.000D+00 0.874D-01 0.913D+00
 Coeff:     -0.336D-01 0.289D+00 0.744D+00
 Gap=     0.492 Goal=   None    Shift=    0.000
 RMSDP=4.09D-04 MaxDP=2.23D-02 DE=-3.35D-02 OVMax= 2.64D-02

 Cycle   4  Pass 1  IDiag  1:
 E= -204.722679041241     Delta-E=       -0.010200884872 Rises=F Damp=F
 DIIS: error= 1.54D-03 at cycle   4 NSaved=   4.
 NSaved= 4 IEnMin= 4 EnMin= -204.722679041241     IErMin= 4 ErrMin= 1.54D-03
 ErrMax= 1.54D-03  0.00D+00 EMaxC= 1.00D-01 BMatC= 2.39D-04 BMatP= 1.54D-02
 IDIUse=3 WtCom= 9.85D-01 WtEn= 1.54D-02
 Coeff-Com: -0.732D-02 0.225D-01 0.116D+00 0.868D+00
 Coeff-En:   0.000D+00 0.000D+00 0.000D+00 0.100D+01
 Coeff:     -0.721D-02 0.222D-01 0.115D+00 0.870D+00
 Gap=     0.487 Goal=   None    Shift=    0.000
 RMSDP=8.37D-05 MaxDP=1.85D-03 DE=-1.02D-02 OVMax= 8.21D-03

 Cycle   5  Pass 1  IDiag  1:
 E= -204.723044900267     Delta-E=       -0.000365859027 Rises=F Damp=F
 DIIS: error= 1.05D-03 at cycle   5 NSaved=   5.
 NSaved= 5 IEnMin= 5 EnMin= -204.723044900267     IErMin= 5 ErrMin= 1.05D-03
 ErrMax= 1.05D-03  0.00D+00 EMaxC= 1.00D-01 BMatC= 6.26D-05 BMatP= 2.39D-04
 IDIUse=3 WtCom= 9.90D-01 WtEn= 1.05D-02
 Coeff-Com:  0.700D-02-0.725D-01-0.154D+00 0.223D+00 0.997D+00
 Coeff-En:   0.000D+00 0.000D+00 0.000D+00 0.000D+00 0.100D+01
 Coeff:      0.693D-02-0.718D-01-0.153D+00 0.220D+00 0.997D+00
 Gap=     0.488 Goal=   None    Shift=    0.000
 RMSDP=6.75D-05 MaxDP=1.62D-03 DE=-3.66D-04 OVMax= 8.86D-03

 Cycle   6  Pass 1  IDiag  1:
 E= -204.723217120491     Delta-E=       -0.000172220224 Rises=F Damp=F
 DIIS: error= 2.32D-04 at cycle   6 NSaved=   6.
 NSaved= 6 IEnMin= 6 EnMin= -204.723217120491     IErMin= 6 ErrMin= 2.32D-04
 ErrMax= 2.32D-04  0.00D+00 EMaxC= 1.00D-01 BMatC= 1.13D-05 BMatP= 6.26D-05
 IDIUse=3 WtCom= 9.98D-01 WtEn= 2.32D-03
 Coeff-Com:  0.599D-03 0.640D-03-0.303D-02-0.206D+00 0.149D-02 0.121D+01
 Coeff-En:   0.000D+00 0.000D+00 0.000D+00 0.000D+00 0.000D+00 0.100D+01
 Coeff:      0.597D-03 0.639D-03-0.302D-02-0.206D+00 0.148D-02 0.121D+01
 Gap=     0.489 Goal=   None    Shift=    0.000
 RMSDP=3.82D-05 MaxDP=7.15D-04 DE=-1.72D-04 OVMax= 4.03D-03

 Cycle   7  Pass 1  IDiag  1:
 E= -204.723255889401     Delta-E=       -0.000038768910 Rises=F Damp=F
 DIIS: error= 1.16D-04 at cycle   7 NSaved=   7.
 NSaved= 7 IEnMin= 7 EnMin= -204.723255889401     IErMin= 7 ErrMin= 1.16D-04
 ErrMax= 1.16D-04  0.00D+00 EMaxC= 1.00D-01 BMatC= 1.76D-06 BMatP= 1.13D-05
 IDIUse=3 WtCom= 9.99D-01 WtEn= 1.16D-03
 Coeff-Com: -0.123D-02 0.127D-01 0.316D-01-0.501D-01-0.136D+00-0.757D-01
 Coeff-Com:  0.122D+01
 Coeff-En:   0.000D+00 0.000D+00 0.000D+00 0.000D+00 0.000D+00 0.000D+00
 Coeff-En:   0.100D+01
 Coeff:     -0.123D-02 0.127D-01 0.316D-01-0.500D-01-0.136D+00-0.757D-01
 Coeff:      0.122D+01
 Gap=     0.488 Goal=   None    Shift=    0.000
 RMSDP=1.51D-05 MaxDP=3.30D-04 DE=-3.88D-05 OVMax= 1.78D-03

 Cycle   8  Pass 1  IDiag  1:
 E= -204.723261414370     Delta-E=       -0.000005524969 Rises=F Damp=F
 DIIS: error= 4.47D-05 at cycle   8 NSaved=   8.
 NSaved= 8 IEnMin= 8 EnMin= -204.723261414370     IErMin= 8 ErrMin= 4.47D-05
 ErrMax= 4.47D-05  0.00D+00 EMaxC= 1.00D-01 BMatC= 1.86D-07 BMatP= 1.76D-06
 IDIUse=1 WtCom= 1.00D+00 WtEn= 0.00D+00
 Coeff-Com: -0.385D-04-0.770D-03-0.615D-03 0.203D-01 0.243D-01-0.150D+00
 Coeff-Com: -0.134D+00 0.124D+01
 Coeff:     -0.385D-04-0.770D-03-0.615D-03 0.203D-01 0.243D-01-0.150D+00
 Coeff:     -0.134D+00 0.124D+01
 Gap=     0.488 Goal=   None    Shift=    0.000
 RMSDP=4.93D-06 MaxDP=9.84D-05 DE=-5.52D-06 OVMax= 4.76D-04

 Cycle   9  Pass 1  IDiag  1:
 E= -204.723261955656     Delta-E=       -0.000000541286 Rises=F Damp=F
 DIIS: error= 1.17D-05 at cycle   9 NSaved=   9.
 NSaved= 9 IEnMin= 9 EnMin= -204.723261955656     IErMin= 9 ErrMin= 1.17D-05
 ErrMax= 1.17D-05  0.00D+00 EMaxC= 1.00D-01 BMatC= 1.55D-08 BMatP= 1.86D-07
 IDIUse=1 WtCom= 1.00D+00 WtEn= 0.00D+00
 Coeff-Com:  0.107D-03-0.101D-02-0.242D-02-0.134D-02 0.121D-01 0.383D-01
 Coeff-Com: -0.850D-01-0.285D+00 0.132D+01
 Coeff:      0.107D-03-0.101D-02-0.242D-02-0.134D-02 0.121D-01 0.383D-01
 Coeff:     -0.850D-01-0.285D+00 0.132D+01
 Gap=     0.488 Goal=   None    Shift=    0.000
 RMSDP=1.29D-06 MaxDP=3.54D-05 DE=-5.41D-07 OVMax= 9.71D-05

 Cycle  10  Pass 1  IDiag  1:
 E= -204.723261997737     Delta-E=       -0.000000042081 Rises=F Damp=F
 DIIS: error= 2.80D-06 at cycle  10 NSaved=  10.
 NSaved=10 IEnMin=10 EnMin= -204.723261997737     IErMin=10 ErrMin= 2.80D-06
 ErrMax= 2.80D-06  0.00D+00 EMaxC= 1.00D-01 BMatC= 1.29D-09 BMatP= 1.55D-08
 IDIUse=1 WtCom= 1.00D+00 WtEn= 0.00D+00
 Coeff-Com: -0.261D-04 0.319D-03 0.795D-03-0.206D-02-0.443D-02 0.194D-02
 Coeff-Com:  0.377D-01-0.511D-01-0.281D+00 0.130D+01
 Coeff:     -0.261D-04 0.319D-03 0.795D-03-0.206D-02-0.443D-02 0.194D-02
 Coeff:      0.377D-01-0.511D-01-0.281D+00 0.130D+01
 Gap=     0.488 Goal=   None    Shift=    0.000
 RMSDP=3.40D-07 MaxDP=1.15D-05 DE=-4.21D-08 OVMax= 3.05D-05

 Cycle  11  Pass 1  IDiag  1:
 E= -204.723262001220     Delta-E=       -0.000000003483 Rises=F Damp=F
 DIIS: error= 1.14D-06 at cycle  11 NSaved=  11.
 NSaved=11 IEnMin=11 EnMin= -204.723262001220     IErMin=11 ErrMin= 1.14D-06
 ErrMax= 1.14D-06  0.00D+00 EMaxC= 1.00D-01 BMatC= 1.21D-10 BMatP= 1.29D-09
 IDIUse=1 WtCom= 1.00D+00 WtEn= 0.00D+00
 Coeff-Com: -0.602D-06-0.175D-04-0.429D-04 0.545D-03 0.105D-02-0.460D-02
 Coeff-Com: -0.552D-02 0.451D-01-0.198D-01-0.480D+00 0.146D+01
 Coeff:     -0.602D-06-0.175D-04-0.429D-04 0.545D-03 0.105D-02-0.460D-02
 Coeff:     -0.552D-02 0.451D-01-0.198D-01-0.480D+00 0.146D+01
 Gap=     0.488 Goal=   None    Shift=    0.000
 RMSDP=1.13D-07 MaxDP=4.32D-06 DE=-3.48D-09 OVMax= 1.10D-05

 Cycle  12  Pass 1  IDiag  1:
 E= -204.723262001598     Delta-E=       -0.000000000378 Rises=F Damp=F
 DIIS: error= 1.88D-07 at cycle  12 NSaved=  12.
 NSaved=12 IEnMin=12 EnMin= -204.723262001598     IErMin=12 ErrMin= 1.88D-07
 ErrMax= 1.88D-07  0.00D+00 EMaxC= 1.00D-01 BMatC= 6.92D-12 BMatP= 1.21D-10
 IDIUse=1 WtCom= 1.00D+00 WtEn= 0.00D+00
 Coeff-Com:  0.240D-05-0.233D-04-0.556D-04-0.593D-04 0.148D-03 0.159D-02
 Coeff-Com: -0.199D-02-0.123D-01 0.384D-01 0.397D-01-0.476D+00 0.141D+01
 Coeff:      0.240D-05-0.233D-04-0.556D-04-0.593D-04 0.148D-03 0.159D-02
 Coeff:     -0.199D-02-0.123D-01 0.384D-01 0.397D-01-0.476D+00 0.141D+01
 Gap=     0.488 Goal=   None    Shift=    0.000
 RMSDP=3.18D-08 MaxDP=7.27D-07 DE=-3.78D-10 OVMax= 2.61D-06

 Cycle  13  Pass 1  IDiag  1:
 E= -204.723262001620     Delta-E=       -0.000000000021 Rises=F Damp=F
 DIIS: error= 4.51D-08 at cycle  13 NSaved=  13.
 NSaved=13 IEnMin=13 EnMin= -204.723262001620     IErMin=13 ErrMin= 4.51D-08
 ErrMax= 4.51D-08  0.00D+00 EMaxC= 1.00D-01 BMatC= 2.15D-13 BMatP= 6.92D-12
 IDIUse=1 WtCom= 1.00D+00 WtEn= 0.00D+00
 Coeff-Com: -0.447D-06 0.578D-05 0.139D-04-0.218D-04-0.885D-04-0.599D-04
 Coeff-Com:  0.754D-03-0.244D-03-0.531D-02 0.124D-01 0.264D-01-0.299D+00
 Coeff-Com:  0.127D+01
 Coeff:     -0.447D-06 0.578D-05 0.139D-04-0.218D-04-0.885D-04-0.599D-04
 Coeff:      0.754D-03-0.244D-03-0.531D-02 0.124D-01 0.264D-01-0.299D+00
 Coeff:      0.127D+01
 Gap=     0.488 Goal=   None    Shift=    0.000
 RMSDP=5.54D-09 MaxDP=9.42D-08 DE=-2.14D-11 OVMax= 4.25D-07

 SCF Done:  E(RHF) =  -204.723262002     A.U. after   13 cycles
            NFock= 13  Conv=0.55D-08     -V/T= 2.0024
 KE= 2.042335210392D+02 PE=-6.227463516413D+02 EE= 1.443824570935D+02
 Leave Link  502 at Mon Jan 31 11:40:24 2022, MaxMem= 16106127360 cpu:              33.8 elap:               1.7
 (Enter /sw/contrib/gaussian/g16/B01/g16/l801.exe)
 ExpMin= 2.53D-02 ExpMax= 1.53D+04 ExpMxC= 5.22D+02 IAcc=3 IRadAn=         5 AccDes= 0.00D+00
 HarFok:  IExCor=  205 AccDes= 0.00D+00 IRadAn=         5 IDoV=-2 UseB2=F ITyADJ=14
 ICtDFT= 12500011 ScaDFX=  1.000000  1.000000  1.000000  1.000000
 Largest valence mixing into a core orbital is  2.06D-04
 Largest core mixing into a valence orbital is  3.29D-05
 Range of M.O.s used for correlation:     4   161
 NBasis=   161 NAE=    12 NBE=    12 NFC=     3 NFV=     0
 NROrb=    158 NOA=     9 NOB=     9 NVA=   149 NVB=   149

 **** Warning!!: The largest alpha MO coefficient is  0.19578122D+02

 Leave Link  801 at Mon Jan 31 11:40:24 2022, MaxMem= 16106127360 cpu:               2.1 elap:               0.1
 (Enter /sw/contrib/gaussian/g16/B01/g16/l906.exe)
 Frozen-core derivative calculation, NFC=   3 NFV=   0.
 FulOut=F Deriv=T AODrv=F NAtomX=     4
   MMem=         161  MDisk=           9 MDiskD=           9
  W3Min=      367080 MinDsk=      792425 NBas6D=         190
 NBas2D=       18625    NTT=       18145    LW2=     3500000
    MDV= 16105788757 MDiskM=      423783 NBas2p=       18621
 Fully in-core method, ICMem=   359292905.
 IMap=   1   2   3   4   5   6   7   8   9  10  11  12
 JobTyp=1 Pass  1 fully in-core, NPsUse= 28.
 Compute canonical integrals.
 FoFCou: FMM=F IPFlag=           0 FMFlag=           0 FMFlg1=           0
         NFxFlg=           0 DoJE=F BraDBF=F KetDBF=F FulRan=T
         wScrn=  0.000000 ICntrl=       600 IOpCl=  1 I1Cent=           0 NGrid=           0
         NMat0=    1 NMatS0=  18625 NMatT0=    0 NMatD0=    1 NMtDS0=    0 NMtDT0=    0
 Symmetry not used in FoFCou.
 Spin components of T(2) and E(2):
     alpha-alpha T2 =       0.2533605592D-01 E2=     -0.9067235361D-01
     alpha-beta  T2 =       0.1375217918D+00 E2=     -0.5166678849D+00
     beta-beta   T2 =       0.2533605592D-01 E2=     -0.9067235361D-01
 The integrals were generated   1 times.
 ANorm=    0.1090043074D+01
 E2 =    -0.6980125922D+00 EUMP2 =    -0.20542127459379D+03
 Leave Link  906 at Mon Jan 31 11:40:27 2022, MaxMem= 16106127360 cpu:              83.9 elap:               3.0
 (Enter /sw/contrib/gaussian/g16/B01/g16/l1002.exe)
 Minotr:  Closed shell wavefunction.
          Computing MP2/KS-MP2 derivatives.
          Using Z-Vector for PSCF gradient.
          Skipping F1 and S1 gradient terms here.
          Frozen-core window.
          Direct CPHF calculation.
          Differentiating once with respect to electric field.
                with respect to dipole field.
          Electric field/nuclear overlap derivatives assumed to be zero.
          Using symmetry in CPHF.
          Requested convergence is 1.0D-10 RMS, and 1.0D-09 maximum.
          NewPWx=F KeepS1=T KeepF1=T KeepIn=T MapXYZ=F SortEE=F KeepMc=T.
 Keep R1 ints in memory in symmetry-blocked form, NReq=128071053.
 FoFCou: FMM=F IPFlag=           0 FMFlag=           0 FMFlg1=           0
         NFxFlg=           0 DoJE=F BraDBF=F KetDBF=F FulRan=T
         wScrn=  0.000000 ICntrl=       600 IOpCl=  0 I1Cent=           0 NGrid=           0
         NMat0=    1 NMatS0=  13041 NMatT0=    0 NMatD0=    1 NMtDS0=    0 NMtDT0=    0
 Petite list used in FoFCou.
          MDV=   16106127360 using IRadAn=       5.
          Solving linear equations separately, MaxMat=       0.
          There are     1 degrees of freedom in the 1st order CPHF.  IDoFFX=0 NUNeed=     1.
 LinEq1:  Iter=  0 NonCon=     1 RMS=6.65D-03 Max=1.33D-01 NDo=     1
 AX will form     1 AO Fock derivatives at one time.
 LinEq1:  Iter=  1 NonCon=     1 RMS=2.27D-03 Max=4.09D-02 NDo=     1
 LinEq1:  Iter=  2 NonCon=     1 RMS=9.22D-04 Max=1.20D-02 NDo=     1
 LinEq1:  Iter=  3 NonCon=     1 RMS=4.43D-04 Max=8.69D-03 NDo=     1
 LinEq1:  Iter=  4 NonCon=     1 RMS=1.38D-04 Max=1.54D-03 NDo=     1
 LinEq1:  Iter=  5 NonCon=     1 RMS=6.21D-05 Max=1.00D-03 NDo=     1
 LinEq1:  Iter=  6 NonCon=     1 RMS=2.34D-05 Max=2.70D-04 NDo=     1
 LinEq1:  Iter=  7 NonCon=     1 RMS=5.91D-06 Max=5.96D-05 NDo=     1
 LinEq1:  Iter=  8 NonCon=     1 RMS=1.44D-06 Max=1.68D-05 NDo=     1
 LinEq1:  Iter=  9 NonCon=     1 RMS=2.67D-07 Max=2.07D-06 NDo=     1
 LinEq1:  Iter= 10 NonCon=     1 RMS=4.91D-08 Max=3.97D-07 NDo=     1
 LinEq1:  Iter= 11 NonCon=     1 RMS=8.04D-09 Max=8.06D-08 NDo=     1
 LinEq1:  Iter= 12 NonCon=     1 RMS=1.08D-09 Max=7.38D-09 NDo=     1
 LinEq1:  Iter= 13 NonCon=     1 RMS=2.23D-10 Max=2.33D-09 NDo=     1
 LinEq1:  Iter= 14 NonCon=     0 RMS=4.27D-11 Max=3.93D-10 NDo=     1
 Linear equations converged to 1.000D-10 1.000D-09 after    14 iterations.
 End of Minotr F.D. properties file   721 does not exist.
 End of Minotr F.D. properties file   722 does not exist.
 End of Minotr F.D. properties file   788 does not exist.
 Leave Link 1002 at Mon Jan 31 11:40:29 2022, MaxMem= 16106127360 cpu:              33.6 elap:               1.8
 (Enter /sw/contrib/gaussian/g16/B01/g16/l601.exe)
 Copying SCF densities to generalized density rwf, IOpCl= 0 IROHF=0.

 **********************************************************************

            Population analysis using the MP2 Density.

 **********************************************************************

 Orbital symmetries:
       Occupied  (A') (A') (A') (A') (A') (A') (A') (A') (A") (A')
                 (A") (A')
       Virtual   (A') (A") (A') (A') (A") (A') (A') (A') (A") (A')
                 (A") (A') (A') (A") (A') (A') (A') (A') (A') (A")
                 (A') (A') (A") (A') (A') (A') (A") (A") (A') (A')
                 (A') (A") (A") (A') (A") (A') (A') (A") (A') (A')
                 (A') (A') (A') (A") (A") (A') (A') (A") (A') (A')
                 (A") (A') (A") (A') (A') (A") (A') (A") (A') (A")
                 (A') (A') (A") (A') (A') (A') (A") (A') (A") (A")
                 (A') (A') (A') (A") (A') (A") (A') (A') (A") (A")
                 (A') (A') (A') (A") (A') (A") (A') (A") (A') (A')
                 (A') (A') (A') (A") (A') (A") (A') (A") (A') (A")
                 (A') (A") (A') (A') (A') (A") (A') (A") (A") (A')
                 (A') (A") (A') (A') (A') (A") (A') (A") (A') (A')
                 (A') (A') (A") (A') (A") (A") (A') (A') (A") (A')
                 (A") (A") (A') (A") (A') (A") (A') (A") (A") (A')
                 (A') (A') (A') (A') (A') (A') (A') (A') (A')
 The electronic state is 1-A'.
 Alpha  occ. eigenvalues --  -20.66584 -20.64302 -15.79857  -1.60210  -1.40382
 Alpha  occ. eigenvalues --   -0.94868  -0.78378  -0.73037  -0.68143  -0.62658
 Alpha  occ. eigenvalues --   -0.52925  -0.46050
 Alpha virt. eigenvalues --    0.02794   0.08081   0.09387   0.09764   0.12892
 Alpha virt. eigenvalues --    0.14352   0.15687   0.17227   0.18711   0.19668
 Alpha virt. eigenvalues --    0.20549   0.23327   0.25745   0.29596   0.30775
 Alpha virt. eigenvalues --    0.32993   0.36576   0.38229   0.42386   0.52503
 Alpha virt. eigenvalues --    0.52699   0.54841   0.57431   0.61141   0.63164
 Alpha virt. eigenvalues --    0.64671   0.68004   0.71501   0.71790   0.74765
 Alpha virt. eigenvalues --    0.77440   0.78144   0.81069   0.81160   0.86107
 Alpha virt. eigenvalues --    0.87956   0.92451   0.93846   0.94549   0.99475
 Alpha virt. eigenvalues --    1.04977   1.06241   1.08055   1.10390   1.16237
 Alpha virt. eigenvalues --    1.19765   1.25226   1.27058   1.36099   1.42831
 Alpha virt. eigenvalues --    1.48755   1.52431   1.52457   1.54290   1.55305
 Alpha virt. eigenvalues --    1.60936   1.65760   1.72768   1.75933   1.82107
 Alpha virt. eigenvalues --    1.85655   1.95931   1.97827   1.99815   2.07709
 Alpha virt. eigenvalues --    2.13243   2.13483   2.19005   2.26817   2.30600
 Alpha virt. eigenvalues --    2.32488   2.38026   2.45066   2.47324   2.49711
 Alpha virt. eigenvalues --    2.50401   2.51858   2.54495   2.56659   2.60573
 Alpha virt. eigenvalues --    2.60733   2.65649   2.77605   2.78098   2.84871
 Alpha virt. eigenvalues --    2.93771   2.94947   3.11785   3.14359   3.18382
 Alpha virt. eigenvalues --    3.24416   3.46086   3.83181   3.85438   4.02529
 Alpha virt. eigenvalues --    4.17084   4.18384   4.21378   4.36011   4.36920
 Alpha virt. eigenvalues --    4.58627   4.63543   4.74844   4.81477   4.87156
 Alpha virt. eigenvalues --    4.88730   4.98138   5.00138   5.07469   5.08902
 Alpha virt. eigenvalues --    5.17501   5.24218   5.25378   5.33550   5.36030
 Alpha virt. eigenvalues --    5.36839   5.57830   5.66710   5.79219   5.98625
 Alpha virt. eigenvalues --    6.11854   6.43462   6.50461   6.50738   6.67206
 Alpha virt. eigenvalues --    6.71271   6.74642   6.84103   6.92075   7.06900
 Alpha virt. eigenvalues --    7.11779   7.18042   7.23495   7.25698   7.26075
 Alpha virt. eigenvalues --    7.33211   7.38366   7.43187   7.47897   7.60639
 Alpha virt. eigenvalues --    7.65005   7.68761   7.79482   7.98094   8.07105
 Alpha virt. eigenvalues --    8.42258  14.17663  15.16343  15.94728
          Condensed to atoms (all electrons):
               1          2          3          4
     1  H    0.585119   0.173778  -0.045176   0.012483
     2  O    0.173778   8.290845  -0.140342  -0.052888
     3  N   -0.045176  -0.140342   7.050825  -0.044323
     4  O    0.012483  -0.052888  -0.044323   8.266147
 Mulliken charges:
               1
     1  H    0.273796
     2  O   -0.271393
     3  N    0.179016
     4  O   -0.181419
 Sum of Mulliken charges =  -0.00000
 Mulliken charges with hydrogens summed into heavy atoms:
               1
     2  O    0.002403
     3  N    0.179016
     4  O   -0.181419
 Electronic spatial extent (au):  <R**2>=            124.0779
 Charge=             -0.0000 electrons
 Dipole moment (field-independent basis, Debye):
    X=              1.7522    Y=              0.6465    Z=              0.0000  Tot=              1.8676
 Quadrupole moment (field-independent basis, Debye-Ang):
   XX=            -13.6275   YY=            -18.7257   ZZ=            -16.4629
   XY=              0.5861   XZ=             -0.0000   YZ=              0.0000
 Traceless Quadrupole moment (field-independent basis, Debye-Ang):
   XX=              2.6445   YY=             -2.4536   ZZ=             -0.1909
   XY=              0.5861   XZ=             -0.0000   YZ=              0.0000
 Octapole moment (field-independent basis, Debye-Ang**2):
  XXX=             10.2104  YYY=             -0.9887  ZZZ=             -0.0000  XYY=             -0.9908
  XXY=             -0.3085  XXZ=              0.0000  XZZ=             -1.0072  YZZ=              0.2135
  YYZ=             -0.0000  XYZ=              0.0000
 Hexadecapole moment (field-independent basis, Debye-Ang**3):
 XXXX=            -71.9424 YYYY=            -39.5123 ZZZZ=            -13.9425 XXXY=             12.2591
 XXXZ=             -0.0000 YYYX=             12.1140 YYYZ=              0.0000 ZZZX=             -0.0000
 ZZZY=              0.0000 XXYY=            -22.3409 XXZZ=            -17.5683 YYZZ=             -8.7446
 XXYZ=              0.0000 YYXZ=             -0.0000 ZZXY=              4.2611
 N-N= 6.940711150704D+01 E-N=-6.233476659792D+02  KE= 2.052324441011D+02
 Symmetry A'   KE= 1.964088779828D+02
 Symmetry A"   KE= 8.823566118272D+00
 No NMR shielding tensors so no spin-rotation constants.
 Leave Link  601 at Mon Jan 31 11:40:29 2022, MaxMem= 16106127360 cpu:               4.3 elap:               0.2
 (Enter /sw/contrib/gaussian/g16/B01/g16/l9999.exe)
 1\1\GINC-N2207\SP\RMP2-FC\Aug-CC-pVTZ\H1N1O2\CGAVINH\31-Jan-2022\0\\#p
  SP mp2/aug-cc-pvtz density=current\\title\\0,1\H\O,1,0.97026274\N,2,1
 .42776435,1,101.62778541\O,3,1.17680217,2,111.70859147,1,180.,0\\Versi
 on=ES64L-G16RevB.01\State=1-A'\HF=-204.723262\MP2=-205.4212746\RMSD=5.
 537e-09\Dipole=-0.0934924,0.,-0.7288179\Quadrupole=-1.3702649,-0.14192
 48,1.5121898,0.,1.3055563,0.\PG=CS [SG(H1N1O2)]\\@


     "IF I COULD JUST GET IT ON PAPER"
 LIFE AND INK, THEY RUN OUT AT THE SAME TIME,
 OR SO SAID MY OLD FRIEND THE SQUID.
     -- JIMMY BUFFETT, 1981
 Job cpu time:       0 days  0 hours  3 minutes  0.9 seconds.
 Elapsed time:       0 days  0 hours  0 minutes  7.8 seconds.
 File lengths (MBytes):  RWF=     16 Int=      0 D2E=      0 Chk=      8 Scr=      1
 Normal termination of Gaussian 16 at Mon Jan 31 11:40:29 2022.
