 Entering Gaussian System, Link 0=g16
 Input=hono_a2_p_5.gjf
 Output=hono_a2_p_5.log
 Initial command:
 /sw/contrib/gaussian/g16/B01/g16/l1.exe "/scr/Gau-25971.inp" -scrdir="/scr/"
 Entering Link 1 = /sw/contrib/gaussian/g16/B01/g16/l1.exe PID=     25972.
  
 Copyright (c) 1988-2017, Gaussian, Inc.  All Rights Reserved.
  
 This is part of the Gaussian(R) 16 program.  It is based on
 the Gaussian(R) 09 system (copyright 2009, Gaussian, Inc.),
 the Gaussian(R) 03 system (copyright 2003, Gaussian, Inc.),
 the Gaussian(R) 98 system (copyright 1998, Gaussian, Inc.),
 the Gaussian(R) 94 system (copyright 1995, Gaussian, Inc.),
 the Gaussian 92(TM) system (copyright 1992, Gaussian, Inc.),
 the Gaussian 90(TM) system (copyright 1990, Gaussian, Inc.),
 the Gaussian 88(TM) system (copyright 1988, Gaussian, Inc.),
 the Gaussian 86(TM) system (copyright 1986, Carnegie Mellon
 University), and the Gaussian 82(TM) system (copyright 1983,
 Carnegie Mellon University). Gaussian is a federally registered
 trademark of Gaussian, Inc.
  
 This software contains proprietary and confidential information,
 including trade secrets, belonging to Gaussian, Inc.
  
 This software is provided under written license and may be
 used, copied, transmitted, or stored only in accord with that
 written license.
  
 The following legend is applicable only to US Government
 contracts under FAR:
  
                    RESTRICTED RIGHTS LEGEND
  
 Use, reproduction and disclosure by the US Government is
 subject to restrictions as set forth in subparagraphs (a)
 and (c) of the Commercial Computer Software - Restricted
 Rights clause in FAR 52.227-19.
  
 Gaussian, Inc.
 340 Quinnipiac St., Bldg. 40, Wallingford CT 06492
  
  
 ---------------------------------------------------------------
 Warning -- This program may not be used in any manner that
 competes with the business of Gaussian, Inc. or will provide
 assistance to any competitor of Gaussian, Inc.  The licensee
 of this program is prohibited from giving any competitor of
 Gaussian, Inc. access to this program.  By using this program,
 the user acknowledges that Gaussian, Inc. is engaged in the
 business of creating and licensing software in the field of
 computational chemistry and represents and warrants to the
 licensee that it is not a competitor of Gaussian, Inc. and that
 it will not use this program in any manner prohibited above.
 ---------------------------------------------------------------
  

 Cite this work as:
 Gaussian 16, Revision B.01,
 M. J. Frisch, G. W. Trucks, H. B. Schlegel, G. E. Scuseria, 
 M. A. Robb, J. R. Cheeseman, G. Scalmani, V. Barone, 
 G. A. Petersson, H. Nakatsuji, X. Li, M. Caricato, A. V. Marenich, 
 J. Bloino, B. G. Janesko, R. Gomperts, B. Mennucci, H. P. Hratchian, 
 J. V. Ortiz, A. F. Izmaylov, J. L. Sonnenberg, D. Williams-Young, 
 F. Ding, F. Lipparini, F. Egidi, J. Goings, B. Peng, A. Petrone, 
 T. Henderson, D. Ranasinghe, V. G. Zakrzewski, J. Gao, N. Rega, 
 G. Zheng, W. Liang, M. Hada, M. Ehara, K. Toyota, R. Fukuda, 
 J. Hasegawa, M. Ishida, T. Nakajima, Y. Honda, O. Kitao, H. Nakai, 
 T. Vreven, K. Throssell, J. A. Montgomery, Jr., J. E. Peralta, 
 F. Ogliaro, M. J. Bearpark, J. J. Heyd, E. N. Brothers, K. N. Kudin, 
 V. N. Staroverov, T. A. Keith, R. Kobayashi, J. Normand, 
 K. Raghavachari, A. P. Rendell, J. C. Burant, S. S. Iyengar, 
 J. Tomasi, M. Cossi, J. M. Millam, M. Klene, C. Adamo, R. Cammi, 
 J. W. Ochterski, R. L. Martin, K. Morokuma, O. Farkas, 
 J. B. Foresman, and D. J. Fox, Gaussian, Inc., Wallingford CT, 2016.
 
 ******************************************
 Gaussian 16:  ES64L-G16RevB.01 20-Dec-2017
                30-Jan-2022 
 ******************************************
 %nproc=28
 Will use up to   28 processors via shared memory.
 %mem=120GB
 %chk=/gscratch/ilahie/mccoygrp/coire_hoono/hono/hono_a2_p_5.chk
 -------------------------------------
 #p SP mp2/aug-cc-pvtz density=current
 -------------------------------------
 1/30=1,38=1,172=1/1;
 2/12=2,17=6,18=5,40=1/2;
 3/5=16,6=1,7=10,11=9,25=1,30=1,71=1/1,2,3;
 4//1;
 5/5=2,38=5/2;
 8/6=4,10=1/1;
 9/15=1,16=-3/6;
 10/5=1,13=10/2;
 6/7=2,8=2,9=2,10=2,22=-1/1;
 99/5=1,9=1/99;
 Leave Link    1 at Sun Jan 30 15:51:33 2022, MaxMem= 16106127360 cpu:               1.7 elap:               0.1
 (Enter /sw/contrib/gaussian/g16/B01/g16/l101.exe)
 -----
 title
 -----
 Symbolic Z-matrix:
 Charge =  0 Multiplicity = 1
 H
 O                    1    r1
 N                    2    r2       1    a1
 O                    3    r3       2    a2       1    d1       0
       Variables:
  r1                    0.97026                  
  r2                    1.42776                  
  r3                    1.1768                   
  a1                  101.62779                  
  a2                  111.20859                  
  d1                  180.                       
 
 ITRead=  0  0  0  0
 MicOpt= -1 -1 -1 -1
 NAtoms=      4 NQM=        4 NQMF=       0 NMMI=      0 NMMIF=      0
                NMic=       0 NMicF=      0.
                    Isotopes and Nuclear Properties:
 (Nuclear quadrupole moments (NQMom) in fm**2, nuclear magnetic moments (NMagM)
  in nuclear magnetons)

  Atom         1           2           3           4
 IAtWgt=           1          16          14          16
 AtmWgt=   1.0078250  15.9949146  14.0030740  15.9949146
 NucSpn=           1           0           2           0
 AtZEff=  -0.0000000  -0.0000000  -0.0000000  -0.0000000
 NQMom=    0.0000000   0.0000000   2.0440000   0.0000000
 NMagM=    2.7928460   0.0000000   0.4037610   0.0000000
 AtZNuc=   1.0000000   8.0000000   7.0000000   8.0000000
 Leave Link  101 at Sun Jan 30 15:51:33 2022, MaxMem= 16106127360 cpu:               3.6 elap:               0.2
 (Enter /sw/contrib/gaussian/g16/B01/g16/l202.exe)
                          Input orientation:                          
 ---------------------------------------------------------------------
 Center     Atomic      Atomic             Coordinates (Angstroms)
 Number     Number       Type             X           Y           Z
 ---------------------------------------------------------------------
      1          1           0        0.000000    0.000000    0.000000
      2          8           0        0.000000    0.000000    0.970263
      3          7           0        1.398463    0.000000    1.258033
      4          8           0        1.594328    0.000000    2.418421
 ---------------------------------------------------------------------
                    Distance matrix (angstroms):
                    1          2          3          4
     1  H    0.000000
     2  O    0.970263   0.000000
     3  N    1.881049   1.427764   0.000000
     4  O    2.896660   2.153844   1.176802   0.000000
 Stoichiometry    HNO2
 Framework group  CS[SG(HNO2)]
 Deg. of freedom     5
 Full point group                 CS      NOp   2
 Largest Abelian subgroup         CS      NOp   2
 Largest concise Abelian subgroup C1      NOp   1
                         Standard orientation:                         
 ---------------------------------------------------------------------
 Center     Atomic      Atomic             Coordinates (Angstroms)
 Number     Number       Type             X           Y           Z
 ---------------------------------------------------------------------
      1          1           0        1.760998   -0.143872   -0.000000
      2          8           0        0.899937   -0.591069   -0.000000
      3          7           0       -0.000000    0.517364   -0.000000
      4          8           0       -1.120062    0.156359    0.000000
 ---------------------------------------------------------------------
 Rotational constants (GHZ):          93.7010563          12.4985809          11.0276293
 Leave Link  202 at Sun Jan 30 15:51:33 2022, MaxMem= 16106127360 cpu:               0.3 elap:               0.0
 (Enter /sw/contrib/gaussian/g16/B01/g16/l301.exe)
 Standard basis: Aug-CC-pVTZ (5D, 7F)
 Ernie: Thresh=  0.10000D-02 Tol=  0.10000D-05 Strict=F.
 Ernie:  9 primitive shells out of 101 were deleted.
 There are   129 symmetry adapted cartesian basis functions of A'  symmetry.
 There are    61 symmetry adapted cartesian basis functions of A"  symmetry.
 There are   106 symmetry adapted basis functions of A'  symmetry.
 There are    55 symmetry adapted basis functions of A"  symmetry.
   161 basis functions,   243 primitive gaussians,   190 cartesian basis functions
    12 alpha electrons       12 beta electrons
       nuclear repulsion energy        69.4552381430 Hartrees.
 IExCor=    0 DFT=F Ex=HF Corr=None ExCW=0 ScaHFX=  1.000000
 ScaDFX=  1.000000  1.000000  1.000000  1.000000 ScalE2=  1.000000  1.000000
 IRadAn=      5 IRanWt=     -1 IRanGd=            0 ICorTp=0 IEmpDi=  4
 NAtoms=    4 NActive=    4 NUniq=    4 SFac= 1.00D+00 NAtFMM=   60 NAOKFM=F Big=F
 Integral buffers will be    131072 words long.
 Raffenetti 1 integral format.
 Two-electron integral symmetry is turned on.
 Leave Link  301 at Sun Jan 30 15:51:33 2022, MaxMem= 16106127360 cpu:               1.7 elap:               0.1
 (Enter /sw/contrib/gaussian/g16/B01/g16/l302.exe)
 NPDir=0 NMtPBC=     1 NCelOv=     1 NCel=       1 NClECP=     1 NCelD=      1
         NCelK=      1 NCelE2=     1 NClLst=     1 CellRange=     0.0.
 One-electron integrals computed using PRISM.
 One-electron integral symmetry used in STVInt
 NBasis=   161 RedAO= T EigKep=  1.97D-04  NBF=   106    55
 NBsUse=   161 1.00D-06 EigRej= -1.00D+00 NBFU=   106    55
 Leave Link  302 at Sun Jan 30 15:51:34 2022, MaxMem= 16106127360 cpu:               7.1 elap:               0.3
 (Enter /sw/contrib/gaussian/g16/B01/g16/l303.exe)
 DipDrv:  MaxL=1.
 Leave Link  303 at Sun Jan 30 15:51:34 2022, MaxMem= 16106127360 cpu:               2.6 elap:               0.1
 (Enter /sw/contrib/gaussian/g16/B01/g16/l401.exe)
 ExpMin= 2.53D-02 ExpMax= 1.53D+04 ExpMxC= 5.22D+02 IAcc=3 IRadAn=         5 AccDes= 0.00D+00
 Harris functional with IExCor=  205 and IRadAn=       5 diagonalized for initial guess.
 HarFok:  IExCor=  205 AccDes= 0.00D+00 IRadAn=         5 IDoV= 1 UseB2=F ITyADJ=14
 ICtDFT=  3500011 ScaDFX=  1.000000  1.000000  1.000000  1.000000
 FoFCou: FMM=F IPFlag=           0 FMFlag=      100000 FMFlg1=           0
         NFxFlg=           0 DoJE=T BraDBF=F KetDBF=T FulRan=T
         wScrn=  0.000000 ICntrl=       500 IOpCl=  0 I1Cent=   200000004 NGrid=           0
         NMat0=    1 NMatS0=      1 NMatT0=    0 NMatD0=    1 NMtDS0=    0 NMtDT0=    0
 Petite list used in FoFCou.
 Harris En= -204.818405565115    
 JPrj=0 DoOrth=F DoCkMO=F.
 Initial guess orbital symmetries:
       Occupied  (A') (A') (A') (A') (A') (A') (A') (A') (A") (A')
                 (A") (A')
       Virtual   (A") (A') (A') (A') (A') (A") (A') (A') (A') (A")
                 (A') (A") (A') (A') (A") (A') (A') (A') (A') (A')
                 (A") (A') (A") (A') (A') (A') (A") (A') (A") (A')
                 (A") (A') (A') (A") (A") (A') (A') (A') (A") (A')
                 (A') (A') (A") (A') (A") (A') (A') (A") (A') (A')
                 (A") (A') (A") (A') (A') (A") (A') (A") (A') (A")
                 (A') (A') (A") (A') (A') (A') (A") (A') (A") (A")
                 (A') (A') (A') (A") (A') (A") (A') (A') (A") (A")
                 (A') (A') (A') (A") (A') (A') (A") (A") (A') (A')
                 (A') (A') (A") (A') (A') (A") (A') (A") (A') (A")
                 (A") (A') (A') (A') (A') (A") (A') (A") (A') (A")
                 (A') (A') (A") (A') (A') (A") (A') (A") (A') (A')
                 (A') (A') (A") (A') (A") (A") (A') (A') (A") (A')
                 (A") (A") (A') (A") (A') (A") (A') (A") (A") (A')
                 (A') (A') (A') (A') (A') (A') (A') (A') (A')
 The electronic state of the initial guess is 1-A'.
 Leave Link  401 at Sun Jan 30 15:51:34 2022, MaxMem= 16106127360 cpu:               7.8 elap:               0.3
 (Enter /sw/contrib/gaussian/g16/B01/g16/l502.exe)
 Keep R1 ints in memory in symmetry-blocked form, NReq=128070121.
 FoFCou: FMM=F IPFlag=           0 FMFlag=           0 FMFlg1=           0
         NFxFlg=           0 DoJE=F BraDBF=F KetDBF=F FulRan=T
         wScrn=  0.000000 ICntrl=       600 IOpCl=  0 I1Cent=           0 NGrid=           0
         NMat0=    1 NMatS0=  13041 NMatT0=    0 NMatD0=    1 NMtDS0=    0 NMtDT0=    0
 Petite list used in FoFCou.
 Closed shell SCF:
 Using DIIS extrapolation, IDIIS=  1040.
 NGot= 16106127360 LenX= 16063019402 LenY= 16062982861
 Requested convergence on RMS density matrix=1.00D-08 within 128 cycles.
 Requested convergence on MAX density matrix=1.00D-06.
 Requested convergence on             energy=1.00D-06.
 No special actions if energy rises.

 Cycle   1  Pass 1  IDiag  1:
 E= -204.613945466135    
 DIIS: error= 2.96D-02 at cycle   1 NSaved=   1.
 NSaved= 1 IEnMin= 1 EnMin= -204.613945466135     IErMin= 1 ErrMin= 2.96D-02
 ErrMax= 2.96D-02  0.00D+00 EMaxC= 1.00D-01 BMatC= 3.54D-01 BMatP= 3.54D-01
 IDIUse=3 WtCom= 7.04D-01 WtEn= 2.96D-01
 Coeff-Com:  0.100D+01
 Coeff-En:   0.100D+01
 Coeff:      0.100D+01
 Gap=     0.509 Goal=   None    Shift=    0.000
 GapD=    0.509 DampG=2.000 DampE=0.500 DampFc=1.0000 IDamp=-1.
 RMSDP=2.05D-03 MaxDP=1.22D-01              OVMax= 1.02D-01

 Cycle   2  Pass 1  IDiag  1:
 E= -204.678715847344     Delta-E=       -0.064770381209 Rises=F Damp=F
 DIIS: error= 2.09D-02 at cycle   2 NSaved=   2.
 NSaved= 2 IEnMin= 2 EnMin= -204.678715847344     IErMin= 2 ErrMin= 2.09D-02
 ErrMax= 2.09D-02  0.00D+00 EMaxC= 1.00D-01 BMatC= 6.78D-02 BMatP= 3.54D-01
 IDIUse=3 WtCom= 7.91D-01 WtEn= 2.09D-01
 Coeff-Com:  0.233D+00 0.767D+00
 Coeff-En:   0.107D+00 0.893D+00
 Coeff:      0.207D+00 0.793D+00
 Gap=     0.510 Goal=   None    Shift=    0.000
 RMSDP=9.95D-04 MaxDP=3.62D-02 DE=-6.48D-02 OVMax= 8.80D-02

 Cycle   3  Pass 1  IDiag  1:
 E= -204.712571026514     Delta-E=       -0.033855179170 Rises=F Damp=F
 DIIS: error= 7.22D-03 at cycle   3 NSaved=   3.
 NSaved= 3 IEnMin= 3 EnMin= -204.712571026514     IErMin= 3 ErrMin= 7.22D-03
 ErrMax= 7.22D-03  0.00D+00 EMaxC= 1.00D-01 BMatC= 1.54D-02 BMatP= 6.78D-02
 IDIUse=3 WtCom= 9.28D-01 WtEn= 7.22D-02
 Coeff-Com: -0.362D-01 0.304D+00 0.733D+00
 Coeff-En:   0.000D+00 0.856D-01 0.914D+00
 Coeff:     -0.336D-01 0.288D+00 0.746D+00
 Gap=     0.493 Goal=   None    Shift=    0.000
 RMSDP=4.09D-04 MaxDP=2.24D-02 DE=-3.39D-02 OVMax= 2.65D-02

 Cycle   4  Pass 1  IDiag  1:
 E= -204.722766904473     Delta-E=       -0.010195877959 Rises=F Damp=F
 DIIS: error= 1.54D-03 at cycle   4 NSaved=   4.
 NSaved= 4 IEnMin= 4 EnMin= -204.722766904473     IErMin= 4 ErrMin= 1.54D-03
 ErrMax= 1.54D-03  0.00D+00 EMaxC= 1.00D-01 BMatC= 2.42D-04 BMatP= 1.54D-02
 IDIUse=3 WtCom= 9.85D-01 WtEn= 1.54D-02
 Coeff-Com: -0.738D-02 0.227D-01 0.118D+00 0.867D+00
 Coeff-En:   0.000D+00 0.000D+00 0.000D+00 0.100D+01
 Coeff:     -0.727D-02 0.224D-01 0.116D+00 0.869D+00
 Gap=     0.488 Goal=   None    Shift=    0.000
 RMSDP=8.36D-05 MaxDP=1.85D-03 DE=-1.02D-02 OVMax= 8.19D-03

 Cycle   5  Pass 1  IDiag  1:
 E= -204.723133760814     Delta-E=       -0.000366856342 Rises=F Damp=F
 DIIS: error= 1.05D-03 at cycle   5 NSaved=   5.
 NSaved= 5 IEnMin= 5 EnMin= -204.723133760814     IErMin= 5 ErrMin= 1.05D-03
 ErrMax= 1.05D-03  0.00D+00 EMaxC= 1.00D-01 BMatC= 6.25D-05 BMatP= 2.42D-04
 IDIUse=3 WtCom= 9.90D-01 WtEn= 1.05D-02
 Coeff-Com:  0.701D-02-0.723D-01-0.154D+00 0.221D+00 0.999D+00
 Coeff-En:   0.000D+00 0.000D+00 0.000D+00 0.000D+00 0.100D+01
 Coeff:      0.694D-02-0.716D-01-0.153D+00 0.219D+00 0.999D+00
 Gap=     0.488 Goal=   None    Shift=    0.000
 RMSDP=6.75D-05 MaxDP=1.63D-03 DE=-3.67D-04 OVMax= 8.88D-03

 Cycle   6  Pass 1  IDiag  1:
 E= -204.723306295632     Delta-E=       -0.000172534818 Rises=F Damp=F
 DIIS: error= 2.31D-04 at cycle   6 NSaved=   6.
 NSaved= 6 IEnMin= 6 EnMin= -204.723306295632     IErMin= 6 ErrMin= 2.31D-04
 ErrMax= 2.31D-04  0.00D+00 EMaxC= 1.00D-01 BMatC= 1.13D-05 BMatP= 6.25D-05
 IDIUse=3 WtCom= 9.98D-01 WtEn= 2.31D-03
 Coeff-Com:  0.584D-03 0.800D-03-0.278D-02-0.206D+00-0.676D-03 0.121D+01
 Coeff-En:   0.000D+00 0.000D+00 0.000D+00 0.000D+00 0.000D+00 0.100D+01
 Coeff:      0.583D-03 0.799D-03-0.278D-02-0.206D+00-0.675D-03 0.121D+01
 Gap=     0.489 Goal=   None    Shift=    0.000
 RMSDP=3.82D-05 MaxDP=7.14D-04 DE=-1.73D-04 OVMax= 4.04D-03

 Cycle   7  Pass 1  IDiag  1:
 E= -204.723345040046     Delta-E=       -0.000038744414 Rises=F Damp=F
 DIIS: error= 1.16D-04 at cycle   7 NSaved=   7.
 NSaved= 7 IEnMin= 7 EnMin= -204.723345040046     IErMin= 7 ErrMin= 1.16D-04
 ErrMax= 1.16D-04  0.00D+00 EMaxC= 1.00D-01 BMatC= 1.76D-06 BMatP= 1.13D-05
 IDIUse=3 WtCom= 9.99D-01 WtEn= 1.16D-03
 Coeff-Com: -0.123D-02 0.126D-01 0.316D-01-0.498D-01-0.136D+00-0.759D-01
 Coeff-Com:  0.122D+01
 Coeff-En:   0.000D+00 0.000D+00 0.000D+00 0.000D+00 0.000D+00 0.000D+00
 Coeff-En:   0.100D+01
 Coeff:     -0.123D-02 0.126D-01 0.315D-01-0.497D-01-0.136D+00-0.759D-01
 Coeff:      0.122D+01
 Gap=     0.489 Goal=   None    Shift=    0.000
 RMSDP=1.51D-05 MaxDP=3.28D-04 DE=-3.87D-05 OVMax= 1.78D-03

 Cycle   8  Pass 1  IDiag  1:
 E= -204.723350553144     Delta-E=       -0.000005513097 Rises=F Damp=F
 DIIS: error= 4.44D-05 at cycle   8 NSaved=   8.
 NSaved= 8 IEnMin= 8 EnMin= -204.723350553144     IErMin= 8 ErrMin= 4.44D-05
 ErrMax= 4.44D-05  0.00D+00 EMaxC= 1.00D-01 BMatC= 1.86D-07 BMatP= 1.76D-06
 IDIUse=1 WtCom= 1.00D+00 WtEn= 0.00D+00
 Coeff-Com: -0.378D-04-0.777D-03-0.619D-03 0.202D-01 0.244D-01-0.150D+00
 Coeff-Com: -0.134D+00 0.124D+01
 Coeff:     -0.378D-04-0.777D-03-0.619D-03 0.202D-01 0.244D-01-0.150D+00
 Coeff:     -0.134D+00 0.124D+01
 Gap=     0.489 Goal=   None    Shift=    0.000
 RMSDP=4.92D-06 MaxDP=9.87D-05 DE=-5.51D-06 OVMax= 4.77D-04

 Cycle   9  Pass 1  IDiag  1:
 E= -204.723351093908     Delta-E=       -0.000000540764 Rises=F Damp=F
 DIIS: error= 1.16D-05 at cycle   9 NSaved=   9.
 NSaved= 9 IEnMin= 9 EnMin= -204.723351093908     IErMin= 9 ErrMin= 1.16D-05
 ErrMax= 1.16D-05  0.00D+00 EMaxC= 1.00D-01 BMatC= 1.55D-08 BMatP= 1.86D-07
 IDIUse=1 WtCom= 1.00D+00 WtEn= 0.00D+00
 Coeff-Com:  0.107D-03-0.100D-02-0.242D-02-0.135D-02 0.120D-01 0.384D-01
 Coeff-Com: -0.854D-01-0.283D+00 0.132D+01
 Coeff:      0.107D-03-0.100D-02-0.242D-02-0.135D-02 0.120D-01 0.384D-01
 Coeff:     -0.854D-01-0.283D+00 0.132D+01
 Gap=     0.489 Goal=   None    Shift=    0.000
 RMSDP=1.29D-06 MaxDP=3.50D-05 DE=-5.41D-07 OVMax= 9.73D-05

 Cycle  10  Pass 1  IDiag  1:
 E= -204.723351135864     Delta-E=       -0.000000041956 Rises=F Damp=F
 DIIS: error= 2.78D-06 at cycle  10 NSaved=  10.
 NSaved=10 IEnMin=10 EnMin= -204.723351135864     IErMin=10 ErrMin= 2.78D-06
 ErrMax= 2.78D-06  0.00D+00 EMaxC= 1.00D-01 BMatC= 1.29D-09 BMatP= 1.55D-08
 IDIUse=1 WtCom= 1.00D+00 WtEn= 0.00D+00
 Coeff-Com: -0.261D-04 0.319D-03 0.796D-03-0.205D-02-0.444D-02 0.195D-02
 Coeff-Com:  0.377D-01-0.511D-01-0.282D+00 0.130D+01
 Coeff:     -0.261D-04 0.319D-03 0.796D-03-0.205D-02-0.444D-02 0.195D-02
 Coeff:      0.377D-01-0.511D-01-0.282D+00 0.130D+01
 Gap=     0.489 Goal=   None    Shift=    0.000
 RMSDP=3.38D-07 MaxDP=1.15D-05 DE=-4.20D-08 OVMax= 3.05D-05

 Cycle  11  Pass 1  IDiag  1:
 E= -204.723351139342     Delta-E=       -0.000000003478 Rises=F Damp=F
 DIIS: error= 1.14D-06 at cycle  11 NSaved=  11.
 NSaved=11 IEnMin=11 EnMin= -204.723351139342     IErMin=11 ErrMin= 1.14D-06
 ErrMax= 1.14D-06  0.00D+00 EMaxC= 1.00D-01 BMatC= 1.21D-10 BMatP= 1.29D-09
 IDIUse=1 WtCom= 1.00D+00 WtEn= 0.00D+00
 Coeff-Com: -0.556D-06-0.179D-04-0.437D-04 0.546D-03 0.105D-02-0.461D-02
 Coeff-Com: -0.550D-02 0.450D-01-0.197D-01-0.480D+00 0.146D+01
 Coeff:     -0.556D-06-0.179D-04-0.437D-04 0.546D-03 0.105D-02-0.461D-02
 Coeff:     -0.550D-02 0.450D-01-0.197D-01-0.480D+00 0.146D+01
 Gap=     0.489 Goal=   None    Shift=    0.000
 RMSDP=1.13D-07 MaxDP=4.26D-06 DE=-3.48D-09 OVMax= 1.10D-05

 Cycle  12  Pass 1  IDiag  1:
 E= -204.723351139719     Delta-E=       -0.000000000377 Rises=F Damp=F
 DIIS: error= 1.87D-07 at cycle  12 NSaved=  12.
 NSaved=12 IEnMin=12 EnMin= -204.723351139719     IErMin=12 ErrMin= 1.87D-07
 ErrMax= 1.87D-07  0.00D+00 EMaxC= 1.00D-01 BMatC= 6.89D-12 BMatP= 1.21D-10
 IDIUse=1 WtCom= 1.00D+00 WtEn= 0.00D+00
 Coeff-Com:  0.240D-05-0.232D-04-0.556D-04-0.591D-04 0.149D-03 0.159D-02
 Coeff-Com: -0.201D-02-0.122D-01 0.384D-01 0.392D-01-0.474D+00 0.141D+01
 Coeff:      0.240D-05-0.232D-04-0.556D-04-0.591D-04 0.149D-03 0.159D-02
 Coeff:     -0.201D-02-0.122D-01 0.384D-01 0.392D-01-0.474D+00 0.141D+01
 Gap=     0.489 Goal=   None    Shift=    0.000
 RMSDP=3.16D-08 MaxDP=7.25D-07 DE=-3.77D-10 OVMax= 2.61D-06

 Cycle  13  Pass 1  IDiag  1:
 E= -204.723351139742     Delta-E=       -0.000000000023 Rises=F Damp=F
 DIIS: error= 4.48D-08 at cycle  13 NSaved=  13.
 NSaved=13 IEnMin=13 EnMin= -204.723351139742     IErMin=13 ErrMin= 4.48D-08
 ErrMax= 4.48D-08  0.00D+00 EMaxC= 1.00D-01 BMatC= 2.13D-13 BMatP= 6.89D-12
 IDIUse=1 WtCom= 1.00D+00 WtEn= 0.00D+00
 Coeff-Com: -0.445D-06 0.573D-05 0.138D-04-0.217D-04-0.883D-04-0.579D-04
 Coeff-Com:  0.752D-03-0.254D-03-0.527D-02 0.125D-01 0.259D-01-0.298D+00
 Coeff-Com:  0.126D+01
 Coeff:     -0.445D-06 0.573D-05 0.138D-04-0.217D-04-0.883D-04-0.579D-04
 Coeff:      0.752D-03-0.254D-03-0.527D-02 0.125D-01 0.259D-01-0.298D+00
 Coeff:      0.126D+01
 Gap=     0.489 Goal=   None    Shift=    0.000
 RMSDP=5.51D-09 MaxDP=9.36D-08 DE=-2.27D-11 OVMax= 4.23D-07

 SCF Done:  E(RHF) =  -204.723351140     A.U. after   13 cycles
            NFock= 13  Conv=0.55D-08     -V/T= 2.0024
 KE= 2.042367240789D+02 PE=-6.228482399130D+02 EE= 1.444329265514D+02
 Leave Link  502 at Sun Jan 30 15:51:36 2022, MaxMem= 16106127360 cpu:              34.7 elap:               1.7
 (Enter /sw/contrib/gaussian/g16/B01/g16/l801.exe)
 ExpMin= 2.53D-02 ExpMax= 1.53D+04 ExpMxC= 5.22D+02 IAcc=3 IRadAn=         5 AccDes= 0.00D+00
 HarFok:  IExCor=  205 AccDes= 0.00D+00 IRadAn=         5 IDoV=-2 UseB2=F ITyADJ=14
 ICtDFT= 12500011 ScaDFX=  1.000000  1.000000  1.000000  1.000000
 Largest valence mixing into a core orbital is  2.06D-04
 Largest core mixing into a valence orbital is  3.29D-05
 Range of M.O.s used for correlation:     4   161
 NBasis=   161 NAE=    12 NBE=    12 NFC=     3 NFV=     0
 NROrb=    158 NOA=     9 NOB=     9 NVA=   149 NVB=   149

 **** Warning!!: The largest alpha MO coefficient is  0.19539325D+02

 Leave Link  801 at Sun Jan 30 15:51:36 2022, MaxMem= 16106127360 cpu:               1.9 elap:               0.1
 (Enter /sw/contrib/gaussian/g16/B01/g16/l906.exe)
 Frozen-core derivative calculation, NFC=   3 NFV=   0.
 FulOut=F Deriv=T AODrv=F NAtomX=     4
   MMem=         161  MDisk=           9 MDiskD=           9
  W3Min=      367080 MinDsk=      792425 NBas6D=         190
 NBas2D=       18625    NTT=       18145    LW2=     3500000
    MDV= 16105788743 MDiskM=      423783 NBas2p=       18621
 Fully in-core method, ICMem=   359292905.
 IMap=   1   2   3   4   5   6   7   8   9  10  11  12
 JobTyp=1 Pass  1 fully in-core, NPsUse= 28.
 Compute canonical integrals.
 FoFCou: FMM=F IPFlag=           0 FMFlag=           0 FMFlg1=           0
         NFxFlg=           0 DoJE=F BraDBF=F KetDBF=F FulRan=T
         wScrn=  0.000000 ICntrl=       600 IOpCl=  1 I1Cent=           0 NGrid=           0
         NMat0=    1 NMatS0=  18625 NMatT0=    0 NMatD0=    1 NMtDS0=    0 NMtDT0=    0
 Symmetry not used in FoFCou.
 Spin components of T(2) and E(2):
     alpha-alpha T2 =       0.2532684544D-01 E2=     -0.9066489793D-01
     alpha-beta  T2 =       0.1375018861D+00 E2=     -0.5166535854D+00
     beta-beta   T2 =       0.2532684544D-01 E2=     -0.9066489793D-01
 The integrals were generated   1 times.
 ANorm=    0.1090025494D+01
 E2 =    -0.6979833812D+00 EUMP2 =    -0.20542133452096D+03
 Leave Link  906 at Sun Jan 30 15:51:39 2022, MaxMem= 16106127360 cpu:              86.9 elap:               3.2
 (Enter /sw/contrib/gaussian/g16/B01/g16/l1002.exe)
 Minotr:  Closed shell wavefunction.
          Computing MP2/KS-MP2 derivatives.
          Using Z-Vector for PSCF gradient.
          Skipping F1 and S1 gradient terms here.
          Frozen-core window.
          Direct CPHF calculation.
          Differentiating once with respect to electric field.
                with respect to dipole field.
          Electric field/nuclear overlap derivatives assumed to be zero.
          Using symmetry in CPHF.
          Requested convergence is 1.0D-10 RMS, and 1.0D-09 maximum.
          NewPWx=F KeepS1=T KeepF1=T KeepIn=T MapXYZ=F SortEE=F KeepMc=T.
 Keep R1 ints in memory in symmetry-blocked form, NReq=128071053.
 FoFCou: FMM=F IPFlag=           0 FMFlag=           0 FMFlg1=           0
         NFxFlg=           0 DoJE=F BraDBF=F KetDBF=F FulRan=T
         wScrn=  0.000000 ICntrl=       600 IOpCl=  0 I1Cent=           0 NGrid=           0
         NMat0=    1 NMatS0=  13041 NMatT0=    0 NMatD0=    1 NMtDS0=    0 NMtDT0=    0
 Petite list used in FoFCou.
          MDV=   16106127360 using IRadAn=       5.
          Solving linear equations separately, MaxMat=       0.
          There are     1 degrees of freedom in the 1st order CPHF.  IDoFFX=0 NUNeed=     1.
 LinEq1:  Iter=  0 NonCon=     1 RMS=6.64D-03 Max=1.33D-01 NDo=     1
 AX will form     1 AO Fock derivatives at one time.
 LinEq1:  Iter=  1 NonCon=     1 RMS=2.27D-03 Max=4.08D-02 NDo=     1
 LinEq1:  Iter=  2 NonCon=     1 RMS=9.19D-04 Max=1.20D-02 NDo=     1
 LinEq1:  Iter=  3 NonCon=     1 RMS=4.42D-04 Max=8.67D-03 NDo=     1
 LinEq1:  Iter=  4 NonCon=     1 RMS=1.38D-04 Max=1.53D-03 NDo=     1
 LinEq1:  Iter=  5 NonCon=     1 RMS=6.17D-05 Max=9.97D-04 NDo=     1
 LinEq1:  Iter=  6 NonCon=     1 RMS=2.33D-05 Max=2.70D-04 NDo=     1
 LinEq1:  Iter=  7 NonCon=     1 RMS=5.91D-06 Max=6.03D-05 NDo=     1
 LinEq1:  Iter=  8 NonCon=     1 RMS=1.44D-06 Max=1.67D-05 NDo=     1
 LinEq1:  Iter=  9 NonCon=     1 RMS=2.66D-07 Max=2.03D-06 NDo=     1
 LinEq1:  Iter= 10 NonCon=     1 RMS=4.91D-08 Max=3.97D-07 NDo=     1
 LinEq1:  Iter= 11 NonCon=     1 RMS=8.02D-09 Max=8.12D-08 NDo=     1
 LinEq1:  Iter= 12 NonCon=     1 RMS=1.08D-09 Max=7.36D-09 NDo=     1
 LinEq1:  Iter= 13 NonCon=     1 RMS=2.24D-10 Max=2.32D-09 NDo=     1
 LinEq1:  Iter= 14 NonCon=     0 RMS=4.28D-11 Max=3.84D-10 NDo=     1
 Linear equations converged to 1.000D-10 1.000D-09 after    14 iterations.
 End of Minotr F.D. properties file   721 does not exist.
 End of Minotr F.D. properties file   722 does not exist.
 End of Minotr F.D. properties file   788 does not exist.
 Leave Link 1002 at Sun Jan 30 15:51:41 2022, MaxMem= 16106127360 cpu:              34.0 elap:               1.8
 (Enter /sw/contrib/gaussian/g16/B01/g16/l601.exe)
 Copying SCF densities to generalized density rwf, IOpCl= 0 IROHF=0.

 **********************************************************************

            Population analysis using the MP2 Density.

 **********************************************************************

 Orbital symmetries:
       Occupied  (A') (A') (A') (A') (A') (A') (A') (A') (A") (A')
                 (A") (A')
       Virtual   (A') (A") (A') (A') (A") (A') (A') (A') (A") (A')
                 (A") (A') (A') (A") (A') (A') (A') (A') (A') (A")
                 (A') (A') (A") (A') (A') (A') (A") (A") (A') (A')
                 (A') (A") (A") (A') (A") (A') (A') (A") (A') (A')
                 (A') (A') (A') (A") (A") (A') (A') (A") (A') (A')
                 (A") (A') (A") (A') (A') (A") (A') (A") (A') (A")
                 (A') (A') (A") (A') (A') (A') (A") (A') (A") (A")
                 (A') (A') (A') (A") (A') (A") (A') (A') (A") (A")
                 (A') (A') (A') (A") (A') (A") (A') (A") (A') (A')
                 (A') (A') (A') (A") (A') (A") (A') (A") (A') (A")
                 (A') (A") (A') (A') (A') (A") (A') (A") (A") (A')
                 (A') (A") (A') (A') (A') (A") (A') (A") (A') (A')
                 (A') (A') (A") (A') (A") (A") (A') (A') (A") (A')
                 (A") (A") (A') (A") (A') (A") (A') (A") (A") (A')
                 (A') (A') (A') (A') (A') (A') (A') (A') (A')
 The electronic state is 1-A'.
 Alpha  occ. eigenvalues --  -20.66558 -20.64270 -15.79867  -1.60244  -1.40324
 Alpha  occ. eigenvalues --   -0.94860  -0.78396  -0.73009  -0.68149  -0.62601
 Alpha  occ. eigenvalues --   -0.52891  -0.46114
 Alpha virt. eigenvalues --    0.02797   0.08063   0.09392   0.09760   0.12891
 Alpha virt. eigenvalues --    0.14358   0.15689   0.17220   0.18717   0.19664
 Alpha virt. eigenvalues --    0.20553   0.23337   0.25768   0.29615   0.30781
 Alpha virt. eigenvalues --    0.32986   0.36577   0.38238   0.42389   0.52517
 Alpha virt. eigenvalues --    0.52665   0.54823   0.57381   0.61224   0.63146
 Alpha virt. eigenvalues --    0.64736   0.68013   0.71462   0.71792   0.74783
 Alpha virt. eigenvalues --    0.77460   0.78151   0.81112   0.81170   0.86111
 Alpha virt. eigenvalues --    0.87919   0.92512   0.93873   0.94528   0.99497
 Alpha virt. eigenvalues --    1.04969   1.06267   1.08090   1.10487   1.16162
 Alpha virt. eigenvalues --    1.19696   1.25223   1.26958   1.36131   1.43099
 Alpha virt. eigenvalues --    1.48817   1.52369   1.52447   1.54355   1.55358
 Alpha virt. eigenvalues --    1.60945   1.65790   1.72823   1.75697   1.82181
 Alpha virt. eigenvalues --    1.85624   1.96014   1.97733   1.99797   2.07582
 Alpha virt. eigenvalues --    2.13264   2.13398   2.18932   2.26946   2.30716
 Alpha virt. eigenvalues --    2.32708   2.38059   2.45099   2.47165   2.49793
 Alpha virt. eigenvalues --    2.50335   2.52003   2.54456   2.56791   2.60694
 Alpha virt. eigenvalues --    2.60720   2.65932   2.77390   2.77954   2.84385
 Alpha virt. eigenvalues --    2.93782   2.95087   3.11657   3.14518   3.18339
 Alpha virt. eigenvalues --    3.24543   3.46097   3.83172   3.85441   4.02699
 Alpha virt. eigenvalues --    4.17049   4.18333   4.21354   4.36175   4.37079
 Alpha virt. eigenvalues --    4.58390   4.63447   4.74771   4.81635   4.87179
 Alpha virt. eigenvalues --    4.88735   4.98074   5.00165   5.07423   5.08786
 Alpha virt. eigenvalues --    5.17296   5.24425   5.25582   5.33447   5.36731
 Alpha virt. eigenvalues --    5.36883   5.57892   5.66746   5.79292   5.98723
 Alpha virt. eigenvalues --    6.11895   6.43482   6.50581   6.50870   6.67320
 Alpha virt. eigenvalues --    6.71409   6.74599   6.84441   6.91877   7.06888
 Alpha virt. eigenvalues --    7.11863   7.18007   7.23436   7.25662   7.25946
 Alpha virt. eigenvalues --    7.33195   7.38170   7.43237   7.47883   7.60725
 Alpha virt. eigenvalues --    7.64901   7.69334   7.79280   7.98157   8.07082
 Alpha virt. eigenvalues --    8.42358  14.18903  15.14626  15.95926
          Condensed to atoms (all electrons):
               1          2          3          4
     1  H    0.585655   0.173392  -0.044626   0.012604
     2  O    0.173392   8.291258  -0.138635  -0.055057
     3  N   -0.044626  -0.138635   7.047137  -0.043215
     4  O    0.012604  -0.055057  -0.043215   8.267023
 Mulliken charges:
               1
     1  H    0.272975
     2  O   -0.270959
     3  N    0.179339
     4  O   -0.181355
 Sum of Mulliken charges =  -0.00000
 Mulliken charges with hydrogens summed into heavy atoms:
               1
     2  O    0.002016
     3  N    0.179339
     4  O   -0.181355
 Electronic spatial extent (au):  <R**2>=            123.7865
 Charge=              0.0000 electrons
 Dipole moment (field-independent basis, Debye):
    X=              1.7542    Y=              0.6510    Z=             -0.0000  Tot=              1.8711
 Quadrupole moment (field-independent basis, Debye-Ang):
   XX=            -13.6393   YY=            -18.7123   ZZ=            -16.4604
   XY=              0.5833   XZ=             -0.0000   YZ=              0.0000
 Traceless Quadrupole moment (field-independent basis, Debye-Ang):
   XX=              2.6313   YY=             -2.4416   ZZ=             -0.1898
   XY=              0.5833   XZ=             -0.0000   YZ=              0.0000
 Octapole moment (field-independent basis, Debye-Ang**2):
  XXX=             10.1867  YYY=             -1.0061  ZZZ=              0.0000  XYY=             -0.9804
  XXY=             -0.3281  XXZ=             -0.0000  XZZ=             -1.0058  YZZ=              0.2112
  YYZ=              0.0000  XYZ=             -0.0000
 Hexadecapole moment (field-independent basis, Debye-Ang**3):
 XXXX=            -71.7619 YYYY=            -39.4974 ZZZZ=            -13.9346 XXXY=             12.1547
 XXXZ=             -0.0000 YYYX=             11.9755 YYYZ=             -0.0000 ZZZX=              0.0000
 ZZZY=             -0.0000 XXYY=            -22.2704 XXZZ=            -17.5183 YYZZ=             -8.7397
 XXYZ=              0.0000 YYXZ=              0.0000 ZZXY=              4.2237
 N-N= 6.945523814303D+01 E-N=-6.234488255664D+02  KE= 2.052354915813D+02
 Symmetry A'   KE= 1.964109266434D+02
 Symmetry A"   KE= 8.824564937956D+00
 No NMR shielding tensors so no spin-rotation constants.
 Leave Link  601 at Sun Jan 30 15:51:41 2022, MaxMem= 16106127360 cpu:              13.2 elap:               0.5
 (Enter /sw/contrib/gaussian/g16/B01/g16/l9999.exe)
 1\1\GINC-N2130\SP\RMP2-FC\Aug-CC-pVTZ\H1N1O2\CGAVINH\30-Jan-2022\0\\#p
  SP mp2/aug-cc-pvtz density=current\\title\\0,1\H\O,1,0.97026274\N,2,1
 .42776435,1,101.62778541\O,3,1.17680217,2,111.20859147,1,180.,0\\Versi
 on=ES64L-G16RevB.01\State=1-A'\HF=-204.7233511\MP2=-205.4213345\RMSD=5
 .506e-09\Dipole=-0.0907904,0.,-0.7305471\Quadrupole=-1.3688271,-0.1410
 79,1.5099061,0.,1.2932679,0.\PG=CS [SG(H1N1O2)]\\@


 MOST BUREAUCRACIES FUNCTION LIKE A SEPTIC TANK.
 THE LARGE CHUNKS RISE TO THE TOP.
 Job cpu time:       0 days  0 hours  3 minutes 16.7 seconds.
 Elapsed time:       0 days  0 hours  0 minutes  8.6 seconds.
 File lengths (MBytes):  RWF=     16 Int=      0 D2E=      0 Chk=      8 Scr=      1
 Normal termination of Gaussian 16 at Sun Jan 30 15:51:42 2022.
