title                                                                   
SP        RMP2-FC                                                     Aug-CC-pVTZ         
Number of atoms                            I                4
Info1-9                                    I   N=           9
          29          20           0           0           0         110
           1           2           1
Full Title                                 C   N=           1
title       
Route                                      C   N=           4
#p SP mp2/aug-cc-pvtz density=current           
Charge                                     I                0
Multiplicity                               I                1
Number of electrons                        I               24
Number of alpha electrons                  I               12
Number of beta electrons                   I               12
Number of basis functions                  I              161
Number of independent functions            I              161
Number of point charges in /Mol/           I                0
Number of translation vectors              I                0
Atomic numbers                             I   N=           4
           1           8           7           8
Nuclear charges                            R   N=           4
  1.00000000E+00  8.00000000E+00  7.00000000E+00  8.00000000E+00
Current cartesian coordinates              R   N=          12
 -3.22830219E+00  8.41812244E-01  2.36060808E-02 -1.96932603E+00 -4.90901899E-01
 -2.61248507E-03  3.25205920E-01  9.28526769E-01 -3.29777926E-03  2.08830862E+00
 -4.26785554E-01  2.54728183E-03
Number of symbols in /Mol/                 I                0
Force Field                                I                0
Atom Types                                 C   N=           4
                                                
Int Atom Types                             I   N=           4
           0           0           0           0
MM charges                                 R   N=           4
  0.00000000E+00  0.00000000E+00  0.00000000E+00  0.00000000E+00
Integer atomic weights                     I   N=           4
           1          16          14          16
Real atomic weights                        R   N=           4
  1.00782504E+00  1.59949146E+01  1.40030740E+01  1.59949146E+01
Atom fragment info                         I   N=           4
           0           0           0           0
Atom residue num                           I   N=           4
           0           0           0           0
Nuclear spins                              I   N=           4
           1           0           2           0
Nuclear ZEff                               R   N=           4
 -1.00000000E+00 -5.60000000E+00 -4.55000000E+00 -5.60000000E+00
Nuclear ZNuc                               R   N=           4
  1.00000000E+00  8.00000000E+00  7.00000000E+00  8.00000000E+00
Nuclear QMom                               R   N=           4
  0.00000000E+00  0.00000000E+00  2.04400000E+00  0.00000000E+00
Nuclear GFac                               R   N=           4
  2.79284600E+00  0.00000000E+00  4.03761000E-01  0.00000000E+00
MicOpt                                     I   N=           4
          -1          -1          -1          -1
Number of residues                         I                0
Number of secondary structures             I                0
SymInf integers                            I   N=          26
           1           1           1           1           1           0
           0           0           0           0           0           0
           0           0           0           0           0           0
           0           0           0           0           0           0
           0           0
RotTr to input orientation                 R   N=          12
  7.26954736E-01  7.86889392E-03  6.86640293E-01  6.86680138E-01 -1.22374637E-02
 -7.26856680E-01  2.68317757E-03  9.99894157E-01 -1.42994954E-02  1.76871048E+00
  1.21012320E-02  2.82889677E+00
Number of contracted shells                I               51
Number of primitive shells                 I               92
Pure/Cartesian d shells                    I                0
Pure/Cartesian f shells                    I                0
Highest angular momentum                   I                3
Largest degree of contraction              I                7
Shell types                                I   N=          51
           0           0           0           0           1           1
           1          -2          -2           0           0           0
           0           0           1           1           1           1
          -2          -2          -2          -3          -3           0
           0           0           0           0           1           1
           1           1          -2          -2          -2          -3
          -3           0           0           0           0           0
           1           1           1           1          -2          -2
          -2          -3          -3
Number of primitives per shell             I   N=          51
           3           1           1           1           1           1
           1           1           1           7           6           1
           1           1           3           1           1           1
           1           1           1           1           1           7
           6           1           1           1           3           1
           1           1           1           1           1           1
           1           7           6           1           1           1
           3           1           1           1           1           1
           1           1           1
Shell to atom map                          I   N=          51
           1           1           1           1           1           1
           1           1           1           2           2           2
           2           2           2           2           2           2
           2           2           2           2           2           3
           3           3           3           3           3           3
           3           3           3           3           3           3
           3           4           4           4           4           4
           4           4           4           4           4           4
           4           4           4
Primitive exponents                        R   N=          92
  3.38700000E+01  5.09500000E+00  1.15900000E+00  3.25800000E-01  1.02700000E-01
  2.52600000E-02  1.40700000E+00  3.88000000E-01  1.02000000E-01  1.05700000E+00
  2.47000000E-01  1.53300000E+04  2.29900000E+03  5.22400000E+02  1.47300000E+02
  4.75500000E+01  1.67600000E+01  6.20700000E+00  5.22400000E+02  1.47300000E+02
  4.75500000E+01  1.67600000E+01  6.20700000E+00  6.88200000E-01  1.75200000E+00
  2.38400000E-01  7.37600000E-02  3.44600000E+01  7.74900000E+00  2.28000000E+00
  7.15600000E-01  2.14000000E-01  5.97400000E-02  2.31400000E+00  6.45000000E-01
  2.14000000E-01  1.42800000E+00  5.00000000E-01  1.14200000E+04  1.71200000E+03
  3.89300000E+02  1.10000000E+02  3.55700000E+01  1.25400000E+01  4.64400000E+00
  3.89300000E+02  1.10000000E+02  3.55700000E+01  1.25400000E+01  4.64400000E+00
  5.11800000E-01  1.29300000E+00  1.78700000E-01  5.76000000E-02  2.66300000E+01
  5.94800000E+00  1.74200000E+00  5.55000000E-01  1.72500000E-01  4.91000000E-02
  1.65400000E+00  4.69000000E-01  1.51000000E-01  1.09300000E+00  3.64000000E-01
  1.53300000E+04  2.29900000E+03  5.22400000E+02  1.47300000E+02  4.75500000E+01
  1.67600000E+01  6.20700000E+00  5.22400000E+02  1.47300000E+02  4.75500000E+01
  1.67600000E+01  6.20700000E+00  6.88200000E-01  1.75200000E+00  2.38400000E-01
  7.37600000E-02  3.44600000E+01  7.74900000E+00  2.28000000E+00  7.15600000E-01
  2.14000000E-01  5.97400000E-02  2.31400000E+00  6.45000000E-01  2.14000000E-01
  1.42800000E+00  5.00000000E-01
Contraction coefficients                   R   N=          92
  2.54948632E-02  1.90362766E-01  8.52162022E-01  1.00000000E+00  1.00000000E+00
  1.00000000E+00  1.00000000E+00  1.00000000E+00  1.00000000E+00  1.00000000E+00
  1.00000000E+00  5.19808943E-04  4.02025621E-03  2.07128267E-02  8.10105536E-02
  2.35962985E-01  4.42653446E-01  3.57064423E-01 -4.42115008E-05 -1.22591041E-03
 -1.05517725E-02 -6.74452633E-02 -1.71198607E-01  1.07329856E+00  1.00000000E+00
  1.00000000E+00  1.00000000E+00  4.11634896E-02  2.57762836E-01  8.02419274E-01
  1.00000000E+00  1.00000000E+00  1.00000000E+00  1.00000000E+00  1.00000000E+00
  1.00000000E+00  1.00000000E+00  1.00000000E+00  5.34563860E-04  4.13435660E-03
  2.12335358E-02  8.25006224E-02  2.38138871E-01  4.42551547E-01  3.53757422E-01
 -4.89867350E-05 -1.19527323E-03 -1.03490714E-02 -6.48680190E-02 -1.71552477E-01
  1.07289568E+00  1.00000000E+00  1.00000000E+00  1.00000000E+00  3.98072123E-02
  2.49002660E-01  8.10479727E-01  1.00000000E+00  1.00000000E+00  1.00000000E+00
  1.00000000E+00  1.00000000E+00  1.00000000E+00  1.00000000E+00  1.00000000E+00
  5.19808943E-04  4.02025621E-03  2.07128267E-02  8.10105536E-02  2.35962985E-01
  4.42653446E-01  3.57064423E-01 -4.42115008E-05 -1.22591041E-03 -1.05517725E-02
 -6.74452633E-02 -1.71198607E-01  1.07329856E+00  1.00000000E+00  1.00000000E+00
  1.00000000E+00  4.11634896E-02  2.57762836E-01  8.02419274E-01  1.00000000E+00
  1.00000000E+00  1.00000000E+00  1.00000000E+00  1.00000000E+00  1.00000000E+00
  1.00000000E+00  1.00000000E+00
Coordinates of each shell                  R   N=         153
 -3.22830219E+00  8.41812244E-01  2.36060808E-02 -3.22830219E+00  8.41812244E-01
  2.36060808E-02 -3.22830219E+00  8.41812244E-01  2.36060808E-02 -3.22830219E+00
  8.41812244E-01  2.36060808E-02 -3.22830219E+00  8.41812244E-01  2.36060808E-02
 -3.22830219E+00  8.41812244E-01  2.36060808E-02 -3.22830219E+00  8.41812244E-01
  2.36060808E-02 -3.22830219E+00  8.41812244E-01  2.36060808E-02 -3.22830219E+00
  8.41812244E-01  2.36060808E-02 -1.96932603E+00 -4.90901899E-01 -2.61248507E-03
 -1.96932603E+00 -4.90901899E-01 -2.61248507E-03 -1.96932603E+00 -4.90901899E-01
 -2.61248507E-03 -1.96932603E+00 -4.90901899E-01 -2.61248507E-03 -1.96932603E+00
 -4.90901899E-01 -2.61248507E-03 -1.96932603E+00 -4.90901899E-01 -2.61248507E-03
 -1.96932603E+00 -4.90901899E-01 -2.61248507E-03 -1.96932603E+00 -4.90901899E-01
 -2.61248507E-03 -1.96932603E+00 -4.90901899E-01 -2.61248507E-03 -1.96932603E+00
 -4.90901899E-01 -2.61248507E-03 -1.96932603E+00 -4.90901899E-01 -2.61248507E-03
 -1.96932603E+00 -4.90901899E-01 -2.61248507E-03 -1.96932603E+00 -4.90901899E-01
 -2.61248507E-03 -1.96932603E+00 -4.90901899E-01 -2.61248507E-03  3.25205920E-01
  9.28526769E-01 -3.29777926E-03  3.25205920E-01  9.28526769E-01 -3.29777926E-03
  3.25205920E-01  9.28526769E-01 -3.29777926E-03  3.25205920E-01  9.28526769E-01
 -3.29777926E-03  3.25205920E-01  9.28526769E-01 -3.29777926E-03  3.25205920E-01
  9.28526769E-01 -3.29777926E-03  3.25205920E-01  9.28526769E-01 -3.29777926E-03
  3.25205920E-01  9.28526769E-01 -3.29777926E-03  3.25205920E-01  9.28526769E-01
 -3.29777926E-03  3.25205920E-01  9.28526769E-01 -3.29777926E-03  3.25205920E-01
  9.28526769E-01 -3.29777926E-03  3.25205920E-01  9.28526769E-01 -3.29777926E-03
  3.25205920E-01  9.28526769E-01 -3.29777926E-03  3.25205920E-01  9.28526769E-01
 -3.29777926E-03  2.08830862E+00 -4.26785554E-01  2.54728183E-03  2.08830862E+00
 -4.26785554E-01  2.54728183E-03  2.08830862E+00 -4.26785554E-01  2.54728183E-03
  2.08830862E+00 -4.26785554E-01  2.54728183E-03  2.08830862E+00 -4.26785554E-01
  2.54728183E-03  2.08830862E+00 -4.26785554E-01  2.54728183E-03  2.08830862E+00
 -4.26785554E-01  2.54728183E-03  2.08830862E+00 -4.26785554E-01  2.54728183E-03
  2.08830862E+00 -4.26785554E-01  2.54728183E-03  2.08830862E+00 -4.26785554E-01
  2.54728183E-03  2.08830862E+00 -4.26785554E-01  2.54728183E-03  2.08830862E+00
 -4.26785554E-01  2.54728183E-03  2.08830862E+00 -4.26785554E-01  2.54728183E-03
  2.08830862E+00 -4.26785554E-01  2.54728183E-03
Num ILSW                                   I              100
ILSW                                       I   N=         100
           0           0           0           0           2           0
           0           0           0           0           0          -1
           5           0           0           0           0           0
           0           0           0           0           0           0
           1           0           0           0           0           0
           0           0      100000           0          -1           0
           0           0           0           0           0           0
           0           0           0           1           0           0
           0 -2000000000           1           0           0           0
           0           0           4          52           0           0
           0           0           0           0           0           0
           0           0           0           4           0           1
           0           0           0           0           0           0
           0           0           0           0           0           0
           0           0           0           0           0           0
           0           0           0           0           0           0
           0           0           0           0
Num RLSW                                   I               52
RLSW                                       R   N=          52
  1.00000000E+00  1.00000000E+00  1.00000000E+00  1.00000000E+00  1.00000000E+00
  0.00000000E+00  0.00000000E+00  1.00000000E+00  0.00000000E+00  0.00000000E+00
  0.00000000E+00  0.00000000E+00  1.00000000E+00  0.00000000E+00  0.00000000E+00
  0.00000000E+00  0.00000000E+00  1.00000000E+00  0.00000000E+00  0.00000000E+00
  0.00000000E+00  0.00000000E+00  1.00000000E+00  0.00000000E+00  0.00000000E+00
  0.00000000E+00  0.00000000E+00  1.00000000E+00  0.00000000E+00  0.00000000E+00
  0.00000000E+00  0.00000000E+00  1.00000000E+00  0.00000000E+00  0.00000000E+00
  0.00000000E+00  0.00000000E+00  0.00000000E+00  1.00000000E+00  1.00000000E+00
  0.00000000E+00  1.00000000E+00  0.00000000E+00  0.00000000E+00  0.00000000E+00
  0.00000000E+00  0.00000000E+00  0.00000000E+00  0.00000000E+00  0.00000000E+00
  0.00000000E+00  0.00000000E+00
MxBond                                     I                2
NBond                                      I   N=           4
           1           2           2           1
IBond                                      I   N=           8
           2           0           1           3           2           4
           3           0
RBond                                      R   N=           8
  1.00000000E+00  0.00000000E+00  1.00000000E+00  1.00000000E+00  1.00000000E+00
  2.00000000E+00  2.00000000E+00  0.00000000E+00
Virial Ratio                               R      2.002366498661425E+00
SCF Energy                                 R     -2.047233939276071E+02
MP2 Energy                                 R     -2.054213491010381E+02
Total Energy                               R     -2.054213491010381E+02
Post-SCF wavefunction norm                 R      1.090008178323202E+00
RMS Density                                R      5.480009044481382E-09
Job Status                                 I                1
Nuclear derivative order                   I                0
External E-field                           R   N=          35
  0.00000000E+00  0.00000000E+00  0.00000000E+00  0.00000000E+00  0.00000000E+00
  0.00000000E+00  0.00000000E+00  0.00000000E+00  0.00000000E+00  0.00000000E+00
  0.00000000E+00  0.00000000E+00  0.00000000E+00  0.00000000E+00  0.00000000E+00
  0.00000000E+00  0.00000000E+00  0.00000000E+00  0.00000000E+00  0.00000000E+00
  0.00000000E+00  0.00000000E+00  0.00000000E+00  0.00000000E+00  0.00000000E+00
  0.00000000E+00  0.00000000E+00  0.00000000E+00  0.00000000E+00  0.00000000E+00
  0.00000000E+00  0.00000000E+00  0.00000000E+00  0.00000000E+00  0.00000000E+00
IOpCl                                      I                0
IROHF                                      I                0
Alpha Orbital Energies                     R   N=         161
 -2.06653126E+01 -2.06423766E+01 -1.57987550E+01 -1.60279259E+00 -1.40263636E+00
 -9.48533224E-01 -7.84137126E-01 -7.29804582E-01 -6.81559628E-01 -6.25429114E-01
 -5.28567298E-01 -4.61754984E-01  2.79906679E-02  8.04455102E-02  9.39597932E-02
  9.75600173E-02  1.28885311E-01  1.43652075E-01  1.56894054E-01  1.72129144E-01
  1.87227960E-01  1.96599511E-01  2.05578753E-01  2.33472042E-01  2.57913659E-01
  2.96328681E-01  3.07853551E-01  3.29791340E-01  3.65751454E-01  3.82460980E-01
  4.23906562E-01  5.25058575E-01  5.26531192E-01  5.48057290E-01  5.73298542E-01
  6.13003479E-01  6.31295212E-01  6.48058345E-01  6.80234388E-01  7.14271777E-01
  7.17944231E-01  7.47970438E-01  7.74832481E-01  7.81613310E-01  8.11302736E-01
  8.12069328E-01  8.61141982E-01  8.78776826E-01  9.25723471E-01  9.38996488E-01
  9.45104976E-01  9.95201418E-01  1.04956006E+00  1.06297124E+00  1.08119579E+00
  1.10583666E+00  1.16087367E+00  1.19627629E+00  1.25218630E+00  1.26871646E+00
  1.36164627E+00  1.43363821E+00  1.48882097E+00  1.52302109E+00  1.52438730E+00
  1.54423510E+00  1.55417326E+00  1.60950352E+00  1.65822463E+00  1.72879015E+00
  1.75466636E+00  1.82249856E+00  1.85595464E+00  1.96094073E+00  1.97625727E+00
  1.99789823E+00  2.07456611E+00  2.13109055E+00  2.13489149E+00  2.18845343E+00
  2.27089052E+00  2.30833894E+00  2.32916037E+00  2.38091255E+00  2.45126728E+00
  2.47006219E+00  2.49867252E+00  2.50268308E+00  2.52135753E+00  2.54425346E+00
  2.56925810E+00  2.60649819E+00  2.60889264E+00  2.66210066E+00  2.77172635E+00
  2.77796954E+00  2.83937559E+00  2.93794625E+00  2.95229278E+00  3.11529226E+00
  3.14678117E+00  3.18280576E+00  3.24714582E+00  3.46109952E+00  3.83130090E+00
  3.85470042E+00  4.02881228E+00  4.17020494E+00  4.18273710E+00  4.21348915E+00
  4.36341799E+00  4.37248749E+00  4.58152246E+00  4.63345194E+00  4.74697636E+00
  4.81790941E+00  4.87179884E+00  4.88748242E+00  4.98001824E+00  5.00193421E+00
  5.07375736E+00  5.08670686E+00  5.17092317E+00  5.24635040E+00  5.25777552E+00
  5.33344462E+00  5.36829054E+00  5.37519273E+00  5.57964404E+00  5.66782549E+00
  5.79365157E+00  5.98813570E+00  6.11953791E+00  6.43490517E+00  6.50705133E+00
  6.51006151E+00  6.67438710E+00  6.71555613E+00  6.74546632E+00  6.84760208E+00
  6.91673691E+00  7.06909138E+00  7.11948552E+00  7.17973032E+00  7.23375249E+00
  7.25618446E+00  7.25816333E+00  7.33182034E+00  7.37986921E+00  7.43288822E+00
  7.47875592E+00  7.60797117E+00  7.64779491E+00  7.69928987E+00  7.79105935E+00
  7.98215479E+00  8.07087436E+00  8.42451122E+00  1.42011312E+01  1.51284641E+01
  1.59718522E+01
Alpha MO coefficients                      R   N=       25921
  5.70140272E-05  1.94775898E-04 -3.73534353E-04  4.62188282E-06  5.51664018E-05
 -8.19143026E-06 -3.55564739E-07 -2.37433038E-05  7.05511354E-05 -3.21399270E-06
 -2.43283201E-04  1.02713698E-04 -2.18438406E-06  2.08711183E-05 -1.19692697E-06
 -2.46577247E-07  5.74633770E-06 -1.39642297E-05  5.22671897E-05 -1.81417550E-06
 -1.34131662E-06 -3.62057764E-05  6.02560468E-06 -8.05097222E-04  7.94275293E-05
 -6.05741652E-05 -9.00773013E-05  2.19702507E-04 -2.30662431E-05 -1.03155516E-05
 -8.20419645E-10  9.93127596E-05  1.38036622E-05  1.80211960E-07  1.51970493E-04
 -1.01451256E-05  2.04629373E-06  1.28791861E-04  1.02469694E-05  1.79671886E-06
 -8.91024612E-06  9.77766234E-08 -3.92379525E-08  1.45969289E-05 -2.50628165E-05
  2.03341519E-06 -5.57151183E-07  1.91901741E-07  4.42146351E-07  1.55548860E-04
 -1.65345012E-05  3.41021946E-07  6.29601168E-07  9.11511008E-05  2.31751088E-04
  1.84721569E-07 -3.07759536E-06  3.02872978E-06  1.36732207E-07  9.07137854E-08
 -7.77215484E-06 -1.42250040E-05 -1.05505676E-07  1.33127287E-05 -2.33052481E-05
 -5.07763993E-07  2.43122730E-07 -1.44812166E-04  1.36608140E-04  2.49350759E-04
  1.41896887E-03 -1.01651276E-04 -1.53269634E-03  3.78933327E-04  8.53449125E-05
 -9.82890597E-05  4.93289864E-07  1.74320625E-03 -1.20263318E-03  4.41189564E-06
 -1.09706331E-03  3.13588532E-04  3.52124404E-07  7.71861761E-05 -1.25142898E-04
  8.48035469E-07 -1.25284136E-04  1.00389797E-06 -6.78279864E-07  7.67032779E-05
 -2.46369507E-04 -4.38504870E-04  3.73909170E-06 -3.07747877E-06 -6.22256409E-05
 -9.63142956E-04 -1.43407768E-06 -3.26203162E-06  7.52358536E-07 -3.27898772E-05
  2.20193714E-04  2.02043221E-07 -1.62297574E-05 -7.95485983E-06 -2.06181971E-07
  5.54152951E-08  4.22463387E-06  2.16383491E-05 -2.03287290E-06 -9.34563294E-05
  1.68980411E-04  8.73951636E-07 -2.08465965E-06 -2.35446628E-04 -1.74640123E-04
  9.76650752E-01 -9.86485603E-03  4.35628560E-02  4.27811302E-03 -5.30109260E-04
 -1.80287484E-03  1.23079442E-03 -6.71650488E-06  2.08249719E-03 -1.34998528E-03
  6.54940672E-06 -7.50393629E-04  8.45789185E-04 -3.04355130E-06  5.86056164E-05
  1.08999884E-05  1.14241638E-08 -2.29161440E-04  5.11893766E-07 -1.03581075E-06
  2.54314354E-05 -9.14597019E-05  3.87408248E-04 -4.12784604E-06  1.54451561E-06
 -3.71151205E-04  8.60510691E-04 -1.59753657E-04  1.48047304E-06 -1.06169548E-06
 -1.62012489E-05 -3.04614215E-04 -4.03553409E-07 -4.86104560E-05  2.83534403E-05
  3.32504226E-08 -3.99357202E-07 -1.14748753E-05 -2.74408271E-05 -7.80864263E-07
 -1.01610300E-04  8.50102106E-05  7.41780968E-07 -1.11425024E-06 -4.44704570E-05
 -2.17202105E-04  4.73933115E-04  2.47286482E-03  3.47016551E-04 -7.40054079E-06
  1.76224199E-04 -1.74642423E-04 -3.53382078E-06  6.46017781E-04 -1.15066737E-03
 -2.19874412E-05 -5.25616914E-05 -4.31279345E-04 -5.08349441E-06  1.19196666E-05
  8.76144633E-07 -2.83897402E-07 -2.80164180E-06  7.27410440E-05 -1.55011788E-04
 -6.51993279E-06  9.84241033E-06 -1.29378865E-04 -4.28646086E-04  9.76754801E-01
 -9.25282538E-03  4.35551109E-02  8.30951854E-04 -9.04773556E-04  2.19139970E-04
  1.87467599E-03  1.96917523E-05 -4.08006533E-04 -1.80167330E-03 -1.85778153E-05
  1.53058705E-03 -1.90339744E-04 -1.24120281E-05  6.56909437E-05  1.01174759E-05
 -1.34083514E-07 -4.22570688E-05 -1.01084610E-06  9.48119120E-07 -8.45179545E-07
 -5.91030413E-05  6.50548796E-04  1.11014095E-05 -9.85390431E-06 -3.94744951E-04
 -3.23617866E-06 -9.02227129E-05  2.82133203E-06 -2.09634069E-06  1.42416765E-05
  4.72724063E-04  1.68861916E-07  4.41548630E-05  3.28283082E-05  4.59568152E-07
  4.15153845E-08  3.99295389E-06 -1.32203646E-05  3.31712768E-06 -7.00023507E-05
  8.14632633E-05 -1.50614103E-06  4.64531269E-06 -7.56724715E-05 -3.11112057E-04
  5.96393086E-05  1.62461177E-04 -3.19799661E-04 -3.68348250E-04  8.67639683E-04
  1.04551875E-04  4.54278847E-05  2.37014492E-07 -8.86796908E-04 -3.83019468E-04
 -1.22660457E-06  5.71953301E-04  3.81407769E-04  2.41722106E-06 -2.10163030E-04
 -1.11710029E-04  1.83033995E-06 -3.46989178E-05 -1.14302398E-07  5.32145656E-08
  3.88785455E-06  6.04969962E-05 -3.99902218E-04  3.72973712E-07 -9.78487392E-08
  4.52299322E-04  8.29466623E-04 -1.87350164E-04 -4.31294387E-06  1.32968005E-06
  4.68049976E-04 -2.99661597E-04  3.52261207E-08  1.14974038E-04  6.44388547E-05
 -4.40692260E-08  1.67099663E-07  2.91331342E-05 -1.56015745E-04 -1.29429649E-06
  8.92375981E-05  9.53775969E-05  8.70451159E-07  6.62788153E-08  2.45091844E-04
 -3.50162714E-04  8.39310275E-04  4.69728585E-05  2.09144675E-05 -2.85080451E-04
 -1.89890158E-04  2.17213172E-05  1.59976461E-05  1.96672008E-07 -1.47487123E-04
 -8.30929100E-05 -1.43228701E-06 -5.36918678E-04 -2.70281548E-04  3.24618015E-06
  6.98743052E-06  4.06099841E-07 -2.98145586E-07 -5.30690896E-06  1.07684253E-09
  5.98749180E-08 -3.54160805E-06  1.66184087E-05  1.12816277E-06  5.95813423E-07
 -1.50943311E-07  1.30429962E-04 -6.17664126E-05 -6.66769016E-05  5.74196135E-07
  1.18719930E-06  2.15568205E-04 -1.47805679E-04  5.88268158E-08  5.13962959E-07
  1.04612625E-05 -4.65972704E-08 -1.25717325E-07 -1.51042367E-06 -1.63705091E-05
 -8.69275624E-08 -2.83933893E-05 -4.41756871E-05 -6.81779761E-08  4.03983242E-07
  1.32907764E-06  1.38945463E-04 -7.57930199E-05 -5.00015298E-04 -3.34483311E-04
  2.06794428E-04 -2.26143585E-05  4.30559759E-05  6.83644091E-07 -5.58697599E-04
 -1.58915220E-04  6.02911897E-06 -4.00953134E-04 -1.99700384E-04  7.22467519E-07
 -1.34672964E-05  8.05134382E-07  2.41996134E-07 -4.95403115E-05  1.00540593E-06
  1.12558209E-04  3.86276092E-06  2.42505350E-07 -1.35423269E-04 -1.17011307E-04
 -1.26162051E-04 -2.10358638E-04 -2.07998623E-04  4.95766564E-03  3.24953303E-03
 -2.22587115E-05 -3.55062098E-05 -3.65199523E-07  7.77628643E-04  6.34793288E-04
  1.11830045E-06  3.26643178E-03  2.11036722E-03  2.43727006E-07  9.63557330E-04
  2.59776798E-04 -1.99619955E-06  1.64086822E-07  1.49699653E-07 -4.56130191E-07
  2.91570216E-06  5.35616725E-05 -4.46094728E-04 -8.75453514E-07  2.46660148E-06
  2.97434566E-04  4.34531966E-04 -6.06086088E-04  7.42740887E-07  1.96515314E-06
  3.53182595E-04  9.16864999E-04  5.30253558E-08 -2.49094401E-05 -1.38744644E-05
  3.82181963E-07 -3.69467630E-07  6.78876021E-06  5.02821095E-05 -1.22592483E-06
 -1.35913798E-04 -1.05229394E-04 -3.27374716E-06 -3.40369740E-07  1.82882568E-04
  1.42969515E-04  9.78281081E-01 -8.40008928E-03  4.17862307E-02 -5.49051635E-03
 -3.04966711E-03  3.25938454E-05 -3.23042489E-03  6.70178493E-06  1.07667250E-03
  2.78137698E-03 -4.66524629E-06  5.94920468E-04  3.04786264E-03 -1.73503986E-06
  2.16025830E-04  5.01325123E-04 -1.91381094E-07 -4.39426074E-04  1.53348883E-06
 -1.76851251E-06  4.43564604E-05 -3.28962383E-04  1.03048426E-03 -9.76261671E-07
  1.89248362E-06 -3.22758086E-04 -1.27536985E-04  3.60449348E-04 -5.09622291E-06
  3.17617050E-06  6.60851120E-05 -1.11432753E-04  1.34022126E-07 -1.07589212E-04
 -3.52090680E-05  7.59602739E-08 -2.06254539E-07  2.32025350E-05 -5.65254207E-05
 -7.46893583E-07  1.37102508E-04 -2.89961791E-04  1.46847889E-06  4.92592538E-07
 -2.65595763E-05  5.26208058E-04 -1.89142460E-04  9.19932521E-04  1.57505648E-04
  3.02539113E-03  8.88235305E-04 -2.06579228E-04  2.03213553E-04 -2.17059992E-07
 -7.36581407E-04  5.48903248E-04 -4.95404005E-06 -1.21392185E-03  2.75389223E-04
 -2.47766939E-06  5.37489202E-06  3.76538136E-05  1.00651339E-06 -3.97479442E-05
  2.37245716E-07 -1.00526988E-07  3.47279164E-06 -1.10740817E-04  7.36380587E-05
  7.92022532E-07 -3.62506268E-07  1.69862137E-04  2.13719855E-04 -3.62989712E-05
  6.30134293E-07  1.69189678E-07  3.11444747E-04 -7.13988173E-05 -6.57440595E-07
 -7.50887246E-05  6.49500568E-05 -5.11039642E-08 -8.24272892E-07 -6.60157216E-05
 -1.06004696E-04 -1.03011248E-06 -1.08338139E-04  1.69651827E-04  3.76870346E-08
 -1.70756787E-06 -3.13928315E-04 -1.67553046E-04  2.11366137E-02  1.72003148E-02
 -1.61067125E-03  4.60582075E-04  2.75498555E-03 -1.91565094E-03 -4.46790930E-05
  2.10819211E-03 -1.83509172E-03 -3.98679728E-05 -2.18131670E-03  9.66026767E-04
 -5.14916644E-06 -2.39872612E-04 -9.08251305E-06  6.01917080E-06  1.40425689E-04
 -4.78079058E-04  2.80542250E-04  6.42209923E-06 -4.99829496E-06 -5.38316240E-05
 -6.52002448E-04 -6.63315282E-02  1.60708360E-01  4.28195264E-02  9.26700373E-02
  7.76899158E-03  2.19688008E-02  1.71426355E-02  1.22521209E-04  3.02555264E-02
  2.51342258E-02  1.82107287E-04  1.46906569E-02  6.07184427E-03  2.48931562E-05
  1.31324931E-03 -2.39615385E-03  7.68182633E-06 -1.82780304E-03 -1.02800982E-05
  1.68975730E-05  1.19694560E-03  1.36231082E-03 -4.11680987E-03 -1.72993138E-05
  5.39942496E-05  3.29253157E-03  2.88080700E-03  1.03201201E-03  1.40426744E-05
 -1.37674140E-05  1.11178802E-03  1.14147343E-03 -1.22418983E-05 -7.25921408E-04
 -6.83567317E-04 -4.62170016E-06 -1.27096094E-05  7.31109419E-04  1.29744511E-03
 -7.82638494E-06  4.21894956E-04  4.24316958E-04 -7.84783334E-06  6.66222838E-06
  2.84759554E-04 -1.24345571E-04 -1.30094979E-01  3.07497225E-01  8.09900147E-02
  6.34813146E-02  4.78680132E-04  5.37852862E-02 -6.87514573E-02  2.54710801E-04
  5.12513527E-02 -8.67025992E-02  2.97388959E-04  6.00410326E-03  7.29965552E-03
  4.54971045E-05  1.09735376E-03  2.97832908E-03 -6.35471397E-06 -9.28929693E-03
  4.67550229E-05 -4.64008577E-05  2.71449630E-03 -1.02546761E-02 -1.14717535E-02
  4.79535486E-05 -5.22110566E-05  3.48708915E-03 -1.04483845E-02  6.17000125E-03
 -3.34653861E-05  2.24047317E-05 -4.59055268E-04 -3.19096819E-04 -2.37733298E-05
 -1.54923647E-03  3.12095105E-03  1.11350200E-05 -2.95640521E-05 -2.05990601E-03
 -7.01441341E-03  1.25749356E-07  1.15680552E-03 -8.60708928E-04  8.00814668E-06
  1.63802572E-07 -5.22323385E-04  7.44961770E-04 -1.50176193E-01  3.59178602E-01
  9.62801371E-02  1.79298042E-01 -1.50741415E-02 -6.80657151E-02  4.70283075E-02
 -1.95561969E-04 -8.64059586E-02  5.93687761E-02 -2.56248358E-04 -1.55225864E-02
  8.89460598E-03 -5.65146340E-05  7.30881309E-03 -5.10964750E-03  2.54955312E-05
 -5.15951835E-03  3.58249249E-05 -2.57811441E-05  2.90780572E-03 -8.04116206E-03
 -9.47373130E-03  7.75919754E-05 -5.09649397E-05  5.89890767E-03 -1.67376138E-02
  2.50994434E-03 -9.16604695E-06  1.38881202E-05 -1.21786616E-03  4.33203663E-03
  2.10913765E-05  2.68191443E-03 -1.85977827E-03 -1.20384187E-05  2.70211353E-05
  1.29525609E-03  4.73518650E-03  5.02128436E-06  8.97197763E-06 -2.87952556E-04
 -4.72572632E-06  5.87095870E-06  1.06694150E-03  1.88621485E-03  8.02792736E-02
  7.88875029E-02 -2.06625918E-02 -2.88315734E-03  9.52786457E-03 -8.39393447E-03
 -1.78630832E-04  1.35102766E-02 -6.18160919E-03 -1.97927644E-04 -6.47395699E-03
  4.71228545E-03  1.20653887E-04 -1.32728721E-03 -5.76675818E-05  3.62992029E-05
  1.00457886E-03 -2.33837690E-03  3.90846553E-04 -1.60500729E-05 -1.77857654E-05
  2.58015725E-03 -3.08035606E-04 -1.81440591E-01  4.42010304E-01  1.20606974E-01
  2.57780379E-01  1.14310930E-02 -2.47169314E-03  4.11496853E-02  4.56458873E-04