 Entering Gaussian System, Link 0=g16
 Input=hono_a1_m_20.gjf
 Output=hono_a1_m_20.log
 Initial command:
 /sw/contrib/gaussian/g16/B01/g16/l1.exe "/scr/Gau-18972.inp" -scrdir="/scr/"
 Entering Link 1 = /sw/contrib/gaussian/g16/B01/g16/l1.exe PID=     18973.
  
 Copyright (c) 1988-2017, Gaussian, Inc.  All Rights Reserved.
  
 This is part of the Gaussian(R) 16 program.  It is based on
 the Gaussian(R) 09 system (copyright 2009, Gaussian, Inc.),
 the Gaussian(R) 03 system (copyright 2003, Gaussian, Inc.),
 the Gaussian(R) 98 system (copyright 1998, Gaussian, Inc.),
 the Gaussian(R) 94 system (copyright 1995, Gaussian, Inc.),
 the Gaussian 92(TM) system (copyright 1992, Gaussian, Inc.),
 the Gaussian 90(TM) system (copyright 1990, Gaussian, Inc.),
 the Gaussian 88(TM) system (copyright 1988, Gaussian, Inc.),
 the Gaussian 86(TM) system (copyright 1986, Carnegie Mellon
 University), and the Gaussian 82(TM) system (copyright 1983,
 Carnegie Mellon University). Gaussian is a federally registered
 trademark of Gaussian, Inc.
  
 This software contains proprietary and confidential information,
 including trade secrets, belonging to Gaussian, Inc.
  
 This software is provided under written license and may be
 used, copied, transmitted, or stored only in accord with that
 written license.
  
 The following legend is applicable only to US Government
 contracts under FAR:
  
                    RESTRICTED RIGHTS LEGEND
  
 Use, reproduction and disclosure by the US Government is
 subject to restrictions as set forth in subparagraphs (a)
 and (c) of the Commercial Computer Software - Restricted
 Rights clause in FAR 52.227-19.
  
 Gaussian, Inc.
 340 Quinnipiac St., Bldg. 40, Wallingford CT 06492
  
  
 ---------------------------------------------------------------
 Warning -- This program may not be used in any manner that
 competes with the business of Gaussian, Inc. or will provide
 assistance to any competitor of Gaussian, Inc.  The licensee
 of this program is prohibited from giving any competitor of
 Gaussian, Inc. access to this program.  By using this program,
 the user acknowledges that Gaussian, Inc. is engaged in the
 business of creating and licensing software in the field of
 computational chemistry and represents and warrants to the
 licensee that it is not a competitor of Gaussian, Inc. and that
 it will not use this program in any manner prohibited above.
 ---------------------------------------------------------------
  

 Cite this work as:
 Gaussian 16, Revision B.01,
 M. J. Frisch, G. W. Trucks, H. B. Schlegel, G. E. Scuseria, 
 M. A. Robb, J. R. Cheeseman, G. Scalmani, V. Barone, 
 G. A. Petersson, H. Nakatsuji, X. Li, M. Caricato, A. V. Marenich, 
 J. Bloino, B. G. Janesko, R. Gomperts, B. Mennucci, H. P. Hratchian, 
 J. V. Ortiz, A. F. Izmaylov, J. L. Sonnenberg, D. Williams-Young, 
 F. Ding, F. Lipparini, F. Egidi, J. Goings, B. Peng, A. Petrone, 
 T. Henderson, D. Ranasinghe, V. G. Zakrzewski, J. Gao, N. Rega, 
 G. Zheng, W. Liang, M. Hada, M. Ehara, K. Toyota, R. Fukuda, 
 J. Hasegawa, M. Ishida, T. Nakajima, Y. Honda, O. Kitao, H. Nakai, 
 T. Vreven, K. Throssell, J. A. Montgomery, Jr., J. E. Peralta, 
 F. Ogliaro, M. J. Bearpark, J. J. Heyd, E. N. Brothers, K. N. Kudin, 
 V. N. Staroverov, T. A. Keith, R. Kobayashi, J. Normand, 
 K. Raghavachari, A. P. Rendell, J. C. Burant, S. S. Iyengar, 
 J. Tomasi, M. Cossi, J. M. Millam, M. Klene, C. Adamo, R. Cammi, 
 J. W. Ochterski, R. L. Martin, K. Morokuma, O. Farkas, 
 J. B. Foresman, and D. J. Fox, Gaussian, Inc., Wallingford CT, 2016.
 
 ******************************************
 Gaussian 16:  ES64L-G16RevB.01 20-Dec-2017
                31-Jan-2022 
 ******************************************
 %nproc=28
 Will use up to   28 processors via shared memory.
 %mem=120GB
 %chk=/gscratch/ilahie/mccoygrp/coire_hoono/hono/hono_a1_m_20.chk
 -------------------------------------
 #p SP mp2/aug-cc-pvtz density=current
 -------------------------------------
 1/30=1,38=1,172=1/1;
 2/12=2,17=6,18=5,40=1/2;
 3/5=16,6=1,7=10,11=9,25=1,30=1,71=1/1,2,3;
 4//1;
 5/5=2,38=5/2;
 8/6=4,10=1/1;
 9/15=1,16=-3/6;
 10/5=1,13=10/2;
 6/7=2,8=2,9=2,10=2,22=-1/1;
 99/5=1,9=1/99;
 Leave Link    1 at Mon Jan 31 11:55:58 2022, MaxMem= 16106127360 cpu:               2.5 elap:               0.1
 (Enter /sw/contrib/gaussian/g16/B01/g16/l101.exe)
 -----
 title
 -----
 Symbolic Z-matrix:
 Charge =  0 Multiplicity = 1
 H
 O                    1    r1
 N                    2    r2       1    a1
 O                    3    r3       2    a2       1    d1       0
       Variables:
  r1                    0.97026                  
  r2                    1.42776                  
  r3                    1.1768                   
  a1                   99.62779                  
  a2                  110.70859                  
  d1                  180.                       
 
 ITRead=  0  0  0  0
 MicOpt= -1 -1 -1 -1
 NAtoms=      4 NQM=        4 NQMF=       0 NMMI=      0 NMMIF=      0
                NMic=       0 NMicF=      0.
                    Isotopes and Nuclear Properties:
 (Nuclear quadrupole moments (NQMom) in fm**2, nuclear magnetic moments (NMagM)
  in nuclear magnetons)

  Atom         1           2           3           4
 IAtWgt=           1          16          14          16
 AtmWgt=   1.0078250  15.9949146  14.0030740  15.9949146
 NucSpn=           1           0           2           0
 AtZEff=  -0.0000000  -0.0000000  -0.0000000  -0.0000000
 NQMom=    0.0000000   0.0000000   2.0440000   0.0000000
 NMagM=    2.7928460   0.0000000   0.4037610   0.0000000
 AtZNuc=   1.0000000   8.0000000   7.0000000   8.0000000
 Leave Link  101 at Mon Jan 31 11:55:58 2022, MaxMem= 16106127360 cpu:               3.2 elap:               0.2
 (Enter /sw/contrib/gaussian/g16/B01/g16/l202.exe)
                          Input orientation:                          
 ---------------------------------------------------------------------
 Center     Atomic      Atomic             Coordinates (Angstroms)
 Number     Number       Type             X           Y           Z
 ---------------------------------------------------------------------
      1          1           0        0.000000    0.000000    0.000000
      2          8           0        0.000000    0.000000    0.970263
      3          7           0        1.407654    0.000000    1.209052
      4          8           0        1.633828    0.000000    2.363915
 ---------------------------------------------------------------------
                    Distance matrix (angstroms):
                    1          2          3          4
     1  H    0.000000
     2  O    0.970263   0.000000
     3  N    1.855612   1.427764   0.000000
     4  O    2.873584   2.147478   1.176802   0.000000
 Stoichiometry    HNO2
 Framework group  CS[SG(HNO2)]
 Deg. of freedom     5
 Full point group                 CS      NOp   2
 Largest Abelian subgroup         CS      NOp   2
 Largest concise Abelian subgroup C1      NOp   1
                         Standard orientation:                         
 ---------------------------------------------------------------------
 Center     Atomic      Atomic             Coordinates (Angstroms)
 Number     Number       Type             X           Y           Z
 ---------------------------------------------------------------------
      1          1           0       -1.744389   -0.113399   -0.000000
      2          8           0       -0.899100   -0.589735   -0.000000
      3          7           0        0.000000    0.519377    0.000000
      4          8           0        1.117149    0.149455    0.000000
 ---------------------------------------------------------------------
 Rotational constants (GHZ):          92.2643532          12.5942822          11.0816176
 Leave Link  202 at Mon Jan 31 11:55:58 2022, MaxMem= 16106127360 cpu:               0.3 elap:               0.0
 (Enter /sw/contrib/gaussian/g16/B01/g16/l301.exe)
 Standard basis: Aug-CC-pVTZ (5D, 7F)
 Ernie: Thresh=  0.10000D-02 Tol=  0.10000D-05 Strict=F.
 Ernie:  9 primitive shells out of 101 were deleted.
 There are   129 symmetry adapted cartesian basis functions of A'  symmetry.
 There are    61 symmetry adapted cartesian basis functions of A"  symmetry.
 There are   106 symmetry adapted basis functions of A'  symmetry.
 There are    55 symmetry adapted basis functions of A"  symmetry.
   161 basis functions,   243 primitive gaussians,   190 cartesian basis functions
    12 alpha electrons       12 beta electrons
       nuclear repulsion energy        69.5405859076 Hartrees.
 IExCor=    0 DFT=F Ex=HF Corr=None ExCW=0 ScaHFX=  1.000000
 ScaDFX=  1.000000  1.000000  1.000000  1.000000 ScalE2=  1.000000  1.000000
 IRadAn=      5 IRanWt=     -1 IRanGd=            0 ICorTp=0 IEmpDi=  4
 NAtoms=    4 NActive=    4 NUniq=    4 SFac= 1.00D+00 NAtFMM=   60 NAOKFM=F Big=F
 Integral buffers will be    131072 words long.
 Raffenetti 1 integral format.
 Two-electron integral symmetry is turned on.
 Leave Link  301 at Mon Jan 31 11:55:58 2022, MaxMem= 16106127360 cpu:               1.6 elap:               0.1
 (Enter /sw/contrib/gaussian/g16/B01/g16/l302.exe)
 NPDir=0 NMtPBC=     1 NCelOv=     1 NCel=       1 NClECP=     1 NCelD=      1
         NCelK=      1 NCelE2=     1 NClLst=     1 CellRange=     0.0.
 One-electron integrals computed using PRISM.
 One-electron integral symmetry used in STVInt
 NBasis=   161 RedAO= T EigKep=  1.98D-04  NBF=   106    55
 NBsUse=   161 1.00D-06 EigRej= -1.00D+00 NBFU=   106    55
 Leave Link  302 at Mon Jan 31 11:55:58 2022, MaxMem= 16106127360 cpu:               4.7 elap:               0.2
 (Enter /sw/contrib/gaussian/g16/B01/g16/l303.exe)
 DipDrv:  MaxL=1.
 Leave Link  303 at Mon Jan 31 11:55:58 2022, MaxMem= 16106127360 cpu:               1.4 elap:               0.1
 (Enter /sw/contrib/gaussian/g16/B01/g16/l401.exe)
 ExpMin= 2.53D-02 ExpMax= 1.53D+04 ExpMxC= 5.22D+02 IAcc=3 IRadAn=         5 AccDes= 0.00D+00
 Harris functional with IExCor=  205 and IRadAn=       5 diagonalized for initial guess.
 HarFok:  IExCor=  205 AccDes= 0.00D+00 IRadAn=         5 IDoV= 1 UseB2=F ITyADJ=14
 ICtDFT=  3500011 ScaDFX=  1.000000  1.000000  1.000000  1.000000
 FoFCou: FMM=F IPFlag=           0 FMFlag=      100000 FMFlg1=           0
         NFxFlg=           0 DoJE=T BraDBF=F KetDBF=T FulRan=T
         wScrn=  0.000000 ICntrl=       500 IOpCl=  0 I1Cent=   200000004 NGrid=           0
         NMat0=    1 NMatS0=      1 NMatT0=    0 NMatD0=    1 NMtDS0=    0 NMtDT0=    0
 Petite list used in FoFCou.
 Harris En= -204.818013043314    
 JPrj=0 DoOrth=F DoCkMO=F.
 Initial guess orbital symmetries:
       Occupied  (A') (A') (A') (A') (A') (A') (A') (A') (A") (A')
                 (A") (A')
       Virtual   (A") (A') (A') (A') (A') (A") (A') (A') (A') (A")
                 (A') (A") (A') (A') (A") (A') (A') (A') (A') (A')
                 (A") (A') (A") (A') (A') (A') (A") (A") (A') (A')
                 (A") (A') (A') (A") (A") (A') (A') (A') (A") (A')
                 (A') (A") (A') (A') (A") (A') (A') (A") (A') (A')
                 (A") (A') (A") (A') (A') (A") (A') (A") (A') (A")
                 (A') (A') (A") (A') (A') (A') (A") (A') (A") (A")
                 (A') (A') (A') (A") (A') (A") (A') (A') (A") (A")
                 (A') (A') (A") (A') (A') (A') (A") (A") (A') (A')
                 (A') (A') (A") (A') (A') (A") (A') (A") (A') (A")
                 (A") (A') (A') (A') (A') (A") (A') (A") (A') (A")
                 (A') (A') (A") (A') (A") (A') (A') (A") (A') (A')
                 (A') (A') (A") (A') (A") (A") (A') (A') (A") (A')
                 (A") (A") (A') (A") (A') (A") (A') (A") (A") (A')
                 (A') (A') (A') (A') (A') (A') (A') (A') (A')
 The electronic state of the initial guess is 1-A'.
 Leave Link  401 at Mon Jan 31 11:55:58 2022, MaxMem= 16106127360 cpu:               6.0 elap:               0.3
 (Enter /sw/contrib/gaussian/g16/B01/g16/l502.exe)
 Keep R1 ints in memory in symmetry-blocked form, NReq=128070121.
 FoFCou: FMM=F IPFlag=           0 FMFlag=           0 FMFlg1=           0
         NFxFlg=           0 DoJE=F BraDBF=F KetDBF=F FulRan=T
         wScrn=  0.000000 ICntrl=       600 IOpCl=  0 I1Cent=           0 NGrid=           0
         NMat0=    1 NMatS0=  13041 NMatT0=    0 NMatD0=    1 NMtDS0=    0 NMtDT0=    0
 Petite list used in FoFCou.
 Closed shell SCF:
 Using DIIS extrapolation, IDIIS=  1040.
 NGot= 16106127360 LenX= 16063019402 LenY= 16062982861
 Requested convergence on RMS density matrix=1.00D-08 within 128 cycles.
 Requested convergence on MAX density matrix=1.00D-06.
 Requested convergence on             energy=1.00D-06.
 No special actions if energy rises.

 Cycle   1  Pass 1  IDiag  1:
 E= -204.613141095091    
 DIIS: error= 3.29D-02 at cycle   1 NSaved=   1.
 NSaved= 1 IEnMin= 1 EnMin= -204.613141095091     IErMin= 1 ErrMin= 3.29D-02
 ErrMax= 3.29D-02  0.00D+00 EMaxC= 1.00D-01 BMatC= 3.55D-01 BMatP= 3.55D-01
 IDIUse=3 WtCom= 6.71D-01 WtEn= 3.29D-01
 Coeff-Com:  0.100D+01
 Coeff-En:   0.100D+01
 Coeff:      0.100D+01
 Gap=     0.508 Goal=   None    Shift=    0.000
 GapD=    0.508 DampG=2.000 DampE=0.500 DampFc=1.0000 IDamp=-1.
 RMSDP=2.05D-03 MaxDP=1.22D-01              OVMax= 1.02D-01

 Cycle   2  Pass 1  IDiag  1:
 E= -204.677686923800     Delta-E=       -0.064545828708 Rises=F Damp=F
 DIIS: error= 2.10D-02 at cycle   2 NSaved=   2.
 NSaved= 2 IEnMin= 2 EnMin= -204.677686923800     IErMin= 2 ErrMin= 2.10D-02
 ErrMax= 2.10D-02  0.00D+00 EMaxC= 1.00D-01 BMatC= 6.87D-02 BMatP= 3.55D-01
 IDIUse=3 WtCom= 7.90D-01 WtEn= 2.10D-01
 Coeff-Com:  0.235D+00 0.765D+00
 Coeff-En:   0.114D+00 0.886D+00
 Coeff:      0.209D+00 0.791D+00
 Gap=     0.512 Goal=   None    Shift=    0.000
 RMSDP=1.00D-03 MaxDP=3.65D-02 DE=-6.45D-02 OVMax= 8.85D-02

 Cycle   3  Pass 1  IDiag  1:
 E= -204.712140688914     Delta-E=       -0.034453765115 Rises=F Damp=F
 DIIS: error= 7.26D-03 at cycle   3 NSaved=   3.
 NSaved= 3 IEnMin= 3 EnMin= -204.712140688914     IErMin= 3 ErrMin= 7.26D-03
 ErrMax= 7.26D-03  0.00D+00 EMaxC= 1.00D-01 BMatC= 1.54D-02 BMatP= 6.87D-02
 IDIUse=3 WtCom= 9.27D-01 WtEn= 7.26D-02
 Coeff-Com: -0.363D-01 0.302D+00 0.734D+00
 Coeff-En:   0.000D+00 0.838D-01 0.916D+00
 Coeff:     -0.337D-01 0.286D+00 0.747D+00
 Gap=     0.494 Goal=   None    Shift=    0.000
 RMSDP=4.09D-04 MaxDP=2.24D-02 DE=-3.45D-02 OVMax= 2.65D-02

 Cycle   4  Pass 1  IDiag  1:
 E= -204.722379008942     Delta-E=       -0.010238320028 Rises=F Damp=F
 DIIS: error= 1.55D-03 at cycle   4 NSaved=   4.
 NSaved= 4 IEnMin= 4 EnMin= -204.722379008942     IErMin= 4 ErrMin= 1.55D-03
 ErrMax= 1.55D-03  0.00D+00 EMaxC= 1.00D-01 BMatC= 2.42D-04 BMatP= 1.54D-02
 IDIUse=3 WtCom= 9.84D-01 WtEn= 1.55D-02
 Coeff-Com: -0.715D-02 0.203D-01 0.114D+00 0.873D+00
 Coeff-En:   0.000D+00 0.000D+00 0.000D+00 0.100D+01
 Coeff:     -0.704D-02 0.199D-01 0.112D+00 0.875D+00
 Gap=     0.489 Goal=   None    Shift=    0.000
 RMSDP=8.41D-05 MaxDP=1.85D-03 DE=-1.02D-02 OVMax= 8.24D-03

 Cycle   5  Pass 1  IDiag  1:
 E= -204.722750339185     Delta-E=       -0.000371330243 Rises=F Damp=F
 DIIS: error= 1.04D-03 at cycle   5 NSaved=   5.
 NSaved= 5 IEnMin= 5 EnMin= -204.722750339185     IErMin= 5 ErrMin= 1.04D-03
 ErrMax= 1.04D-03  0.00D+00 EMaxC= 1.00D-01 BMatC= 6.25D-05 BMatP= 2.42D-04
 IDIUse=3 WtCom= 9.90D-01 WtEn= 1.04D-02
 Coeff-Com:  0.706D-02-0.722D-01-0.155D+00 0.223D+00 0.997D+00
 Coeff-En:   0.000D+00 0.000D+00 0.000D+00 0.000D+00 0.100D+01
 Coeff:      0.698D-02-0.715D-01-0.153D+00 0.221D+00 0.997D+00
 Gap=     0.489 Goal=   None    Shift=    0.000
 RMSDP=6.74D-05 MaxDP=1.63D-03 DE=-3.71D-04 OVMax= 8.93D-03

 Cycle   6  Pass 1  IDiag  1:
 E= -204.722923481119     Delta-E=       -0.000173141933 Rises=F Damp=F
 DIIS: error= 2.36D-04 at cycle   6 NSaved=   6.
 NSaved= 6 IEnMin= 6 EnMin= -204.722923481119     IErMin= 6 ErrMin= 2.36D-04
 ErrMax= 2.36D-04  0.00D+00 EMaxC= 1.00D-01 BMatC= 1.15D-05 BMatP= 6.25D-05
 IDIUse=3 WtCom= 9.98D-01 WtEn= 2.36D-03
 Coeff-Com:  0.580D-03 0.908D-03-0.274D-02-0.209D+00 0.495D-02 0.120D+01
 Coeff-En:   0.000D+00 0.000D+00 0.000D+00 0.000D+00 0.000D+00 0.100D+01
 Coeff:      0.578D-03 0.906D-03-0.273D-02-0.208D+00 0.494D-02 0.120D+01
 Gap=     0.491 Goal=   None    Shift=    0.000
 RMSDP=3.82D-05 MaxDP=7.19D-04 DE=-1.73D-04 OVMax= 4.07D-03

 Cycle   7  Pass 1  IDiag  1:
 E= -204.722962575672     Delta-E=       -0.000039094553 Rises=F Damp=F
 DIIS: error= 1.16D-04 at cycle   7 NSaved=   7.
 NSaved= 7 IEnMin= 7 EnMin= -204.722962575672     IErMin= 7 ErrMin= 1.16D-04
 ErrMax= 1.16D-04  0.00D+00 EMaxC= 1.00D-01 BMatC= 1.78D-06 BMatP= 1.15D-05
 IDIUse=3 WtCom= 9.99D-01 WtEn= 1.16D-03
 Coeff-Com: -0.124D-02 0.126D-01 0.317D-01-0.503D-01-0.135D+00-0.769D-01
 Coeff-Com:  0.122D+01
 Coeff-En:   0.000D+00 0.000D+00 0.000D+00 0.000D+00 0.000D+00 0.000D+00
 Coeff-En:   0.100D+01
 Coeff:     -0.123D-02 0.126D-01 0.316D-01-0.502D-01-0.135D+00-0.768D-01
 Coeff:      0.122D+01
 Gap=     0.490 Goal=   None    Shift=    0.000
 RMSDP=1.51D-05 MaxDP=3.30D-04 DE=-3.91D-05 OVMax= 1.79D-03

 Cycle   8  Pass 1  IDiag  1:
 E= -204.722968139225     Delta-E=       -0.000005563553 Rises=F Damp=F
 DIIS: error= 4.46D-05 at cycle   8 NSaved=   8.
 NSaved= 8 IEnMin= 8 EnMin= -204.722968139225     IErMin= 8 ErrMin= 4.46D-05
 ErrMax= 4.46D-05  0.00D+00 EMaxC= 1.00D-01 BMatC= 1.88D-07 BMatP= 1.78D-06
 IDIUse=1 WtCom= 1.00D+00 WtEn= 0.00D+00
 Coeff-Com: -0.356D-04-0.802D-03-0.655D-03 0.206D-01 0.240D-01-0.150D+00
 Coeff-Com: -0.134D+00 0.124D+01
 Coeff:     -0.356D-04-0.802D-03-0.655D-03 0.206D-01 0.240D-01-0.150D+00
 Coeff:     -0.134D+00 0.124D+01
 Gap=     0.490 Goal=   None    Shift=    0.000
 RMSDP=4.93D-06 MaxDP=9.92D-05 DE=-5.56D-06 OVMax= 4.78D-04

 Cycle   9  Pass 1  IDiag  1:
 E= -204.722968683368     Delta-E=       -0.000000544143 Rises=F Damp=F
 DIIS: error= 1.15D-05 at cycle   9 NSaved=   9.
 NSaved= 9 IEnMin= 9 EnMin= -204.722968683368     IErMin= 9 ErrMin= 1.15D-05
 ErrMax= 1.15D-05  0.00D+00 EMaxC= 1.00D-01 BMatC= 1.55D-08 BMatP= 1.88D-07
 IDIUse=1 WtCom= 1.00D+00 WtEn= 0.00D+00
 Coeff-Com:  0.107D-03-0.994D-03-0.242D-02-0.130D-02 0.121D-01 0.379D-01
 Coeff-Com: -0.854D-01-0.280D+00 0.132D+01
 Coeff:      0.107D-03-0.994D-03-0.242D-02-0.130D-02 0.121D-01 0.379D-01
 Coeff:     -0.854D-01-0.280D+00 0.132D+01
 Gap=     0.490 Goal=   None    Shift=    0.000
 RMSDP=1.28D-06 MaxDP=3.42D-05 DE=-5.44D-07 OVMax= 9.78D-05

 Cycle  10  Pass 1  IDiag  1:
 E= -204.722968725286     Delta-E=       -0.000000041918 Rises=F Damp=F
 DIIS: error= 2.81D-06 at cycle  10 NSaved=  10.
 NSaved=10 IEnMin=10 EnMin= -204.722968725286     IErMin=10 ErrMin= 2.81D-06
 ErrMax= 2.81D-06  0.00D+00 EMaxC= 1.00D-01 BMatC= 1.29D-09 BMatP= 1.55D-08
 IDIUse=1 WtCom= 1.00D+00 WtEn= 0.00D+00
 Coeff-Com: -0.266D-04 0.321D-03 0.803D-03-0.209D-02-0.445D-02 0.200D-02
 Coeff-Com:  0.378D-01-0.513D-01-0.282D+00 0.130D+01
 Coeff:     -0.266D-04 0.321D-03 0.803D-03-0.209D-02-0.445D-02 0.200D-02
 Coeff:      0.378D-01-0.513D-01-0.282D+00 0.130D+01
 Gap=     0.490 Goal=   None    Shift=    0.000
 RMSDP=3.36D-07 MaxDP=1.14D-05 DE=-4.19D-08 OVMax= 3.07D-05

 Cycle  11  Pass 1  IDiag  1:
 E= -204.722968728768     Delta-E=       -0.000000003482 Rises=F Damp=F
 DIIS: error= 1.15D-06 at cycle  11 NSaved=  11.
 NSaved=11 IEnMin=11 EnMin= -204.722968728768     IErMin=11 ErrMin= 1.15D-06
 ErrMax= 1.15D-06  0.00D+00 EMaxC= 1.00D-01 BMatC= 1.21D-10 BMatP= 1.29D-09
 IDIUse=1 WtCom= 1.00D+00 WtEn= 0.00D+00
 Coeff-Com: -0.412D-06-0.193D-04-0.467D-04 0.558D-03 0.105D-02-0.459D-02
 Coeff-Com: -0.558D-02 0.449D-01-0.191D-01-0.482D+00 0.147D+01
 Coeff:     -0.412D-06-0.193D-04-0.467D-04 0.558D-03 0.105D-02-0.459D-02
 Coeff:     -0.558D-02 0.449D-01-0.191D-01-0.482D+00 0.147D+01
 Gap=     0.490 Goal=   None    Shift=    0.000
 RMSDP=1.13D-07 MaxDP=4.23D-06 DE=-3.48D-09 OVMax= 1.11D-05

 Cycle  12  Pass 1  IDiag  1:
 E= -204.722968729147     Delta-E=       -0.000000000380 Rises=F Damp=F
 DIIS: error= 1.87D-07 at cycle  12 NSaved=  12.
 NSaved=12 IEnMin=12 EnMin= -204.722968729147     IErMin=12 ErrMin= 1.87D-07
 ErrMax= 1.87D-07  0.00D+00 EMaxC= 1.00D-01 BMatC= 6.85D-12 BMatP= 1.21D-10
 IDIUse=1 WtCom= 1.00D+00 WtEn= 0.00D+00
 Coeff-Com:  0.239D-05-0.230D-04-0.552D-04-0.602D-04 0.150D-03 0.158D-02
 Coeff-Com: -0.199D-02-0.122D-01 0.384D-01 0.397D-01-0.473D+00 0.141D+01
 Coeff:      0.239D-05-0.230D-04-0.552D-04-0.602D-04 0.150D-03 0.158D-02
 Coeff:     -0.199D-02-0.122D-01 0.384D-01 0.397D-01-0.473D+00 0.141D+01
 Gap=     0.490 Goal=   None    Shift=    0.000
 RMSDP=3.14D-08 MaxDP=7.24D-07 DE=-3.80D-10 OVMax= 2.60D-06

 Cycle  13  Pass 1  IDiag  1:
 E= -204.722968729169     Delta-E=       -0.000000000022 Rises=F Damp=F
 DIIS: error= 4.44D-08 at cycle  13 NSaved=  13.
 NSaved=13 IEnMin=13 EnMin= -204.722968729169     IErMin=13 ErrMin= 4.44D-08
 ErrMax= 4.44D-08  0.00D+00 EMaxC= 1.00D-01 BMatC= 2.09D-13 BMatP= 6.85D-12
 IDIUse=1 WtCom= 1.00D+00 WtEn= 0.00D+00
 Coeff-Com: -0.443D-06 0.567D-05 0.137D-04-0.220D-04-0.869D-04-0.563D-04
 Coeff-Com:  0.744D-03-0.249D-03-0.523D-02 0.123D-01 0.254D-01-0.295D+00
 Coeff-Com:  0.126D+01
 Coeff:     -0.443D-06 0.567D-05 0.137D-04-0.220D-04-0.869D-04-0.563D-04
 Coeff:      0.744D-03-0.249D-03-0.523D-02 0.123D-01 0.254D-01-0.295D+00
 Coeff:      0.126D+01
 Gap=     0.490 Goal=   None    Shift=    0.000
 RMSDP=5.41D-09 MaxDP=9.30D-08 DE=-2.20D-11 OVMax= 4.11D-07

 SCF Done:  E(RHF) =  -204.722968729     A.U. after   13 cycles
            NFock= 13  Conv=0.54D-08     -V/T= 2.0023
 KE= 2.042461929313D+02 PE=-6.230221985919D+02 EE= 1.445124510239D+02
 Leave Link  502 at Mon Jan 31 11:56:00 2022, MaxMem= 16106127360 cpu:              32.3 elap:               1.6
 (Enter /sw/contrib/gaussian/g16/B01/g16/l801.exe)
 ExpMin= 2.53D-02 ExpMax= 1.53D+04 ExpMxC= 5.22D+02 IAcc=3 IRadAn=         5 AccDes= 0.00D+00
 HarFok:  IExCor=  205 AccDes= 0.00D+00 IRadAn=         5 IDoV=-2 UseB2=F ITyADJ=14
 ICtDFT= 12500011 ScaDFX=  1.000000  1.000000  1.000000  1.000000
 Largest valence mixing into a core orbital is  2.06D-04
 Largest core mixing into a valence orbital is  3.33D-05
 Range of M.O.s used for correlation:     4   161
 NBasis=   161 NAE=    12 NBE=    12 NFC=     3 NFV=     0
 NROrb=    158 NOA=     9 NOB=     9 NVA=   149 NVB=   149

 **** Warning!!: The largest alpha MO coefficient is  0.19123414D+02

 Leave Link  801 at Mon Jan 31 11:56:00 2022, MaxMem= 16106127360 cpu:               3.0 elap:               0.2
 (Enter /sw/contrib/gaussian/g16/B01/g16/l906.exe)
 Frozen-core derivative calculation, NFC=   3 NFV=   0.
 FulOut=F Deriv=T AODrv=F NAtomX=     4
   MMem=         161  MDisk=           9 MDiskD=           9
  W3Min=      367080 MinDsk=      792425 NBas6D=         190
 NBas2D=       18625    NTT=       18145    LW2=     3500000
    MDV= 16105788715 MDiskM=      423783 NBas2p=       18621
 Fully in-core method, ICMem=   359292905.
 IMap=   1   2   3   4   5   6   7   8   9  10  11  12
 JobTyp=1 Pass  1 fully in-core, NPsUse= 28.
 Compute canonical integrals.
 FoFCou: FMM=F IPFlag=           0 FMFlag=           0 FMFlg1=           0
         NFxFlg=           0 DoJE=F BraDBF=F KetDBF=F FulRan=T
         wScrn=  0.000000 ICntrl=       600 IOpCl=  1 I1Cent=           0 NGrid=           0
         NMat0=    1 NMatS0=  18625 NMatT0=    0 NMatD0=    1 NMtDS0=    0 NMtDT0=    0
 Symmetry not used in FoFCou.
 Spin components of T(2) and E(2):
     alpha-alpha T2 =       0.2533888496D-01 E2=     -0.9070842342D-01
     alpha-beta  T2 =       0.1375872665D+00 E2=     -0.5168542931D+00
     beta-beta   T2 =       0.2533888496D-01 E2=     -0.9070842342D-01
 The integrals were generated   1 times.
 ANorm=    0.1090075702D+01
 E2 =    -0.6982711400D+00 EUMP2 =    -0.20542123986912D+03
 Leave Link  906 at Mon Jan 31 11:56:04 2022, MaxMem= 16106127360 cpu:              96.1 elap:               3.5
 (Enter /sw/contrib/gaussian/g16/B01/g16/l1002.exe)
 Minotr:  Closed shell wavefunction.
          Computing MP2/KS-MP2 derivatives.
          Using Z-Vector for PSCF gradient.
          Skipping F1 and S1 gradient terms here.
          Frozen-core window.
          Direct CPHF calculation.
          Differentiating once with respect to electric field.
                with respect to dipole field.
          Electric field/nuclear overlap derivatives assumed to be zero.
          Using symmetry in CPHF.
          Requested convergence is 1.0D-10 RMS, and 1.0D-09 maximum.
          NewPWx=F KeepS1=T KeepF1=T KeepIn=T MapXYZ=F SortEE=F KeepMc=T.
 Keep R1 ints in memory in symmetry-blocked form, NReq=128071053.
 FoFCou: FMM=F IPFlag=           0 FMFlag=           0 FMFlg1=           0
         NFxFlg=           0 DoJE=F BraDBF=F KetDBF=F FulRan=T
         wScrn=  0.000000 ICntrl=       600 IOpCl=  0 I1Cent=           0 NGrid=           0
         NMat0=    1 NMatS0=  13041 NMatT0=    0 NMatD0=    1 NMtDS0=    0 NMtDT0=    0
 Petite list used in FoFCou.
          MDV=   16106127360 using IRadAn=       5.
          Solving linear equations separately, MaxMat=       0.
          There are     1 degrees of freedom in the 1st order CPHF.  IDoFFX=0 NUNeed=     1.
 LinEq1:  Iter=  0 NonCon=     1 RMS=6.63D-03 Max=1.33D-01 NDo=     1
 AX will form     1 AO Fock derivatives at one time.
 LinEq1:  Iter=  1 NonCon=     1 RMS=2.26D-03 Max=4.08D-02 NDo=     1
 LinEq1:  Iter=  2 NonCon=     1 RMS=9.17D-04 Max=1.18D-02 NDo=     1
 LinEq1:  Iter=  3 NonCon=     1 RMS=4.41D-04 Max=8.61D-03 NDo=     1
 LinEq1:  Iter=  4 NonCon=     1 RMS=1.37D-04 Max=1.50D-03 NDo=     1
 LinEq1:  Iter=  5 NonCon=     1 RMS=6.10D-05 Max=9.94D-04 NDo=     1
 LinEq1:  Iter=  6 NonCon=     1 RMS=2.33D-05 Max=2.71D-04 NDo=     1
 LinEq1:  Iter=  7 NonCon=     1 RMS=5.94D-06 Max=6.14D-05 NDo=     1
 LinEq1:  Iter=  8 NonCon=     1 RMS=1.44D-06 Max=1.66D-05 NDo=     1
 LinEq1:  Iter=  9 NonCon=     1 RMS=2.66D-07 Max=2.02D-06 NDo=     1
 LinEq1:  Iter= 10 NonCon=     1 RMS=4.90D-08 Max=3.84D-07 NDo=     1
 LinEq1:  Iter= 11 NonCon=     1 RMS=7.89D-09 Max=8.07D-08 NDo=     1
 LinEq1:  Iter= 12 NonCon=     1 RMS=1.06D-09 Max=7.75D-09 NDo=     1
 LinEq1:  Iter= 13 NonCon=     1 RMS=2.22D-10 Max=2.32D-09 NDo=     1
 LinEq1:  Iter= 14 NonCon=     0 RMS=4.29D-11 Max=3.70D-10 NDo=     1
 Linear equations converged to 1.000D-10 1.000D-09 after    14 iterations.
 End of Minotr F.D. properties file   721 does not exist.
 End of Minotr F.D. properties file   722 does not exist.
 End of Minotr F.D. properties file   788 does not exist.
 Leave Link 1002 at Mon Jan 31 11:56:06 2022, MaxMem= 16106127360 cpu:              33.9 elap:               1.9
 (Enter /sw/contrib/gaussian/g16/B01/g16/l601.exe)
 Copying SCF densities to generalized density rwf, IOpCl= 0 IROHF=0.

 **********************************************************************

            Population analysis using the MP2 Density.

 **********************************************************************

 Orbital symmetries:
       Occupied  (A') (A') (A') (A') (A') (A') (A') (A') (A") (A')
                 (A") (A')
       Virtual   (A') (A") (A') (A') (A") (A') (A') (A') (A") (A')
                 (A") (A') (A') (A") (A') (A') (A') (A') (A') (A")
                 (A') (A') (A") (A') (A') (A') (A") (A") (A') (A')
                 (A') (A") (A") (A') (A") (A') (A') (A") (A') (A')
                 (A') (A') (A') (A") (A") (A') (A') (A") (A') (A')
                 (A") (A') (A") (A') (A') (A") (A') (A") (A') (A")
                 (A') (A') (A") (A') (A') (A") (A') (A') (A") (A")
                 (A') (A') (A') (A") (A') (A") (A') (A') (A") (A')
                 (A") (A') (A") (A') (A') (A") (A') (A") (A') (A')
                 (A') (A') (A') (A") (A') (A") (A') (A") (A') (A")
                 (A') (A") (A') (A') (A') (A") (A') (A") (A") (A')
                 (A') (A") (A') (A') (A") (A') (A') (A") (A') (A')
                 (A') (A') (A") (A') (A") (A") (A') (A') (A") (A')
                 (A") (A") (A') (A") (A') (A") (A') (A") (A") (A')
                 (A') (A') (A') (A') (A') (A') (A') (A') (A')
 The electronic state is 1-A'.
 Alpha  occ. eigenvalues --  -20.66528 -20.64325 -15.79866  -1.60316  -1.40387
 Alpha  occ. eigenvalues --   -0.94740  -0.78341  -0.73072  -0.68192  -0.62691
 Alpha  occ. eigenvalues --   -0.52889  -0.46208
 Alpha virt. eigenvalues --    0.02813   0.08012   0.09381   0.09728   0.12861
 Alpha virt. eigenvalues --    0.14367   0.15701   0.17244   0.18742   0.19621
 Alpha virt. eigenvalues --    0.20542   0.23373   0.25697   0.29656   0.30756
 Alpha virt. eigenvalues --    0.32922   0.36712   0.38241   0.42344   0.52480
 Alpha virt. eigenvalues --    0.52645   0.55045   0.57440   0.61229   0.63080
 Alpha virt. eigenvalues --    0.64794   0.67994   0.71448   0.71787   0.74727
 Alpha virt. eigenvalues --    0.77346   0.78365   0.81128   0.81309   0.86117
 Alpha virt. eigenvalues --    0.88267   0.92565   0.93870   0.94473   0.99591
 Alpha virt. eigenvalues --    1.05157   1.06515   1.08287   1.10689   1.16198
 Alpha virt. eigenvalues --    1.20037   1.24587   1.27118   1.35882   1.43200
 Alpha virt. eigenvalues --    1.48420   1.52180   1.52185   1.54442   1.55117
 Alpha virt. eigenvalues --    1.61240   1.65893   1.73096   1.75533   1.82094
 Alpha virt. eigenvalues --    1.85881   1.95902   1.98083   1.99961   2.07607
 Alpha virt. eigenvalues --    2.13144   2.13172   2.19996   2.27116   2.30542
 Alpha virt. eigenvalues --    2.33039   2.38183   2.45145   2.47327   2.49458
 Alpha virt. eigenvalues --    2.50315   2.52027   2.54418   2.57623   2.60654
 Alpha virt. eigenvalues --    2.60931   2.66238   2.76860   2.77440   2.84064
 Alpha virt. eigenvalues --    2.93726   2.95340   3.11356   3.13262   3.18034
 Alpha virt. eigenvalues --    3.25248   3.47423   3.82572   3.85761   4.02557
 Alpha virt. eigenvalues --    4.16580   4.19063   4.21214   4.35110   4.37243
 Alpha virt. eigenvalues --    4.59219   4.63959   4.74384   4.81810   4.87615
 Alpha virt. eigenvalues --    4.88648   4.96361   4.99898   5.07074   5.08474
 Alpha virt. eigenvalues --    5.17389   5.24715   5.26290   5.33753   5.37186
 Alpha virt. eigenvalues --    5.37712   5.58087   5.66723   5.79467   5.98545
 Alpha virt. eigenvalues --    6.13979   6.42889   6.50590   6.50917   6.67679
 Alpha virt. eigenvalues --    6.71335   6.75043   6.85054   6.91645   7.05936
 Alpha virt. eigenvalues --    7.12058   7.17915   7.23096   7.25909   7.25984
 Alpha virt. eigenvalues --    7.33216   7.38082   7.42731   7.48002   7.61018
 Alpha virt. eigenvalues --    7.65119   7.69210   7.80431   7.99433   8.05786
 Alpha virt. eigenvalues --    8.41914  14.22156  15.10778  15.98565
          Condensed to atoms (all electrons):
               1          2          3          4
     1  H    0.584789   0.173605  -0.048006   0.013264
     2  O    0.173605   8.292347  -0.135594  -0.059136
     3  N   -0.048006  -0.135594   7.047512  -0.041624
     4  O    0.013264  -0.059136  -0.041624   8.270334
 Mulliken charges:
               1
     1  H    0.276348
     2  O   -0.271222
     3  N    0.177712
     4  O   -0.182838
 Sum of Mulliken charges =  -0.00000
 Mulliken charges with hydrogens summed into heavy atoms:
               1
     2  O    0.005126
     3  N    0.177712
     4  O   -0.182838
 Electronic spatial extent (au):  <R**2>=            123.3429
 Charge=             -0.0000 electrons
 Dipole moment (field-independent basis, Debye):
    X=             -1.7281    Y=              0.6888    Z=             -0.0000  Tot=              1.8603
 Quadrupole moment (field-independent basis, Debye-Ang):
   XX=            -13.7798   YY=            -18.6771   ZZ=            -16.4555
   XY=             -0.6832   XZ=             -0.0000   YZ=             -0.0000
 Traceless Quadrupole moment (field-independent basis, Debye-Ang):
   XX=              2.5243   YY=             -2.3730   ZZ=             -0.1513
   XY=             -0.6832   XZ=             -0.0000   YZ=             -0.0000
 Octapole moment (field-independent basis, Debye-Ang**2):
  XXX=             -9.8439  YYY=             -1.0496  ZZZ=              0.0000  XYY=              0.9818
  XXY=             -0.1372  XXZ=             -0.0000  XZZ=              1.0055  YZZ=              0.2037
  YYZ=              0.0000  XYZ=              0.0000
 Hexadecapole moment (field-independent basis, Debye-Ang**3):
 XXXX=            -72.3227 YYYY=            -39.3008 ZZZZ=            -13.9184 XXXY=            -12.3621
 XXXZ=             -0.0000 YYYX=            -11.7115 YYYZ=             -0.0000 ZZZX=             -0.0000
 ZZZY=             -0.0000 XXYY=            -22.2025 XXZZ=            -17.4556 YYZZ=             -8.7077
 XXYZ=             -0.0000 YYXZ=             -0.0000 ZZXY=             -4.1474
 N-N= 6.954058590762D+01 E-N=-6.236231493106D+02  KE= 2.052447574778D+02
 Symmetry A'   KE= 1.964192930470D+02
 Symmetry A"   KE= 8.825464430744D+00
 No NMR shielding tensors so no spin-rotation constants.
 Leave Link  601 at Mon Jan 31 11:56:06 2022, MaxMem= 16106127360 cpu:               4.2 elap:               0.2
 (Enter /sw/contrib/gaussian/g16/B01/g16/l9999.exe)
 1\1\GINC-N2206\SP\RMP2-FC\Aug-CC-pVTZ\H1N1O2\CGAVINH\31-Jan-2022\0\\#p
  SP mp2/aug-cc-pvtz density=current\\title\\0,1\H\O,1,0.97026274\N,2,1
 .42776435,1,99.62778541\O,3,1.17680217,2,110.70859147,1,180.,0\\Versio
 n=ES64L-G16RevB.01\State=1-A'\HF=-204.7229687\MP2=-205.4212399\RMSD=5.
 410e-09\Dipole=-0.0976841,0.,-0.72535\Quadrupole=-1.3211714,-0.1125113
 ,1.4336826,0.,1.2941912,0.\PG=CS [SG(H1N1O2)]\\@


 IT IS A QUALITY OF REVOLUTIONS NOT TO GO BY OLD LINES OR OLD LAWS,
 BUT TO BREAK UP BOTH, AND MAKE NEW ONES.
                                              -- A. LINCOLN (1848)
 Job cpu time:       0 days  0 hours  3 minutes 11.0 seconds.
 Elapsed time:       0 days  0 hours  0 minutes  8.4 seconds.
 File lengths (MBytes):  RWF=     16 Int=      0 D2E=      0 Chk=      8 Scr=      1
 Normal termination of Gaussian 16 at Mon Jan 31 11:56:06 2022.
