title                                                                   
SP        RMP2-FC                                                     Aug-CC-pVTZ         
Number of atoms                            I                4
Info1-9                                    I   N=           9
          29          20           0           0           0         110
           1           2           1
Full Title                                 C   N=           1
title       
Route                                      C   N=           4
#p SP mp2/aug-cc-pvtz density=current           
Charge                                     I                0
Multiplicity                               I                1
Number of electrons                        I               24
Number of alpha electrons                  I               12
Number of beta electrons                   I               12
Number of basis functions                  I              161
Number of independent functions            I              161
Number of point charges in /Mol/           I                0
Number of translation vectors              I                0
Atomic numbers                             I   N=           4
           1           8           7           8
Nuclear charges                            R   N=           4
  1.00000000E+00  8.00000000E+00  7.00000000E+00  8.00000000E+00
Current cartesian coordinates              R   N=          12
  3.31898073E+00 -2.48232415E-01  4.04695524E-32  1.69393859E+00 -1.09739282E+00
  7.60878597E-32  1.03883808E-17  9.78326680E-01 -5.80726381E-32 -2.10881118E+00
  2.72386030E-01 -8.18200466E-34
Number of symbols in /Mol/                 I                0
Force Field                                I                0
Atom Types                                 C   N=           4
                                                
Int Atom Types                             I   N=           4
           0           0           0           0
MM charges                                 R   N=           4
  0.00000000E+00  0.00000000E+00  0.00000000E+00  0.00000000E+00
Integer atomic weights                     I   N=           4
           1          16          14          16
Real atomic weights                        R   N=           4
  1.00782504E+00  1.59949146E+01  1.40030740E+01  1.59949146E+01
Atom fragment info                         I   N=           4
           0           0           0           0
Atom residue num                           I   N=           4
           0           0           0           0
Nuclear spins                              I   N=           4
           1           0           2           0
Nuclear ZEff                               R   N=           4
 -1.00000000E+00 -5.60000000E+00 -4.55000000E+00 -5.60000000E+00
Nuclear ZNuc                               R   N=           4
  1.00000000E+00  8.00000000E+00  7.00000000E+00  8.00000000E+00
Nuclear QMom                               R   N=           4
  0.00000000E+00  0.00000000E+00  2.04400000E+00  0.00000000E+00
Nuclear GFac                               R   N=           4
  2.79284600E+00  0.00000000E+00  4.03761000E-01  0.00000000E+00
MicOpt                                     I   N=           4
          -1          -1          -1          -1
Number of residues                         I                0
Number of secondary structures             I                0
SymInf integers                            I   N=          26
           1           2           1           1           1           1
           1          -1           0           0           0           0
           0           0           0           0           0           0
           0           0           0           0           0           0
           0           0
RotTr to input orientation                 R   N=          12
 -4.63128510E-01 -2.09264052E-16 -8.86291139E-01  8.86291139E-01 -4.42634994E-16
 -4.63128510E-01 -2.95387325E-16 -1.00000000E+00  3.90465760E-16  1.75712079E+00
  0.00000000E+00  2.82661971E+00
Number of contracted shells                I               51
Number of primitive shells                 I               92
Pure/Cartesian d shells                    I                0
Pure/Cartesian f shells                    I                0
Highest angular momentum                   I                3
Largest degree of contraction              I                7
Shell types                                I   N=          51
           0           0           0           0           1           1
           1          -2          -2           0           0           0
           0           0           1           1           1           1
          -2          -2          -2          -3          -3           0
           0           0           0           0           1           1
           1           1          -2          -2          -2          -3
          -3           0           0           0           0           0
           1           1           1           1          -2          -2
          -2          -3          -3
Number of primitives per shell             I   N=          51
           3           1           1           1           1           1
           1           1           1           7           6           1
           1           1           3           1           1           1
           1           1           1           1           1           7
           6           1           1           1           3           1
           1           1           1           1           1           1
           1           7           6           1           1           1
           3           1           1           1           1           1
           1           1           1
Shell to atom map                          I   N=          51
           1           1           1           1           1           1
           1           1           1           2           2           2
           2           2           2           2           2           2
           2           2           2           2           2           3
           3           3           3           3           3           3
           3           3           3           3           3           3
           3           4           4           4           4           4
           4           4           4           4           4           4
           4           4           4
Primitive exponents                        R   N=          92
  3.38700000E+01  5.09500000E+00  1.15900000E+00  3.25800000E-01  1.02700000E-01
  2.52600000E-02  1.40700000E+00  3.88000000E-01  1.02000000E-01  1.05700000E+00
  2.47000000E-01  1.53300000E+04  2.29900000E+03  5.22400000E+02  1.47300000E+02
  4.75500000E+01  1.67600000E+01  6.20700000E+00  5.22400000E+02  1.47300000E+02
  4.75500000E+01  1.67600000E+01  6.20700000E+00  6.88200000E-01  1.75200000E+00
  2.38400000E-01  7.37600000E-02  3.44600000E+01  7.74900000E+00  2.28000000E+00
  7.15600000E-01  2.14000000E-01  5.97400000E-02  2.31400000E+00  6.45000000E-01
  2.14000000E-01  1.42800000E+00  5.00000000E-01  1.14200000E+04  1.71200000E+03
  3.89300000E+02  1.10000000E+02  3.55700000E+01  1.25400000E+01  4.64400000E+00
  3.89300000E+02  1.10000000E+02  3.55700000E+01  1.25400000E+01  4.64400000E+00
  5.11800000E-01  1.29300000E+00  1.78700000E-01  5.76000000E-02  2.66300000E+01
  5.94800000E+00  1.74200000E+00  5.55000000E-01  1.72500000E-01  4.91000000E-02
  1.65400000E+00  4.69000000E-01  1.51000000E-01  1.09300000E+00  3.64000000E-01
  1.53300000E+04  2.29900000E+03  5.22400000E+02  1.47300000E+02  4.75500000E+01
  1.67600000E+01  6.20700000E+00  5.22400000E+02  1.47300000E+02  4.75500000E+01
  1.67600000E+01  6.20700000E+00  6.88200000E-01  1.75200000E+00  2.38400000E-01
  7.37600000E-02  3.44600000E+01  7.74900000E+00  2.28000000E+00  7.15600000E-01
  2.14000000E-01  5.97400000E-02  2.31400000E+00  6.45000000E-01  2.14000000E-01
  1.42800000E+00  5.00000000E-01
Contraction coefficients                   R   N=          92
  2.54948632E-02  1.90362766E-01  8.52162022E-01  1.00000000E+00  1.00000000E+00
  1.00000000E+00  1.00000000E+00  1.00000000E+00  1.00000000E+00  1.00000000E+00
  1.00000000E+00  5.19808943E-04  4.02025621E-03  2.07128267E-02  8.10105536E-02
  2.35962985E-01  4.42653446E-01  3.57064423E-01 -4.42115008E-05 -1.22591041E-03
 -1.05517725E-02 -6.74452633E-02 -1.71198607E-01  1.07329856E+00  1.00000000E+00
  1.00000000E+00  1.00000000E+00  4.11634896E-02  2.57762836E-01  8.02419274E-01
  1.00000000E+00  1.00000000E+00  1.00000000E+00  1.00000000E+00  1.00000000E+00
  1.00000000E+00  1.00000000E+00  1.00000000E+00  5.34563860E-04  4.13435660E-03
  2.12335358E-02  8.25006224E-02  2.38138871E-01  4.42551547E-01  3.53757422E-01
 -4.89867350E-05 -1.19527323E-03 -1.03490714E-02 -6.48680190E-02 -1.71552477E-01
  1.07289568E+00  1.00000000E+00  1.00000000E+00  1.00000000E+00  3.98072123E-02
  2.49002660E-01  8.10479727E-01  1.00000000E+00  1.00000000E+00  1.00000000E+00
  1.00000000E+00  1.00000000E+00  1.00000000E+00  1.00000000E+00  1.00000000E+00
  5.19808943E-04  4.02025621E-03  2.07128267E-02  8.10105536E-02  2.35962985E-01
  4.42653446E-01  3.57064423E-01 -4.42115008E-05 -1.22591041E-03 -1.05517725E-02
 -6.74452633E-02 -1.71198607E-01  1.07329856E+00  1.00000000E+00  1.00000000E+00
  1.00000000E+00  4.11634896E-02  2.57762836E-01  8.02419274E-01  1.00000000E+00
  1.00000000E+00  1.00000000E+00  1.00000000E+00  1.00000000E+00  1.00000000E+00
  1.00000000E+00  1.00000000E+00
Coordinates of each shell                  R   N=         153
  3.31898073E+00 -2.48232415E-01  1.22388030E-32  3.31898073E+00 -2.48232415E-01
  1.22388030E-32  3.31898073E+00 -2.48232415E-01  1.22388030E-32  3.31898073E+00
 -2.48232415E-01  1.22388030E-32  3.31898073E+00 -2.48232415E-01  1.22388030E-32
  3.31898073E+00 -2.48232415E-01  1.22388030E-32  3.31898073E+00 -2.48232415E-01
  1.22388030E-32  3.31898073E+00 -2.48232415E-01  1.22388030E-32  3.31898073E+00
 -2.48232415E-01  1.22388030E-32  1.69393859E+00 -1.09739282E+00  5.41056435E-32
  1.69393859E+00 -1.09739282E+00  5.41056435E-32  1.69393859E+00 -1.09739282E+00
  5.41056435E-32  1.69393859E+00 -1.09739282E+00  5.41056435E-32  1.69393859E+00
 -1.09739282E+00  5.41056435E-32  1.69393859E+00 -1.09739282E+00  5.41056435E-32
  1.69393859E+00 -1.09739282E+00  5.41056435E-32  1.69393859E+00 -1.09739282E+00
  5.41056435E-32  1.69393859E+00 -1.09739282E+00  5.41056435E-32  1.69393859E+00
 -1.09739282E+00  5.41056435E-32  1.69393859E+00 -1.09739282E+00  5.41056435E-32
  1.69393859E+00 -1.09739282E+00  5.41056435E-32  1.69393859E+00 -1.09739282E+00
  5.41056435E-32  1.69393859E+00 -1.09739282E+00  5.41056435E-32 -2.87043603E-17
  9.78326680E-01 -4.82352294E-32 -2.87043603E-17  9.78326680E-01 -4.82352294E-32
 -2.87043603E-17  9.78326680E-01 -4.82352294E-32 -2.87043603E-17  9.78326680E-01
 -4.82352294E-32 -2.87043603E-17  9.78326680E-01 -4.82352294E-32 -2.87043603E-17
  9.78326680E-01 -4.82352294E-32 -2.87043603E-17  9.78326680E-01 -4.82352294E-32
 -2.87043603E-17  9.78326680E-01 -4.82352294E-32 -2.87043603E-17  9.78326680E-01
 -4.82352294E-32 -2.87043603E-17  9.78326680E-01 -4.82352294E-32 -2.87043603E-17
  9.78326680E-01 -4.82352294E-32 -2.87043603E-17  9.78326680E-01 -4.82352294E-32
 -2.87043603E-17  9.78326680E-01 -4.82352294E-32 -2.87043603E-17  9.78326680E-01
 -4.82352294E-32 -2.10881118E+00  2.72386030E-01 -1.34296681E-32 -2.10881118E+00
  2.72386030E-01 -1.34296681E-32 -2.10881118E+00  2.72386030E-01 -1.34296681E-32
 -2.10881118E+00  2.72386030E-01 -1.34296681E-32 -2.10881118E+00  2.72386030E-01
 -1.34296681E-32 -2.10881118E+00  2.72386030E-01 -1.34296681E-32 -2.10881118E+00
  2.72386030E-01 -1.34296681E-32 -2.10881118E+00  2.72386030E-01 -1.34296681E-32
 -2.10881118E+00  2.72386030E-01 -1.34296681E-32 -2.10881118E+00  2.72386030E-01
 -1.34296681E-32 -2.10881118E+00  2.72386030E-01 -1.34296681E-32 -2.10881118E+00
  2.72386030E-01 -1.34296681E-32 -2.10881118E+00  2.72386030E-01 -1.34296681E-32
 -2.10881118E+00  2.72386030E-01 -1.34296681E-32
Num ILSW                                   I              100
ILSW                                       I   N=         100
           0           0           0           0           2           0
           0           0           0           0           0          -1
           5           0           0           0           0           0
           0           0           0           0           0           0
           1           0           0           0           0           0
           0           0      100000           0          -1           0
           0           0           0           0           0           0
           0           0           0           1           0           0
           0 -2000000000           1           0           0           0
           0           0           4          52           0           0
           0           0           0           0           0           0
           0           0           0           4           0           1
           0           0           0           0           0           0
           0           0           0           0           0           0
           0           0           0           0           0           0
           0           0           0           0           0           0
           0           0           0           0
Num RLSW                                   I               52
RLSW                                       R   N=          52
  1.00000000E+00  1.00000000E+00  1.00000000E+00  1.00000000E+00  1.00000000E+00
  0.00000000E+00  0.00000000E+00  1.00000000E+00  0.00000000E+00  0.00000000E+00
  0.00000000E+00  0.00000000E+00  1.00000000E+00  0.00000000E+00  0.00000000E+00
  0.00000000E+00  0.00000000E+00  1.00000000E+00  0.00000000E+00  0.00000000E+00
  0.00000000E+00  0.00000000E+00  1.00000000E+00  0.00000000E+00  0.00000000E+00
  0.00000000E+00  0.00000000E+00  1.00000000E+00  0.00000000E+00  0.00000000E+00
  0.00000000E+00  0.00000000E+00  1.00000000E+00  0.00000000E+00  0.00000000E+00
  0.00000000E+00  0.00000000E+00  0.00000000E+00  1.00000000E+00  1.00000000E+00
  0.00000000E+00  1.00000000E+00  0.00000000E+00  0.00000000E+00  0.00000000E+00
  0.00000000E+00  0.00000000E+00  0.00000000E+00  0.00000000E+00  0.00000000E+00
  0.00000000E+00  0.00000000E+00
MxBond                                     I                2
NBond                                      I   N=           4
           1           2           2           1
IBond                                      I   N=           8
           2           0           1           3           2           4
           3           0
RBond                                      R   N=           8
  1.00000000E+00  0.00000000E+00  1.00000000E+00  1.00000000E+00  1.00000000E+00
  2.00000000E+00  2.00000000E+00  0.00000000E+00
Virial Ratio                               R      2.002280775060211E+00
SCF Energy                                 R     -2.047242786721719E+02
MP2 Energy                                 R     -2.054213227792325E+02
Total Energy                               R     -2.054213227792325E+02
Post-SCF wavefunction norm                 R      1.089596997941347E+00
RMS Density                                R      5.204660706118736E-09
Job Status                                 I                1
Nuclear derivative order                   I                0
External E-field                           R   N=          35
  0.00000000E+00  0.00000000E+00  0.00000000E+00  0.00000000E+00  0.00000000E+00
  0.00000000E+00  0.00000000E+00  0.00000000E+00  0.00000000E+00  0.00000000E+00
  0.00000000E+00  0.00000000E+00  0.00000000E+00  0.00000000E+00  0.00000000E+00
  0.00000000E+00  0.00000000E+00  0.00000000E+00  0.00000000E+00  0.00000000E+00
  0.00000000E+00  0.00000000E+00  0.00000000E+00  0.00000000E+00  0.00000000E+00
  0.00000000E+00  0.00000000E+00  0.00000000E+00  0.00000000E+00  0.00000000E+00
  0.00000000E+00  0.00000000E+00  0.00000000E+00  0.00000000E+00  0.00000000E+00
IOpCl                                      I                0
IROHF                                      I                0
Alpha Orbital Energies                     R   N=         161
 -2.06629536E+01 -2.06439929E+01 -1.57973063E+01 -1.60349229E+00 -1.40571363E+00
 -9.48321175E-01 -7.86031886E-01 -7.30419690E-01 -6.82918559E-01 -6.24704298E-01
 -5.28526633E-01 -4.61880269E-01  2.77461391E-02  8.16965857E-02  9.42232944E-02
  9.75929526E-02  1.28794748E-01  1.43258617E-01  1.57006157E-01  1.71949102E-01
  1.87041968E-01  1.96687106E-01  2.05905236E-01  2.33950759E-01  2.57968675E-01
  2.96113330E-01  3.11878176E-01  3.30177315E-01  3.66788342E-01  3.83488267E-01
  4.23737672E-01  5.25898111E-01  5.26732072E-01  5.49104678E-01  5.73557963E-01
  6.13514243E-01  6.31869065E-01  6.48147742E-01  6.80224940E-01  7.13878168E-01
  7.18358224E-01  7.47744552E-01  7.75383196E-01  7.80219275E-01  8.11766714E-01
  8.12761815E-01  8.62332951E-01  8.79112149E-01  9.25766435E-01  9.38871552E-01
  9.44193039E-01  9.94627578E-01  1.05027095E+00  1.06403981E+00  1.08227012E+00
  1.10715740E+00  1.16131683E+00  1.19759727E+00  1.25247872E+00  1.26984779E+00
  1.36034488E+00  1.43439245E+00  1.48828383E+00  1.52329328E+00  1.52547169E+00
  1.54514970E+00  1.55530461E+00  1.61058125E+00  1.65900989E+00  1.72994612E+00
  1.75599419E+00  1.82477485E+00  1.85826045E+00  1.96025685E+00  1.97837244E+00
  1.99897156E+00  2.07669102E+00  2.13338924E+00  2.13415676E+00  2.19110752E+00
  2.27222531E+00  2.30913555E+00  2.33187458E+00  2.37989882E+00  2.45360284E+00
  2.47118745E+00  2.49864564E+00  2.50359306E+00  2.52344777E+00  2.54623633E+00
  2.57042421E+00  2.60737472E+00  2.60964144E+00  2.66424910E+00  2.77375888E+00
  2.77962309E+00  2.84354228E+00  2.94166103E+00  2.96496168E+00  3.11888362E+00
  3.15074472E+00  3.18225133E+00  3.25134290E+00  3.46654854E+00  3.83407850E+00
  3.85892452E+00  4.03006998E+00  4.17012489E+00  4.18495661E+00  4.21702805E+00
  4.36466071E+00  4.37386828E+00  4.58502956E+00  4.63663070E+00  4.74568291E+00
  4.82693854E+00  4.87256156E+00  4.88757542E+00  4.97992224E+00  5.00414921E+00
  5.07549729E+00  5.08608792E+00  5.17504228E+00  5.24670289E+00  5.25966376E+00
  5.33579705E+00  5.37535832E+00  5.38264289E+00  5.58438703E+00  5.66928543E+00
  5.79218885E+00  5.98417300E+00  6.13078649E+00  6.44238395E+00  6.50961186E+00
  6.51204541E+00  6.67560630E+00  6.71820966E+00  6.74593990E+00  6.85243137E+00
  6.92212428E+00  7.07421097E+00  7.12163595E+00  7.17881777E+00  7.23979119E+00
  7.25769907E+00  7.25771248E+00  7.33465504E+00  7.37939168E+00  7.43829718E+00
  7.48102685E+00  7.61508195E+00  7.65118983E+00  7.70680461E+00  7.80149897E+00
  8.00121151E+00  8.08266694E+00  8.42838247E+00  1.42417527E+01  1.51788278E+01
  1.59958483E+01
Alpha MO coefficients                      R   N=       25921
  5.83208986E-05  2.02835004E-04 -3.60482661E-04  6.57884591E-06 -5.54553681E-05
  9.92580426E-06  0.00000000E+00  4.92737564E-05  5.18151005E-05  0.00000000E+00
  2.62741571E-04  1.47055058E-05  0.00000000E+00  2.09806146E-05  0.00000000E+00
  0.00000000E+00  1.22750847E-05  8.42993824E-06  5.25076732E-05  0.00000000E+00
  0.00000000E+00 -3.50840855E-05  1.84616356E-05 -9.91032013E-04  8.10019451E-05
 -6.84683510E-05 -7.47775833E-05  2.30808206E-04  1.78878743E-05 -1.82493040E-05
  0.00000000E+00 -9.07365793E-05  5.04996552E-05  0.00000000E+00 -1.70344657E-04
  6.77765995E-05  0.00000000E+00 -1.26078834E-04  5.49393703E-05  0.00000000E+00
 -9.13449521E-06  0.00000000E+00  0.00000000E+00  2.79237676E-05  1.08123288E-05
  2.12077673E-06  0.00000000E+00  0.00000000E+00 -1.03942938E-04 -1.25751105E-04
 -1.97365405E-05  0.00000000E+00  0.00000000E+00 -8.08408094E-05 -2.47779262E-04
  0.00000000E+00  2.90682908E-06  1.89166288E-06  0.00000000E+00  0.00000000E+00
 -6.27943651E-06 -1.55903412E-05  0.00000000E+00 -1.85111121E-05 -1.88891446E-05
  0.00000000E+00  0.00000000E+00  1.94173097E-04 -4.82436307E-05  2.48486631E-04
  1.41585078E-03 -1.00095912E-04 -1.57250824E-03  3.60362032E-04 -1.12046394E-04
 -6.51209202E-05  0.00000000E+00 -2.05102768E-03 -5.64492519E-04  0.00000000E+00
  1.14133877E-03 -5.72819687E-05  0.00000000E+00 -1.13232656E-04 -9.17446533E-05
  0.00000000E+00 -1.25075636E-04  0.00000000E+00  0.00000000E+00  2.13125148E-04
  1.47017685E-04 -4.36560155E-04  0.00000000E+00  0.00000000E+00  5.38549833E-04
  8.04002851E-04  2.06511749E-06  0.00000000E+00  0.00000000E+00 -1.71304017E-04
 -1.49691326E-04  0.00000000E+00  1.33417059E-05 -1.29362594E-05  0.00000000E+00
  0.00000000E+00  1.61552289E-05  1.64280926E-05  0.00000000E+00  1.41927557E-04
  1.30172788E-04  0.00000000E+00  0.00000000E+00 -1.45849335E-05 -2.90258407E-04
  9.76648310E-01 -9.86270122E-03  4.35680106E-02  4.28989478E-03 -5.26467203E-04
  2.10694069E-03  5.74962078E-04  0.00000000E+00 -2.40949718E-03 -5.94736319E-04
  0.00000000E+00  9.79567232E-04  5.63150113E-04  0.00000000E+00 -5.24973063E-05
  3.15390516E-05  0.00000000E+00 -2.29129369E-04  0.00000000E+00  0.00000000E+00
  7.67510475E-05  5.53294946E-05  3.89028568E-04  0.00000000E+00  0.00000000E+00
 -8.25748689E-04 -4.47662692E-04 -1.58356689E-04  0.00000000E+00  0.00000000E+00
  1.70300441E-04  2.51035590E-04  0.00000000E+00  5.53275976E-05  1.09081139E-05
  0.00000000E+00  0.00000000E+00 -1.66220633E-05 -2.42874177E-05  0.00000000E+00
  1.24673458E-04  4.75493471E-05  0.00000000E+00  0.00000000E+00 -1.59979513E-04
 -1.55332774E-04  4.73021194E-04  2.46781704E-03  3.48445540E-04 -9.17290024E-06
 -2.21217687E-04 -1.06762431E-04  0.00000000E+00 -9.77529223E-04 -8.76179880E-04
  0.00000000E+00 -8.87935834E-05 -4.26097308E-04  0.00000000E+00  1.24356595E-05
  0.00000000E+00  0.00000000E+00 -4.88464154E-05 -5.74908573E-05 -1.53220285E-04
  0.00000000E+00  0.00000000E+00  1.59157899E-04  4.15852004E-04  9.76746958E-01
 -9.26053637E-03  4.35699492E-02  7.79878245E-04 -9.40822239E-04  3.90113256E-04
  1.85729782E-03  0.00000000E+00 -1.73477079E-04 -1.85634575E-03  0.00000000E+00
 -1.49503163E-03  2.90393069E-04  0.00000000E+00 -5.71075797E-05  2.58604038E-05
  0.00000000E+00 -4.50986708E-05  0.00000000E+00  0.00000000E+00  3.46411349E-05
  4.42624718E-05  6.57905775E-04  0.00000000E+00  0.00000000E+00 -3.03934797E-04
  2.64035898E-04 -8.32820461E-05  0.00000000E+00  0.00000000E+00 -2.79277987E-04
 -3.73959047E-04  0.00000000E+00 -3.24749838E-05  4.56031410E-05  0.00000000E+00
  0.00000000E+00 -1.36771748E-05 -3.23035456E-06  0.00000000E+00  9.15238406E-05
  5.87608882E-05  0.00000000E+00  0.00000000E+00 -2.27539164E-04 -2.34075555E-04
  6.42619936E-05  1.93247134E-04 -3.26080006E-04 -3.43634730E-04  8.83623922E-04
 -8.42090070E-05  7.67683359E-05  0.00000000E+00  7.52049953E-04 -6.93204448E-04
  0.00000000E+00 -3.76689337E-04  5.12355619E-04  0.00000000E+00  1.68802560E-04
 -1.78312729E-04  0.00000000E+00 -3.92506188E-05  0.00000000E+00  0.00000000E+00
 -3.64833852E-05 -5.91147691E-05 -4.08156624E-04  0.00000000E+00  0.00000000E+00
 -1.64585133E-04 -9.43163231E-04 -1.90164838E-04  0.00000000E+00  0.00000000E+00
  5.45468966E-04 -5.15742378E-05  0.00000000E+00 -8.83176707E-05  9.85295683E-05
  0.00000000E+00  0.00000000E+00 -1.45141571E-04 -6.17419810E-05  0.00000000E+00
 -5.52992106E-05  1.20934213E-04  0.00000000E+00  0.00000000E+00 -4.23017768E-04
  1.07433024E-05  1.02500965E-03  4.43249702E-05  2.94776777E-05 -2.63975208E-04
 -1.75194710E-04 -1.47554363E-05  2.08849058E-05  0.00000000E+00  1.12760982E-04
 -1.20049724E-04  0.00000000E+00  4.24080802E-04 -4.05934661E-04  0.00000000E+00
 -3.91974027E-06  5.06700099E-06  0.00000000E+00 -5.19947290E-06  0.00000000E+00
  0.00000000E+00 -1.28154890E-05 -1.14438931E-05 -6.80026567E-08  0.00000000E+00
  0.00000000E+00  1.38267210E-04 -2.35112250E-05 -6.86484753E-05  0.00000000E+00
  0.00000000E+00  2.57556637E-04 -8.44965719E-06  0.00000000E+00  3.48055998E-06
  9.34978265E-06  0.00000000E+00  0.00000000E+00 -1.37579421E-05 -8.37675686E-06
  0.00000000E+00  1.06673736E-05 -5.10182059E-05  0.00000000E+00  0.00000000E+00
  1.13909373E-04  7.84864661E-05 -8.12411647E-05 -5.07960329E-04 -3.44532582E-04
  2.07696840E-04  3.91791943E-05  3.10649772E-05  0.00000000E+00  4.75613262E-04
 -3.45880691E-04  0.00000000E+00  3.17539803E-04 -3.24437442E-04  0.00000000E+00
 -1.63971722E-05  0.00000000E+00  0.00000000E+00 -4.20790777E-05  3.14716669E-05
  1.10558627E-04  0.00000000E+00  0.00000000E+00 -3.53417359E-05  1.80774949E-04
 -1.25143291E-04 -1.78925782E-04 -2.08101565E-04  5.03323358E-03  3.28522841E-03
  7.43594169E-06 -3.69574084E-05  0.00000000E+00 -5.56882125E-04  8.79647482E-04
  0.00000000E+00 -2.41893285E-03  3.06007556E-03  0.00000000E+00 -8.29611064E-04
  5.60224379E-04  0.00000000E+00 -2.84769688E-06  0.00000000E+00  0.00000000E+00
 -3.30754133E-05 -5.06502689E-05 -4.44120927E-04  0.00000000E+00  0.00000000E+00
 -2.58461700E-05 -5.17575757E-04 -6.00920662E-04  0.00000000E+00  0.00000000E+00
 -2.73221027E-04 -9.24260333E-04  0.00000000E+00  1.79080772E-05 -1.94950761E-05
  0.00000000E+00  0.00000000E+00  3.50927195E-05  3.21825083E-05  0.00000000E+00
  8.84326414E-05 -1.36545301E-04  0.00000000E+00  0.00000000E+00  1.16304314E-06
  2.35380463E-04  9.78271173E-01 -8.39356147E-03  4.18044669E-02 -5.49917834E-03
 -3.05108828E-03 -1.05905787E-03 -3.05667840E-03  0.00000000E+00 -1.45749808E-04
  2.99139076E-03  0.00000000E+00  4.11106616E-04  3.11086015E-03  0.00000000E+00
 -4.46341767E-05  5.46747164E-04  0.00000000E+00 -4.43150612E-04  0.00000000E+00
  0.00000000E+00  2.34370746E-04  2.27535373E-04  1.02970833E-03  0.00000000E+00
  0.00000000E+00 -1.48747888E-04  3.10057230E-04  3.61994520E-04  0.00000000E+00
  0.00000000E+00  1.39016976E-04  5.15550146E-05  0.00000000E+00  9.20020492E-05
 -6.78885386E-05  0.00000000E+00  0.00000000E+00 -6.29608598E-05 -1.52858870E-05
  0.00000000E+00 -2.24772613E-04 -2.34067614E-04  0.00000000E+00  0.00000000E+00
  4.62841690E-04  2.56270509E-04 -1.89705074E-04  9.13369122E-04  1.59044214E-04
  2.97044170E-03  8.53938051E-04  2.62658457E-04  1.25030646E-04  0.00000000E+00
  8.58917324E-04  2.73083990E-04  0.00000000E+00  1.20694824E-03 -1.51340583E-04
  0.00000000E+00  9.35759703E-07  3.52563207E-05  0.00000000E+00 -3.91152584E-05
  0.00000000E+00  0.00000000E+00  7.06345208E-05  8.48801694E-05  7.65956875E-05
  0.00000000E+00  0.00000000E+00 -3.41671440E-06 -2.79872322E-04 -3.21100288E-05
  0.00000000E+00  0.00000000E+00  2.82677648E-04 -1.41033526E-04  0.00000000E+00
  9.21290176E-05  3.72628194E-05  0.00000000E+00  0.00000000E+00 -5.29496538E-05
 -1.13992623E-04  0.00000000E+00  1.57991688E-04  1.25197958E-04  0.00000000E+00
  0.00000000E+00  2.93320896E-05 -3.56788297E-04  2.21335329E-02  1.80922164E-02
 -1.99118871E-03  3.57450060E-04 -3.38788450E-03 -9.59520929E-04  0.00000000E+00
 -2.88845148E-03 -9.95653190E-04  0.00000000E+00  2.51477906E-03  2.22364389E-04
  0.00000000E+00 -2.49421270E-04  0.00000000E+00  0.00000000E+00  4.49642853E-04
  2.95814627E-04  2.65188550E-04  0.00000000E+00  0.00000000E+00  4.57921302E-04
  5.38730157E-04 -6.93073918E-02  1.67939558E-01  4.47685548E-02  9.54430670E-02
  6.98928793E-03 -1.57417489E-02  2.44720331E-02  0.00000000E+00 -2.10572751E-02
  3.49985239E-02  0.00000000E+00 -1.16108909E-02  1.00959628E-02  0.00000000E+00
 -1.82440459E-03 -2.07636656E-03  0.00000000E+00 -1.91431297E-03  0.00000000E+00
  0.00000000E+00  1.01983317E-04 -1.88983669E-03 -4.24971756E-03  0.00000000E+00
  0.00000000E+00  8.21045070E-04 -4.43923635E-03  1.20074572E-03  0.00000000E+00
  0.00000000E+00  2.74167987E-04 -1.43833557E-03  0.00000000E+00  4.93922144E-04
 -9.30624201E-04  0.00000000E+00  0.00000000E+00  7.34631310E-04  1.38602059E-03
  0.00000000E+00 -2.81140035E-04  5.48905397E-04  0.00000000E+00  0.00000000E+00
 -1.95720186E-04  1.25936916E-04 -1.30384849E-01  3.08272881E-01  8.10798342E-02
  6.48343938E-02  1.44887920E-03 -7.13236039E-02 -4.82366484E-02  0.00000000E+00
 -7.44620181E-02 -6.64594722E-02  0.00000000E+00 -2.88043647E-03  8.46326112E-03
  0.00000000E+00  7.79150880E-05  3.02813844E-03  0.00000000E+00 -9.34148378E-03
  0.00000000E+00  0.00000000E+00  8.27644483E-03  6.11739612E-03 -1.16586452E-02
  0.00000000E+00  0.00000000E+00  8.93822819E-03  5.54294811E-03  6.03774514E-03
  0.00000000E+00  0.00000000E+00  4.07651762E-05  4.25347672E-04  0.00000000E+00
  2.41708632E-03  2.49645656E-03  0.00000000E+00  0.00000000E+00 -4.83693435E-03
 -5.54816191E-03  0.00000000E+00 -1.37969049E-03 -4.12393214E-04  0.00000000E+00
  0.00000000E+00  8.30189514E-04 -1.41284814E-05 -1.48512387E-01  3.55065170E-01
  9.51385683E-02  1.76685522E-01 -1.52433495E-02  7.91737043E-02  2.18348429E-02
  0.00000000E+00  1.00347381E-01  2.73620775E-02  0.00000000E+00  1.73139945E-02
  2.97030688E-03  0.00000000E+00 -8.57902654E-03 -2.43612403E-03  0.00000000E+00
 -5.11863556E-03  0.00000000E+00  0.00000000E+00  7.20736125E-03  4.47449572E-03
 -9.36857159E-03  0.00000000E+00  0.00000000E+00  1.48875083E-02  9.35388295E-03
  2.52954161E-03  0.00000000E+00  0.00000000E+00 -3.58812121E-03 -2.69618458E-03
  0.00000000E+00 -3.11761793E-03 -8.68528880E-04  0.00000000E+00  0.00000000E+00
  3.26315289E-03  3.60230572E-03  0.00000000E+00 -8.16889624E-05 -2.61682171E-04
  0.00000000E+00  0.00000000E+00  1.00417132E-03  1.90307553E-03  7.95833704E-02
  7.86141233E-02 -2.04745275E-02 -2.84016098E-03 -1.16874645E-02 -4.76765488E-03
  0.00000000E+00 -1.48453213E-02 -1.30304083E-03  0.00000000E+00  7.54994569E-03
  2.39982857E-03  0.00000000E+00 -1.30416433E-03  0.00000000E+00  0.00000000E+00
  2.24097307E-03  1.18718453E-03  3.91075145E-04  0.00000000E+00  0.00000000E+00
  2.21963258E-03 -1.42010289E-03 -1.79982361E-01  4.38407835E-01  1.19507831E-01
  2.55504649E-01  1.15094581E-02  1.54427946E-02  3.83856743E-02  0.00000000E+00