title                                                                   
SP        RMP2-FC                                                     Aug-CC-pVTZ         
Number of atoms                            I                5
Info1-9                                    I   N=           9
          33          24           0           0           0         110
           1           2           1
Full Title                                 C   N=           1
title       
Route                                      C   N=           4
#p SP mp2/aug-cc-pvtz density=current           
Charge                                     I                0
Multiplicity                               I                1
Number of electrons                        I               32
Number of alpha electrons                  I               16
Number of beta electrons                   I               16
Number of basis functions                  I              207
Number of independent functions            I              207
Number of point charges in /Mol/           I                0
Number of translation vectors              I                0
Atomic numbers                             I   N=           5
           1           8           8           7           8
Nuclear charges                            R   N=           5
  1.00000000E+00  8.00000000E+00  8.00000000E+00  7.00000000E+00  8.00000000E+00
Current cartesian coordinates              R   N=          15
  2.98456347E+00  3.16293990E+00  1.38773524E-31  2.78874243E+00  1.34234231E+00
  6.24251967E-32 -2.79922106E-17  1.27146476E+00  1.71395085E-32 -5.18521928E-01
 -1.43603277E+00 -4.52296712E-32 -2.70810617E+00 -1.75264588E+00 -9.74525018E-32
Number of symbols in /Mol/                 I                0
Force Field                                I                0
Atom Types                                 C   N=           5
                                                            
Int Atom Types                             I   N=           5
           0           0           0           0           0
MM charges                                 R   N=           5
  0.00000000E+00  0.00000000E+00  0.00000000E+00  0.00000000E+00  0.00000000E+00
Integer atomic weights                     I   N=           5
           1          16          16          14          16
Real atomic weights                        R   N=           5
  1.00782504E+00  1.59949146E+01  1.59949146E+01  1.40030740E+01  1.59949146E+01
Atom fragment info                         I   N=           5
           0           0           0           0           0
Atom residue num                           I   N=           5
           0           0           0           0           0
Nuclear spins                              I   N=           5
           1           0           0           2           0
Nuclear ZEff                               R   N=           5
 -1.00000000E+00 -5.60000000E+00 -5.60000000E+00 -4.55000000E+00 -5.60000000E+00
Nuclear ZNuc                               R   N=           5
  1.00000000E+00  8.00000000E+00  8.00000000E+00  7.00000000E+00  8.00000000E+00
Nuclear QMom                               R   N=           5
  0.00000000E+00  0.00000000E+00  0.00000000E+00  2.04400000E+00  0.00000000E+00
Nuclear GFac                               R   N=           5
  2.79284600E+00  0.00000000E+00  0.00000000E+00  4.03761000E-01  0.00000000E+00
MicOpt                                     I   N=           5
          -1          -1          -1          -1          -1
Number of residues                         I                0
Number of secondary structures             I                0
SymInf integers                            I   N=          26
           1           2           1           1           1           1
           1          -1           0           0           0           0
           0           0           0           0           0           0
           0           0           0           0           0           0
           0           0
RotTr to input orientation                 R   N=          12
 -9.94265278E-01 -9.94008015E-17 -1.06941843E-01  1.06941843E-01 -7.15337577E-17
 -9.94265278E-01  9.11808136E-17 -1.00000000E+00  8.17536363E-17  2.62919720E+00
  0.00000000E+00  3.46397603E+00
Number of contracted shells                I               65
Number of primitive shells                 I              119
Pure/Cartesian d shells                    I                0
Pure/Cartesian f shells                    I                0
Highest angular momentum                   I                3
Largest degree of contraction              I                7
Shell types                                I   N=          65
           0           0           0           0           1           1
           1          -2          -2           0           0           0
           0           0           1           1           1           1
          -2          -2          -2          -3          -3           0
           0           0           0           0           1           1
           1           1          -2          -2          -2          -3
          -3           0           0           0           0           0
           1           1           1           1          -2          -2
          -2          -3          -3           0           0           0
           0           0           1           1           1           1
          -2          -2          -2          -3          -3
Number of primitives per shell             I   N=          65
           3           1           1           1           1           1
           1           1           1           7           6           1
           1           1           3           1           1           1
           1           1           1           1           1           7
           6           1           1           1           3           1
           1           1           1           1           1           1
           1           7           6           1           1           1
           3           1           1           1           1           1
           1           1           1           7           6           1
           1           1           3           1           1           1
           1           1           1           1           1
Shell to atom map                          I   N=          65
           1           1           1           1           1           1
           1           1           1           2           2           2
           2           2           2           2           2           2
           2           2           2           2           2           3
           3           3           3           3           3           3
           3           3           3           3           3           3
           3           4           4           4           4           4
           4           4           4           4           4           4
           4           4           4           5           5           5
           5           5           5           5           5           5
           5           5           5           5           5
Primitive exponents                        R   N=         119
  3.38700000E+01  5.09500000E+00  1.15900000E+00  3.25800000E-01  1.02700000E-01
  2.52600000E-02  1.40700000E+00  3.88000000E-01  1.02000000E-01  1.05700000E+00
  2.47000000E-01  1.53300000E+04  2.29900000E+03  5.22400000E+02  1.47300000E+02
  4.75500000E+01  1.67600000E+01  6.20700000E+00  5.22400000E+02  1.47300000E+02
  4.75500000E+01  1.67600000E+01  6.20700000E+00  6.88200000E-01  1.75200000E+00
  2.38400000E-01  7.37600000E-02  3.44600000E+01  7.74900000E+00  2.28000000E+00
  7.15600000E-01  2.14000000E-01  5.97400000E-02  2.31400000E+00  6.45000000E-01
  2.14000000E-01  1.42800000E+00  5.00000000E-01  1.53300000E+04  2.29900000E+03
  5.22400000E+02  1.47300000E+02  4.75500000E+01  1.67600000E+01  6.20700000E+00
  5.22400000E+02  1.47300000E+02  4.75500000E+01  1.67600000E+01  6.20700000E+00
  6.88200000E-01  1.75200000E+00  2.38400000E-01  7.37600000E-02  3.44600000E+01
  7.74900000E+00  2.28000000E+00  7.15600000E-01  2.14000000E-01  5.97400000E-02
  2.31400000E+00  6.45000000E-01  2.14000000E-01  1.42800000E+00  5.00000000E-01
  1.14200000E+04  1.71200000E+03  3.89300000E+02  1.10000000E+02  3.55700000E+01
  1.25400000E+01  4.64400000E+00  3.89300000E+02  1.10000000E+02  3.55700000E+01
  1.25400000E+01  4.64400000E+00  5.11800000E-01  1.29300000E+00  1.78700000E-01
  5.76000000E-02  2.66300000E+01  5.94800000E+00  1.74200000E+00  5.55000000E-01
  1.72500000E-01  4.91000000E-02  1.65400000E+00  4.69000000E-01  1.51000000E-01
  1.09300000E+00  3.64000000E-01  1.53300000E+04  2.29900000E+03  5.22400000E+02
  1.47300000E+02  4.75500000E+01  1.67600000E+01  6.20700000E+00  5.22400000E+02
  1.47300000E+02  4.75500000E+01  1.67600000E+01  6.20700000E+00  6.88200000E-01
  1.75200000E+00  2.38400000E-01  7.37600000E-02  3.44600000E+01  7.74900000E+00
  2.28000000E+00  7.15600000E-01  2.14000000E-01  5.97400000E-02  2.31400000E+00
  6.45000000E-01  2.14000000E-01  1.42800000E+00  5.00000000E-01
Contraction coefficients                   R   N=         119
  2.54948632E-02  1.90362766E-01  8.52162022E-01  1.00000000E+00  1.00000000E+00
  1.00000000E+00  1.00000000E+00  1.00000000E+00  1.00000000E+00  1.00000000E+00
  1.00000000E+00  5.19808943E-04  4.02025621E-03  2.07128267E-02  8.10105536E-02
  2.35962985E-01  4.42653446E-01  3.57064423E-01 -4.42115008E-05 -1.22591041E-03
 -1.05517725E-02 -6.74452633E-02 -1.71198607E-01  1.07329856E+00  1.00000000E+00
  1.00000000E+00  1.00000000E+00  4.11634896E-02  2.57762836E-01  8.02419274E-01
  1.00000000E+00  1.00000000E+00  1.00000000E+00  1.00000000E+00  1.00000000E+00
  1.00000000E+00  1.00000000E+00  1.00000000E+00  5.19808943E-04  4.02025621E-03
  2.07128267E-02  8.10105536E-02  2.35962985E-01  4.42653446E-01  3.57064423E-01
 -4.42115008E-05 -1.22591041E-03 -1.05517725E-02 -6.74452633E-02 -1.71198607E-01
  1.07329856E+00  1.00000000E+00  1.00000000E+00  1.00000000E+00  4.11634896E-02
  2.57762836E-01  8.02419274E-01  1.00000000E+00  1.00000000E+00  1.00000000E+00
  1.00000000E+00  1.00000000E+00  1.00000000E+00  1.00000000E+00  1.00000000E+00
  5.34563860E-04  4.13435660E-03  2.12335358E-02  8.25006224E-02  2.38138871E-01
  4.42551547E-01  3.53757422E-01 -4.89867350E-05 -1.19527323E-03 -1.03490714E-02
 -6.48680190E-02 -1.71552477E-01  1.07289568E+00  1.00000000E+00  1.00000000E+00
  1.00000000E+00  3.98072123E-02  2.49002660E-01  8.10479727E-01  1.00000000E+00
  1.00000000E+00  1.00000000E+00  1.00000000E+00  1.00000000E+00  1.00000000E+00
  1.00000000E+00  1.00000000E+00  5.19808943E-04  4.02025621E-03  2.07128267E-02
  8.10105536E-02  2.35962985E-01  4.42653446E-01  3.57064423E-01 -4.42115008E-05
 -1.22591041E-03 -1.05517725E-02 -6.74452633E-02 -1.71198607E-01  1.07329856E+00
  1.00000000E+00  1.00000000E+00  1.00000000E+00  4.11634896E-02  2.57762836E-01
  8.02419274E-01  1.00000000E+00  1.00000000E+00  1.00000000E+00  1.00000000E+00
  1.00000000E+00  1.00000000E+00  1.00000000E+00  1.00000000E+00
Coordinates of each shell                  R   N=         195
  2.98456347E+00  3.16293990E+00  6.40452016E-32  2.98456347E+00  3.16293990E+00
  6.40452016E-32  2.98456347E+00  3.16293990E+00  6.40452016E-32  2.98456347E+00
  3.16293990E+00  6.40452016E-32  2.98456347E+00  3.16293990E+00  6.40452016E-32
  2.98456347E+00  3.16293990E+00  6.40452016E-32  2.98456347E+00  3.16293990E+00
  6.40452016E-32  2.98456347E+00  3.16293990E+00  6.40452016E-32  2.98456347E+00
  3.16293990E+00  6.40452016E-32  2.78874243E+00  1.34234231E+00  3.01901556E-32
  2.78874243E+00  1.34234231E+00  3.01901556E-32  2.78874243E+00  1.34234231E+00
  3.01901556E-32  2.78874243E+00  1.34234231E+00  3.01901556E-32  2.78874243E+00
  1.34234231E+00  3.01901556E-32  2.78874243E+00  1.34234231E+00  3.01901556E-32
  2.78874243E+00  1.34234231E+00  3.01901556E-32  2.78874243E+00  1.34234231E+00
  3.01901556E-32  2.78874243E+00  1.34234231E+00  3.01901556E-32  2.78874243E+00
  1.34234231E+00  3.01901556E-32  2.78874243E+00  1.34234231E+00  3.01901556E-32
  2.78874243E+00  1.34234231E+00  3.01901556E-32  2.78874243E+00  1.34234231E+00
  3.01901556E-32  2.78874243E+00  1.34234231E+00  3.01901556E-32  7.62433825E-18
  1.27146476E+00  2.33732077E-32  7.62433825E-18  1.27146476E+00  2.33732077E-32
  7.62433825E-18  1.27146476E+00  2.33732077E-32  7.62433825E-18  1.27146476E+00
  2.33732077E-32  7.62433825E-18  1.27146476E+00  2.33732077E-32  7.62433825E-18
  1.27146476E+00  2.33732077E-32  7.62433825E-18  1.27146476E+00  2.33732077E-32
  7.62433825E-18  1.27146476E+00  2.33732077E-32  7.62433825E-18  1.27146476E+00
  2.33732077E-32  7.62433825E-18  1.27146476E+00  2.33732077E-32  7.62433825E-18
  1.27146476E+00  2.33732077E-32  7.62433825E-18  1.27146476E+00  2.33732077E-32
  7.62433825E-18  1.27146476E+00  2.33732077E-32  7.62433825E-18  1.27146476E+00
  2.33732077E-32 -5.18521928E-01 -1.43603277E+00 -2.74236871E-32 -5.18521928E-01
 -1.43603277E+00 -2.74236871E-32 -5.18521928E-01 -1.43603277E+00 -2.74236871E-32
 -5.18521928E-01 -1.43603277E+00 -2.74236871E-32 -5.18521928E-01 -1.43603277E+00
 -2.74236871E-32 -5.18521928E-01 -1.43603277E+00 -2.74236871E-32 -5.18521928E-01
 -1.43603277E+00 -2.74236871E-32 -5.18521928E-01 -1.43603277E+00 -2.74236871E-32
 -5.18521928E-01 -1.43603277E+00 -2.74236871E-32 -5.18521928E-01 -1.43603277E+00
 -2.74236871E-32 -5.18521928E-01 -1.43603277E+00 -2.74236871E-32 -5.18521928E-01
 -1.43603277E+00 -2.74236871E-32 -5.18521928E-01 -1.43603277E+00 -2.74236871E-32
 -5.18521928E-01 -1.43603277E+00 -2.74236871E-32 -2.70810617E+00 -1.75264588E+00
 -3.75732873E-32 -2.70810617E+00 -1.75264588E+00 -3.75732873E-32 -2.70810617E+00
 -1.75264588E+00 -3.75732873E-32 -2.70810617E+00 -1.75264588E+00 -3.75732873E-32
 -2.70810617E+00 -1.75264588E+00 -3.75732873E-32 -2.70810617E+00 -1.75264588E+00
 -3.75732873E-32 -2.70810617E+00 -1.75264588E+00 -3.75732873E-32 -2.70810617E+00
 -1.75264588E+00 -3.75732873E-32 -2.70810617E+00 -1.75264588E+00 -3.75732873E-32
 -2.70810617E+00 -1.75264588E+00 -3.75732873E-32 -2.70810617E+00 -1.75264588E+00
 -3.75732873E-32 -2.70810617E+00 -1.75264588E+00 -3.75732873E-32 -2.70810617E+00
 -1.75264588E+00 -3.75732873E-32 -2.70810617E+00 -1.75264588E+00 -3.75732873E-32
Num ILSW                                   I              100
ILSW                                       I   N=         100
           0           0           0           0           2           0
           0           0           0           0           0          -1
           5           0           0           0           0           0
           0           0           0           0           0           0
           1           0           0           0           0           0
           0           0      100000           0          -1           0
           0           0           0           0           0           0
           0           0           0           1           0           0
           0 -2000000000           1           0           0           0
           0           0           4          52           0           0
           0           0           0           0           0           0
           0           0           0           5           0           1
           0           0           0           0           0           0
           0           0           0           0           0           0
           0           0           0           0           0           0
           0           0           0           0           0           0
           0           0           0           0
Num RLSW                                   I               52
RLSW                                       R   N=          52
  1.00000000E+00  1.00000000E+00  1.00000000E+00  1.00000000E+00  1.00000000E+00
  0.00000000E+00  0.00000000E+00  1.00000000E+00  0.00000000E+00  0.00000000E+00
  0.00000000E+00  0.00000000E+00  1.00000000E+00  0.00000000E+00  0.00000000E+00
  0.00000000E+00  0.00000000E+00  1.00000000E+00  0.00000000E+00  0.00000000E+00
  0.00000000E+00  0.00000000E+00  1.00000000E+00  0.00000000E+00  0.00000000E+00
  0.00000000E+00  0.00000000E+00  1.00000000E+00  0.00000000E+00  0.00000000E+00
  0.00000000E+00  0.00000000E+00  1.00000000E+00  0.00000000E+00  0.00000000E+00
  0.00000000E+00  0.00000000E+00  0.00000000E+00  1.00000000E+00  1.00000000E+00
  0.00000000E+00  1.00000000E+00  0.00000000E+00  0.00000000E+00  0.00000000E+00
  0.00000000E+00  0.00000000E+00  0.00000000E+00  0.00000000E+00  0.00000000E+00
  0.00000000E+00  0.00000000E+00
MxBond                                     I                2
NBond                                      I   N=           5
           1           2           2           2           1
IBond                                      I   N=          10
           2           0           1           3           2           4
           3           5           4           0
RBond                                      R   N=          10
  1.00000000E+00  0.00000000E+00  1.00000000E+00  1.00000000E+00  1.00000000E+00
  1.00000000E+00  1.00000000E+00  2.00000000E+00  2.00000000E+00  0.00000000E+00
Virial Ratio                               R      2.002473328001080E+00
SCF Energy                                 R     -2.794997004070900E+02
MP2 Energy                                 R     -2.804465062099386E+02
Total Energy                               R     -2.804465062099386E+02
Post-SCF wavefunction norm                 R      1.121100510203458E+00
RMS Density                                R      4.007747031241935E-09
Job Status                                 I                1
Nuclear derivative order                   I                0
External E-field                           R   N=          35
  0.00000000E+00  0.00000000E+00  0.00000000E+00  0.00000000E+00  0.00000000E+00
  0.00000000E+00  0.00000000E+00  0.00000000E+00  0.00000000E+00  0.00000000E+00
  0.00000000E+00  0.00000000E+00  0.00000000E+00  0.00000000E+00  0.00000000E+00
  0.00000000E+00  0.00000000E+00  0.00000000E+00  0.00000000E+00  0.00000000E+00
  0.00000000E+00  0.00000000E+00  0.00000000E+00  0.00000000E+00  0.00000000E+00
  0.00000000E+00  0.00000000E+00  0.00000000E+00  0.00000000E+00  0.00000000E+00
  0.00000000E+00  0.00000000E+00  0.00000000E+00  0.00000000E+00  0.00000000E+00
IOpCl                                      I                0
IROHF                                      I                0
Alpha Orbital Energies                     R   N=         207
 -2.06920687E+01 -2.06846573E+01 -2.06618052E+01 -1.58132430E+01 -1.62346970E+00
 -1.48747336E+00 -1.25816564E+00 -9.47779801E-01 -7.70625630E-01 -7.57516441E-01
 -7.09976626E-01 -6.79393616E-01 -6.18432762E-01 -5.86392973E-01 -4.88961674E-01
 -4.72958847E-01  2.95833512E-02  7.16482323E-02  8.53723172E-02  1.01611061E-01
  1.32793672E-01  1.33976467E-01  1.43969251E-01  1.54436396E-01  1.78299617E-01
  1.94370587E-01  1.99894696E-01  2.06071495E-01  2.16062309E-01  2.28767313E-01
  2.37206545E-01  2.65909680E-01  2.93267844E-01  3.03702663E-01  3.09975908E-01
  3.42254503E-01  3.48924621E-01  3.86945419E-01  4.21006697E-01  4.31298079E-01
  5.26991255E-01  5.28829926E-01  5.58146582E-01  5.81041703E-01  6.25551422E-01
  6.38441212E-01  6.74583877E-01  6.84688747E-01  7.04652083E-01  7.11763573E-01
  7.22978155E-01  7.29921857E-01  7.44860993E-01  7.90056642E-01  7.91807032E-01
  8.10331989E-01  8.12345363E-01  8.29142839E-01  8.68013854E-01  9.06144293E-01
  9.21580590E-01  9.24526413E-01  9.57427727E-01  9.76417733E-01  9.83238434E-01
  1.01638710E+00  1.05047258E+00  1.05529554E+00  1.08038306E+00  1.11536201E+00
  1.13804523E+00  1.18802641E+00  1.22075141E+00  1.23111595E+00  1.33823445E+00
  1.34912401E+00  1.38598843E+00  1.45279886E+00  1.48814978E+00  1.51039130E+00
  1.53676061E+00  1.56523525E+00  1.57840117E+00  1.61194846E+00  1.66019081E+00
  1.66873810E+00  1.70294937E+00  1.79040807E+00  1.82983564E+00  1.83426500E+00
  1.87619218E+00  1.90827594E+00  1.95582698E+00  1.98958003E+00  2.00795745E+00
  2.07649768E+00  2.11599680E+00  2.13168771E+00  2.14594176E+00  2.22342850E+00
  2.25993510E+00  2.26327578E+00  2.28825592E+00  2.31203790E+00  2.33805387E+00
  2.38851204E+00  2.42090480E+00  2.42540073E+00  2.45256050E+00  2.46314999E+00
  2.47423935E+00  2.49916980E+00  2.58671172E+00  2.59358133E+00  2.61341391E+00
  2.62176483E+00  2.62874118E+00  2.66152270E+00  2.75616776E+00  2.82314601E+00
  2.84978468E+00  2.87376534E+00  2.88326648E+00  2.91722257E+00  2.95284682E+00
  3.01033584E+00  3.06841466E+00  3.12599322E+00  3.17889440E+00  3.22077018E+00
  3.30868237E+00  3.34908584E+00  3.50982328E+00  3.63997501E+00  3.83818994E+00
  3.83932327E+00  4.14495926E+00  4.15621280E+00  4.18040777E+00  4.25502504E+00
  4.34669952E+00  4.38836794E+00  4.44385324E+00  4.52249376E+00  4.65870007E+00
  4.69939450E+00  4.80274550E+00  4.82293002E+00  4.83173612E+00  4.89394934E+00
  5.02160641E+00  5.07670382E+00  5.09889006E+00  5.14495029E+00  5.17827935E+00
  5.23966772E+00  5.27198916E+00  5.30752477E+00  5.32669216E+00  5.35008557E+00
  5.59381372E+00  5.67328950E+00  5.76333164E+00  5.79102275E+00  5.95041860E+00
  6.16430997E+00  6.33500410E+00  6.34213879E+00  6.39943263E+00  6.49543732E+00
  6.50568672E+00  6.61826832E+00  6.68174809E+00  6.70206448E+00  6.75441803E+00
  6.75912912E+00  6.83179570E+00  6.89639617E+00  6.99659135E+00  7.02564505E+00
  7.04000026E+00  7.07554229E+00  7.12193789E+00  7.13653218E+00  7.17529912E+00
  7.21953215E+00  7.23663692E+00  7.30317562E+00  7.32438949E+00  7.34760917E+00
  7.39423865E+00  7.40579238E+00  7.48243661E+00  7.59216449E+00  7.61022668E+00
  7.61645193E+00  7.65795198E+00  7.76834609E+00  7.88184962E+00  8.05778076E+00
  8.28642268E+00  8.38564223E+00  8.54524069E+00  1.33295758E+01  1.43683100E+01
  1.51402113E+01  1.61497856E+01
Alpha MO coefficients                      R   N=       42849
  9.76133510E-05 -6.59248584E-04 -7.68817819E-04 -9.39263292E-06 -2.70945750E-05
 -2.81875317E-05  0.00000000E+00 -4.97583837E-05  8.85900648E-05  0.00000000E+00
  9.18045498E-05  5.41939384E-05  0.00000000E+00  3.60660080E-05  0.00000000E+00
  0.00000000E+00 -4.62590227E-05  2.35642476E-05  9.74012742E-07  0.00000000E+00
  0.00000000E+00 -1.31007151E-04  1.18131372E-04  4.41357062E-03 -3.04426450E-04
  3.01541586E-05  1.39424044E-03  1.71694244E-03  9.61245892E-05  6.17327454E-06
  0.00000000E+00 -5.19945552E-04 -2.25690776E-05  0.00000000E+00 -9.48605866E-04
  8.13128625E-04  0.00000000E+00 -3.75409610E-04  7.38483150E-05  0.00000000E+00
  3.37410559E-05  0.00000000E+00  0.00000000E+00 -6.34645075E-05  6.53227677E-06
 -3.53385327E-04  0.00000000E+00  0.00000000E+00  6.91784209E-04 -4.32301603E-05
 -4.28582357E-04  0.00000000E+00  0.00000000E+00  2.23657854E-04 -2.03008181E-05
  0.00000000E+00  7.36883317E-05  1.20599348E-05  0.00000000E+00  0.00000000E+00
 -1.00878814E-04 -5.70871313E-07  0.00000000E+00  2.53652048E-04 -3.09974213E-05
  0.00000000E+00  0.00000000E+00 -3.57813629E-04  6.94462657E-05  9.76927667E-01
 -9.21202893E-03  4.32827115E-02  2.25662689E-03 -8.01005306E-04  1.43341258E-03
 -1.37345745E-03  0.00000000E+00 -1.34813651E-03  1.40680570E-03  0.00000000E+00
  1.90900486E-04 -1.15548078E-03  0.00000000E+00 -1.08474764E-04 -9.77508343E-06
  0.00000000E+00  5.13096198E-05  0.00000000E+00  0.00000000E+00 -4.40241981E-05
  2.12844080E-05  7.22219456E-04  0.00000000E+00  0.00000000E+00 -1.93385449E-04
 -3.78933836E-04 -3.77291488E-04  0.00000000E+00  0.00000000E+00 -2.86502183E-04
 -3.59208331E-04  0.00000000E+00  4.34733910E-05 -5.04854279E-05  0.00000000E+00
  0.00000000E+00 -3.55145983E-05 -1.38292072E-05  0.00000000E+00  1.15567111E-05
  2.35340935E-05  0.00000000E+00  0.00000000E+00 -2.88233198E-04 -1.35481385E-04
  3.91281720E-05  4.52022582E-05 -2.66676865E-04 -6.80073659E-04 -1.11475281E-04
 -2.87601440E-05 -9.74573390E-05  0.00000000E+00  2.78902901E-04  7.04775425E-04
  0.00000000E+00 -8.44660591E-04 -4.89619350E-04  0.00000000E+00 -1.26217964E-04
 -2.41622529E-05  0.00000000E+00 -1.84230985E-05  0.00000000E+00  0.00000000E+00
 -2.93242416E-05  1.43993490E-05 -3.30669755E-04  0.00000000E+00  0.00000000E+00
 -8.25556462E-04  1.60387048E-04 -4.13302872E-05  0.00000000E+00  0.00000000E+00
  1.03267511E-04 -1.02049465E-04  0.00000000E+00 -2.20797094E-05 -1.20442290E-04
  0.00000000E+00  0.00000000E+00 -6.80885911E-05 -1.37330269E-04  0.00000000E+00
  1.28053681E-06 -1.51612084E-04  0.00000000E+00  0.00000000E+00  2.66742838E-05
 -4.24941920E-04 -2.27110937E-03  1.16379799E-04 -1.10511762E-04 -2.68049956E-04
  1.14151817E-04 -7.45055513E-06 -2.83998405E-05  0.00000000E+00  6.67925233E-05
  1.67694764E-04  0.00000000E+00  2.27987401E-04  2.14470697E-04  0.00000000E+00
  1.20952429E-04  2.40926717E-05  0.00000000E+00 -3.24227843E-06  0.00000000E+00
  0.00000000E+00 -1.77784308E-05  1.10539309E-06  4.81916695E-08  0.00000000E+00
  0.00000000E+00  7.88003885E-05  9.14360884E-05 -1.00891839E-04  0.00000000E+00
  0.00000000E+00  1.67976189E-04  1.64623748E-04  0.00000000E+00  1.57924061E-05
 -4.02081375E-06  0.00000000E+00  0.00000000E+00 -5.25726349E-06 -1.13209724E-05
  0.00000000E+00 -3.34959780E-05  4.59717451E-05  0.00000000E+00  0.00000000E+00
  8.48351073E-05  8.89764633E-05  3.75145882E-05 -9.71365590E-04 -4.82492613E-04
 -9.76742361E-06 -2.17973809E-05  1.70010616E-05  0.00000000E+00  3.24667338E-06
  2.72813509E-04  0.00000000E+00 -3.99063168E-05  1.33242153E-04  0.00000000E+00
  2.54655324E-05  0.00000000E+00  0.00000000E+00  1.40563746E-05  1.05852412E-05
 -2.55620376E-05  0.00000000E+00  0.00000000E+00  1.14298016E-05  3.26307272E-05
  1.13085226E-04  7.88209140E-05 -2.74934998E-05  7.53039888E-04  6.57232810E-04
  1.02585492E-05  1.91358864E-06  0.00000000E+00 -6.94367572E-05  2.28870727E-05
  0.00000000E+00  3.23994136E-04  8.57325173E-04  0.00000000E+00  1.79405260E-07
  7.69489439E-05  0.00000000E+00 -1.85350094E-06  0.00000000E+00  0.00000000E+00
 -4.79401794E-07 -6.89341866E-06 -3.69737637E-05  0.00000000E+00  0.00000000E+00
 -2.06253397E-05  8.46449292E-05 -2.43527462E-05  0.00000000E+00  0.00000000E+00
 -2.66446899E-04 -1.41161728E-04  0.00000000E+00  9.39085112E-06  5.42719462E-06
  0.00000000E+00  0.00000000E+00  1.81362420E-06 -1.86859583E-05  0.00000000E+00
 -4.02034393E-05 -3.55040012E-05  0.00000000E+00  0.00000000E+00 -7.12972940E-05
  1.86659027E-05  2.31013569E-03  4.44416059E-05  7.67683817E-05 -7.69681707E-05
 -4.65118170E-04  5.98319288E-06  1.61534761E-05  0.00000000E+00 -5.77239182E-05
 -5.48654084E-05  0.00000000E+00  2.27137475E-04 -1.68746238E-04  0.00000000E+00
 -1.90137150E-04 -6.13875722E-05  0.00000000E+00 -8.80516972E-06  0.00000000E+00
  0.00000000E+00  2.23505257E-05  1.93806089E-05  3.68920007E-06  0.00000000E+00
  0.00000000E+00 -1.14974451E-04 -4.36867249E-05 -3.59966740E-06  0.00000000E+00
  0.00000000E+00 -2.22643218E-04 -1.88311092E-04  0.00000000E+00  2.55675294E-06
 -6.44666289E-07  0.00000000E+00  0.00000000E+00  1.24159383E-06 -1.35466667E-05
  0.00000000E+00 -4.47214937E-05  4.23548461E-06  0.00000000E+00  0.00000000E+00
 -6.78814319E-05  1.88966673E-04  2.58857561E-04  1.46571987E-03 -7.86473409E-05
 -1.54144523E-03  3.88959571E-04 -1.44964806E-04  1.32340874E-06  0.00000000E+00
 -2.08634354E-03 -3.82928855E-04  0.00000000E+00  1.02991624E-03  7.39081964E-04
  0.00000000E+00 -1.73018268E-04  5.42508334E-05  0.00000000E+00 -1.23440610E-04
  0.00000000E+00  0.00000000E+00  2.44571281E-04  8.96457068E-05 -4.41492869E-04
  0.00000000E+00  0.00000000E+00  8.97343883E-04 -7.96948970E-05  1.31562030E-05
  0.00000000E+00  0.00000000E+00 -3.37676922E-04 -1.17876378E-04  0.00000000E+00
 -1.71266319E-06  1.50710653E-05  0.00000000E+00  0.00000000E+00  1.91952784E-05
  1.35663476E-05  0.00000000E+00  1.66527960E-04 -7.11575794E-05  0.00000000E+00
  0.00000000E+00 -2.40505263E-04  4.39931181E-05  9.76650334E-01 -9.84905768E-03
  4.35667159E-02  4.49248720E-03 -4.46907161E-04  2.15195506E-03  4.63056963E-04
  0.00000000E+00 -2.38867254E-03 -5.81143249E-04  0.00000000E+00  1.14069235E-03
 -1.06613189E-05  0.00000000E+00  5.22463078E-06 -4.22169391E-05  0.00000000E+00
 -2.32196357E-04  0.00000000E+00  0.00000000E+00  1.03413611E-04  2.96988972E-05
  3.90251791E-04  0.00000000E+00  0.00000000E+00 -8.40101013E-04 -4.03072495E-04
 -1.55059975E-04  0.00000000E+00  0.00000000E+00  2.58795969E-04  1.44574388E-05
  0.00000000E+00  5.23437905E-05  1.71755690E-05  0.00000000E+00  0.00000000E+00
 -2.24863687E-05 -1.27793314E-05  0.00000000E+00  1.37974753E-04  8.09910494E-06
  0.00000000E+00  0.00000000E+00 -1.92498565E-04 -1.34888056E-04  4.78923673E-04
  2.11003495E-03  1.53259683E-04  1.69024128E-05 -4.50649701E-05 -2.53623194E-04
  0.00000000E+00  9.21099384E-05 -1.29707561E-03  0.00000000E+00  2.90504380E-04
 -3.51474586E-04  0.00000000E+00 -3.40258787E-06  0.00000000E+00  0.00000000E+00
  7.02587785E-05  1.57140958E-05 -1.62085190E-04  0.00000000E+00  0.00000000E+00
 -5.38770877E-04 -6.66930217E-06  9.76845405E-01 -9.16617568E-03  4.34141134E-02
  3.36260524E-04 -1.03360488E-03 -1.50161431E-03  1.46646425E-03  0.00000000E+00
  1.48907152E-03 -1.32323985E-03  0.00000000E+00 -7.23973235E-04 -8.78893949E-04
  0.00000000E+00  3.77935874E-05 -2.23028412E-05  0.00000000E+00  3.51379555E-05
  0.00000000E+00  0.00000000E+00 -1.27475199E-04  5.93729028E-08  7.35972129E-04
  0.00000000E+00  0.00000000E+00 -1.54707711E-04 -2.32072443E-04 -2.84743660E-04
  0.00000000E+00  0.00000000E+00  2.21596680E-04  1.24137061E-04  0.00000000E+00
 -6.07472419E-05  3.84212073E-06  0.00000000E+00  0.00000000E+00  1.54433970E-05
  1.14458556E-05  0.00000000E+00  1.46044939E-05  1.21466520E-04  0.00000000E+00
  0.00000000E+00  2.40489360E-04  8.84822341E-05 -4.51295962E-03 -2.37385632E-04