title                                                                   
SP        RMP2-FC                                                     Aug-CC-pVTZ         
Number of atoms                            I                5
Info1-9                                    I   N=           9
          33          24           0           0           0         110
           1           2           1
Full Title                                 C   N=           1
title       
Route                                      C   N=           4
#p SP mp2/aug-cc-pvtz density=current           
Charge                                     I                0
Multiplicity                               I                1
Number of electrons                        I               32
Number of alpha electrons                  I               16
Number of beta electrons                   I               16
Number of basis functions                  I              207
Number of independent functions            I              207
Number of point charges in /Mol/           I                0
Number of translation vectors              I                0
Atomic numbers                             I   N=           5
           1           8           8           7           8
Nuclear charges                            R   N=           5
  1.00000000E+00  8.00000000E+00  8.00000000E+00  7.00000000E+00  8.00000000E+00
Current cartesian coordinates              R   N=          15
  2.92384430E+00  3.17696030E+00 -1.00297853E-31  2.74760193E+00  1.35436323E+00
 -1.31717459E-32  1.09287471E-16  1.25497184E+00 -2.67759720E-32 -4.89392423E-01
 -1.45794225E+00 -1.82873628E-33 -2.68486410E+00 -1.73075564E+00 -2.64133981E-32
Number of symbols in /Mol/                 I                0
Force Field                                I                0
Atom Types                                 C   N=           5
                                                            
Int Atom Types                             I   N=           5
           0           0           0           0           0
MM charges                                 R   N=           5
  0.00000000E+00  0.00000000E+00  0.00000000E+00  0.00000000E+00  0.00000000E+00
Integer atomic weights                     I   N=           5
           1          16          16          14          16
Real atomic weights                        R   N=           5
  1.00782504E+00  1.59949146E+01  1.59949146E+01  1.40030740E+01  1.59949146E+01
Atom fragment info                         I   N=           5
           0           0           0           0           0
Atom residue num                           I   N=           5
           0           0           0           0           0
Nuclear spins                              I   N=           5
           1           0           0           2           0
Nuclear ZEff                               R   N=           5
 -1.00000000E+00 -5.60000000E+00 -5.60000000E+00 -4.55000000E+00 -5.60000000E+00
Nuclear ZNuc                               R   N=           5
  1.00000000E+00  8.00000000E+00  8.00000000E+00  7.00000000E+00  8.00000000E+00
Nuclear QMom                               R   N=           5
  0.00000000E+00  0.00000000E+00  0.00000000E+00  2.04400000E+00  0.00000000E+00
Nuclear GFac                               R   N=           5
  2.79284600E+00  0.00000000E+00  0.00000000E+00  4.03761000E-01  0.00000000E+00
MicOpt                                     I   N=           5
          -1          -1          -1          -1          -1
Number of residues                         I                0
Number of secondary structures             I                0
SymInf integers                            I   N=          26
           1           2           1           1           1           1
           1          -1           0           0           0           0
           0           0           0           0           0           0
           0           0           0           0           0           0
           0           0
RotTr to input orientation                 R   N=          12
 -9.95357236E-01 -9.89337948E-17 -9.62495332E-02  9.62495332E-02 -7.21782659E-17
 -9.95357236E-01  9.15273441E-17 -1.00000000E+00  8.13654909E-17  2.60448864E+00
  0.00000000E+00  3.44362908E+00
Number of contracted shells                I               65
Number of primitive shells                 I              119
Pure/Cartesian d shells                    I                0
Pure/Cartesian f shells                    I                0
Highest angular momentum                   I                3
Largest degree of contraction              I                7
Shell types                                I   N=          65
           0           0           0           0           1           1
           1          -2          -2           0           0           0
           0           0           1           1           1           1
          -2          -2          -2          -3          -3           0
           0           0           0           0           1           1
           1           1          -2          -2          -2          -3
          -3           0           0           0           0           0
           1           1           1           1          -2          -2
          -2          -3          -3           0           0           0
           0           0           1           1           1           1
          -2          -2          -2          -3          -3
Number of primitives per shell             I   N=          65
           3           1           1           1           1           1
           1           1           1           7           6           1
           1           1           3           1           1           1
           1           1           1           1           1           7
           6           1           1           1           3           1
           1           1           1           1           1           1
           1           7           6           1           1           1
           3           1           1           1           1           1
           1           1           1           7           6           1
           1           1           3           1           1           1
           1           1           1           1           1
Shell to atom map                          I   N=          65
           1           1           1           1           1           1
           1           1           1           2           2           2
           2           2           2           2           2           2
           2           2           2           2           2           3
           3           3           3           3           3           3
           3           3           3           3           3           3
           3           4           4           4           4           4
           4           4           4           4           4           4
           4           4           4           5           5           5
           5           5           5           5           5           5
           5           5           5           5           5
Primitive exponents                        R   N=         119
  3.38700000E+01  5.09500000E+00  1.15900000E+00  3.25800000E-01  1.02700000E-01
  2.52600000E-02  1.40700000E+00  3.88000000E-01  1.02000000E-01  1.05700000E+00
  2.47000000E-01  1.53300000E+04  2.29900000E+03  5.22400000E+02  1.47300000E+02
  4.75500000E+01  1.67600000E+01  6.20700000E+00  5.22400000E+02  1.47300000E+02
  4.75500000E+01  1.67600000E+01  6.20700000E+00  6.88200000E-01  1.75200000E+00
  2.38400000E-01  7.37600000E-02  3.44600000E+01  7.74900000E+00  2.28000000E+00
  7.15600000E-01  2.14000000E-01  5.97400000E-02  2.31400000E+00  6.45000000E-01
  2.14000000E-01  1.42800000E+00  5.00000000E-01  1.53300000E+04  2.29900000E+03
  5.22400000E+02  1.47300000E+02  4.75500000E+01  1.67600000E+01  6.20700000E+00
  5.22400000E+02  1.47300000E+02  4.75500000E+01  1.67600000E+01  6.20700000E+00
  6.88200000E-01  1.75200000E+00  2.38400000E-01  7.37600000E-02  3.44600000E+01
  7.74900000E+00  2.28000000E+00  7.15600000E-01  2.14000000E-01  5.97400000E-02
  2.31400000E+00  6.45000000E-01  2.14000000E-01  1.42800000E+00  5.00000000E-01
  1.14200000E+04  1.71200000E+03  3.89300000E+02  1.10000000E+02  3.55700000E+01
  1.25400000E+01  4.64400000E+00  3.89300000E+02  1.10000000E+02  3.55700000E+01
  1.25400000E+01  4.64400000E+00  5.11800000E-01  1.29300000E+00  1.78700000E-01
  5.76000000E-02  2.66300000E+01  5.94800000E+00  1.74200000E+00  5.55000000E-01
  1.72500000E-01  4.91000000E-02  1.65400000E+00  4.69000000E-01  1.51000000E-01
  1.09300000E+00  3.64000000E-01  1.53300000E+04  2.29900000E+03  5.22400000E+02
  1.47300000E+02  4.75500000E+01  1.67600000E+01  6.20700000E+00  5.22400000E+02
  1.47300000E+02  4.75500000E+01  1.67600000E+01  6.20700000E+00  6.88200000E-01
  1.75200000E+00  2.38400000E-01  7.37600000E-02  3.44600000E+01  7.74900000E+00
  2.28000000E+00  7.15600000E-01  2.14000000E-01  5.97400000E-02  2.31400000E+00
  6.45000000E-01  2.14000000E-01  1.42800000E+00  5.00000000E-01
Contraction coefficients                   R   N=         119
  2.54948632E-02  1.90362766E-01  8.52162022E-01  1.00000000E+00  1.00000000E+00
  1.00000000E+00  1.00000000E+00  1.00000000E+00  1.00000000E+00  1.00000000E+00
  1.00000000E+00  5.19808943E-04  4.02025621E-03  2.07128267E-02  8.10105536E-02
  2.35962985E-01  4.42653446E-01  3.57064423E-01 -4.42115008E-05 -1.22591041E-03
 -1.05517725E-02 -6.74452633E-02 -1.71198607E-01  1.07329856E+00  1.00000000E+00
  1.00000000E+00  1.00000000E+00  4.11634896E-02  2.57762836E-01  8.02419274E-01
  1.00000000E+00  1.00000000E+00  1.00000000E+00  1.00000000E+00  1.00000000E+00
  1.00000000E+00  1.00000000E+00  1.00000000E+00  5.19808943E-04  4.02025621E-03
  2.07128267E-02  8.10105536E-02  2.35962985E-01  4.42653446E-01  3.57064423E-01
 -4.42115008E-05 -1.22591041E-03 -1.05517725E-02 -6.74452633E-02 -1.71198607E-01
  1.07329856E+00  1.00000000E+00  1.00000000E+00  1.00000000E+00  4.11634896E-02
  2.57762836E-01  8.02419274E-01  1.00000000E+00  1.00000000E+00  1.00000000E+00
  1.00000000E+00  1.00000000E+00  1.00000000E+00  1.00000000E+00  1.00000000E+00
  5.34563860E-04  4.13435660E-03  2.12335358E-02  8.25006224E-02  2.38138871E-01
  4.42551547E-01  3.53757422E-01 -4.89867350E-05 -1.19527323E-03 -1.03490714E-02
 -6.48680190E-02 -1.71552477E-01  1.07289568E+00  1.00000000E+00  1.00000000E+00
  1.00000000E+00  3.98072123E-02  2.49002660E-01  8.10479727E-01  1.00000000E+00
  1.00000000E+00  1.00000000E+00  1.00000000E+00  1.00000000E+00  1.00000000E+00
  1.00000000E+00  1.00000000E+00  5.19808943E-04  4.02025621E-03  2.07128267E-02
  8.10105536E-02  2.35962985E-01  4.42653446E-01  3.57064423E-01 -4.42115008E-05
 -1.22591041E-03 -1.05517725E-02 -6.74452633E-02 -1.71198607E-01  1.07329856E+00
  1.00000000E+00  1.00000000E+00  1.00000000E+00  4.11634896E-02  2.57762836E-01
  8.02419274E-01  1.00000000E+00  1.00000000E+00  1.00000000E+00  1.00000000E+00
  1.00000000E+00  1.00000000E+00  1.00000000E+00  1.00000000E+00
Coordinates of each shell                  R   N=         195
  2.92384430E+00  3.17696030E+00  0.00000000E+00  2.92384430E+00  3.17696030E+00
  0.00000000E+00  2.92384430E+00  3.17696030E+00  0.00000000E+00  2.92384430E+00
  3.17696030E+00  0.00000000E+00  2.92384430E+00  3.17696030E+00  0.00000000E+00
  2.92384430E+00  3.17696030E+00  0.00000000E+00  2.92384430E+00  3.17696030E+00
  0.00000000E+00  2.92384430E+00  3.17696030E+00  0.00000000E+00  2.92384430E+00
  3.17696030E+00  0.00000000E+00  2.74760193E+00  1.35436323E+00  0.00000000E+00
  2.74760193E+00  1.35436323E+00  0.00000000E+00  2.74760193E+00  1.35436323E+00
  0.00000000E+00  2.74760193E+00  1.35436323E+00  0.00000000E+00  2.74760193E+00
  1.35436323E+00  0.00000000E+00  2.74760193E+00  1.35436323E+00  0.00000000E+00
  2.74760193E+00  1.35436323E+00  0.00000000E+00  2.74760193E+00  1.35436323E+00
  0.00000000E+00  2.74760193E+00  1.35436323E+00  0.00000000E+00  2.74760193E+00
  1.35436323E+00  0.00000000E+00  2.74760193E+00  1.35436323E+00  0.00000000E+00
  2.74760193E+00  1.35436323E+00  0.00000000E+00  2.74760193E+00  1.35436323E+00
  0.00000000E+00  2.74760193E+00  1.35436323E+00  0.00000000E+00  3.61918186E-18
  1.25497184E+00  0.00000000E+00  3.61918186E-18  1.25497184E+00  0.00000000E+00
  3.61918186E-18  1.25497184E+00  0.00000000E+00  3.61918186E-18  1.25497184E+00
  0.00000000E+00  3.61918186E-18  1.25497184E+00  0.00000000E+00  3.61918186E-18
  1.25497184E+00  0.00000000E+00  3.61918186E-18  1.25497184E+00  0.00000000E+00
  3.61918186E-18  1.25497184E+00  0.00000000E+00  3.61918186E-18  1.25497184E+00
  0.00000000E+00  3.61918186E-18  1.25497184E+00  0.00000000E+00  3.61918186E-18
  1.25497184E+00  0.00000000E+00  3.61918186E-18  1.25497184E+00  0.00000000E+00
  3.61918186E-18  1.25497184E+00  0.00000000E+00  3.61918186E-18  1.25497184E+00
  0.00000000E+00 -4.89392423E-01 -1.45794225E+00  0.00000000E+00 -4.89392423E-01
 -1.45794225E+00  0.00000000E+00 -4.89392423E-01 -1.45794225E+00  0.00000000E+00
 -4.89392423E-01 -1.45794225E+00  0.00000000E+00 -4.89392423E-01 -1.45794225E+00
  0.00000000E+00 -4.89392423E-01 -1.45794225E+00  0.00000000E+00 -4.89392423E-01
 -1.45794225E+00  0.00000000E+00 -4.89392423E-01 -1.45794225E+00  0.00000000E+00
 -4.89392423E-01 -1.45794225E+00  0.00000000E+00 -4.89392423E-01 -1.45794225E+00
  0.00000000E+00 -4.89392423E-01 -1.45794225E+00  0.00000000E+00 -4.89392423E-01
 -1.45794225E+00  0.00000000E+00 -4.89392423E-01 -1.45794225E+00  0.00000000E+00
 -4.89392423E-01 -1.45794225E+00  0.00000000E+00 -2.68486410E+00 -1.73075564E+00
  0.00000000E+00 -2.68486410E+00 -1.73075564E+00  0.00000000E+00 -2.68486410E+00
 -1.73075564E+00  0.00000000E+00 -2.68486410E+00 -1.73075564E+00  0.00000000E+00
 -2.68486410E+00 -1.73075564E+00  0.00000000E+00 -2.68486410E+00 -1.73075564E+00
  0.00000000E+00 -2.68486410E+00 -1.73075564E+00  0.00000000E+00 -2.68486410E+00
 -1.73075564E+00  0.00000000E+00 -2.68486410E+00 -1.73075564E+00  0.00000000E+00
 -2.68486410E+00 -1.73075564E+00  0.00000000E+00 -2.68486410E+00 -1.73075564E+00
  0.00000000E+00 -2.68486410E+00 -1.73075564E+00  0.00000000E+00 -2.68486410E+00
 -1.73075564E+00  0.00000000E+00 -2.68486410E+00 -1.73075564E+00  0.00000000E+00
Num ILSW                                   I              100
ILSW                                       I   N=         100
           0           0           0           0           2           0
           0           0           0           0           0          -1
           5           0           0           0           0           0
           0           0           0           0           0           0
           1           0           0           0           0           0
           0           0      100000           0          -1           0
           0           0           0           0           0           0
           0           0           0           1           0           0
           0 -2000000000           1           0           0           0
           0           0           4          52           0           0
           0           0           0           0           0           0
           0           0           0           5           0           1
           0           0           0           0           0           0
           0           0           0           0           0           0
           0           0           0           0           0           0
           0           0           0           0           0           0
           0           0           0           0
Num RLSW                                   I               52
RLSW                                       R   N=          52
  1.00000000E+00  1.00000000E+00  1.00000000E+00  1.00000000E+00  1.00000000E+00
  0.00000000E+00  0.00000000E+00  1.00000000E+00  0.00000000E+00  0.00000000E+00
  0.00000000E+00  0.00000000E+00  1.00000000E+00  0.00000000E+00  0.00000000E+00
  0.00000000E+00  0.00000000E+00  1.00000000E+00  0.00000000E+00  0.00000000E+00
  0.00000000E+00  0.00000000E+00  1.00000000E+00  0.00000000E+00  0.00000000E+00
  0.00000000E+00  0.00000000E+00  1.00000000E+00  0.00000000E+00  0.00000000E+00
  0.00000000E+00  0.00000000E+00  1.00000000E+00  0.00000000E+00  0.00000000E+00
  0.00000000E+00  0.00000000E+00  0.00000000E+00  1.00000000E+00  1.00000000E+00
  0.00000000E+00  1.00000000E+00  0.00000000E+00  0.00000000E+00  0.00000000E+00
  0.00000000E+00  0.00000000E+00  0.00000000E+00  0.00000000E+00  0.00000000E+00
  0.00000000E+00  0.00000000E+00
MxBond                                     I                2
NBond                                      I   N=           5
           1           2           2           2           1
IBond                                      I   N=          10
           2           0           1           3           2           4
           3           5           4           0
RBond                                      R   N=          10
  1.00000000E+00  0.00000000E+00  1.00000000E+00  1.00000000E+00  1.00000000E+00
  1.00000000E+00  1.00000000E+00  2.00000000E+00  2.00000000E+00  0.00000000E+00
Virial Ratio                               R      2.002307590202059E+00
SCF Energy                                 R     -2.795015515279811E+02
MP2 Energy                                 R     -2.804465045721908E+02
Total Energy                               R     -2.804465045721908E+02
Post-SCF wavefunction norm                 R      1.120151323784193E+00
RMS Density                                R      3.719223788566039E-09
Job Status                                 I                1
Nuclear derivative order                   I                0
External E-field                           R   N=          35
  0.00000000E+00  0.00000000E+00  0.00000000E+00  0.00000000E+00  0.00000000E+00
  0.00000000E+00  0.00000000E+00  0.00000000E+00  0.00000000E+00  0.00000000E+00
  0.00000000E+00  0.00000000E+00  0.00000000E+00  0.00000000E+00  0.00000000E+00
  0.00000000E+00  0.00000000E+00  0.00000000E+00  0.00000000E+00  0.00000000E+00
  0.00000000E+00  0.00000000E+00  0.00000000E+00  0.00000000E+00  0.00000000E+00
  0.00000000E+00  0.00000000E+00  0.00000000E+00  0.00000000E+00  0.00000000E+00
  0.00000000E+00  0.00000000E+00  0.00000000E+00  0.00000000E+00  0.00000000E+00
IOpCl                                      I                0
IROHF                                      I                0
Alpha Orbital Energies                     R   N=         207
 -2.06901470E+01 -2.06836676E+01 -2.06588195E+01 -1.58134299E+01 -1.62553398E+00
 -1.49441528E+00 -1.25294837E+00 -9.48546033E-01 -7.71795544E-01 -7.59800457E-01
 -7.12146003E-01 -6.78902845E-01 -6.19743198E-01 -5.87850161E-01 -4.84376954E-01
 -4.74556179E-01  2.97676175E-02  7.09207650E-02  8.62809465E-02  1.01677936E-01
  1.33853521E-01  1.33853929E-01  1.44175443E-01  1.54402884E-01  1.78448196E-01
  1.94088960E-01  1.99879646E-01  2.06672303E-01  2.20771739E-01  2.37179183E-01
  2.37622659E-01  2.67302397E-01  2.91964546E-01  3.03373215E-01  3.10161544E-01
  3.43953717E-01  3.49524424E-01  3.87791229E-01  4.22735227E-01  4.32283204E-01
  5.27922359E-01  5.28930496E-01  5.57813051E-01  5.79910067E-01  6.24977091E-01
  6.41830491E-01  6.74906362E-01  6.84726002E-01  7.03923782E-01  7.11893911E-01
  7.23292129E-01  7.29107602E-01  7.42976158E-01  7.92921794E-01  7.94674082E-01
  8.11363267E-01  8.13401142E-01  8.31414099E-01  8.68142423E-01  9.09436356E-01
  9.22553344E-01  9.30043190E-01  9.56310403E-01  9.74093636E-01  9.85070994E-01
  1.01714155E+00  1.05193515E+00  1.05504065E+00  1.08332716E+00  1.11720801E+00
  1.14224542E+00  1.19065472E+00  1.21745425E+00  1.23358848E+00  1.33972638E+00
  1.35325291E+00  1.38868209E+00  1.45625423E+00  1.48750720E+00  1.50700827E+00
  1.53769047E+00  1.56863774E+00  1.57940868E+00  1.61226653E+00  1.66476157E+00
  1.67215964E+00  1.70141316E+00  1.79169853E+00  1.82939142E+00  1.83526788E+00
  1.88187779E+00  1.90698493E+00  1.95686536E+00  1.99409501E+00  2.00205488E+00
  2.08193115E+00  2.12372220E+00  2.12995951E+00  2.15218454E+00  2.22711140E+00
  2.26600030E+00  2.26891061E+00  2.28952095E+00  2.31477458E+00  2.34835458E+00
  2.38643376E+00  2.42780048E+00  2.42806146E+00  2.45005913E+00  2.45752645E+00
  2.47957763E+00  2.50050840E+00  2.58821452E+00  2.59984848E+00  2.62184187E+00
  2.62507412E+00  2.63401263E+00  2.67330148E+00  2.75147560E+00  2.81251207E+00
  2.84730532E+00  2.89330012E+00  2.89610612E+00  2.94546718E+00  2.95071217E+00
  3.02780139E+00  3.06267597E+00  3.12877204E+00  3.20547089E+00  3.22308271E+00
  3.32033150E+00  3.33618200E+00  3.52983828E+00  3.63625993E+00  3.83852394E+00
  3.84395913E+00  4.14995079E+00  4.16978127E+00  4.18527926E+00  4.25828146E+00
  4.34743407E+00  4.39365552E+00  4.46344711E+00  4.52108319E+00  4.65446279E+00
  4.71276167E+00  4.80053587E+00  4.83042010E+00  4.83262036E+00  4.89674303E+00
  5.02531213E+00  5.07589177E+00  5.10838723E+00  5.14676233E+00  5.17157888E+00
  5.24517986E+00  5.27522227E+00  5.30273489E+00  5.33145266E+00  5.35066046E+00
  5.60116383E+00  5.67336211E+00  5.79000281E+00  5.82952227E+00  5.95636971E+00
  6.16999058E+00  6.31186561E+00  6.33508844E+00  6.39506111E+00  6.49735434E+00
  6.51042558E+00  6.61585281E+00  6.66817463E+00  6.70790817E+00  6.75791074E+00
  6.76576517E+00  6.83731951E+00  6.89089008E+00  7.01960193E+00  7.05703901E+00
  7.06037244E+00  7.09270080E+00  7.12269608E+00  7.15247438E+00  7.18291234E+00
  7.22682524E+00  7.24301060E+00  7.30809696E+00  7.32562572E+00  7.34771552E+00
  7.39856425E+00  7.43108513E+00  7.48236830E+00  7.60959918E+00  7.61012245E+00
  7.63350636E+00  7.67107592E+00  7.80313506E+00  7.87757531E+00  8.09491924E+00
  8.31590665E+00  8.40917664E+00  8.54296478E+00  1.34043779E+01  1.43734349E+01
  1.51721345E+01  1.61615864E+01
Alpha MO coefficients                      R   N=       42849
  9.23805384E-05 -6.16246636E-04 -7.27841941E-04 -3.61044996E-06 -2.16430179E-05
 -2.76899665E-05  0.00000000E+00 -4.32842286E-05  5.34919758E-05  0.00000000E+00
  8.72666583E-05  3.71720219E-05  0.00000000E+00  3.17317379E-05  0.00000000E+00
  0.00000000E+00 -5.07371470E-05  2.04873510E-05 -3.33106961E-06  0.00000000E+00
  0.00000000E+00 -1.42075878E-04  1.18347710E-04  4.52345225E-03 -2.80488318E-04
  1.11774555E-05  1.52525739E-03  1.82519190E-03  1.07030772E-04  7.81200930E-06
  0.00000000E+00 -6.19626131E-04 -3.90698833E-05  0.00000000E+00 -1.10232522E-03
  7.62881450E-04  0.00000000E+00 -4.04053987E-04  6.05451322E-05  0.00000000E+00
  2.90182171E-05  0.00000000E+00  0.00000000E+00 -5.46046784E-05  5.82394802E-06
 -3.79112427E-04  0.00000000E+00  0.00000000E+00  7.45043979E-04 -3.11321572E-05
 -4.46154238E-04  0.00000000E+00  0.00000000E+00  2.50525666E-04 -4.89677878E-06
  0.00000000E+00  8.04108183E-05  1.29295743E-05  0.00000000E+00  0.00000000E+00
 -1.09652867E-04 -3.61112946E-06  0.00000000E+00  2.56627181E-04 -2.68833924E-05
  0.00000000E+00  0.00000000E+00 -3.55487590E-04  4.87635583E-05  9.76911085E-01
 -9.21688193E-03  4.33186806E-02  2.02024432E-03 -8.96818395E-04  1.50385943E-03
 -1.33674539E-03  0.00000000E+00 -1.44687555E-03  1.36452203E-03  0.00000000E+00
  8.29096260E-05 -1.13552447E-03  0.00000000E+00 -1.35913632E-04 -1.53381949E-05
  0.00000000E+00  4.70318063E-05  0.00000000E+00  0.00000000E+00 -3.33786397E-05
  2.24813126E-05  7.49546816E-04  0.00000000E+00  0.00000000E+00 -2.38903315E-04
 -3.90946464E-04 -3.69379552E-04  0.00000000E+00  0.00000000E+00 -2.96152006E-04
 -3.51020695E-04  0.00000000E+00  4.71076867E-05 -4.83066288E-05  0.00000000E+00
  0.00000000E+00 -3.96407019E-05 -1.43545497E-05  0.00000000E+00  2.60639863E-05
  2.25362186E-05  0.00000000E+00  0.00000000E+00 -3.02430659E-04 -1.42363988E-04
  3.87155215E-05  4.46182276E-05 -2.61797420E-04 -7.32490510E-04 -1.77168168E-04
 -2.58442771E-05 -9.59771894E-05  0.00000000E+00  2.72578434E-04  6.96726453E-04
  0.00000000E+00 -7.96568241E-04 -4.49171271E-04  0.00000000E+00 -1.23611157E-04
 -3.34983079E-05  0.00000000E+00 -1.83298487E-05  0.00000000E+00  0.00000000E+00
 -3.02738876E-05  1.69552164E-05 -3.25608578E-04  0.00000000E+00  0.00000000E+00
 -8.21289806E-04  1.22792015E-04 -3.59906064E-05  0.00000000E+00  0.00000000E+00
  8.74401317E-05 -1.24791409E-04  0.00000000E+00 -2.01634404E-05 -1.19325897E-04
  0.00000000E+00  0.00000000E+00 -6.19257284E-05 -1.36936723E-04  0.00000000E+00
  4.93166370E-06 -1.53886789E-04  0.00000000E+00  0.00000000E+00  4.25237683E-05
 -4.09466738E-04 -2.68023322E-03  1.32958219E-04 -1.23304819E-04 -2.13878510E-04
  1.64206434E-04 -7.51606995E-06 -2.43359627E-05  0.00000000E+00  7.49807557E-05
  1.46117585E-04  0.00000000E+00  2.52607909E-04  1.83162973E-04  0.00000000E+00
  1.33361539E-04  2.62100381E-05  0.00000000E+00 -4.07153732E-06  0.00000000E+00
  0.00000000E+00 -1.83209021E-05  2.12150218E-06  7.88496124E-06  0.00000000E+00
  0.00000000E+00  9.36105483E-05  7.35364110E-05 -9.43319224E-05  0.00000000E+00
  0.00000000E+00  1.82672906E-04  1.55952971E-04  0.00000000E+00  1.68878012E-05
 -1.98525456E-06  0.00000000E+00  0.00000000E+00 -1.69768932E-06 -1.26368175E-05
  0.00000000E+00 -3.00408687E-05  4.25613892E-05  0.00000000E+00  0.00000000E+00
  9.19908204E-05  8.80564723E-05  3.92817293E-05 -9.71402936E-04 -4.71357555E-04
 -1.06937837E-05 -1.90700472E-05  1.44502685E-05  0.00000000E+00 -6.42039160E-06
  2.59950438E-04  0.00000000E+00 -4.76405046E-05  1.28856127E-04  0.00000000E+00
  2.50855354E-05  0.00000000E+00  0.00000000E+00  1.04788697E-05  1.09352209E-05
 -3.18213914E-05  0.00000000E+00  0.00000000E+00  1.27444299E-05  3.63071672E-05
  1.13536551E-04  8.34040065E-05 -2.70105263E-05  7.13783344E-04  6.59614435E-04
  1.03287349E-05  2.54167975E-06  0.00000000E+00 -7.50556216E-05  1.07989702E-05
  0.00000000E+00  3.43680009E-04  9.23622215E-04  0.00000000E+00  8.31708678E-07
  8.73036466E-05  0.00000000E+00 -2.33493967E-06  0.00000000E+00  0.00000000E+00
 -1.54898537E-07 -4.30149961E-06 -3.38462356E-05  0.00000000E+00  0.00000000E+00
 -1.55755598E-05  7.27364223E-05 -2.35964834E-05  0.00000000E+00  0.00000000E+00
 -2.74818015E-04 -1.78187941E-04  0.00000000E+00  8.67193443E-06  6.28200288E-06
  0.00000000E+00  0.00000000E+00  2.23001493E-06 -1.80436103E-05  0.00000000E+00
 -3.77097434E-05 -3.97480783E-05  0.00000000E+00  0.00000000E+00 -7.39961135E-05
  2.61414778E-05  2.72019307E-03  3.98215950E-05  1.02906874E-04 -1.00008877E-04
 -5.10626157E-04  4.47762548E-06  1.11803936E-05  0.00000000E+00 -5.19463059E-05
 -3.59018700E-05  0.00000000E+00  2.85716997E-04 -1.89908519E-04  0.00000000E+00
 -2.02712882E-04 -7.14681293E-05  0.00000000E+00 -9.10716436E-06  0.00000000E+00
  0.00000000E+00  2.20775134E-05  2.23674693E-05  1.29150533E-05  0.00000000E+00
  0.00000000E+00 -1.11169714E-04 -6.72460785E-05  5.71120698E-06  0.00000000E+00
  0.00000000E+00 -2.21767315E-04 -2.53755223E-04  0.00000000E+00  3.94723403E-07
 -4.67579553E-06  0.00000000E+00  0.00000000E+00 -2.29450935E-06 -1.02478834E-05
  0.00000000E+00 -4.30903031E-05  9.01693531E-06  0.00000000E+00  0.00000000E+00
 -7.85778636E-05  1.75213839E-04  2.57634935E-04  1.45492140E-03 -8.19787877E-05
 -1.45076623E-03  4.25372250E-04 -1.45939798E-04  1.11870966E-06  0.00000000E+00
 -2.08304472E-03 -3.40208602E-04  0.00000000E+00  9.79550354E-04  7.30253001E-04
  0.00000000E+00 -1.61257005E-04  7.24300953E-05  0.00000000E+00 -1.22034431E-04
  0.00000000E+00  0.00000000E+00  2.49252892E-04  8.14130111E-05 -4.50090432E-04
  0.00000000E+00  0.00000000E+00  8.79159579E-04 -1.04752895E-04  1.75068317E-06
  0.00000000E+00  0.00000000E+00 -3.38750096E-04 -1.14550284E-04  0.00000000E+00
 -2.70711554E-06  1.41521446E-05  0.00000000E+00  0.00000000E+00  1.96494839E-05
  9.93419904E-06  0.00000000E+00  1.68637493E-04 -7.64069418E-05  0.00000000E+00
  0.00000000E+00 -2.31625677E-04  4.82287915E-05  9.76645915E-01 -9.85121447E-03
  4.35723843E-02  4.45378613E-03 -4.58555813E-04  2.16203152E-03  4.00950023E-04
  0.00000000E+00 -2.39911889E-03 -5.19293199E-04  0.00000000E+00  1.13062013E-03
 -3.58826400E-06  0.00000000E+00  1.57768464E-06 -4.79649360E-05  0.00000000E+00
 -2.33695555E-04  0.00000000E+00  0.00000000E+00  1.02989940E-04  2.74057088E-05
  3.88320037E-04  0.00000000E+00  0.00000000E+00 -8.56315636E-04 -3.57089385E-04
 -1.61268159E-04  0.00000000E+00  0.00000000E+00  2.48333063E-04  2.01085435E-05
  0.00000000E+00  5.28043908E-05  1.69840756E-05  0.00000000E+00  0.00000000E+00
 -2.19736789E-05 -1.06426984E-05  0.00000000E+00  1.37442365E-04  1.25079013E-06
  0.00000000E+00  0.00000000E+00 -2.03972564E-04 -1.20018301E-04  4.75154260E-04
  2.05087714E-03  1.05383590E-04  1.47487337E-05 -4.07332752E-05 -2.46987427E-04
  0.00000000E+00  1.14655617E-04 -1.27103108E-03  0.00000000E+00  3.20355842E-04
 -3.33578223E-04  0.00000000E+00 -2.46415259E-06  0.00000000E+00  0.00000000E+00
  7.62417550E-05  1.55119623E-05 -1.59555102E-04  0.00000000E+00  0.00000000E+00
 -5.37743279E-04 -2.77963644E-05  9.76829293E-01 -9.16318993E-03  4.34513036E-02
  1.73958601E-04 -1.16511334E-03 -1.55995267E-03  1.43983079E-03  0.00000000E+00
  1.57285766E-03 -1.28211039E-03  0.00000000E+00 -5.63991224E-04 -8.56660667E-04
  0.00000000E+00  5.76886556E-05 -4.00264783E-05  0.00000000E+00  2.91215225E-05
  0.00000000E+00  0.00000000E+00 -1.17602662E-04 -2.72451459E-06  7.56488412E-04
  0.00000000E+00  0.00000000E+00 -2.00785514E-04 -2.34946522E-04 -2.67094447E-04
  0.00000000E+00  0.00000000E+00  1.64752111E-04  1.27013075E-04  0.00000000E+00
 -6.40865858E-05  1.18663862E-06  0.00000000E+00  0.00000000E+00  1.86469663E-05
  1.01453039E-05  0.00000000E+00 -1.25705263E-06  1.22639217E-04  0.00000000E+00
  0.00000000E+00  2.56441071E-04  9.20774041E-05 -4.61500118E-03 -2.09754475E-04