 Entering Gaussian System, Link 0=g16
 Input=hoono_r2_1p476215.gjf
 Output=hoono_r2_1p476215.log
 Initial command:
 /sw/contrib/gaussian/g16/B01/g16/l1.exe "/scr/Gau-32305.inp" -scrdir="/scr/"
 Entering Link 1 = /sw/contrib/gaussian/g16/B01/g16/l1.exe PID=     32306.
  
 Copyright (c) 1988-2017, Gaussian, Inc.  All Rights Reserved.
  
 This is part of the Gaussian(R) 16 program.  It is based on
 the Gaussian(R) 09 system (copyright 2009, Gaussian, Inc.),
 the Gaussian(R) 03 system (copyright 2003, Gaussian, Inc.),
 the Gaussian(R) 98 system (copyright 1998, Gaussian, Inc.),
 the Gaussian(R) 94 system (copyright 1995, Gaussian, Inc.),
 the Gaussian 92(TM) system (copyright 1992, Gaussian, Inc.),
 the Gaussian 90(TM) system (copyright 1990, Gaussian, Inc.),
 the Gaussian 88(TM) system (copyright 1988, Gaussian, Inc.),
 the Gaussian 86(TM) system (copyright 1986, Carnegie Mellon
 University), and the Gaussian 82(TM) system (copyright 1983,
 Carnegie Mellon University). Gaussian is a federally registered
 trademark of Gaussian, Inc.
  
 This software contains proprietary and confidential information,
 including trade secrets, belonging to Gaussian, Inc.
  
 This software is provided under written license and may be
 used, copied, transmitted, or stored only in accord with that
 written license.
  
 The following legend is applicable only to US Government
 contracts under FAR:
  
                    RESTRICTED RIGHTS LEGEND
  
 Use, reproduction and disclosure by the US Government is
 subject to restrictions as set forth in subparagraphs (a)
 and (c) of the Commercial Computer Software - Restricted
 Rights clause in FAR 52.227-19.
  
 Gaussian, Inc.
 340 Quinnipiac St., Bldg. 40, Wallingford CT 06492
  
  
 ---------------------------------------------------------------
 Warning -- This program may not be used in any manner that
 competes with the business of Gaussian, Inc. or will provide
 assistance to any competitor of Gaussian, Inc.  The licensee
 of this program is prohibited from giving any competitor of
 Gaussian, Inc. access to this program.  By using this program,
 the user acknowledges that Gaussian, Inc. is engaged in the
 business of creating and licensing software in the field of
 computational chemistry and represents and warrants to the
 licensee that it is not a competitor of Gaussian, Inc. and that
 it will not use this program in any manner prohibited above.
 ---------------------------------------------------------------
  

 Cite this work as:
 Gaussian 16, Revision B.01,
 M. J. Frisch, G. W. Trucks, H. B. Schlegel, G. E. Scuseria, 
 M. A. Robb, J. R. Cheeseman, G. Scalmani, V. Barone, 
 G. A. Petersson, H. Nakatsuji, X. Li, M. Caricato, A. V. Marenich, 
 J. Bloino, B. G. Janesko, R. Gomperts, B. Mennucci, H. P. Hratchian, 
 J. V. Ortiz, A. F. Izmaylov, J. L. Sonnenberg, D. Williams-Young, 
 F. Ding, F. Lipparini, F. Egidi, J. Goings, B. Peng, A. Petrone, 
 T. Henderson, D. Ranasinghe, V. G. Zakrzewski, J. Gao, N. Rega, 
 G. Zheng, W. Liang, M. Hada, M. Ehara, K. Toyota, R. Fukuda, 
 J. Hasegawa, M. Ishida, T. Nakajima, Y. Honda, O. Kitao, H. Nakai, 
 T. Vreven, K. Throssell, J. A. Montgomery, Jr., J. E. Peralta, 
 F. Ogliaro, M. J. Bearpark, J. J. Heyd, E. N. Brothers, K. N. Kudin, 
 V. N. Staroverov, T. A. Keith, R. Kobayashi, J. Normand, 
 K. Raghavachari, A. P. Rendell, J. C. Burant, S. S. Iyengar, 
 J. Tomasi, M. Cossi, J. M. Millam, M. Klene, C. Adamo, R. Cammi, 
 J. W. Ochterski, R. L. Martin, K. Morokuma, O. Farkas, 
 J. B. Foresman, and D. J. Fox, Gaussian, Inc., Wallingford CT, 2016.
 
 ******************************************
 Gaussian 16:  ES64L-G16RevB.01 20-Dec-2017
                14-Feb-2022 
 ******************************************
 %nproc=28
 Will use up to   28 processors via shared memory.
 %mem=120GB
 %chk=hoono_r2_1p476215.chk
 -------------------------------------
 #p SP mp2/aug-cc-pvtz density=current
 -------------------------------------
 1/30=1,38=1,172=1/1;
 2/12=2,17=6,18=5,40=1/2;
 3/5=16,6=1,7=10,11=9,25=1,30=1,71=1/1,2,3;
 4//1;
 5/5=2,38=5/2;
 8/6=4,10=1/1;
 9/15=1,16=-3/6;
 10/5=1,13=10/2;
 6/7=2,8=2,9=2,10=2,22=-1/1;
 99/5=1,9=1/99;
 Leave Link    1 at Mon Feb 14 22:10:28 2022, MaxMem= 16106127360 cpu:               3.4 elap:               0.1
 (Enter /sw/contrib/gaussian/g16/B01/g16/l101.exe)
 -----
 title
 -----
 Symbolic Z-matrix:
 Charge =  0 Multiplicity = 1
 H
 O                    1    r1
 O                    2    r2       1    a1
 N                    3    r3       2    a2       1    d1       0
 O                    4    r4       3    a3       2    d2       0
       Variables:
  r1                    0.96898                  
  r2                    1.47622                  
  r3                    1.45878                  
  r4                    1.17073                  
  a1                   97.59495                  
  a2                  102.29752                  
  a3                  109.06955                  
  d1                  180.                       
  d2                  180.                       
 
 ITRead=  0  0  0  0  0
 MicOpt= -1 -1 -1 -1 -1
 NAtoms=      5 NQM=        5 NQMF=       0 NMMI=      0 NMMIF=      0
                NMic=       0 NMicF=      0.
                    Isotopes and Nuclear Properties:
 (Nuclear quadrupole moments (NQMom) in fm**2, nuclear magnetic moments (NMagM)
  in nuclear magnetons)

  Atom         1           2           3           4           5
 IAtWgt=           1          16          16          14          16
 AtmWgt=   1.0078250  15.9949146  15.9949146  14.0030740  15.9949146
 NucSpn=           1           0           0           2           0
 AtZEff=  -0.0000000  -0.0000000  -0.0000000  -0.0000000  -0.0000000
 NQMom=    0.0000000   0.0000000   0.0000000   2.0440000   0.0000000
 NMagM=    2.7928460   0.0000000   0.0000000   0.4037610   0.0000000
 AtZNuc=   1.0000000   8.0000000   8.0000000   7.0000000   8.0000000
 Leave Link  101 at Mon Feb 14 22:10:28 2022, MaxMem= 16106127360 cpu:               2.7 elap:               0.1
 (Enter /sw/contrib/gaussian/g16/B01/g16/l202.exe)
                          Input orientation:                          
 ---------------------------------------------------------------------
 Center     Atomic      Atomic             Coordinates (Angstroms)
 Number     Number       Type             X           Y           Z
 ---------------------------------------------------------------------
      1          1           0        0.000000    0.000000    0.000000
      2          8           0        0.000000    0.000000    0.968976
      3          8           0        1.463265    0.000000    1.164085
      4          7           0        1.582861    0.000000    2.617959
      5          8           0        2.716977    0.000000    2.908454
 ---------------------------------------------------------------------
                    Distance matrix (angstroms):
                    1          2          3          4          5
     1  H    0.000000
     2  O    0.968976   0.000000
     3  O    1.869823   1.476215   0.000000
     4  N    3.059274   2.285737   1.458784   0.000000
     5  O    3.980084   3.338194   2.148165   1.170729   0.000000
 Stoichiometry    HNO3
 Framework group  CS[SG(HNO3)]
 Deg. of freedom     7
 Full point group                 CS      NOp   2
 Largest Abelian subgroup         CS      NOp   2
 Largest concise Abelian subgroup C1      NOp   1
                         Standard orientation:                         
 ---------------------------------------------------------------------
 Center     Atomic      Atomic             Coordinates (Angstroms)
 Number     Number       Type             X           Y           Z
 ---------------------------------------------------------------------
      1          1           0        1.579363    1.673756    0.000000
      2          8           0        1.475739    0.710337    0.000000
      3          8           0        0.000000    0.672830    0.000000
      4          7           0       -0.274390   -0.759916   -0.000000
      5          8           0       -1.433068   -0.927460   -0.000000
 ---------------------------------------------------------------------
 Rotational constants (GHZ):          54.4373657           4.9613267           4.5469277
 Leave Link  202 at Mon Feb 14 22:10:28 2022, MaxMem= 16106127360 cpu:               0.3 elap:               0.0
 (Enter /sw/contrib/gaussian/g16/B01/g16/l301.exe)
 Standard basis: Aug-CC-pVTZ (5D, 7F)
 Ernie: Thresh=  0.10000D-02 Tol=  0.10000D-05 Strict=F.
 Ernie:  12 primitive shells out of 131 were deleted.
 There are   166 symmetry adapted cartesian basis functions of A'  symmetry.
 There are    79 symmetry adapted cartesian basis functions of A"  symmetry.
 There are   136 symmetry adapted basis functions of A'  symmetry.
 There are    71 symmetry adapted basis functions of A"  symmetry.
   207 basis functions,   315 primitive gaussians,   245 cartesian basis functions
    16 alpha electrons       16 beta electrons
       nuclear repulsion energy       116.3518390192 Hartrees.
 IExCor=    0 DFT=F Ex=HF Corr=None ExCW=0 ScaHFX=  1.000000
 ScaDFX=  1.000000  1.000000  1.000000  1.000000 ScalE2=  1.000000  1.000000
 IRadAn=      5 IRanWt=     -1 IRanGd=            0 ICorTp=0 IEmpDi=  4
 NAtoms=    5 NActive=    5 NUniq=    5 SFac= 1.00D+00 NAtFMM=   60 NAOKFM=F Big=F
 Integral buffers will be    131072 words long.
 Raffenetti 1 integral format.
 Two-electron integral symmetry is turned on.
 Leave Link  301 at Mon Feb 14 22:10:28 2022, MaxMem= 16106127360 cpu:               2.3 elap:               0.1
 (Enter /sw/contrib/gaussian/g16/B01/g16/l302.exe)
 NPDir=0 NMtPBC=     1 NCelOv=     1 NCel=       1 NClECP=     1 NCelD=      1
         NCelK=      1 NCelE2=     1 NClLst=     1 CellRange=     0.0.
 One-electron integrals computed using PRISM.
 One-electron integral symmetry used in STVInt
 NBasis=   207 RedAO= T EigKep=  1.84D-04  NBF=   136    71
 NBsUse=   207 1.00D-06 EigRej= -1.00D+00 NBFU=   136    71
 Leave Link  302 at Mon Feb 14 22:10:28 2022, MaxMem= 16106127360 cpu:               5.2 elap:               0.2
 (Enter /sw/contrib/gaussian/g16/B01/g16/l303.exe)
 DipDrv:  MaxL=1.
 Leave Link  303 at Mon Feb 14 22:10:28 2022, MaxMem= 16106127360 cpu:               0.8 elap:               0.1
 (Enter /sw/contrib/gaussian/g16/B01/g16/l401.exe)
 ExpMin= 2.53D-02 ExpMax= 1.53D+04 ExpMxC= 5.22D+02 IAcc=3 IRadAn=         5 AccDes= 0.00D+00
 Harris functional with IExCor=  205 and IRadAn=       5 diagonalized for initial guess.
 HarFok:  IExCor=  205 AccDes= 0.00D+00 IRadAn=         5 IDoV= 1 UseB2=F ITyADJ=14
 ICtDFT=  3500011 ScaDFX=  1.000000  1.000000  1.000000  1.000000
 FoFCou: FMM=F IPFlag=           0 FMFlag=      100000 FMFlg1=           0
         NFxFlg=           0 DoJE=T BraDBF=F KetDBF=T FulRan=T
         wScrn=  0.000000 ICntrl=       500 IOpCl=  0 I1Cent=   200000004 NGrid=           0
         NMat0=    1 NMatS0=      1 NMatT0=    0 NMatD0=    1 NMtDS0=    0 NMtDT0=    0
 Petite list used in FoFCou.
 Harris En= -279.627606661873    
 JPrj=0 DoOrth=F DoCkMO=F.
 Initial guess orbital symmetries:
       Occupied  (A') (A') (A') (A') (A') (A') (A') (A') (A') (A')
                 (A") (A') (A') (A") (A") (A')
       Virtual   (A") (A') (A') (A') (A') (A') (A") (A') (A') (A')
                 (A") (A') (A") (A') (A') (A") (A') (A") (A') (A')
                 (A') (A') (A') (A') (A') (A") (A') (A") (A') (A')
                 (A") (A') (A") (A') (A') (A") (A') (A") (A') (A')
                 (A") (A') (A") (A') (A") (A') (A') (A') (A") (A")
                 (A') (A') (A') (A') (A") (A') (A") (A') (A") (A')
                 (A') (A') (A") (A') (A') (A") (A') (A") (A') (A')
                 (A") (A') (A') (A") (A") (A') (A') (A") (A') (A')
                 (A') (A") (A') (A") (A') (A") (A') (A") (A') (A')
                 (A') (A") (A') (A") (A') (A") (A") (A') (A') (A")
                 (A') (A') (A") (A') (A') (A') (A') (A") (A") (A')
                 (A") (A') (A') (A') (A") (A') (A') (A') (A") (A')
                 (A") (A') (A') (A") (A") (A') (A") (A') (A") (A')
                 (A') (A') (A') (A") (A") (A') (A") (A') (A') (A')
                 (A') (A") (A") (A') (A') (A") (A') (A') (A') (A')
                 (A') (A") (A') (A") (A') (A") (A') (A") (A") (A')
                 (A') (A") (A') (A") (A') (A") (A") (A") (A') (A')
                 (A") (A') (A") (A') (A') (A") (A") (A") (A') (A')
                 (A') (A') (A') (A') (A') (A') (A') (A') (A') (A')
                 (A')
 The electronic state of the initial guess is 1-A'.
 Leave Link  401 at Mon Feb 14 22:10:29 2022, MaxMem= 16106127360 cpu:               6.9 elap:               0.3
 (Enter /sw/contrib/gaussian/g16/B01/g16/l502.exe)
 Keep R1 ints in memory in symmetry-blocked form, NReq=348887737.
 FoFCou: FMM=F IPFlag=           0 FMFlag=           0 FMFlg1=           0
         NFxFlg=           0 DoJE=F BraDBF=F KetDBF=F FulRan=T
         wScrn=  0.000000 ICntrl=       600 IOpCl=  0 I1Cent=           0 NGrid=           0
         NMat0=    1 NMatS0=  21528 NMatT0=    0 NMatD0=    1 NMtDS0=    0 NMtDT0=    0
 Petite list used in FoFCou.
 Closed shell SCF:
 Using DIIS extrapolation, IDIIS=  1040.
 NGot= 16106127360 LenX= 15988850015 LenY= 15988789549
 Requested convergence on RMS density matrix=1.00D-08 within 128 cycles.
 Requested convergence on MAX density matrix=1.00D-06.
 Requested convergence on             energy=1.00D-06.
 No special actions if energy rises.

 Cycle   1  Pass 1  IDiag  1:
 E= -279.367866449000    
 DIIS: error= 2.97D-02 at cycle   1 NSaved=   1.
 NSaved= 1 IEnMin= 1 EnMin= -279.367866449000     IErMin= 1 ErrMin= 2.97D-02
 ErrMax= 2.97D-02  0.00D+00 EMaxC= 1.00D-01 BMatC= 4.38D-01 BMatP= 4.38D-01
 IDIUse=3 WtCom= 7.03D-01 WtEn= 2.97D-01
 Coeff-Com:  0.100D+01
 Coeff-En:   0.100D+01
 Coeff:      0.100D+01
 Gap=     0.517 Goal=   None    Shift=    0.000
 GapD=    0.517 DampG=2.000 DampE=0.500 DampFc=1.0000 IDamp=-1.
 RMSDP=1.62D-03 MaxDP=9.92D-02              OVMax= 1.15D-01

 Cycle   2  Pass 1  IDiag  1:
 E= -279.449146189780     Delta-E=       -0.081279740780 Rises=F Damp=F
 DIIS: error= 1.83D-02 at cycle   2 NSaved=   2.
 NSaved= 2 IEnMin= 2 EnMin= -279.449146189780     IErMin= 2 ErrMin= 1.83D-02
 ErrMax= 1.83D-02  0.00D+00 EMaxC= 1.00D-01 BMatC= 7.37D-02 BMatP= 4.38D-01
 IDIUse=3 WtCom= 8.17D-01 WtEn= 1.83D-01
 Coeff-Com:  0.198D+00 0.802D+00
 Coeff-En:   0.841D-02 0.992D+00
 Coeff:      0.164D+00 0.836D+00
 Gap=     0.530 Goal=   None    Shift=    0.000
 RMSDP=9.08D-04 MaxDP=3.71D-02 DE=-8.13D-02 OVMax= 7.02D-02

 Cycle   3  Pass 1  IDiag  1:
 E= -279.479053825583     Delta-E=       -0.029907635803 Rises=F Damp=F
 DIIS: error= 1.06D-02 at cycle   3 NSaved=   3.
 NSaved= 3 IEnMin= 3 EnMin= -279.479053825583     IErMin= 3 ErrMin= 1.06D-02
 ErrMax= 1.06D-02  0.00D+00 EMaxC= 1.00D-01 BMatC= 2.94D-02 BMatP= 7.37D-02
 IDIUse=3 WtCom= 8.94D-01 WtEn= 1.06D-01
 Coeff-Com: -0.333D-01 0.378D+00 0.655D+00
 Coeff-En:   0.000D+00 0.242D+00 0.758D+00
 Coeff:     -0.297D-01 0.364D+00 0.666D+00
 Gap=     0.511 Goal=   None    Shift=    0.000
 RMSDP=3.80D-04 MaxDP=1.50D-02 DE=-2.99D-02 OVMax= 3.86D-02

 Cycle   4  Pass 1  IDiag  1:
 E= -279.498625024190     Delta-E=       -0.019571198607 Rises=F Damp=F
 DIIS: error= 1.31D-03 at cycle   4 NSaved=   4.
 NSaved= 4 IEnMin= 4 EnMin= -279.498625024190     IErMin= 4 ErrMin= 1.31D-03
 ErrMax= 1.31D-03  0.00D+00 EMaxC= 1.00D-01 BMatC= 5.11D-04 BMatP= 2.94D-02
 IDIUse=3 WtCom= 9.87D-01 WtEn= 1.31D-02
 Coeff-Com: -0.120D-01 0.592D-01 0.162D+00 0.791D+00
 Coeff-En:   0.000D+00 0.000D+00 0.000D+00 0.100D+01
 Coeff:     -0.119D-01 0.584D-01 0.160D+00 0.793D+00
 Gap=     0.503 Goal=   None    Shift=    0.000
 RMSDP=9.04D-05 MaxDP=2.85D-03 DE=-1.96D-02 OVMax= 1.13D-02

 Cycle   5  Pass 1  IDiag  1:
 E= -279.499304788321     Delta-E=       -0.000679764131 Rises=F Damp=F
 DIIS: error= 7.48D-04 at cycle   5 NSaved=   5.
 NSaved= 5 IEnMin= 5 EnMin= -279.499304788321     IErMin= 5 ErrMin= 7.48D-04
 ErrMax= 7.48D-04  0.00D+00 EMaxC= 1.00D-01 BMatC= 8.82D-05 BMatP= 5.11D-04
 IDIUse=3 WtCom= 9.93D-01 WtEn= 7.48D-03
 Coeff-Com:  0.610D-02-0.718D-01-0.116D+00 0.269D-01 0.116D+01
 Coeff-En:   0.000D+00 0.000D+00 0.000D+00 0.000D+00 0.100D+01
 Coeff:      0.605D-02-0.712D-01-0.115D+00 0.267D-01 0.115D+01
 Gap=     0.503 Goal=   None    Shift=    0.000
 RMSDP=7.51D-05 MaxDP=2.07D-03 DE=-6.80D-04 OVMax= 1.08D-02

 Cycle   6  Pass 1  IDiag  1:
 E= -279.499616441156     Delta-E=       -0.000311652835 Rises=F Damp=F
 DIIS: error= 2.98D-04 at cycle   6 NSaved=   6.
 NSaved= 6 IEnMin= 6 EnMin= -279.499616441156     IErMin= 6 ErrMin= 2.98D-04
 ErrMax= 2.98D-04  0.00D+00 EMaxC= 1.00D-01 BMatC= 1.71D-05 BMatP= 8.82D-05
 IDIUse=3 WtCom= 9.97D-01 WtEn= 2.98D-03
 Coeff-Com:  0.890D-03-0.204D-02-0.186D-02-0.124D+00-0.181D+00 0.131D+01
 Coeff-En:   0.000D+00 0.000D+00 0.000D+00 0.000D+00 0.000D+00 0.100D+01
 Coeff:      0.887D-03-0.203D-02-0.185D-02-0.123D+00-0.180D+00 0.131D+01
 Gap=     0.503 Goal=   None    Shift=    0.000
 RMSDP=4.40D-05 MaxDP=1.23D-03 DE=-3.12D-04 OVMax= 5.34D-03

 Cycle   7  Pass 1  IDiag  1:
 E= -279.499687976413     Delta-E=       -0.000071535257 Rises=F Damp=F
 DIIS: error= 1.31D-04 at cycle   7 NSaved=   7.
 NSaved= 7 IEnMin= 7 EnMin= -279.499687976413     IErMin= 7 ErrMin= 1.31D-04
 ErrMax= 1.31D-04  0.00D+00 EMaxC= 1.00D-01 BMatC= 5.55D-06 BMatP= 1.71D-05
 IDIUse=3 WtCom= 9.99D-01 WtEn= 1.31D-03
 Coeff-Com: -0.949D-03 0.140D-01 0.272D-01-0.311D-01-0.311D+00 0.463D+00
 Coeff-Com:  0.839D+00
 Coeff-En:   0.000D+00 0.000D+00 0.000D+00 0.000D+00 0.000D+00 0.000D+00
 Coeff-En:   0.100D+01
 Coeff:     -0.948D-03 0.140D-01 0.272D-01-0.311D-01-0.311D+00 0.463D+00
 Coeff:      0.839D+00
 Gap=     0.503 Goal=   None    Shift=    0.000
 RMSDP=1.41D-05 MaxDP=3.89D-04 DE=-7.15D-05 OVMax= 1.61D-03

 Cycle   8  Pass 1  IDiag  1:
 E= -279.499698264384     Delta-E=       -0.000010287971 Rises=F Damp=F
 DIIS: error= 5.26D-05 at cycle   8 NSaved=   8.
 NSaved= 8 IEnMin= 8 EnMin= -279.499698264384     IErMin= 8 ErrMin= 5.26D-05
 ErrMax= 5.26D-05  0.00D+00 EMaxC= 1.00D-01 BMatC= 6.09D-07 BMatP= 5.55D-06
 IDIUse=1 WtCom= 1.00D+00 WtEn= 0.00D+00
 Coeff-Com: -0.446D-03 0.339D-02 0.748D-02 0.274D-01-0.406D-01-0.190D+00
 Coeff-Com:  0.788D-01 0.111D+01
 Coeff:     -0.446D-03 0.339D-02 0.748D-02 0.274D-01-0.406D-01-0.190D+00
 Coeff:      0.788D-01 0.111D+01
 Gap=     0.503 Goal=   None    Shift=    0.000
 RMSDP=7.45D-06 MaxDP=2.15D-04 DE=-1.03D-05 OVMax= 8.06D-04

 Cycle   9  Pass 1  IDiag  1:
 E= -279.499700233078     Delta-E=       -0.000001968694 Rises=F Damp=F
 DIIS: error= 1.59D-05 at cycle   9 NSaved=   9.
 NSaved= 9 IEnMin= 9 EnMin= -279.499700233078     IErMin= 9 ErrMin= 1.59D-05
 ErrMax= 1.59D-05  0.00D+00 EMaxC= 1.00D-01 BMatC= 6.60D-08 BMatP= 6.09D-07
 IDIUse=1 WtCom= 1.00D+00 WtEn= 0.00D+00
 Coeff-Com:  0.124D-03-0.172D-02-0.306D-02-0.190D-02 0.342D-01 0.562D-03
 Coeff-Com: -0.139D+00-0.147D+00 0.126D+01
 Coeff:      0.124D-03-0.172D-02-0.306D-02-0.190D-02 0.342D-01 0.562D-03
 Coeff:     -0.139D+00-0.147D+00 0.126D+01
 Gap=     0.503 Goal=   None    Shift=    0.000
 RMSDP=1.94D-06 MaxDP=6.61D-05 DE=-1.97D-06 OVMax= 1.72D-04

 Cycle  10  Pass 1  IDiag  1:
 E= -279.499700392486     Delta-E=       -0.000000159408 Rises=F Damp=F
 DIIS: error= 4.10D-06 at cycle  10 NSaved=  10.
 NSaved=10 IEnMin=10 EnMin= -279.499700392486     IErMin=10 ErrMin= 4.10D-06
 ErrMax= 4.10D-06  0.00D+00 EMaxC= 1.00D-01 BMatC= 5.54D-09 BMatP= 6.60D-08
 IDIUse=1 WtCom= 1.00D+00 WtEn= 0.00D+00
 Coeff-Com:  0.297D-04-0.226D-03-0.296D-03-0.264D-02 0.124D-02 0.192D-01
 Coeff-Com: -0.590D-02-0.794D-01-0.855D-01 0.115D+01
 Coeff:      0.297D-04-0.226D-03-0.296D-03-0.264D-02 0.124D-02 0.192D-01
 Coeff:     -0.590D-02-0.794D-01-0.855D-01 0.115D+01
 Gap=     0.503 Goal=   None    Shift=    0.000
 RMSDP=5.09D-07 MaxDP=2.12D-05 DE=-1.59D-07 OVMax= 4.10D-05

 Cycle  11  Pass 1  IDiag  1:
 E= -279.499700405066     Delta-E=       -0.000000012579 Rises=F Damp=F
 DIIS: error= 2.00D-06 at cycle  11 NSaved=  11.
 NSaved=11 IEnMin=11 EnMin= -279.499700405066     IErMin=11 ErrMin= 2.00D-06
 ErrMax= 2.00D-06  0.00D+00 EMaxC= 1.00D-01 BMatC= 6.47D-10 BMatP= 5.54D-09
 IDIUse=1 WtCom= 1.00D+00 WtEn= 0.00D+00
 Coeff-Com: -0.213D-04 0.243D-03 0.480D-03 0.502D-03-0.427D-02-0.325D-02
 Coeff-Com:  0.159D-01 0.372D-01-0.138D+00-0.179D+00 0.127D+01
 Coeff:     -0.213D-04 0.243D-03 0.480D-03 0.502D-03-0.427D-02-0.325D-02
 Coeff:      0.159D-01 0.372D-01-0.138D+00-0.179D+00 0.127D+01
 Gap=     0.503 Goal=   None    Shift=    0.000
 RMSDP=1.77D-07 MaxDP=6.44D-06 DE=-1.26D-08 OVMax= 1.74D-05

 Cycle  12  Pass 1  IDiag  1:
 E= -279.499700406846     Delta-E=       -0.000000001780 Rises=F Damp=F
 DIIS: error= 5.80D-07 at cycle  12 NSaved=  12.
 NSaved=12 IEnMin=12 EnMin= -279.499700406846     IErMin=12 ErrMin= 5.80D-07
 ErrMax= 5.80D-07  0.00D+00 EMaxC= 1.00D-01 BMatC= 7.14D-11 BMatP= 6.47D-10
 IDIUse=1 WtCom= 1.00D+00 WtEn= 0.00D+00
 Coeff-Com:  0.123D-05-0.292D-04-0.624D-04 0.188D-03 0.110D-02-0.223D-02
 Coeff-Com: -0.408D-02 0.502D-02 0.419D-01-0.116D+00-0.274D+00 0.135D+01
 Coeff:      0.123D-05-0.292D-04-0.624D-04 0.188D-03 0.110D-02-0.223D-02
 Coeff:     -0.408D-02 0.502D-02 0.419D-01-0.116D+00-0.274D+00 0.135D+01
 Gap=     0.503 Goal=   None    Shift=    0.000
 RMSDP=7.16D-08 MaxDP=2.83D-06 DE=-1.78D-09 OVMax= 6.74D-06

 Cycle  13  Pass 1  IDiag  1:
 E= -279.499700407077     Delta-E=       -0.000000000231 Rises=F Damp=F
 DIIS: error= 1.76D-07 at cycle  13 NSaved=  13.
 NSaved=13 IEnMin=13 EnMin= -279.499700407077     IErMin=13 ErrMin= 1.76D-07
 ErrMax= 1.76D-07  0.00D+00 EMaxC= 1.00D-01 BMatC= 4.13D-12 BMatP= 7.14D-11
 IDIUse=1 WtCom= 1.00D+00 WtEn= 0.00D+00
 Coeff-Com:  0.130D-05-0.141D-04-0.228D-04-0.869D-04 0.120D-03 0.725D-03
 Coeff-Com: -0.508D-03-0.359D-02 0.584D-03 0.418D-01-0.393D-01-0.323D+00
 Coeff-Com:  0.132D+01
 Coeff:      0.130D-05-0.141D-04-0.228D-04-0.869D-04 0.120D-03 0.725D-03
 Coeff:     -0.508D-03-0.359D-02 0.584D-03 0.418D-01-0.393D-01-0.323D+00
 Coeff:      0.132D+01
 Gap=     0.503 Goal=   None    Shift=    0.000
 RMSDP=1.94D-08 MaxDP=5.64D-07 DE=-2.31D-10 OVMax= 1.63D-06

 Cycle  14  Pass 1  IDiag  1:
 E= -279.499700407090     Delta-E=       -0.000000000013 Rises=F Damp=F
 DIIS: error= 2.62D-08 at cycle  14 NSaved=  14.
 NSaved=14 IEnMin=14 EnMin= -279.499700407090     IErMin=14 ErrMin= 2.62D-08
 ErrMax= 2.62D-08  0.00D+00 EMaxC= 1.00D-01 BMatC= 2.22D-13 BMatP= 4.13D-12
 IDIUse=1 WtCom= 1.00D+00 WtEn= 0.00D+00
 Coeff-Com: -0.200D-06 0.327D-05 0.576D-05 0.453D-05-0.864D-04 0.476D-04
 Coeff-Com:  0.245D-03 0.298D-03-0.254D-02 0.148D-02 0.179D-01-0.260D-01
 Coeff-Com: -0.211D+00 0.122D+01
 Coeff:     -0.200D-06 0.327D-05 0.576D-05 0.453D-05-0.864D-04 0.476D-04
 Coeff:      0.245D-03 0.298D-03-0.254D-02 0.148D-02 0.179D-01-0.260D-01
 Coeff:     -0.211D+00 0.122D+01
 Gap=     0.503 Goal=   None    Shift=    0.000
 RMSDP=4.01D-09 MaxDP=9.34D-08 DE=-1.28D-11 OVMax= 3.74D-07

 SCF Done:  E(RHF) =  -279.499700407     A.U. after   14 cycles
            NFock= 14  Conv=0.40D-08     -V/T= 2.0025
 KE= 2.788101115512D+02 PE=-8.940073470998D+02 EE= 2.193456961223D+02
 Leave Link  502 at Mon Feb 14 22:10:32 2022, MaxMem= 16106127360 cpu:              55.8 elap:               3.6
 (Enter /sw/contrib/gaussian/g16/B01/g16/l801.exe)
 ExpMin= 2.53D-02 ExpMax= 1.53D+04 ExpMxC= 5.22D+02 IAcc=3 IRadAn=         5 AccDes= 0.00D+00
 HarFok:  IExCor=  205 AccDes= 0.00D+00 IRadAn=         5 IDoV=-2 UseB2=F ITyADJ=14
 ICtDFT= 12500011 ScaDFX=  1.000000  1.000000  1.000000  1.000000
 Largest valence mixing into a core orbital is  2.08D-04
 Largest core mixing into a valence orbital is  3.64D-05
 Range of M.O.s used for correlation:     5   207
 NBasis=   207 NAE=    16 NBE=    16 NFC=     4 NFV=     0
 NROrb=    203 NOA=    12 NOB=    12 NVA=   191 NVB=   191

 **** Warning!!: The largest alpha MO coefficient is  0.17510196D+02

 Leave Link  801 at Mon Feb 14 22:10:32 2022, MaxMem= 16106127360 cpu:               2.3 elap:               0.1
 (Enter /sw/contrib/gaussian/g16/B01/g16/l906.exe)
 Frozen-core derivative calculation, NFC=   4 NFV=   0.
 FulOut=F Deriv=T AODrv=F NAtomX=     5
   MMem=          76  MDisk=          12 MDiskD=          12
  W3Min=      811440 MinDsk=     1524655 NBas6D=         245
 NBas2D=       30762    NTT=       30135    LW2=     3500000
    MDV= 16105579927 MDiskM=      328644 NBas2p=       30466
 Fully in-core method, ICMem=   960157634.
 IMap=   1   2   3   4   5   6   7   8   9  10  11  12  13  14  15  16
 JobTyp=1 Pass  1 fully in-core, NPsUse= 28.
 Compute canonical integrals.
 FoFCou: FMM=F IPFlag=           0 FMFlag=           0 FMFlg1=           0
         NFxFlg=           0 DoJE=F BraDBF=F KetDBF=F FulRan=T
         wScrn=  0.000000 ICntrl=       600 IOpCl=  1 I1Cent=           0 NGrid=           0
         NMat0=    1 NMatS0=  30762 NMatT0=    0 NMatD0=    1 NMtDS0=    0 NMtDT0=    0
 Symmetry not used in FoFCou.
 Spin components of T(2) and E(2):
     alpha-alpha T2 =       0.3422564541D-01 E2=     -0.1225397539D+00
     alpha-beta  T2 =       0.1884150632D+00 E2=     -0.7017262951D+00
     beta-beta   T2 =       0.3422564541D-01 E2=     -0.1225397539D+00
 The integrals were generated   1 times.
 ANorm=    0.1121100510D+01
 E2 =    -0.9468058028D+00 EUMP2 =    -0.28044650620994D+03
 Leave Link  906 at Mon Feb 14 22:10:41 2022, MaxMem= 16106127360 cpu:             243.1 elap:               8.7
 (Enter /sw/contrib/gaussian/g16/B01/g16/l1002.exe)
 Minotr:  Closed shell wavefunction.
          Computing MP2/KS-MP2 derivatives.
          Using Z-Vector for PSCF gradient.
          Skipping F1 and S1 gradient terms here.
          Frozen-core window.
          Direct CPHF calculation.
          Differentiating once with respect to electric field.
                with respect to dipole field.
          Electric field/nuclear overlap derivatives assumed to be zero.
          Using symmetry in CPHF.
          Requested convergence is 1.0D-10 RMS, and 1.0D-09 maximum.
          NewPWx=F KeepS1=T KeepF1=T KeepIn=T MapXYZ=F SortEE=F KeepMc=T.
 Keep R1 ints in memory in symmetry-blocked form, NReq=348888868.
 FoFCou: FMM=F IPFlag=           0 FMFlag=           0 FMFlg1=           0
         NFxFlg=           0 DoJE=F BraDBF=F KetDBF=F FulRan=T
         wScrn=  0.000000 ICntrl=       600 IOpCl=  0 I1Cent=           0 NGrid=           0
         NMat0=    1 NMatS0=  21528 NMatT0=    0 NMatD0=    1 NMtDS0=    0 NMtDT0=    0
 Petite list used in FoFCou.
          MDV=   16106127360 using IRadAn=       5.
          Solving linear equations separately, MaxMat=       0.
          There are     1 degrees of freedom in the 1st order CPHF.  IDoFFX=0 NUNeed=     1.
 LinEq1:  Iter=  0 NonCon=     1 RMS=5.99D-03 Max=1.34D-01 NDo=     1
 AX will form     1 AO Fock derivatives at one time.
 LinEq1:  Iter=  1 NonCon=     1 RMS=1.91D-03 Max=3.79D-02 NDo=     1
 LinEq1:  Iter=  2 NonCon=     1 RMS=8.72D-04 Max=1.44D-02 NDo=     1
 LinEq1:  Iter=  3 NonCon=     1 RMS=3.87D-04 Max=7.71D-03 NDo=     1
 LinEq1:  Iter=  4 NonCon=     1 RMS=1.19D-04 Max=1.86D-03 NDo=     1
 LinEq1:  Iter=  5 NonCon=     1 RMS=4.34D-05 Max=6.86D-04 NDo=     1
 LinEq1:  Iter=  6 NonCon=     1 RMS=1.99D-05 Max=2.21D-04 NDo=     1
 LinEq1:  Iter=  7 NonCon=     1 RMS=8.16D-06 Max=1.30D-04 NDo=     1
 LinEq1:  Iter=  8 NonCon=     1 RMS=3.51D-06 Max=3.39D-05 NDo=     1
 LinEq1:  Iter=  9 NonCon=     1 RMS=9.59D-07 Max=1.34D-05 NDo=     1
 LinEq1:  Iter= 10 NonCon=     1 RMS=1.89D-07 Max=2.08D-06 NDo=     1
 LinEq1:  Iter= 11 NonCon=     1 RMS=3.51D-08 Max=3.70D-07 NDo=     1
 LinEq1:  Iter= 12 NonCon=     1 RMS=8.58D-09 Max=1.14D-07 NDo=     1
 LinEq1:  Iter= 13 NonCon=     1 RMS=1.60D-09 Max=2.33D-08 NDo=     1
 LinEq1:  Iter= 14 NonCon=     1 RMS=2.91D-10 Max=4.08D-09 NDo=     1
 LinEq1:  Iter= 15 NonCon=     0 RMS=5.29D-11 Max=5.59D-10 NDo=     1
 Linear equations converged to 1.000D-10 1.000D-09 after    15 iterations.
 End of Minotr F.D. properties file   721 does not exist.
 End of Minotr F.D. properties file   722 does not exist.
 End of Minotr F.D. properties file   788 does not exist.
 Leave Link 1002 at Mon Feb 14 22:10:45 2022, MaxMem= 16106127360 cpu:              55.6 elap:               4.0
 (Enter /sw/contrib/gaussian/g16/B01/g16/l601.exe)
 Copying SCF densities to generalized density rwf, IOpCl= 0 IROHF=0.

 **********************************************************************

            Population analysis using the MP2 Density.

 **********************************************************************

 Orbital symmetries:
       Occupied  (A') (A') (A') (A') (A') (A') (A') (A') (A') (A')
                 (A") (A') (A") (A') (A") (A')
       Virtual   (A') (A") (A') (A') (A') (A") (A') (A') (A") (A')
                 (A") (A') (A') (A') (A") (A') (A') (A") (A') (A')
                 (A') (A') (A') (A') (A") (A') (A') (A") (A') (A')
                 (A") (A') (A") (A') (A') (A") (A') (A') (A") (A')
                 (A") (A') (A") (A') (A') (A") (A') (A') (A") (A')
                 (A") (A') (A') (A') (A") (A') (A") (A') (A") (A')
                 (A') (A') (A") (A') (A') (A") (A') (A") (A') (A')
                 (A") (A') (A') (A") (A") (A') (A') (A") (A') (A')
                 (A') (A") (A') (A") (A') (A") (A') (A") (A') (A')
                 (A") (A') (A') (A") (A') (A") (A') (A") (A') (A')
                 (A") (A') (A") (A') (A') (A") (A') (A') (A") (A')
                 (A") (A') (A') (A') (A") (A') (A') (A') (A") (A')
                 (A") (A') (A") (A') (A') (A") (A") (A') (A") (A')
                 (A') (A') (A') (A") (A") (A") (A') (A') (A') (A')
                 (A") (A') (A") (A') (A') (A") (A') (A') (A') (A')
                 (A') (A") (A') (A") (A') (A") (A') (A") (A") (A')
                 (A') (A") (A') (A") (A') (A") (A") (A') (A") (A')
                 (A") (A') (A") (A') (A") (A') (A") (A") (A') (A')
                 (A') (A') (A') (A') (A') (A') (A') (A') (A') (A')
                 (A')
 The electronic state is 1-A'.
 Alpha  occ. eigenvalues --  -20.69207 -20.68466 -20.66181 -15.81324  -1.62347
 Alpha  occ. eigenvalues --   -1.48747  -1.25817  -0.94778  -0.77063  -0.75752
 Alpha  occ. eigenvalues --   -0.70998  -0.67939  -0.61843  -0.58639  -0.48896
 Alpha  occ. eigenvalues --   -0.47296
 Alpha virt. eigenvalues --    0.02958   0.07165   0.08537   0.10161   0.13279
 Alpha virt. eigenvalues --    0.13398   0.14397   0.15444   0.17830   0.19437
 Alpha virt. eigenvalues --    0.19989   0.20607   0.21606   0.22877   0.23721
 Alpha virt. eigenvalues --    0.26591   0.29327   0.30370   0.30998   0.34225
 Alpha virt. eigenvalues --    0.34892   0.38695   0.42101   0.43130   0.52699
 Alpha virt. eigenvalues --    0.52883   0.55815   0.58104   0.62555   0.63844
 Alpha virt. eigenvalues --    0.67458   0.68469   0.70465   0.71176   0.72298
 Alpha virt. eigenvalues --    0.72992   0.74486   0.79006   0.79181   0.81033
 Alpha virt. eigenvalues --    0.81235   0.82914   0.86801   0.90614   0.92158
 Alpha virt. eigenvalues --    0.92453   0.95743   0.97642   0.98324   1.01639
 Alpha virt. eigenvalues --    1.05047   1.05530   1.08038   1.11536   1.13805
 Alpha virt. eigenvalues --    1.18803   1.22075   1.23112   1.33823   1.34912
 Alpha virt. eigenvalues --    1.38599   1.45280   1.48815   1.51039   1.53676
 Alpha virt. eigenvalues --    1.56524   1.57840   1.61195   1.66019   1.66874
 Alpha virt. eigenvalues --    1.70295   1.79041   1.82984   1.83426   1.87619
 Alpha virt. eigenvalues --    1.90828   1.95583   1.98958   2.00796   2.07650
 Alpha virt. eigenvalues --    2.11600   2.13169   2.14594   2.22343   2.25994
 Alpha virt. eigenvalues --    2.26328   2.28826   2.31204   2.33805   2.38851
 Alpha virt. eigenvalues --    2.42090   2.42540   2.45256   2.46315   2.47424
 Alpha virt. eigenvalues --    2.49917   2.58671   2.59358   2.61341   2.62176
 Alpha virt. eigenvalues --    2.62874   2.66152   2.75617   2.82315   2.84978
 Alpha virt. eigenvalues --    2.87377   2.88327   2.91722   2.95285   3.01034
 Alpha virt. eigenvalues --    3.06841   3.12599   3.17889   3.22077   3.30868
 Alpha virt. eigenvalues --    3.34909   3.50982   3.63998   3.83819   3.83932
 Alpha virt. eigenvalues --    4.14496   4.15621   4.18041   4.25503   4.34670
 Alpha virt. eigenvalues --    4.38837   4.44385   4.52249   4.65870   4.69939
 Alpha virt. eigenvalues --    4.80275   4.82293   4.83174   4.89395   5.02161
 Alpha virt. eigenvalues --    5.07670   5.09889   5.14495   5.17828   5.23967
 Alpha virt. eigenvalues --    5.27199   5.30752   5.32669   5.35009   5.59381
 Alpha virt. eigenvalues --    5.67329   5.76333   5.79102   5.95042   6.16431
 Alpha virt. eigenvalues --    6.33500   6.34214   6.39943   6.49544   6.50569
 Alpha virt. eigenvalues --    6.61827   6.68175   6.70206   6.75442   6.75913
 Alpha virt. eigenvalues --    6.83180   6.89640   6.99659   7.02565   7.04000
 Alpha virt. eigenvalues --    7.07554   7.12194   7.13653   7.17530   7.21953
 Alpha virt. eigenvalues --    7.23664   7.30318   7.32439   7.34761   7.39424
 Alpha virt. eigenvalues --    7.40579   7.48244   7.59216   7.61023   7.61645
 Alpha virt. eigenvalues --    7.65795   7.76835   7.88185   8.05778   8.28642
 Alpha virt. eigenvalues --    8.38564   8.54524  13.32958  14.36831  15.14021
 Alpha virt. eigenvalues --   16.14979
          Condensed to atoms (all electrons):
               1          2          3          4          5
     1  H    0.588162   0.127913   0.021068   0.011950  -0.000566
     2  O    0.127913   8.296642  -0.148233  -0.086990   0.014838
     3  O    0.021068  -0.148233   8.445429  -0.132174  -0.037925
     4  N    0.011950  -0.086990  -0.132174   6.968842  -0.055053
     5  O   -0.000566   0.014838  -0.037925  -0.055053   8.271273
 Mulliken charges:
               1
     1  H    0.251473
     2  O   -0.204169
     3  O   -0.148163
     4  N    0.293425
     5  O   -0.192565
 Sum of Mulliken charges =   0.00000
 Mulliken charges with hydrogens summed into heavy atoms:
               1
     2  O    0.047304
     3  O   -0.148163
     4  N    0.293425
     5  O   -0.192565
 Electronic spatial extent (au):  <R**2>=            254.9415
 Charge=             -0.0000 electrons
 Dipole moment (field-independent basis, Debye):
    X=              0.5121    Y=              1.3420    Z=              0.0000  Tot=              1.4364
 Quadrupole moment (field-independent basis, Debye-Ang):
   XX=            -22.3519   YY=            -18.6942   ZZ=            -22.0397
   XY=              3.3217   XZ=              0.0000   YZ=             -0.0000
 Traceless Quadrupole moment (field-independent basis, Debye-Ang):
   XX=             -1.3233   YY=              2.3344   ZZ=             -1.0111
   XY=              3.3217   XZ=              0.0000   YZ=             -0.0000
 Octapole moment (field-independent basis, Debye-Ang**2):
  XXX=              3.1739  YYY=             11.0092  ZZZ=             -0.0000  XYY=              7.9306
  XXY=              6.7900  XXZ=              0.0000  XZZ=             -1.6207  YZZ=             -0.8688
  YYZ=              0.0000  XYZ=              0.0000
 Hexadecapole moment (field-independent basis, Debye-Ang**3):
 XXXX=           -161.6518 YYYY=            -88.7873 ZZZZ=            -18.2988 XXXY=            -36.1894
 XXXZ=             -0.0000 YYYX=            -30.8442 YYYZ=             -0.0000 ZZZX=             -0.0000
 ZZZY=             -0.0000 XXYY=            -33.9987 XXZZ=            -31.5503 YYZZ=            -20.4403
 XXYZ=             -0.0000 YYXZ=             -0.0000 ZZXY=            -15.0920
 N-N= 1.163518390192D+02 E-N=-8.948005879405D+02  KE= 2.801688650668D+02
 Symmetry A'   KE= 2.662093185464D+02
 Symmetry A"   KE= 1.395954652047D+01
 No NMR shielding tensors so no spin-rotation constants.
 Leave Link  601 at Mon Feb 14 22:10:45 2022, MaxMem= 16106127360 cpu:               4.7 elap:               0.2
 (Enter /sw/contrib/gaussian/g16/B01/g16/l9999.exe)
 1\1\GINC-N2180\SP\RMP2-FC\Aug-CC-pVTZ\H1N1O3\CGAVINH\14-Feb-2022\0\\#p
  SP mp2/aug-cc-pvtz density=current\\title\\0,1\H\O,1,0.96897556\O,2,1
 .4762154904,1,97.59494903\N,3,1.45878406,2,102.29752444,1,180.,0\O,4,1
 .17072885,3,109.06955123,2,180.,0\\Version=ES64L-G16RevB.01\State=1-A'
 \HF=-279.4997004\MP2=-280.4465062\RMSD=4.008e-09\Dipole=-0.1438593,0.,
 -0.5465006\Quadrupole=-1.4779343,-0.7517386,2.2296729,0.,2.1239935,0.\
 PG=CS [SG(H1N1O3)]\\@


 THEREFORE SHALL EVIL COME UPON THEE...
 THOU SHALT NOT KNOW FROM WHENCE IT RISETH...
 AND MISCHIEF SHALL FALL UPON THEE...
 THOU SHALT NOT BE ABLE TO PUT IT OFF...
 AND DESOLATION SHALL COME UPON THEE SUDDENLY...
 WHICH THOU SHALT NOT KNOW...

                                         ISAIAH 47.11
 Job cpu time:       0 days  0 hours  6 minutes 24.8 seconds.
 Elapsed time:       0 days  0 hours  0 minutes 17.7 seconds.
 File lengths (MBytes):  RWF=     22 Int=      0 D2E=      0 Chk=      8 Scr=      1
 Normal termination of Gaussian 16 at Mon Feb 14 22:10:46 2022.
