title                                                                   
SP        RMP2-FC                                                     Aug-CC-pVTZ         
Number of atoms                            I                5
Info1-9                                    I   N=           9
          33          24           0           0           0         110
           1           2           1
Full Title                                 C   N=           1
title       
Route                                      C   N=           4
#p SP mp2/aug-cc-pvtz density=current           
Charge                                     I                0
Multiplicity                               I                1
Number of electrons                        I               32
Number of alpha electrons                  I               16
Number of beta electrons                   I               16
Number of basis functions                  I              207
Number of independent functions            I              207
Number of point charges in /Mol/           I                0
Number of translation vectors              I                0
Atomic numbers                             I   N=           5
           1           8           8           7           8
Nuclear charges                            R   N=           5
  1.00000000E+00  8.00000000E+00  8.00000000E+00  7.00000000E+00  8.00000000E+00
Current cartesian coordinates              R   N=          15
  4.24858130E+00  8.19320266E-01 -5.76774839E-02  3.01901769E+00 -5.37485993E-01
 -4.45792009E-02  7.57178123E-01  1.02273845E+00  5.01651322E-02 -1.25502340E+00
 -8.61328402E-01  7.74595508E-02 -3.20912300E+00  1.65994864E-01 -6.61533527E-02
Number of symbols in /Mol/                 I                0
Force Field                                I                0
Atom Types                                 C   N=           5
                                                            
Int Atom Types                             I   N=           5
           0           0           0           0           0
MM charges                                 R   N=           5
  0.00000000E+00  0.00000000E+00  0.00000000E+00  0.00000000E+00  0.00000000E+00
Integer atomic weights                     I   N=           5
           1          16          16          14          16
Real atomic weights                        R   N=           5
  1.00782504E+00  1.59949146E+01  1.59949146E+01  1.40030740E+01  1.59949146E+01
Atom fragment info                         I   N=           5
           0           0           0           0           0
Atom residue num                           I   N=           5
           0           0           0           0           0
Nuclear spins                              I   N=           5
           1           0           0           2           0
Nuclear ZEff                               R   N=           5
 -1.00000000E+00 -5.60000000E+00 -5.60000000E+00 -4.55000000E+00 -5.60000000E+00
Nuclear ZNuc                               R   N=           5
  1.00000000E+00  8.00000000E+00  8.00000000E+00  7.00000000E+00  8.00000000E+00
Nuclear QMom                               R   N=           5
  0.00000000E+00  0.00000000E+00  0.00000000E+00  2.04400000E+00  0.00000000E+00
Nuclear GFac                               R   N=           5
  2.79284600E+00  0.00000000E+00  0.00000000E+00  4.03761000E-01  0.00000000E+00
MicOpt                                     I   N=           5
          -1          -1          -1          -1          -1
Number of residues                         I                0
Number of secondary structures             I                0
SymInf integers                            I   N=          26
           1           1           1           1           1           0
           0           0           0           0           0           0
           0           0           0           0           0           0
           0           0           0           0           0           0
           0           0
RotTr to input orientation                 R   N=          12
 -7.40412271E-01 -2.98553856E-02 -6.71489632E-01  6.71302073E-01  1.74075237E-02
 -7.40979423E-01  3.38111981E-02 -9.99402639E-01  7.15323807E-03  2.59764048E+00
  5.49376665E-02  3.46039033E+00
Number of contracted shells                I               65
Number of primitive shells                 I              119
Pure/Cartesian d shells                    I                0
Pure/Cartesian f shells                    I                0
Highest angular momentum                   I                3
Largest degree of contraction              I                7
Shell types                                I   N=          65
           0           0           0           0           1           1
           1          -2          -2           0           0           0
           0           0           1           1           1           1
          -2          -2          -2          -3          -3           0
           0           0           0           0           1           1
           1           1          -2          -2          -2          -3
          -3           0           0           0           0           0
           1           1           1           1          -2          -2
          -2          -3          -3           0           0           0
           0           0           1           1           1           1
          -2          -2          -2          -3          -3
Number of primitives per shell             I   N=          65
           3           1           1           1           1           1
           1           1           1           7           6           1
           1           1           3           1           1           1
           1           1           1           1           1           7
           6           1           1           1           3           1
           1           1           1           1           1           1
           1           7           6           1           1           1
           3           1           1           1           1           1
           1           1           1           7           6           1
           1           1           3           1           1           1
           1           1           1           1           1
Shell to atom map                          I   N=          65
           1           1           1           1           1           1
           1           1           1           2           2           2
           2           2           2           2           2           2
           2           2           2           2           2           3
           3           3           3           3           3           3
           3           3           3           3           3           3
           3           4           4           4           4           4
           4           4           4           4           4           4
           4           4           4           5           5           5
           5           5           5           5           5           5
           5           5           5           5           5
Primitive exponents                        R   N=         119
  3.38700000E+01  5.09500000E+00  1.15900000E+00  3.25800000E-01  1.02700000E-01
  2.52600000E-02  1.40700000E+00  3.88000000E-01  1.02000000E-01  1.05700000E+00
  2.47000000E-01  1.53300000E+04  2.29900000E+03  5.22400000E+02  1.47300000E+02
  4.75500000E+01  1.67600000E+01  6.20700000E+00  5.22400000E+02  1.47300000E+02
  4.75500000E+01  1.67600000E+01  6.20700000E+00  6.88200000E-01  1.75200000E+00
  2.38400000E-01  7.37600000E-02  3.44600000E+01  7.74900000E+00  2.28000000E+00
  7.15600000E-01  2.14000000E-01  5.97400000E-02  2.31400000E+00  6.45000000E-01
  2.14000000E-01  1.42800000E+00  5.00000000E-01  1.53300000E+04  2.29900000E+03
  5.22400000E+02  1.47300000E+02  4.75500000E+01  1.67600000E+01  6.20700000E+00
  5.22400000E+02  1.47300000E+02  4.75500000E+01  1.67600000E+01  6.20700000E+00
  6.88200000E-01  1.75200000E+00  2.38400000E-01  7.37600000E-02  3.44600000E+01
  7.74900000E+00  2.28000000E+00  7.15600000E-01  2.14000000E-01  5.97400000E-02
  2.31400000E+00  6.45000000E-01  2.14000000E-01  1.42800000E+00  5.00000000E-01
  1.14200000E+04  1.71200000E+03  3.89300000E+02  1.10000000E+02  3.55700000E+01
  1.25400000E+01  4.64400000E+00  3.89300000E+02  1.10000000E+02  3.55700000E+01
  1.25400000E+01  4.64400000E+00  5.11800000E-01  1.29300000E+00  1.78700000E-01
  5.76000000E-02  2.66300000E+01  5.94800000E+00  1.74200000E+00  5.55000000E-01
  1.72500000E-01  4.91000000E-02  1.65400000E+00  4.69000000E-01  1.51000000E-01
  1.09300000E+00  3.64000000E-01  1.53300000E+04  2.29900000E+03  5.22400000E+02
  1.47300000E+02  4.75500000E+01  1.67600000E+01  6.20700000E+00  5.22400000E+02
  1.47300000E+02  4.75500000E+01  1.67600000E+01  6.20700000E+00  6.88200000E-01
  1.75200000E+00  2.38400000E-01  7.37600000E-02  3.44600000E+01  7.74900000E+00
  2.28000000E+00  7.15600000E-01  2.14000000E-01  5.97400000E-02  2.31400000E+00
  6.45000000E-01  2.14000000E-01  1.42800000E+00  5.00000000E-01
Contraction coefficients                   R   N=         119
  2.54948632E-02  1.90362766E-01  8.52162022E-01  1.00000000E+00  1.00000000E+00
  1.00000000E+00  1.00000000E+00  1.00000000E+00  1.00000000E+00  1.00000000E+00
  1.00000000E+00  5.19808943E-04  4.02025621E-03  2.07128267E-02  8.10105536E-02
  2.35962985E-01  4.42653446E-01  3.57064423E-01 -4.42115008E-05 -1.22591041E-03
 -1.05517725E-02 -6.74452633E-02 -1.71198607E-01  1.07329856E+00  1.00000000E+00
  1.00000000E+00  1.00000000E+00  4.11634896E-02  2.57762836E-01  8.02419274E-01
  1.00000000E+00  1.00000000E+00  1.00000000E+00  1.00000000E+00  1.00000000E+00
  1.00000000E+00  1.00000000E+00  1.00000000E+00  5.19808943E-04  4.02025621E-03
  2.07128267E-02  8.10105536E-02  2.35962985E-01  4.42653446E-01  3.57064423E-01
 -4.42115008E-05 -1.22591041E-03 -1.05517725E-02 -6.74452633E-02 -1.71198607E-01
  1.07329856E+00  1.00000000E+00  1.00000000E+00  1.00000000E+00  4.11634896E-02
  2.57762836E-01  8.02419274E-01  1.00000000E+00  1.00000000E+00  1.00000000E+00
  1.00000000E+00  1.00000000E+00  1.00000000E+00  1.00000000E+00  1.00000000E+00
  5.34563860E-04  4.13435660E-03  2.12335358E-02  8.25006224E-02  2.38138871E-01
  4.42551547E-01  3.53757422E-01 -4.89867350E-05 -1.19527323E-03 -1.03490714E-02
 -6.48680190E-02 -1.71552477E-01  1.07289568E+00  1.00000000E+00  1.00000000E+00
  1.00000000E+00  3.98072123E-02  2.49002660E-01  8.10479727E-01  1.00000000E+00
  1.00000000E+00  1.00000000E+00  1.00000000E+00  1.00000000E+00  1.00000000E+00
  1.00000000E+00  1.00000000E+00  5.19808943E-04  4.02025621E-03  2.07128267E-02
  8.10105536E-02  2.35962985E-01  4.42653446E-01  3.57064423E-01 -4.42115008E-05
 -1.22591041E-03 -1.05517725E-02 -6.74452633E-02 -1.71198607E-01  1.07329856E+00
  1.00000000E+00  1.00000000E+00  1.00000000E+00  4.11634896E-02  2.57762836E-01
  8.02419274E-01  1.00000000E+00  1.00000000E+00  1.00000000E+00  1.00000000E+00
  1.00000000E+00  1.00000000E+00  1.00000000E+00  1.00000000E+00
Coordinates of each shell                  R   N=         195
  4.24858130E+00  8.19320266E-01 -5.76774839E-02  4.24858130E+00  8.19320266E-01
 -5.76774839E-02  4.24858130E+00  8.19320266E-01 -5.76774839E-02  4.24858130E+00
  8.19320266E-01 -5.76774839E-02  4.24858130E+00  8.19320266E-01 -5.76774839E-02
  4.24858130E+00  8.19320266E-01 -5.76774839E-02  4.24858130E+00  8.19320266E-01
 -5.76774839E-02  4.24858130E+00  8.19320266E-01 -5.76774839E-02  4.24858130E+00
  8.19320266E-01 -5.76774839E-02  3.01901769E+00 -5.37485993E-01 -4.45792009E-02
  3.01901769E+00 -5.37485993E-01 -4.45792009E-02  3.01901769E+00 -5.37485993E-01
 -4.45792009E-02  3.01901769E+00 -5.37485993E-01 -4.45792009E-02  3.01901769E+00
 -5.37485993E-01 -4.45792009E-02  3.01901769E+00 -5.37485993E-01 -4.45792009E-02
  3.01901769E+00 -5.37485993E-01 -4.45792009E-02  3.01901769E+00 -5.37485993E-01
 -4.45792009E-02  3.01901769E+00 -5.37485993E-01 -4.45792009E-02  3.01901769E+00
 -5.37485993E-01 -4.45792009E-02  3.01901769E+00 -5.37485993E-01 -4.45792009E-02
  3.01901769E+00 -5.37485993E-01 -4.45792009E-02  3.01901769E+00 -5.37485993E-01
 -4.45792009E-02  3.01901769E+00 -5.37485993E-01 -4.45792009E-02  7.57178123E-01
  1.02273845E+00  5.01651322E-02  7.57178123E-01  1.02273845E+00  5.01651322E-02
  7.57178123E-01  1.02273845E+00  5.01651322E-02  7.57178123E-01  1.02273845E+00
  5.01651322E-02  7.57178123E-01  1.02273845E+00  5.01651322E-02  7.57178123E-01
  1.02273845E+00  5.01651322E-02  7.57178123E-01  1.02273845E+00  5.01651322E-02
  7.57178123E-01  1.02273845E+00  5.01651322E-02  7.57178123E-01  1.02273845E+00
  5.01651322E-02  7.57178123E-01  1.02273845E+00  5.01651322E-02  7.57178123E-01
  1.02273845E+00  5.01651322E-02  7.57178123E-01  1.02273845E+00  5.01651322E-02
  7.57178123E-01  1.02273845E+00  5.01651322E-02  7.57178123E-01  1.02273845E+00
  5.01651322E-02 -1.25502340E+00 -8.61328402E-01  7.74595508E-02 -1.25502340E+00
 -8.61328402E-01  7.74595508E-02 -1.25502340E+00 -8.61328402E-01  7.74595508E-02
 -1.25502340E+00 -8.61328402E-01  7.74595508E-02 -1.25502340E+00 -8.61328402E-01
  7.74595508E-02 -1.25502340E+00 -8.61328402E-01  7.74595508E-02 -1.25502340E+00
 -8.61328402E-01  7.74595508E-02 -1.25502340E+00 -8.61328402E-01  7.74595508E-02
 -1.25502340E+00 -8.61328402E-01  7.74595508E-02 -1.25502340E+00 -8.61328402E-01
  7.74595508E-02 -1.25502340E+00 -8.61328402E-01  7.74595508E-02 -1.25502340E+00
 -8.61328402E-01  7.74595508E-02 -1.25502340E+00 -8.61328402E-01  7.74595508E-02
 -1.25502340E+00 -8.61328402E-01  7.74595508E-02 -3.20912300E+00  1.65994864E-01
 -6.61533527E-02 -3.20912300E+00  1.65994864E-01 -6.61533527E-02 -3.20912300E+00
  1.65994864E-01 -6.61533527E-02 -3.20912300E+00  1.65994864E-01 -6.61533527E-02
 -3.20912300E+00  1.65994864E-01 -6.61533527E-02 -3.20912300E+00  1.65994864E-01
 -6.61533527E-02 -3.20912300E+00  1.65994864E-01 -6.61533527E-02 -3.20912300E+00
  1.65994864E-01 -6.61533527E-02 -3.20912300E+00  1.65994864E-01 -6.61533527E-02
 -3.20912300E+00  1.65994864E-01 -6.61533527E-02 -3.20912300E+00  1.65994864E-01
 -6.61533527E-02 -3.20912300E+00  1.65994864E-01 -6.61533527E-02 -3.20912300E+00
  1.65994864E-01 -6.61533527E-02 -3.20912300E+00  1.65994864E-01 -6.61533527E-02
Num ILSW                                   I              100
ILSW                                       I   N=         100
           0           0           0           0           2           0
           0           0           0           0           0          -1
           5           0           0           0           0           0
           0           0           0           0           0           0
           1           0           0           0           0           0
           0           0      100000           0          -1           0
           0           0           0           0           0           0
           0           0           0           1           0           0
           0 -2000000000           1           0           0           0
           0           0           4          52           0           0
           0           0           0           0           0           0
           0           0           0           5           0           1
           0           0           0           0           0           0
           0           0           0           0           0           0
           0           0           0           0           0           0
           0           0           0           0           0           0
           0           0           0           0
Num RLSW                                   I               52
RLSW                                       R   N=          52
  1.00000000E+00  1.00000000E+00  1.00000000E+00  1.00000000E+00  1.00000000E+00
  0.00000000E+00  0.00000000E+00  1.00000000E+00  0.00000000E+00  0.00000000E+00
  0.00000000E+00  0.00000000E+00  1.00000000E+00  0.00000000E+00  0.00000000E+00
  0.00000000E+00  0.00000000E+00  1.00000000E+00  0.00000000E+00  0.00000000E+00
  0.00000000E+00  0.00000000E+00  1.00000000E+00  0.00000000E+00  0.00000000E+00
  0.00000000E+00  0.00000000E+00  1.00000000E+00  0.00000000E+00  0.00000000E+00
  0.00000000E+00  0.00000000E+00  1.00000000E+00  0.00000000E+00  0.00000000E+00
  0.00000000E+00  0.00000000E+00  0.00000000E+00  1.00000000E+00  1.00000000E+00
  0.00000000E+00  1.00000000E+00  0.00000000E+00  0.00000000E+00  0.00000000E+00
  0.00000000E+00  0.00000000E+00  0.00000000E+00  0.00000000E+00  0.00000000E+00
  0.00000000E+00  0.00000000E+00
MxBond                                     I                2
NBond                                      I   N=           5
           1           2           2           2           1
IBond                                      I   N=          10
           2           0           1           3           2           4
           3           5           4           0
RBond                                      R   N=          10
  1.00000000E+00  0.00000000E+00  1.00000000E+00  1.00000000E+00  1.00000000E+00
  1.00000000E+00  1.00000000E+00  2.00000000E+00  2.00000000E+00  0.00000000E+00
Virial Ratio                               R      2.002350912528954E+00
SCF Energy                                 R     -2.795015377367606E+02
MP2 Energy                                 R     -2.804465075540352E+02
Total Energy                               R     -2.804465075540352E+02
Post-SCF wavefunction norm                 R      1.120202139988592E+00
RMS Density                                R      4.076521902326667E-09
Job Status                                 I                1
Nuclear derivative order                   I                0
External E-field                           R   N=          35
  0.00000000E+00  0.00000000E+00  0.00000000E+00  0.00000000E+00  0.00000000E+00
  0.00000000E+00  0.00000000E+00  0.00000000E+00  0.00000000E+00  0.00000000E+00
  0.00000000E+00  0.00000000E+00  0.00000000E+00  0.00000000E+00  0.00000000E+00
  0.00000000E+00  0.00000000E+00  0.00000000E+00  0.00000000E+00  0.00000000E+00
  0.00000000E+00  0.00000000E+00  0.00000000E+00  0.00000000E+00  0.00000000E+00
  0.00000000E+00  0.00000000E+00  0.00000000E+00  0.00000000E+00  0.00000000E+00
  0.00000000E+00  0.00000000E+00  0.00000000E+00  0.00000000E+00  0.00000000E+00
IOpCl                                      I                0
IROHF                                      I                0
Alpha Orbital Energies                     R   N=         207
 -2.06906986E+01 -2.06844168E+01 -2.06599987E+01 -1.58127525E+01 -1.62405250E+00
 -1.49570212E+00 -1.25438467E+00 -9.48061188E-01 -7.72751418E-01 -7.59148706E-01
 -7.12163895E-01 -6.78970995E-01 -6.20579374E-01 -5.89336683E-01 -4.85220155E-01
 -4.72480108E-01  2.96295643E-02  7.15110439E-02  8.60345435E-02  1.01715369E-01
  1.32083246E-01  1.35683655E-01  1.44102784E-01  1.54547511E-01  1.78016167E-01
  1.94092887E-01  1.99462546E-01  2.06688928E-01  2.20937824E-01  2.34295911E-01
  2.38772538E-01  2.65386257E-01  2.93424147E-01  3.03058348E-01  3.11812960E-01
  3.43392999E-01  3.49924998E-01  3.87192693E-01  4.21083172E-01  4.30558101E-01
  5.25190403E-01  5.31552454E-01  5.58289956E-01  5.81180416E-01  6.26036484E-01
  6.38483326E-01  6.71605955E-01  6.87639122E-01  7.06519541E-01  7.11428270E-01
  7.25244834E-01  7.29918672E-01  7.44780287E-01  7.89614530E-01  7.94535617E-01
  8.07393028E-01  8.15843896E-01  8.30075803E-01  8.68038288E-01  9.07759599E-01
  9.21903851E-01  9.26348326E-01  9.56031650E-01  9.75802484E-01  9.85549590E-01
  1.01604154E+00  1.04921955E+00  1.05531569E+00  1.08577444E+00  1.11676302E+00
  1.13959633E+00  1.19069628E+00  1.22186666E+00  1.23207031E+00  1.33822737E+00
  1.35128935E+00  1.38830131E+00  1.45139445E+00  1.48743917E+00  1.50848393E+00
  1.53808891E+00  1.56497334E+00  1.58201348E+00  1.61322853E+00  1.66276542E+00
  1.66906821E+00  1.70406799E+00  1.79115973E+00  1.82821680E+00  1.83807594E+00
  1.88016065E+00  1.91103070E+00  1.95592844E+00  1.99078452E+00  2.00812088E+00
  2.07750457E+00  2.11970914E+00  2.13043077E+00  2.15157297E+00  2.22569870E+00
  2.26384847E+00  2.26585308E+00  2.29002446E+00  2.31397373E+00  2.34520910E+00
  2.38653151E+00  2.41795831E+00  2.43327117E+00  2.45392551E+00  2.46261450E+00
  2.47772280E+00  2.50280380E+00  2.59056935E+00  2.59642212E+00  2.61834936E+00
  2.62445200E+00  2.63554120E+00  2.66651807E+00  2.75456330E+00  2.82020902E+00
  2.85426112E+00  2.88538829E+00  2.90124771E+00  2.92310564E+00  2.96225631E+00
  3.02714664E+00  3.06925982E+00  3.12190072E+00  3.20517423E+00  3.22556239E+00
  3.31497018E+00  3.34225446E+00  3.51476278E+00  3.63976493E+00  3.83668474E+00
  3.84719508E+00  4.14894632E+00  4.16172962E+00  4.18410448E+00  4.25653394E+00
  4.35185321E+00  4.39355774E+00  4.46443833E+00  4.51920627E+00  4.65811340E+00
  4.70956423E+00  4.80582665E+00  4.82402473E+00  4.82705512E+00  4.89930125E+00
  5.02260636E+00  5.07468551E+00  5.10466547E+00  5.14667668E+00  5.17910763E+00
  5.24385202E+00  5.27295596E+00  5.30531880E+00  5.32905276E+00  5.35520033E+00
  5.60585519E+00  5.67425644E+00  5.76872774E+00  5.82884976E+00  5.95811416E+00
  6.16907828E+00  6.30984567E+00  6.33719234E+00  6.39411753E+00  6.49343202E+00
  6.50539325E+00  6.61462209E+00  6.66725875E+00  6.69863856E+00  6.75659716E+00
  6.76401297E+00  6.83234688E+00  6.89807623E+00  7.01461450E+00  7.05391739E+00
  7.05861018E+00  7.09032404E+00  7.12510848E+00  7.15250972E+00  7.18158155E+00
  7.22535814E+00  7.24197068E+00  7.30797695E+00  7.32631643E+00  7.34832738E+00
  7.39928486E+00  7.43208209E+00  7.48342387E+00  7.59034531E+00  7.62555575E+00
  7.63195845E+00  7.66938248E+00  7.78990314E+00  7.88633013E+00  8.09190144E+00
  8.31292655E+00  8.40865218E+00  8.54329865E+00  1.33933398E+01  1.43901250E+01
  1.51631804E+01  1.61493562E+01
Alpha MO coefficients                      R   N=       42849
  9.19860843E-05 -6.47952299E-04 -7.31191153E-04 -4.79643128E-06 -3.32619174E-05
 -8.78099403E-06  2.45477712E-07  1.61783482E-06  7.59909042E-05 -2.60558344E-06
  9.19611189E-05 -2.27189760E-05 -2.19573009E-06  3.18205787E-05  3.27866136E-06
 -2.49312277E-06  5.88937207E-06  5.36405453E-05 -5.67832409E-06 -1.49772976E-06
 -4.23756843E-06  7.24513285E-05  1.67057038E-04  4.61245735E-03 -2.81931235E-04
  1.57805752E-05  1.56049906E-03  1.82794322E-03  8.97199646E-05 -5.71008471E-05
 -4.31203397E-06 -5.16722713E-04  3.38264567E-04  2.39918819E-05 -4.04142114E-04
  1.29812460E-03  3.23893516E-05 -2.85848867E-04  2.92072519E-04  8.88865593E-06
  2.86816461E-05  3.12342069E-06 -2.74392162E-06 -1.02016653E-05  5.33549095E-05
 -3.76736547E-04 -3.93321788E-05  3.24226044E-05  1.84440440E-04 -7.16100365E-04
 -4.46283498E-04 -2.10073914E-05  2.18185214E-05  5.33137706E-05 -2.33621907E-04
 -6.22633749E-06  7.16033824E-05 -3.71277692E-05  3.31678857E-06 -8.65697440E-06
  3.36183254E-05  1.04068029E-04 -2.48395773E-05  1.86061489E-04 -1.72925482E-04
  3.43150350E-06 -2.83568408E-05  1.65834805E-04  3.15838723E-04  9.76910108E-01
 -9.21726080E-03  4.33191767E-02  2.04835355E-03 -9.19564015E-04  3.92380379E-04
 -1.97857562E-03 -3.14712902E-05 -3.28483071E-04  1.96712020E-03  3.80203470E-05
 -6.27879503E-04 -9.85192615E-04  1.51073763E-05 -1.15509107E-04  7.16019395E-05
  5.17449748E-06  4.64594667E-05  3.26492594E-06 -2.92399728E-06  1.01162623E-05
  3.98395791E-05  7.45656657E-04  5.32170569E-05 -2.26710146E-05 -4.38779953E-04
  1.08357604E-04 -3.58412144E-04 -5.37652832E-06  1.43621951E-06 -4.51670747E-04
  1.91018957E-04 -3.35618258E-06  8.85598824E-06 -6.73197705E-05  3.09507764E-06
 -5.88928130E-06 -1.93447812E-06  4.18979232E-05 -2.21445645E-06  3.10643094E-05
  3.68666668E-06 -2.26691638E-06 -9.40077134E-06 -2.81692786E-05  3.34000655E-04
  3.93926337E-05  4.78447435E-05 -2.64149754E-04 -7.10655221E-04 -1.49630905E-04
 -7.95960334E-05 -6.21936036E-05 -1.99785272E-06  6.37801944E-04  4.09275164E-04
  1.43896716E-05 -9.58465913E-04  1.01519360E-04  2.26864419E-05 -1.16441201E-04
  4.96590156E-05  1.37816299E-05 -1.80309043E-05 -2.88933085E-06 -1.49866420E-06
  5.60257637E-06  3.26931314E-05 -3.29759113E-04 -8.77333813E-06  7.18376397E-06
 -1.17211302E-04  8.30534966E-04 -3.62339014E-05  2.03187472E-05  1.19649925E-05
 -7.91264344E-05 -1.25066249E-04  5.82330479E-07 -8.79952195E-05 -8.40685029E-05
  2.14207636E-06 -5.70479284E-06 -1.08969760E-04  1.05268175E-04  1.32141897E-05
 -8.90207801E-05 -1.25158105E-04 -1.86967312E-05 -1.33430227E-05 -4.08091705E-04
  9.88870310E-05 -2.69857782E-03  1.20178014E-04 -1.28757826E-04 -2.37387611E-04
  1.42392220E-04 -2.31671323E-05 -1.74821270E-05 -2.27683228E-06  1.52485975E-04
  9.06503454E-05  1.67712956E-05  3.15408180E-04  2.97407552E-05 -1.59406655E-05
  1.17158071E-04 -5.47605534E-05 -9.91108184E-06 -3.48656951E-06 -1.42604571E-06
  3.00841448E-07 -4.22033977E-06  1.72552485E-05  1.47823934E-06  1.33144099E-05
  2.77512777E-06  1.08377383E-04 -5.01445610E-05 -1.00546247E-04 -4.79309831E-06
 -9.23699424E-06  2.06438553E-04 -1.08226865E-04  1.44988504E-06  1.03810838E-05
 -1.17760120E-05  1.27214109E-06  2.69036212E-06 -9.77710336E-06  7.76337825E-06
 -2.52113039E-06  5.16536203E-07  5.47771414E-05 -3.20323327E-06 -9.06858534E-06
  5.79490140E-05 -1.07707936E-04  3.80311228E-05 -9.62498279E-04 -4.76560653E-04
 -1.03190348E-05 -8.71639052E-06  2.54258082E-05  4.21616468E-07  1.57953341E-04
  2.15196820E-04 -3.39431404E-06  4.63392990E-05  1.29971210E-04  1.58411452E-06
  2.53591137E-05  3.71050152E-08  6.23689077E-07  1.40468603E-05 -7.97028289E-06
 -2.66494578E-05 -3.95545895E-07  1.28626262E-06  3.61467345E-05 -1.46892489E-07
  1.12390039E-04  8.35137752E-05 -2.73816589E-05  7.24450722E-04  6.33224985E-04
  9.51890322E-06 -3.81541337E-06  6.09028792E-08 -4.91855855E-05  5.36230423E-05
 -1.62751418E-06  7.93515504E-04  5.11916740E-04  2.60467306E-05  4.99322787E-05
  6.03734154E-05  1.31388043E-05 -2.29293621E-06  1.03800220E-06  7.24683030E-08
 -5.57917490E-06 -1.52748611E-06 -3.45478950E-05 -5.95709171E-06 -3.76344728E-07
  7.25046349E-05  4.12981258E-05 -1.95985289E-05 -1.99284721E-05  2.02184796E-06
 -2.28587304E-04  2.02300036E-04  5.07193614E-07  1.11339553E-05 -4.72910539E-07
 -5.00833046E-07 -6.84835630E-07 -1.80169777E-05  3.34410189E-06 -3.71047341E-06
 -5.56642511E-05 -6.85112418E-06  8.73709842E-06 -8.26473446E-07  4.46891908E-05
  6.62764968E-05  2.73679483E-03  3.71074810E-05  9.68706304E-05 -7.71328908E-05
 -4.56685199E-04  1.53724174E-05  7.91850463E-06 -7.36555472E-07 -8.35556971E-05
 -6.20606397E-06  2.37560768E-06  8.14704578E-05 -2.85864342E-04 -2.77660638E-05
 -1.83573534E-04  5.75552728E-05 -8.07113642E-06 -8.65985997E-06  2.25310857E-06
 -6.94188173E-08  2.53944067E-05 -1.54426610E-05  4.72383757E-06 -8.19186830E-06
  1.12863793E-07 -7.84453156E-05  9.82089630E-05 -5.47558491E-06 -1.26569383E-05
  2.17801029E-05 -2.57956714E-04  1.49919447E-04 -1.79067198E-06  2.22623103E-06
 -2.43914115E-06 -1.62192988E-06 -5.35833602E-07 -1.31508967E-05  2.97496959E-06
  4.05497949E-07 -3.47167025E-05  3.04636704E-05  1.24317390E-05  7.65355783E-06
  2.01109988E-04  8.99445430E-06  2.58537036E-04  1.46420469E-03 -7.80363075E-05
 -1.53710643E-03  3.98731163E-04 -1.15790583E-04  8.57237371E-05 -1.08338758E-05
 -1.91514820E-03  9.15520824E-04 -1.28217679E-04  1.29258591E-03 -4.41741568E-06
  3.89928676E-05 -1.03755810E-04  1.46083193E-04 -7.69905242E-06 -1.21685440E-04
  2.74368228E-05 -1.24905855E-05  1.60437640E-04 -2.04085178E-04 -4.35380548E-04
  1.02306916E-04 -6.37868825E-05  1.99319971E-04 -8.73131720E-04  9.74462787E-06
 -2.91172909E-05  4.60015336E-06 -2.13111033E-04  2.88411385E-04 -3.51842839E-06
  8.11075326E-06  1.29467904E-05  3.45892678E-06 -1.10013873E-06  6.06646938E-06
 -2.22059229E-05  4.14479760E-05  8.57083301E-05 -1.52457625E-04 -2.02272266E-05
  4.39357742E-05  1.18536646E-04  2.12048453E-04  9.76648753E-01 -9.85022686E-03
  4.35675764E-02  4.50436347E-03 -4.44617956E-04  2.00812734E-03 -8.88048553E-04
  1.46291403E-04 -2.27056374E-03  9.30537851E-04 -1.50337855E-04  9.13062437E-04
 -6.78386467E-04  9.84314548E-05 -2.13350529E-05 -3.59971952E-05 -4.81316111E-06
 -2.30657977E-04  2.23525250E-05 -2.43136332E-05  6.06236008E-05 -8.78311441E-05
  3.85826049E-04 -9.62747658E-05  2.35792970E-05 -6.41351637E-04  6.72430732E-04
 -1.50080400E-04  3.57103595E-05 -2.65999605E-05  9.07635514E-05 -2.39096369E-04
  8.41995087E-06  5.13403649E-05 -1.60149031E-05 -3.78512339E-06  7.78197294E-06
 -5.17228445E-06  2.48766730E-05  2.14633817E-05  1.14330242E-04 -7.43992867E-05
 -2.42232245E-05  1.97111321E-05 -6.87888348E-05  2.24240059E-04  4.74862581E-04
  2.05752808E-03  1.17458306E-04  1.49472885E-05 -1.79918679E-04 -1.73607860E-04
  2.87328717E-06 -6.69532505E-04 -1.08997156E-03 -3.26972454E-06  4.60312250E-05
 -4.55885428E-04 -1.35922563E-05 -2.49849985E-06 -2.54872364E-06  1.33388169E-06
  3.67693011E-05 -6.82344827E-05 -1.60377710E-04  5.27163624E-06 -4.49355017E-06
 -1.78143438E-04  5.06996153E-04  9.76829928E-01 -9.16335351E-03  4.34496524E-02
  1.69727549E-04 -1.13770757E-03 -3.94627975E-04  2.08839287E-03  5.26796634E-05
  4.98079854E-04 -1.96875072E-03 -5.17463044E-05 -9.73842945E-04 -3.54188815E-04
  2.24153599E-05  2.70825955E-05 -5.79964377E-05 -3.77079288E-06  2.92885243E-05
  5.76761941E-06 -3.78596095E-06 -3.69960873E-05  1.12020934E-04  7.55402974E-04
  5.11966116E-05 -2.38020150E-05 -2.83228840E-04  1.24325760E-04 -2.66731687E-04
 -1.10815096E-05  1.25099365E-05  1.71045397E-04 -1.24143730E-04  5.53460956E-06
 -5.04650362E-05  3.90343167E-05 -1.67891019E-06  3.60029300E-06  2.94789519E-06
 -2.09568664E-05 -6.32629187E-07  7.25011105E-05  9.87683314E-05 -2.22835494E-07
  1.50314223E-05 -2.93248547E-07 -2.72637013E-04 -4.70467092E-03 -2.10754567E-04