title                                                                   
SP        RMP2-FC                                                     Aug-CC-pVTZ         
Number of atoms                            I                5
Info1-9                                    I   N=           9
          33          24           0           0           0         110
           1           2           1
Full Title                                 C   N=           1
title       
Route                                      C   N=           4
#p SP mp2/aug-cc-pvtz density=current           
Charge                                     I                0
Multiplicity                               I                1
Number of electrons                        I               32
Number of alpha electrons                  I               16
Number of beta electrons                   I               16
Number of basis functions                  I              207
Number of independent functions            I              207
Number of point charges in /Mol/           I                0
Number of translation vectors              I                0
Atomic numbers                             I   N=           5
           1           8           8           7           8
Nuclear charges                            R   N=           5
  1.00000000E+00  8.00000000E+00  8.00000000E+00  7.00000000E+00  8.00000000E+00
Current cartesian coordinates              R   N=          15
  4.22365225E+00  7.91925427E-01  3.64348264E-01  3.02268406E+00 -5.32261205E-01
 -3.20437593E-02  7.56102931E-01  1.02392139E+00 -4.20809985E-02 -1.25225541E+00
 -8.63533458E-01  1.63896697E-02 -3.21102004E+00  1.64940917E-01  1.42402638E-02
Number of symbols in /Mol/                 I                0
Force Field                                I                0
Atom Types                                 C   N=           5
                                                            
Int Atom Types                             I   N=           5
           0           0           0           0           0
MM charges                                 R   N=           5
  0.00000000E+00  0.00000000E+00  0.00000000E+00  0.00000000E+00  0.00000000E+00
Integer atomic weights                     I   N=           5
           1          16          16          14          16
Real atomic weights                        R   N=           5
  1.00782504E+00  1.59949146E+01  1.59949146E+01  1.40030740E+01  1.59949146E+01
Atom fragment info                         I   N=           5
           0           0           0           0           0
Atom residue num                           I   N=           5
           0           0           0           0           0
Nuclear spins                              I   N=           5
           1           0           0           2           0
Nuclear ZEff                               R   N=           5
 -1.00000000E+00 -5.60000000E+00 -5.60000000E+00 -4.55000000E+00 -5.60000000E+00
Nuclear ZNuc                               R   N=           5
  1.00000000E+00  8.00000000E+00  8.00000000E+00  7.00000000E+00  8.00000000E+00
Nuclear QMom                               R   N=           5
  0.00000000E+00  0.00000000E+00  0.00000000E+00  2.04400000E+00  0.00000000E+00
Nuclear GFac                               R   N=           5
  2.79284600E+00  0.00000000E+00  0.00000000E+00  4.03761000E-01  0.00000000E+00
MicOpt                                     I   N=           5
          -1          -1          -1          -1          -1
Number of residues                         I                0
Number of secondary structures             I                0
SymInf integers                            I   N=          26
           1           1           1           1           1           0
           0           0           0           0           0           0
           0           0           0           0           0           0
           0           0           0           0           0           0
           0           0
RotTr to input orientation                 R   N=          12
 -7.44234405E-01  1.26276039E-01 -6.55873091E-01  6.67443648E-01  1.77626275E-01
 -7.23165184E-01  2.51818588E-02 -9.75962739E-01 -2.16477726E-01  2.60564676E+00
 -3.18422511E-01  3.42174604E+00
Number of contracted shells                I               65
Number of primitive shells                 I              119
Pure/Cartesian d shells                    I                0
Pure/Cartesian f shells                    I                0
Highest angular momentum                   I                3
Largest degree of contraction              I                7
Shell types                                I   N=          65
           0           0           0           0           1           1
           1          -2          -2           0           0           0
           0           0           1           1           1           1
          -2          -2          -2          -3          -3           0
           0           0           0           0           1           1
           1           1          -2          -2          -2          -3
          -3           0           0           0           0           0
           1           1           1           1          -2          -2
          -2          -3          -3           0           0           0
           0           0           1           1           1           1
          -2          -2          -2          -3          -3
Number of primitives per shell             I   N=          65
           3           1           1           1           1           1
           1           1           1           7           6           1
           1           1           3           1           1           1
           1           1           1           1           1           7
           6           1           1           1           3           1
           1           1           1           1           1           1
           1           7           6           1           1           1
           3           1           1           1           1           1
           1           1           1           7           6           1
           1           1           3           1           1           1
           1           1           1           1           1
Shell to atom map                          I   N=          65
           1           1           1           1           1           1
           1           1           1           2           2           2
           2           2           2           2           2           2
           2           2           2           2           2           3
           3           3           3           3           3           3
           3           3           3           3           3           3
           3           4           4           4           4           4
           4           4           4           4           4           4
           4           4           4           5           5           5
           5           5           5           5           5           5
           5           5           5           5           5
Primitive exponents                        R   N=         119
  3.38700000E+01  5.09500000E+00  1.15900000E+00  3.25800000E-01  1.02700000E-01
  2.52600000E-02  1.40700000E+00  3.88000000E-01  1.02000000E-01  1.05700000E+00
  2.47000000E-01  1.53300000E+04  2.29900000E+03  5.22400000E+02  1.47300000E+02
  4.75500000E+01  1.67600000E+01  6.20700000E+00  5.22400000E+02  1.47300000E+02
  4.75500000E+01  1.67600000E+01  6.20700000E+00  6.88200000E-01  1.75200000E+00
  2.38400000E-01  7.37600000E-02  3.44600000E+01  7.74900000E+00  2.28000000E+00
  7.15600000E-01  2.14000000E-01  5.97400000E-02  2.31400000E+00  6.45000000E-01
  2.14000000E-01  1.42800000E+00  5.00000000E-01  1.53300000E+04  2.29900000E+03
  5.22400000E+02  1.47300000E+02  4.75500000E+01  1.67600000E+01  6.20700000E+00
  5.22400000E+02  1.47300000E+02  4.75500000E+01  1.67600000E+01  6.20700000E+00
  6.88200000E-01  1.75200000E+00  2.38400000E-01  7.37600000E-02  3.44600000E+01
  7.74900000E+00  2.28000000E+00  7.15600000E-01  2.14000000E-01  5.97400000E-02
  2.31400000E+00  6.45000000E-01  2.14000000E-01  1.42800000E+00  5.00000000E-01
  1.14200000E+04  1.71200000E+03  3.89300000E+02  1.10000000E+02  3.55700000E+01
  1.25400000E+01  4.64400000E+00  3.89300000E+02  1.10000000E+02  3.55700000E+01
  1.25400000E+01  4.64400000E+00  5.11800000E-01  1.29300000E+00  1.78700000E-01
  5.76000000E-02  2.66300000E+01  5.94800000E+00  1.74200000E+00  5.55000000E-01
  1.72500000E-01  4.91000000E-02  1.65400000E+00  4.69000000E-01  1.51000000E-01
  1.09300000E+00  3.64000000E-01  1.53300000E+04  2.29900000E+03  5.22400000E+02
  1.47300000E+02  4.75500000E+01  1.67600000E+01  6.20700000E+00  5.22400000E+02
  1.47300000E+02  4.75500000E+01  1.67600000E+01  6.20700000E+00  6.88200000E-01
  1.75200000E+00  2.38400000E-01  7.37600000E-02  3.44600000E+01  7.74900000E+00
  2.28000000E+00  7.15600000E-01  2.14000000E-01  5.97400000E-02  2.31400000E+00
  6.45000000E-01  2.14000000E-01  1.42800000E+00  5.00000000E-01
Contraction coefficients                   R   N=         119
  2.54948632E-02  1.90362766E-01  8.52162022E-01  1.00000000E+00  1.00000000E+00
  1.00000000E+00  1.00000000E+00  1.00000000E+00  1.00000000E+00  1.00000000E+00
  1.00000000E+00  5.19808943E-04  4.02025621E-03  2.07128267E-02  8.10105536E-02
  2.35962985E-01  4.42653446E-01  3.57064423E-01 -4.42115008E-05 -1.22591041E-03
 -1.05517725E-02 -6.74452633E-02 -1.71198607E-01  1.07329856E+00  1.00000000E+00
  1.00000000E+00  1.00000000E+00  4.11634896E-02  2.57762836E-01  8.02419274E-01
  1.00000000E+00  1.00000000E+00  1.00000000E+00  1.00000000E+00  1.00000000E+00
  1.00000000E+00  1.00000000E+00  1.00000000E+00  5.19808943E-04  4.02025621E-03
  2.07128267E-02  8.10105536E-02  2.35962985E-01  4.42653446E-01  3.57064423E-01
 -4.42115008E-05 -1.22591041E-03 -1.05517725E-02 -6.74452633E-02 -1.71198607E-01
  1.07329856E+00  1.00000000E+00  1.00000000E+00  1.00000000E+00  4.11634896E-02
  2.57762836E-01  8.02419274E-01  1.00000000E+00  1.00000000E+00  1.00000000E+00
  1.00000000E+00  1.00000000E+00  1.00000000E+00  1.00000000E+00  1.00000000E+00
  5.34563860E-04  4.13435660E-03  2.12335358E-02  8.25006224E-02  2.38138871E-01
  4.42551547E-01  3.53757422E-01 -4.89867350E-05 -1.19527323E-03 -1.03490714E-02
 -6.48680190E-02 -1.71552477E-01  1.07289568E+00  1.00000000E+00  1.00000000E+00
  1.00000000E+00  3.98072123E-02  2.49002660E-01  8.10479727E-01  1.00000000E+00
  1.00000000E+00  1.00000000E+00  1.00000000E+00  1.00000000E+00  1.00000000E+00
  1.00000000E+00  1.00000000E+00  5.19808943E-04  4.02025621E-03  2.07128267E-02
  8.10105536E-02  2.35962985E-01  4.42653446E-01  3.57064423E-01 -4.42115008E-05
 -1.22591041E-03 -1.05517725E-02 -6.74452633E-02 -1.71198607E-01  1.07329856E+00
  1.00000000E+00  1.00000000E+00  1.00000000E+00  4.11634896E-02  2.57762836E-01
  8.02419274E-01  1.00000000E+00  1.00000000E+00  1.00000000E+00  1.00000000E+00
  1.00000000E+00  1.00000000E+00  1.00000000E+00  1.00000000E+00
Coordinates of each shell                  R   N=         195
  4.22365225E+00  7.91925427E-01  3.64348264E-01  4.22365225E+00  7.91925427E-01
  3.64348264E-01  4.22365225E+00  7.91925427E-01  3.64348264E-01  4.22365225E+00
  7.91925427E-01  3.64348264E-01  4.22365225E+00  7.91925427E-01  3.64348264E-01
  4.22365225E+00  7.91925427E-01  3.64348264E-01  4.22365225E+00  7.91925427E-01
  3.64348264E-01  4.22365225E+00  7.91925427E-01  3.64348264E-01  4.22365225E+00
  7.91925427E-01  3.64348264E-01  3.02268406E+00 -5.32261205E-01 -3.20437593E-02
  3.02268406E+00 -5.32261205E-01 -3.20437593E-02  3.02268406E+00 -5.32261205E-01
 -3.20437593E-02  3.02268406E+00 -5.32261205E-01 -3.20437593E-02  3.02268406E+00
 -5.32261205E-01 -3.20437593E-02  3.02268406E+00 -5.32261205E-01 -3.20437593E-02
  3.02268406E+00 -5.32261205E-01 -3.20437593E-02  3.02268406E+00 -5.32261205E-01
 -3.20437593E-02  3.02268406E+00 -5.32261205E-01 -3.20437593E-02  3.02268406E+00
 -5.32261205E-01 -3.20437593E-02  3.02268406E+00 -5.32261205E-01 -3.20437593E-02
  3.02268406E+00 -5.32261205E-01 -3.20437593E-02  3.02268406E+00 -5.32261205E-01
 -3.20437593E-02  3.02268406E+00 -5.32261205E-01 -3.20437593E-02  7.56102931E-01
  1.02392139E+00 -4.20809985E-02  7.56102931E-01  1.02392139E+00 -4.20809985E-02
  7.56102931E-01  1.02392139E+00 -4.20809985E-02  7.56102931E-01  1.02392139E+00
 -4.20809985E-02  7.56102931E-01  1.02392139E+00 -4.20809985E-02  7.56102931E-01
  1.02392139E+00 -4.20809985E-02  7.56102931E-01  1.02392139E+00 -4.20809985E-02
  7.56102931E-01  1.02392139E+00 -4.20809985E-02  7.56102931E-01  1.02392139E+00
 -4.20809985E-02  7.56102931E-01  1.02392139E+00 -4.20809985E-02  7.56102931E-01
  1.02392139E+00 -4.20809985E-02  7.56102931E-01  1.02392139E+00 -4.20809985E-02
  7.56102931E-01  1.02392139E+00 -4.20809985E-02  7.56102931E-01  1.02392139E+00
 -4.20809985E-02 -1.25225541E+00 -8.63533458E-01  1.63896697E-02 -1.25225541E+00
 -8.63533458E-01  1.63896697E-02 -1.25225541E+00 -8.63533458E-01  1.63896697E-02
 -1.25225541E+00 -8.63533458E-01  1.63896697E-02 -1.25225541E+00 -8.63533458E-01
  1.63896697E-02 -1.25225541E+00 -8.63533458E-01  1.63896697E-02 -1.25225541E+00
 -8.63533458E-01  1.63896697E-02 -1.25225541E+00 -8.63533458E-01  1.63896697E-02
 -1.25225541E+00 -8.63533458E-01  1.63896697E-02 -1.25225541E+00 -8.63533458E-01
  1.63896697E-02 -1.25225541E+00 -8.63533458E-01  1.63896697E-02 -1.25225541E+00
 -8.63533458E-01  1.63896697E-02 -1.25225541E+00 -8.63533458E-01  1.63896697E-02
 -1.25225541E+00 -8.63533458E-01  1.63896697E-02 -3.21102004E+00  1.64940917E-01
  1.42402638E-02 -3.21102004E+00  1.64940917E-01  1.42402638E-02 -3.21102004E+00
  1.64940917E-01  1.42402638E-02 -3.21102004E+00  1.64940917E-01  1.42402638E-02
 -3.21102004E+00  1.64940917E-01  1.42402638E-02 -3.21102004E+00  1.64940917E-01
  1.42402638E-02 -3.21102004E+00  1.64940917E-01  1.42402638E-02 -3.21102004E+00
  1.64940917E-01  1.42402638E-02 -3.21102004E+00  1.64940917E-01  1.42402638E-02
 -3.21102004E+00  1.64940917E-01  1.42402638E-02 -3.21102004E+00  1.64940917E-01
  1.42402638E-02 -3.21102004E+00  1.64940917E-01  1.42402638E-02 -3.21102004E+00
  1.64940917E-01  1.42402638E-02 -3.21102004E+00  1.64940917E-01  1.42402638E-02
Num ILSW                                   I              100
ILSW                                       I   N=         100
           0           0           0           0           2           0
           0           0           0           0           0          -1
           5           0           0           0           0           0
           0           0           0           0           0           0
           1           0           0           0           0           0
           0           0      100000           0          -1           0
           0           0           0           0           0           0
           0           0           0           1           0           0
           0 -2000000000           1           0           0           0
           0           0           4          52           0           0
           0           0           0           0           0           0
           0           0           0           5           0           1
           0           0           0           0           0           0
           0           0           0           0           0           0
           0           0           0           0           0           0
           0           0           0           0           0           0
           0           0           0           0
Num RLSW                                   I               52
RLSW                                       R   N=          52
  1.00000000E+00  1.00000000E+00  1.00000000E+00  1.00000000E+00  1.00000000E+00
  0.00000000E+00  0.00000000E+00  1.00000000E+00  0.00000000E+00  0.00000000E+00
  0.00000000E+00  0.00000000E+00  1.00000000E+00  0.00000000E+00  0.00000000E+00
  0.00000000E+00  0.00000000E+00  1.00000000E+00  0.00000000E+00  0.00000000E+00
  0.00000000E+00  0.00000000E+00  1.00000000E+00  0.00000000E+00  0.00000000E+00
  0.00000000E+00  0.00000000E+00  1.00000000E+00  0.00000000E+00  0.00000000E+00
  0.00000000E+00  0.00000000E+00  1.00000000E+00  0.00000000E+00  0.00000000E+00
  0.00000000E+00  0.00000000E+00  0.00000000E+00  1.00000000E+00  1.00000000E+00
  0.00000000E+00  1.00000000E+00  0.00000000E+00  0.00000000E+00  0.00000000E+00
  0.00000000E+00  0.00000000E+00  0.00000000E+00  0.00000000E+00  0.00000000E+00
  0.00000000E+00  0.00000000E+00
MxBond                                     I                2
NBond                                      I   N=           5
           1           2           2           2           1
IBond                                      I   N=          10
           2           0           1           3           2           4
           3           5           4           0
RBond                                      R   N=          10
  1.00000000E+00  0.00000000E+00  1.00000000E+00  1.00000000E+00  1.00000000E+00
  1.00000000E+00  1.00000000E+00  2.00000000E+00  2.00000000E+00  0.00000000E+00
Virial Ratio                               R      2.002353283252460E+00
SCF Energy                                 R     -2.795018514955641E+02
MP2 Energy                                 R     -2.804469568750997E+02
Total Energy                               R     -2.804469568750997E+02
Post-SCF wavefunction norm                 R      1.120231588935925E+00
RMS Density                                R      4.983517988601781E-09
Job Status                                 I                1
Nuclear derivative order                   I                0
External E-field                           R   N=          35
  0.00000000E+00  0.00000000E+00  0.00000000E+00  0.00000000E+00  0.00000000E+00
  0.00000000E+00  0.00000000E+00  0.00000000E+00  0.00000000E+00  0.00000000E+00
  0.00000000E+00  0.00000000E+00  0.00000000E+00  0.00000000E+00  0.00000000E+00
  0.00000000E+00  0.00000000E+00  0.00000000E+00  0.00000000E+00  0.00000000E+00
  0.00000000E+00  0.00000000E+00  0.00000000E+00  0.00000000E+00  0.00000000E+00
  0.00000000E+00  0.00000000E+00  0.00000000E+00  0.00000000E+00  0.00000000E+00
  0.00000000E+00  0.00000000E+00  0.00000000E+00  0.00000000E+00  0.00000000E+00
IOpCl                                      I                0
IROHF                                      I                0
Alpha Orbital Energies                     R   N=         207
 -2.06911075E+01 -2.06842497E+01 -2.06601918E+01 -1.58126542E+01 -1.62402525E+00
 -1.49586519E+00 -1.25444559E+00 -9.48098071E-01 -7.72404533E-01 -7.59591425E-01
 -7.13278965E-01 -6.78590341E-01 -6.19672457E-01 -5.88563505E-01 -4.87580152E-01
 -4.71433396E-01  2.95665428E-02  7.16341905E-02  8.59184744E-02  1.01764018E-01
  1.32048346E-01  1.35155296E-01  1.43834001E-01  1.54424166E-01  1.78062545E-01
  1.94057405E-01  1.99036347E-01  2.06721364E-01  2.20793845E-01  2.35331433E-01
  2.37206969E-01  2.67331964E-01  2.91724882E-01  2.99129771E-01  3.12215311E-01
  3.43500550E-01  3.55474556E-01  3.87678936E-01  4.14353452E-01  4.28535151E-01
  5.27139208E-01  5.31634551E-01  5.58627957E-01  5.80676256E-01  6.25970071E-01
  6.38073481E-01  6.73075803E-01  6.83360912E-01  7.06984883E-01  7.13752807E-01
  7.18163983E-01  7.32997210E-01  7.49283638E-01  7.84350122E-01  7.93504654E-01
  8.10732136E-01  8.15105026E-01  8.35470555E-01  8.67411987E-01  9.08366631E-01
  9.14064051E-01  9.35561766E-01  9.54587956E-01  9.70500792E-01  9.88855022E-01
  1.01497679E+00  1.05414247E+00  1.06151303E+00  1.08468667E+00  1.11131455E+00
  1.12592066E+00  1.20127632E+00  1.21802295E+00  1.23492046E+00  1.33573722E+00
  1.35119095E+00  1.39016635E+00  1.45651907E+00  1.49456139E+00  1.50795126E+00
  1.53652227E+00  1.56738602E+00  1.58153378E+00  1.59926537E+00  1.66168795E+00
  1.66737063E+00  1.70738530E+00  1.78717641E+00  1.82884844E+00  1.83780169E+00
  1.88246001E+00  1.90269971E+00  1.95634966E+00  1.98072947E+00  2.03340328E+00
  2.07741625E+00  2.11266240E+00  2.12592717E+00  2.15792504E+00  2.21997400E+00
  2.25577991E+00  2.27371698E+00  2.28571446E+00  2.31182370E+00  2.34325996E+00
  2.38819915E+00  2.40037338E+00  2.45043671E+00  2.45341326E+00  2.46758985E+00
  2.48117187E+00  2.50900828E+00  2.58916581E+00  2.59917192E+00  2.61790878E+00
  2.62764625E+00  2.63934721E+00  2.66454124E+00  2.74753275E+00  2.83073683E+00
  2.84355968E+00  2.88679346E+00  2.90435008E+00  2.91423788E+00  2.96068978E+00
  3.01968728E+00  3.07890818E+00  3.11864773E+00  3.20443572E+00  3.23014128E+00
  3.31581305E+00  3.34029690E+00  3.51165574E+00  3.65007283E+00  3.83688315E+00
  3.85049784E+00  4.13209832E+00  4.16578115E+00  4.20859959E+00  4.25297803E+00
  4.33594009E+00  4.39355898E+00  4.48044900E+00  4.52686291E+00  4.64614689E+00
  4.71108558E+00  4.80356971E+00  4.82102796E+00  4.82555237E+00  4.89753159E+00
  5.02241211E+00  5.07047439E+00  5.09982981E+00  5.14630819E+00  5.18465047E+00
  5.25354607E+00  5.27163075E+00  5.30208633E+00  5.33078812E+00  5.35029507E+00
  5.59606111E+00  5.67361543E+00  5.75740296E+00  5.83386982E+00  5.95339588E+00
  6.17008908E+00  6.31288622E+00  6.34385467E+00  6.39161638E+00  6.49457108E+00
  6.50497897E+00  6.62606999E+00  6.64990660E+00  6.70772872E+00  6.74467160E+00
  6.77070352E+00  6.83623863E+00  6.89825861E+00  7.01010827E+00  7.05382691E+00
  7.05828528E+00  7.09599794E+00  7.12856331E+00  7.14484090E+00  7.19232801E+00
  7.22510084E+00  7.23675092E+00  7.30225688E+00  7.32166242E+00  7.36001722E+00
  7.38824155E+00  7.42742835E+00  7.48673903E+00  7.60571919E+00  7.61800343E+00
  7.63574908E+00  7.67908724E+00  7.78297403E+00  7.88264064E+00  8.09091430E+00
  8.30923727E+00  8.39574886E+00  8.53959182E+00  1.33820187E+01  1.44033517E+01
  1.51603216E+01  1.61494280E+01
Alpha MO coefficients                      R   N=       42849
  8.55570942E-05 -5.06090489E-04 -6.68204816E-04 -5.54857241E-06 -3.44059749E-05
 -9.30521952E-06 -1.83628048E-05 -3.65761533E-05  5.82254629E-05  2.89683790E-05
  6.50978264E-05 -1.56701716E-05  4.62258735E-05  3.13691959E-05  3.96983818E-06
  3.96247659E-07  8.40654669E-06  5.72309922E-05 -1.89112647E-06  1.34256920E-05
  1.81405406E-05  7.76754197E-05  1.56731553E-04  4.58831771E-03 -2.80111551E-04
  1.55670641E-05  1.48293640E-03  1.79673798E-03  9.02321033E-05 -5.64038324E-05
  4.08160415E-06 -5.22188067E-04  3.30374292E-04 -2.16881731E-05 -4.89169694E-04
  1.21742588E-03  5.93043827E-05 -2.69175529E-04  2.91827515E-04  6.31453629E-06
  2.86674264E-05 -2.33497537E-06 -6.83328084E-07 -1.08975384E-05  5.38726349E-05
 -3.75812907E-04  4.47613283E-06 -1.28636664E-05  1.90821165E-04 -7.25370453E-04
 -4.22900868E-04  7.18822828E-05  2.61720300E-05  7.69192080E-05 -2.71763526E-04
  1.02449726E-05  6.84786017E-05 -3.95986081E-05 -2.44923758E-06 -8.05377451E-06
  3.36848532E-05  1.05053960E-04 -2.43408738E-05  2.01646259E-04 -1.66645056E-04
  1.96780501E-05  1.65240830E-05  1.66237708E-04  3.15894582E-04  9.76912527E-01
 -9.21462774E-03  4.33164997E-02  2.04904850E-03 -9.71086594E-04  3.96676690E-04
 -1.97764526E-03  6.27828968E-05 -3.33165513E-04  1.96609649E-03 -5.61992164E-05
 -6.36902831E-04 -9.74303265E-04  2.64549623E-05 -1.55779571E-04  7.69821479E-05
  8.29583995E-06  4.68211855E-05  2.50898831E-06  1.37652033E-06  9.40713398E-06
  3.94254311E-05  7.44290196E-04  6.74458837E-06  2.05720392E-05 -4.38391502E-04
  1.11697251E-04 -3.48098163E-04  2.87244858E-05 -2.66435759E-06 -4.55046173E-04
  1.84756748E-04  5.32455712E-06  8.38345297E-06 -6.80525417E-05 -1.81537785E-06
 -1.66386002E-06 -9.04169276E-07  4.24903735E-05 -3.37721442E-06  3.60210582E-05
  4.47959802E-06  7.09797062E-06  7.01996928E-08 -3.31457548E-05  3.33024602E-04
  3.84175023E-05  4.17111613E-05 -2.65228847E-04 -6.68241601E-04 -8.59835544E-05
 -7.99265712E-05 -6.22345807E-05  3.23266650E-06  6.43913278E-04  4.08021531E-04
 -2.16003224E-05 -1.02429746E-03  1.13694188E-04  1.46219877E-05 -9.28481538E-05
  6.22093366E-05 -1.04153709E-05 -1.82965461E-05 -2.78018617E-06 -1.47640514E-06
  5.52984525E-06  3.29517542E-05 -3.27314100E-04 -8.62891832E-06 -2.38807788E-05
 -1.16057896E-04  8.27047170E-04 -4.33941840E-05  3.81123453E-05 -3.28320717E-06
 -7.32467747E-05 -1.50096460E-04  7.23693934E-06 -8.80407667E-05 -8.36839647E-05
  3.69475678E-07 -8.74668523E-06 -1.08374978E-04  1.04817081E-04  7.47701096E-06
 -8.29129836E-05 -1.23137051E-04  9.53615287E-06 -6.98603265E-06 -4.14549962E-04
  9.77721544E-05 -2.47231249E-03  1.21489286E-04 -1.19520120E-04 -3.05111959E-04
  9.40216051E-05 -2.26983418E-05 -1.81344189E-05  5.83466540E-07  1.51548819E-04
  9.40575490E-05 -3.17602380E-06  3.05912101E-04  3.82497125E-05  2.95672484E-05
  1.00811824E-04 -6.66813027E-05  8.13575001E-06 -3.36362276E-06 -1.20381741E-06
 -5.93909675E-07 -4.54813335E-06  1.73807970E-05  6.03223649E-07  5.78053838E-06
  3.03129569E-06  1.10406121E-04 -4.98945000E-05 -1.04411221E-04  9.67711315E-06
 -4.62845809E-06  2.10917594E-04 -1.12237076E-04  2.09161826E-07  1.07406629E-05
 -1.23153108E-05  4.78924289E-07 -3.61459428E-07 -1.00725321E-05  8.28614885E-06
 -4.65630938E-06 -1.37839938E-06  5.67209021E-05  3.37441848E-06  2.42159217E-06
  5.87162077E-05 -1.10409410E-04  3.51958659E-05 -9.13782641E-04 -4.52943676E-04
 -1.11811607E-05 -6.69168176E-06  2.40031550E-05 -2.15104238E-06  1.41019536E-04
  1.95315105E-04  6.47745725E-05  3.78142087E-05  1.24430133E-04  3.74706559E-05
  2.20576064E-05  1.34476836E-06 -1.31357129E-05  1.11024329E-05 -6.18360834E-06
 -2.75125954E-05 -5.09279105E-06  3.55179872E-06  3.65004989E-05  5.49109936E-07
  1.12814773E-04  8.33932292E-05 -2.71216558E-05  6.91721893E-04  6.16348702E-04
  1.05778428E-05 -3.22507570E-06 -2.59883840E-06 -5.68499695E-05  4.78817712E-05
  2.00177379E-05  7.57568419E-04  4.76341297E-04  1.31085407E-04  5.40203574E-05
  5.73777905E-05  8.09638972E-06 -2.61962054E-06 -1.28526758E-06 -1.25918360E-06
 -5.42872984E-06 -1.66367767E-06 -2.79812635E-05  1.75508805E-05  1.75325473E-05
  7.21025871E-05  3.65442619E-05 -3.45336627E-06  5.17456601E-05  5.35851221E-05
 -2.25667849E-04  1.89445570E-04  1.27613392E-06  1.06534733E-05 -7.86450699E-07
  6.90231906E-07 -1.00621616E-06 -1.81709795E-05  3.51069460E-06 -1.56102606E-05
 -4.81959521E-05 -1.12148618E-06  2.95780716E-06  1.50623683E-05  4.43152089E-05
  6.10399772E-05  2.51165960E-03  4.15954296E-05  8.63168861E-05 -6.64629801E-05
 -4.73720563E-04  1.48867739E-05  8.92384721E-06 -8.28394481E-07 -8.08802026E-05
 -9.92517114E-06  3.26972323E-06  8.16764839E-05 -2.80664825E-04 -2.90210265E-05
 -1.86426219E-04  6.38823331E-05 -1.13143010E-05 -8.85821945E-06 -5.97844027E-07
  1.38268746E-07  2.55312889E-05 -1.54593541E-05  4.45480274E-06  1.01966444E-06
 -1.39587923E-06 -7.87757370E-05  9.76701636E-05 -5.53729117E-06 -1.75836832E-05
  5.83746013E-06 -2.54666258E-04  1.52401294E-04 -1.61925117E-07  1.98611760E-06
 -2.39890713E-06 -5.32374191E-07 -9.15003689E-07 -1.30477470E-05  3.07759698E-06
  9.11856901E-07 -3.40950489E-05  3.01350672E-05 -7.83620389E-07  5.64109415E-06
  2.00691886E-04  8.75822741E-06  2.58398472E-04  1.46295814E-03 -7.88284346E-05
 -1.52356980E-03  4.13649363E-04 -1.16407160E-04  8.58726956E-05 -1.83051251E-07
 -1.91727837E-03  9.15788398E-04 -3.22504067E-06  1.27836259E-03  5.99404216E-06
 -9.90209968E-06 -1.01042016E-04  1.49590484E-04  1.65024240E-06 -1.23403960E-04
  1.08150814E-07  8.41108658E-07  1.61234154E-04 -2.04431896E-04 -4.42730257E-04
  1.22844306E-05 -3.80626434E-06  2.04005619E-04 -8.79567855E-04  1.03107568E-05
  2.15666586E-05 -8.89988640E-06 -2.20317282E-04  2.78333960E-04 -6.65179391E-07
  7.90280511E-06  1.30148333E-05 -3.07976995E-07  6.30023146E-07  6.59346521E-06
 -2.19807337E-05  4.32197840E-06  9.13853677E-05 -1.55172582E-04  3.58833903E-06
  4.74336075E-06  1.18322680E-04  2.14290317E-04  9.76649602E-01 -9.84774466E-03
  4.35677705E-02  4.48230215E-03 -4.50289163E-04  2.01317106E-03 -8.89343785E-04
 -9.31222331E-07 -2.27634130E-03  9.32708669E-04  1.90073385E-06  9.08326568E-04
 -6.86047640E-04  2.14534657E-05 -2.24880885E-05 -3.94293753E-05  4.81301923E-06
 -2.32286609E-04 -2.53641001E-06 -6.02275115E-06  6.07007280E-05 -8.86749026E-05
  3.90573523E-04  1.16554928E-06 -4.28463774E-06 -6.45421644E-04  6.73312207E-04
 -1.54610801E-04  3.92498579E-06 -6.65659675E-06  8.96518090E-05 -2.43408640E-04
 -7.70799805E-07  5.25140867E-05 -1.69177546E-05  9.40565588E-07  1.24032041E-06
 -5.19125786E-06  2.54528618E-05  1.47048187E-06  1.16536335E-04 -7.41029455E-05
 -2.02231231E-07 -3.02238577E-06 -7.02102083E-05  2.24367982E-04  4.70365496E-04
  2.11025859E-03  1.64184702E-04  1.42912241E-05 -1.78275650E-04 -1.67028289E-04
 -6.18153436E-05 -6.57906695E-04 -1.07459668E-03 -2.80263911E-04  2.93653007E-05
 -4.45316688E-04 -4.19398711E-05 -2.36753744E-06 -7.74942476E-06 -4.38497231E-06
  3.87685402E-05 -6.37555571E-05 -1.27699936E-04  1.09595396E-04  1.31779166E-04
 -1.72193840E-04  4.84221070E-04  9.76830840E-01 -9.16312849E-03  4.34483531E-02
  1.35010489E-04 -1.17548745E-03 -4.22429295E-04  2.05763145E-03  3.41122862E-04
  5.21426355E-04 -1.94603261E-03 -3.16103029E-04 -9.83508013E-04 -3.63866008E-04
 -1.39510926E-04  4.63850453E-05 -5.38587227E-05  3.28546673E-07  3.23046503E-05
  5.92687254E-06  1.19113537E-05 -3.73048886E-05  1.10251330E-04  7.16882527E-04
 -1.54089271E-04 -1.57174495E-04 -2.86453125E-04  1.45688237E-04 -2.66709314E-04
 -4.10409385E-05 -5.07213608E-06  1.76800819E-04 -1.41459164E-04  7.02328989E-06
 -5.09073671E-05  3.67630634E-05  9.11266561E-06 -2.31027040E-06  2.30923697E-06
 -2.28168897E-05  3.74526389E-05  5.73556579E-05  8.68134587E-05 -1.27079370E-05
 -5.58372035E-05 -4.48672783E-07 -2.63463125E-04 -4.67926823E-03 -2.06179204E-04