title                                                                   
SP        RMP2-FC                                                     Aug-CC-pVTZ         
Number of atoms                            I                5
Info1-9                                    I   N=           9
          33          24           0           0           0         110
           1           2           1
Full Title                                 C   N=           1
title       
Route                                      C   N=           4
#p SP mp2/aug-cc-pvtz density=current           
Charge                                     I                0
Multiplicity                               I                1
Number of electrons                        I               32
Number of alpha electrons                  I               16
Number of beta electrons                   I               16
Number of basis functions                  I              207
Number of independent functions            I              207
Number of point charges in /Mol/           I                0
Number of translation vectors              I                0
Atomic numbers                             I   N=           5
           1           8           8           7           8
Nuclear charges                            R   N=           5
  1.00000000E+00  8.00000000E+00  8.00000000E+00  7.00000000E+00  8.00000000E+00
Current cartesian coordinates              R   N=          15
  2.83972762E+00  3.20034394E+00  1.64965536E-31  2.74758139E+00  1.37156551E+00
  9.62891553E-32  6.93822454E-17  1.27160794E+00  2.49286768E-32 -4.88833380E-01
 -1.44140694E+00 -4.40628918E-32 -2.67481814E+00 -1.78198537E+00 -3.93966526E-32
Number of symbols in /Mol/                 I                0
Force Field                                I                0
Atom Types                                 C   N=           5
                                                            
Int Atom Types                             I   N=           5
           0           0           0           0           0
MM charges                                 R   N=           5
  0.00000000E+00  0.00000000E+00  0.00000000E+00  0.00000000E+00  0.00000000E+00
Integer atomic weights                     I   N=           5
           1          16          16          14          16
Real atomic weights                        R   N=           5
  1.00782504E+00  1.59949146E+01  1.59949146E+01  1.40030740E+01  1.59949146E+01
Atom fragment info                         I   N=           5
           0           0           0           0           0
Atom residue num                           I   N=           5
           0           0           0           0           0
Nuclear spins                              I   N=           5
           1           0           0           2           0
Nuclear ZEff                               R   N=           5
 -1.00000000E+00 -5.60000000E+00 -5.60000000E+00 -4.55000000E+00 -5.60000000E+00
Nuclear ZNuc                               R   N=           5
  1.00000000E+00  8.00000000E+00  8.00000000E+00  7.00000000E+00  8.00000000E+00
Nuclear QMom                               R   N=           5
  0.00000000E+00  0.00000000E+00  0.00000000E+00  2.04400000E+00  0.00000000E+00
Nuclear GFac                               R   N=           5
  2.79284600E+00  0.00000000E+00  0.00000000E+00  4.03761000E-01  0.00000000E+00
MicOpt                                     I   N=           5
          -1          -1          -1          -1          -1
Number of residues                         I                0
Number of secondary structures             I                0
SymInf integers                            I   N=          26
           1           2           1           1           1           1
           1          -1           0           0           0           0
           0           0           0           0           0           0
           0           0           0           0           0           0
           0           0
RotTr to input orientation                 R   N=          12
 -9.98732999E-01 -9.82143279E-17 -5.03229222E-02  5.03229222E-02 -7.31542454E-17
 -9.98732999E-01  9.44085548E-17 -1.00000000E+00  7.80039909E-17  2.67507902E+00
  0.00000000E+00  3.33919249E+00
Number of contracted shells                I               65
Number of primitive shells                 I              119
Pure/Cartesian d shells                    I                0
Pure/Cartesian f shells                    I                0
Highest angular momentum                   I                3
Largest degree of contraction              I                7
Shell types                                I   N=          65
           0           0           0           0           1           1
           1          -2          -2           0           0           0
           0           0           1           1           1           1
          -2          -2          -2          -3          -3           0
           0           0           0           0           1           1
           1           1          -2          -2          -2          -3
          -3           0           0           0           0           0
           1           1           1           1          -2          -2
          -2          -3          -3           0           0           0
           0           0           1           1           1           1
          -2          -2          -2          -3          -3
Number of primitives per shell             I   N=          65
           3           1           1           1           1           1
           1           1           1           7           6           1
           1           1           3           1           1           1
           1           1           1           1           1           7
           6           1           1           1           3           1
           1           1           1           1           1           1
           1           7           6           1           1           1
           3           1           1           1           1           1
           1           1           1           7           6           1
           1           1           3           1           1           1
           1           1           1           1           1
Shell to atom map                          I   N=          65
           1           1           1           1           1           1
           1           1           1           2           2           2
           2           2           2           2           2           2
           2           2           2           2           2           3
           3           3           3           3           3           3
           3           3           3           3           3           3
           3           4           4           4           4           4
           4           4           4           4           4           4
           4           4           4           5           5           5
           5           5           5           5           5           5
           5           5           5           5           5
Primitive exponents                        R   N=         119
  3.38700000E+01  5.09500000E+00  1.15900000E+00  3.25800000E-01  1.02700000E-01
  2.52600000E-02  1.40700000E+00  3.88000000E-01  1.02000000E-01  1.05700000E+00
  2.47000000E-01  1.53300000E+04  2.29900000E+03  5.22400000E+02  1.47300000E+02
  4.75500000E+01  1.67600000E+01  6.20700000E+00  5.22400000E+02  1.47300000E+02
  4.75500000E+01  1.67600000E+01  6.20700000E+00  6.88200000E-01  1.75200000E+00
  2.38400000E-01  7.37600000E-02  3.44600000E+01  7.74900000E+00  2.28000000E+00
  7.15600000E-01  2.14000000E-01  5.97400000E-02  2.31400000E+00  6.45000000E-01
  2.14000000E-01  1.42800000E+00  5.00000000E-01  1.53300000E+04  2.29900000E+03
  5.22400000E+02  1.47300000E+02  4.75500000E+01  1.67600000E+01  6.20700000E+00
  5.22400000E+02  1.47300000E+02  4.75500000E+01  1.67600000E+01  6.20700000E+00
  6.88200000E-01  1.75200000E+00  2.38400000E-01  7.37600000E-02  3.44600000E+01
  7.74900000E+00  2.28000000E+00  7.15600000E-01  2.14000000E-01  5.97400000E-02
  2.31400000E+00  6.45000000E-01  2.14000000E-01  1.42800000E+00  5.00000000E-01
  1.14200000E+04  1.71200000E+03  3.89300000E+02  1.10000000E+02  3.55700000E+01
  1.25400000E+01  4.64400000E+00  3.89300000E+02  1.10000000E+02  3.55700000E+01
  1.25400000E+01  4.64400000E+00  5.11800000E-01  1.29300000E+00  1.78700000E-01
  5.76000000E-02  2.66300000E+01  5.94800000E+00  1.74200000E+00  5.55000000E-01
  1.72500000E-01  4.91000000E-02  1.65400000E+00  4.69000000E-01  1.51000000E-01
  1.09300000E+00  3.64000000E-01  1.53300000E+04  2.29900000E+03  5.22400000E+02
  1.47300000E+02  4.75500000E+01  1.67600000E+01  6.20700000E+00  5.22400000E+02
  1.47300000E+02  4.75500000E+01  1.67600000E+01  6.20700000E+00  6.88200000E-01
  1.75200000E+00  2.38400000E-01  7.37600000E-02  3.44600000E+01  7.74900000E+00
  2.28000000E+00  7.15600000E-01  2.14000000E-01  5.97400000E-02  2.31400000E+00
  6.45000000E-01  2.14000000E-01  1.42800000E+00  5.00000000E-01
Contraction coefficients                   R   N=         119
  2.54948632E-02  1.90362766E-01  8.52162022E-01  1.00000000E+00  1.00000000E+00
  1.00000000E+00  1.00000000E+00  1.00000000E+00  1.00000000E+00  1.00000000E+00
  1.00000000E+00  5.19808943E-04  4.02025621E-03  2.07128267E-02  8.10105536E-02
  2.35962985E-01  4.42653446E-01  3.57064423E-01 -4.42115008E-05 -1.22591041E-03
 -1.05517725E-02 -6.74452633E-02 -1.71198607E-01  1.07329856E+00  1.00000000E+00
  1.00000000E+00  1.00000000E+00  4.11634896E-02  2.57762836E-01  8.02419274E-01
  1.00000000E+00  1.00000000E+00  1.00000000E+00  1.00000000E+00  1.00000000E+00
  1.00000000E+00  1.00000000E+00  1.00000000E+00  5.19808943E-04  4.02025621E-03
  2.07128267E-02  8.10105536E-02  2.35962985E-01  4.42653446E-01  3.57064423E-01
 -4.42115008E-05 -1.22591041E-03 -1.05517725E-02 -6.74452633E-02 -1.71198607E-01
  1.07329856E+00  1.00000000E+00  1.00000000E+00  1.00000000E+00  4.11634896E-02
  2.57762836E-01  8.02419274E-01  1.00000000E+00  1.00000000E+00  1.00000000E+00
  1.00000000E+00  1.00000000E+00  1.00000000E+00  1.00000000E+00  1.00000000E+00
  5.34563860E-04  4.13435660E-03  2.12335358E-02  8.25006224E-02  2.38138871E-01
  4.42551547E-01  3.53757422E-01 -4.89867350E-05 -1.19527323E-03 -1.03490714E-02
 -6.48680190E-02 -1.71552477E-01  1.07289568E+00  1.00000000E+00  1.00000000E+00
  1.00000000E+00  3.98072123E-02  2.49002660E-01  8.10479727E-01  1.00000000E+00
  1.00000000E+00  1.00000000E+00  1.00000000E+00  1.00000000E+00  1.00000000E+00
  1.00000000E+00  1.00000000E+00  5.19808943E-04  4.02025621E-03  2.07128267E-02
  8.10105536E-02  2.35962985E-01  4.42653446E-01  3.57064423E-01 -4.42115008E-05
 -1.22591041E-03 -1.05517725E-02 -6.74452633E-02 -1.71198607E-01  1.07329856E+00
  1.00000000E+00  1.00000000E+00  1.00000000E+00  4.11634896E-02  2.57762836E-01
  8.02419274E-01  1.00000000E+00  1.00000000E+00  1.00000000E+00  1.00000000E+00
  1.00000000E+00  1.00000000E+00  1.00000000E+00  1.00000000E+00
Coordinates of each shell                  R   N=         195
  2.83972762E+00  3.20034394E+00  5.86598978E-32  2.83972762E+00  3.20034394E+00
  5.86598978E-32  2.83972762E+00  3.20034394E+00  5.86598978E-32  2.83972762E+00
  3.20034394E+00  5.86598978E-32  2.83972762E+00  3.20034394E+00  5.86598978E-32
  2.83972762E+00  3.20034394E+00  5.86598978E-32  2.83972762E+00  3.20034394E+00
  5.86598978E-32  2.83972762E+00  3.20034394E+00  5.86598978E-32  2.83972762E+00
  3.20034394E+00  5.86598978E-32  2.74758139E+00  1.37156551E+00  3.55219722E-32
  2.74758139E+00  1.37156551E+00  3.55219722E-32  2.74758139E+00  1.37156551E+00
  3.55219722E-32  2.74758139E+00  1.37156551E+00  3.55219722E-32  2.74758139E+00
  1.37156551E+00  3.55219722E-32  2.74758139E+00  1.37156551E+00  3.55219722E-32
  2.74758139E+00  1.37156551E+00  3.55219722E-32  2.74758139E+00  1.37156551E+00
  3.55219722E-32  2.74758139E+00  1.37156551E+00  3.55219722E-32  2.74758139E+00
  1.37156551E+00  3.55219722E-32  2.74758139E+00  1.37156551E+00  3.55219722E-32
  2.74758139E+00  1.37156551E+00  3.55219722E-32  2.74758139E+00  1.37156551E+00
  3.55219722E-32  2.74758139E+00  1.37156551E+00  3.55219722E-32 -9.68901451E-18
  1.27160794E+00  1.56539193E-32 -9.68901451E-18  1.27160794E+00  1.56539193E-32
 -9.68901451E-18  1.27160794E+00  1.56539193E-32 -9.68901451E-18  1.27160794E+00
  1.56539193E-32 -9.68901451E-18  1.27160794E+00  1.56539193E-32 -9.68901451E-18
  1.27160794E+00  1.56539193E-32 -9.68901451E-18  1.27160794E+00  1.56539193E-32
 -9.68901451E-18  1.27160794E+00  1.56539193E-32 -9.68901451E-18  1.27160794E+00
  1.56539193E-32 -9.68901451E-18  1.27160794E+00  1.56539193E-32 -9.68901451E-18
  1.27160794E+00  1.56539193E-32 -9.68901451E-18  1.27160794E+00  1.56539193E-32
 -9.68901451E-18  1.27160794E+00  1.56539193E-32 -9.68901451E-18  1.27160794E+00
  1.56539193E-32 -4.88833380E-01 -1.44140694E+00 -2.10600827E-32 -4.88833380E-01
 -1.44140694E+00 -2.10600827E-32 -4.88833380E-01 -1.44140694E+00 -2.10600827E-32
 -4.88833380E-01 -1.44140694E+00 -2.10600827E-32 -4.88833380E-01 -1.44140694E+00
 -2.10600827E-32 -4.88833380E-01 -1.44140694E+00 -2.10600827E-32 -4.88833380E-01
 -1.44140694E+00 -2.10600827E-32 -4.88833380E-01 -1.44140694E+00 -2.10600827E-32
 -4.88833380E-01 -1.44140694E+00 -2.10600827E-32 -4.88833380E-01 -1.44140694E+00
 -2.10600827E-32 -4.88833380E-01 -1.44140694E+00 -2.10600827E-32 -4.88833380E-01
 -1.44140694E+00 -2.10600827E-32 -4.88833380E-01 -1.44140694E+00 -2.10600827E-32
 -4.88833380E-01 -1.44140694E+00 -2.10600827E-32 -2.67481814E+00 -1.78198537E+00
 -4.00808063E-32 -2.67481814E+00 -1.78198537E+00 -4.00808063E-32 -2.67481814E+00
 -1.78198537E+00 -4.00808063E-32 -2.67481814E+00 -1.78198537E+00 -4.00808063E-32
 -2.67481814E+00 -1.78198537E+00 -4.00808063E-32 -2.67481814E+00 -1.78198537E+00
 -4.00808063E-32 -2.67481814E+00 -1.78198537E+00 -4.00808063E-32 -2.67481814E+00
 -1.78198537E+00 -4.00808063E-32 -2.67481814E+00 -1.78198537E+00 -4.00808063E-32
 -2.67481814E+00 -1.78198537E+00 -4.00808063E-32 -2.67481814E+00 -1.78198537E+00
 -4.00808063E-32 -2.67481814E+00 -1.78198537E+00 -4.00808063E-32 -2.67481814E+00
 -1.78198537E+00 -4.00808063E-32 -2.67481814E+00 -1.78198537E+00 -4.00808063E-32
Num ILSW                                   I              100
ILSW                                       I   N=         100
           0           0           0           0           2           0
           0           0           0           0           0          -1
           5           0           0           0           0           0
           0           0           0           0           0           0
           1           0           0           0           0           0
           0           0      100000           0          -1           0
           0           0           0           0           0           0
           0           0           0           1           0           0
           0 -2000000000           1           0           0           0
           0           0           4          52           0           0
           0           0           0           0           0           0
           0           0           0           5           0           1
           0           0           0           0           0           0
           0           0           0           0           0           0
           0           0           0           0           0           0
           0           0           0           0           0           0
           0           0           0           0
Num RLSW                                   I               52
RLSW                                       R   N=          52
  1.00000000E+00  1.00000000E+00  1.00000000E+00  1.00000000E+00  1.00000000E+00
  0.00000000E+00  0.00000000E+00  1.00000000E+00  0.00000000E+00  0.00000000E+00
  0.00000000E+00  0.00000000E+00  1.00000000E+00  0.00000000E+00  0.00000000E+00
  0.00000000E+00  0.00000000E+00  1.00000000E+00  0.00000000E+00  0.00000000E+00
  0.00000000E+00  0.00000000E+00  1.00000000E+00  0.00000000E+00  0.00000000E+00
  0.00000000E+00  0.00000000E+00  1.00000000E+00  0.00000000E+00  0.00000000E+00
  0.00000000E+00  0.00000000E+00  1.00000000E+00  0.00000000E+00  0.00000000E+00
  0.00000000E+00  0.00000000E+00  0.00000000E+00  1.00000000E+00  1.00000000E+00
  0.00000000E+00  1.00000000E+00  0.00000000E+00  0.00000000E+00  0.00000000E+00
  0.00000000E+00  0.00000000E+00  0.00000000E+00  0.00000000E+00  0.00000000E+00
  0.00000000E+00  0.00000000E+00
MxBond                                     I                2
NBond                                      I   N=           5
           1           2           2           2           1
IBond                                      I   N=          10
           2           0           1           3           2           4
           3           5           4           0
RBond                                      R   N=          10
  1.00000000E+00  0.00000000E+00  1.00000000E+00  1.00000000E+00  1.00000000E+00
  1.00000000E+00  1.00000000E+00  2.00000000E+00  2.00000000E+00  0.00000000E+00
Virial Ratio                               R      2.002315717704034E+00
SCF Energy                                 R     -2.795010695728172E+02
MP2 Energy                                 R     -2.804465098782397E+02
Total Energy                               R     -2.804465098782397E+02
Post-SCF wavefunction norm                 R      1.120302236294249E+00
RMS Density                                R      3.764988312287626E-09
Job Status                                 I                1
Nuclear derivative order                   I                0
External E-field                           R   N=          35
  0.00000000E+00  0.00000000E+00  0.00000000E+00  0.00000000E+00  0.00000000E+00
  0.00000000E+00  0.00000000E+00  0.00000000E+00  0.00000000E+00  0.00000000E+00
  0.00000000E+00  0.00000000E+00  0.00000000E+00  0.00000000E+00  0.00000000E+00
  0.00000000E+00  0.00000000E+00  0.00000000E+00  0.00000000E+00  0.00000000E+00
  0.00000000E+00  0.00000000E+00  0.00000000E+00  0.00000000E+00  0.00000000E+00
  0.00000000E+00  0.00000000E+00  0.00000000E+00  0.00000000E+00  0.00000000E+00
  0.00000000E+00  0.00000000E+00  0.00000000E+00  0.00000000E+00  0.00000000E+00
IOpCl                                      I                0
IROHF                                      I                0
Alpha Orbital Energies                     R   N=         207
 -2.06906136E+01 -2.06842705E+01 -2.06609597E+01 -1.58127904E+01 -1.62417095E+00
 -1.49740872E+00 -1.25400026E+00 -9.48234381E-01 -7.74158770E-01 -7.57484929E-01
 -7.12103895E-01 -6.78594242E-01 -6.20928840E-01 -5.91833047E-01 -4.85552938E-01
 -4.72541949E-01  2.99277196E-02  7.15528346E-02  8.59134841E-02  1.01618586E-01
  1.33816219E-01  1.34099198E-01  1.44147254E-01  1.54676431E-01  1.78171981E-01
  1.93898594E-01  1.99572096E-01  2.06414689E-01  2.20655708E-01  2.35281924E-01
  2.37344868E-01  2.64916716E-01  2.93436914E-01  3.03677252E-01  3.11238665E-01
  3.43197601E-01  3.50121656E-01  3.87322608E-01  4.24070976E-01  4.30913594E-01
  5.27765467E-01  5.29449644E-01  5.57938289E-01  5.80955595E-01  6.26154295E-01
  6.38041436E-01  6.74693883E-01  6.84948063E-01  7.06530651E-01  7.09495575E-01
  7.28135013E-01  7.29335223E-01  7.44362783E-01  7.94009985E-01  7.95308238E-01
  8.12002197E-01  8.12307094E-01  8.28943631E-01  8.67540472E-01  9.08583338E-01
  9.20598628E-01  9.27895969E-01  9.54106887E-01  9.75986512E-01  9.86601733E-01
  1.01778285E+00  1.05139514E+00  1.05433925E+00  1.08276401E+00  1.11720670E+00
  1.14476914E+00  1.19047483E+00  1.22103275E+00  1.23662806E+00  1.33974831E+00
  1.35194170E+00  1.38565903E+00  1.45837861E+00  1.48687364E+00  1.50511006E+00
  1.53700376E+00  1.56635449E+00  1.57947297E+00  1.60948820E+00  1.66167200E+00
  1.67116382E+00  1.70308725E+00  1.79897569E+00  1.83043609E+00  1.83653213E+00
  1.87701360E+00  1.91153621E+00  1.95440766E+00  1.99474607E+00  2.00318717E+00
  2.07956874E+00  2.12845084E+00  2.13209853E+00  2.14966449E+00  2.22733483E+00
  2.26183275E+00  2.26396548E+00  2.29147029E+00  2.31355670E+00  2.34201771E+00
  2.38668517E+00  2.42874889E+00  2.43549523E+00  2.45295241E+00  2.46232526E+00
  2.48099355E+00  2.49880134E+00  2.59117212E+00  2.59990259E+00  2.61860078E+00
  2.62739634E+00  2.63533661E+00  2.66474394E+00  2.75802605E+00  2.82745134E+00
  2.84326104E+00  2.87760209E+00  2.89139193E+00  2.92947608E+00  2.95236066E+00
  3.02405062E+00  3.06951619E+00  3.11970085E+00  3.20995555E+00  3.22286183E+00
  3.31338648E+00  3.34325278E+00  3.51893675E+00  3.63724685E+00  3.83664097E+00
  3.83971047E+00  4.14555004E+00  4.17492674E+00  4.18329656E+00  4.25889445E+00
  4.34350042E+00  4.39730486E+00  4.46105341E+00  4.53036474E+00  4.65782899E+00
  4.73865667E+00  4.80156231E+00  4.82339029E+00  4.82869243E+00  4.89551707E+00
  5.02537669E+00  5.07677535E+00  5.10112728E+00  5.13389066E+00  5.17223996E+00
  5.25359534E+00  5.26941829E+00  5.30619014E+00  5.32834521E+00  5.35905519E+00
  5.60041159E+00  5.67345523E+00  5.76336414E+00  5.84649856E+00  5.95835253E+00
  6.17701246E+00  6.31233836E+00  6.32978497E+00  6.39357415E+00  6.49387516E+00
  6.50517298E+00  6.61549149E+00  6.66775307E+00  6.70401162E+00  6.76024394E+00
  6.76272962E+00  6.83540821E+00  6.89949111E+00  7.02836928E+00  7.04686185E+00
  7.05679283E+00  7.08881085E+00  7.12560436E+00  7.13948330E+00  7.18248719E+00
  7.22766706E+00  7.24144839E+00  7.30090821E+00  7.32413204E+00  7.35156433E+00
  7.39981834E+00  7.45535250E+00  7.48487493E+00  7.60679188E+00  7.62154060E+00
  7.62632142E+00  7.66765095E+00  7.79973707E+00  7.88715755E+00  8.09448901E+00
  8.31999802E+00  8.38922646E+00  8.54208437E+00  1.33894289E+01  1.43870564E+01
  1.51928448E+01  1.61547096E+01
Alpha MO coefficients                      R   N=       42849
  8.81239549E-05 -4.72688052E-04 -6.27323220E-04 -2.01948936E-06 -8.02433743E-07
 -3.08618374E-05  0.00000000E+00 -6.29835186E-05 -3.92580986E-05  0.00000000E+00
  6.83433854E-05 -5.07679338E-06  0.00000000E+00  2.48876449E-05  0.00000000E+00
  0.00000000E+00 -6.37981466E-05  1.48682762E-05 -1.08085072E-05  0.00000000E+00
  0.00000000E+00 -1.69354548E-04  1.28955240E-04  4.77456354E-03 -2.97118735E-04
  2.79648735E-05  1.31033328E-03  1.68469312E-03  1.05097513E-04  1.12243928E-05
  0.00000000E+00 -6.14729106E-04 -8.19064490E-05  0.00000000E+00 -1.05798789E-03
  6.66511476E-04  0.00000000E+00 -3.83372000E-04  5.67339805E-05  0.00000000E+00
  2.85053227E-05  0.00000000E+00  0.00000000E+00 -5.21292463E-05  6.97853682E-06
 -3.65320771E-04  0.00000000E+00  0.00000000E+00  7.48720106E-04 -3.25424444E-05
 -4.31824815E-04  0.00000000E+00  0.00000000E+00  2.38423653E-04  5.75695890E-06
  0.00000000E+00  7.95547341E-05  1.40857904E-05  0.00000000E+00  0.00000000E+00
 -1.10028175E-04 -1.05190447E-06  0.00000000E+00  2.55640440E-04 -2.62858627E-05
  0.00000000E+00  0.00000000E+00 -3.44071786E-04  3.92027944E-05  9.76906784E-01
 -9.21962769E-03  4.33233597E-02  2.04116566E-03 -8.53760206E-04  1.48388776E-03
 -1.35165820E-03  0.00000000E+00 -1.42357123E-03  1.38072603E-03  0.00000000E+00
  1.29757630E-04 -1.08558847E-03  0.00000000E+00 -1.18456399E-04 -4.89035938E-06
  0.00000000E+00  4.47616789E-05  0.00000000E+00  0.00000000E+00 -3.64362834E-05
  2.37276440E-05  7.50040680E-04  0.00000000E+00  0.00000000E+00 -2.19961665E-04
 -3.92809975E-04 -3.75139655E-04  0.00000000E+00  0.00000000E+00 -3.03953933E-04
 -3.35364880E-04  0.00000000E+00  4.69161549E-05 -4.80670829E-05  0.00000000E+00
  0.00000000E+00 -3.75927983E-05 -1.67748774E-05  0.00000000E+00  2.40950135E-05
  1.81826196E-05  0.00000000E+00  0.00000000E+00 -3.04873741E-04 -1.39870830E-04
  3.93663785E-05  4.68049347E-05 -2.66409091E-04 -6.72463752E-04 -1.37343126E-04
 -2.70157775E-05 -9.86933110E-05  0.00000000E+00  2.70868970E-04  7.17029511E-04
  0.00000000E+00 -8.10218069E-04 -4.16681274E-04  0.00000000E+00 -1.17334588E-04
 -2.24970152E-05  0.00000000E+00 -1.79299965E-05  0.00000000E+00  0.00000000E+00
 -2.95543489E-05  1.50414093E-05 -3.32421501E-04  0.00000000E+00  0.00000000E+00
 -8.34426449E-04  1.23389521E-04 -3.67741015E-05  0.00000000E+00  0.00000000E+00
  7.64487226E-05 -1.26176486E-04  0.00000000E+00 -2.05866730E-05 -1.20707549E-04
  0.00000000E+00  0.00000000E+00 -6.16029212E-05 -1.38752835E-04  0.00000000E+00
  3.62298557E-06 -1.55508898E-04  0.00000000E+00  0.00000000E+00  4.40989236E-05
 -4.18161975E-04 -2.68746929E-03  1.23221888E-04 -1.28564508E-04 -2.24563063E-04
  1.46131633E-04 -8.25374510E-06 -2.81677520E-05  0.00000000E+00  7.01240650E-05
  1.65762641E-04  0.00000000E+00  2.36251169E-04  1.71641784E-04  0.00000000E+00
  1.24447817E-04  2.16902586E-05  0.00000000E+00 -3.37256660E-06  0.00000000E+00
  0.00000000E+00 -1.80651419E-05  1.56367661E-06  6.42959014E-07  0.00000000E+00
  0.00000000E+00  8.12261807E-05  8.62780106E-05 -9.67422611E-05  0.00000000E+00
  0.00000000E+00  1.70039729E-04  1.50577680E-04  0.00000000E+00  1.58600447E-05
 -3.47968722E-06  0.00000000E+00  0.00000000E+00 -4.34701203E-06 -1.18170659E-05
  0.00000000E+00 -3.34534056E-05  4.59778343E-05  0.00000000E+00  0.00000000E+00
  8.44589843E-05  8.92913752E-05  4.43281082E-05 -9.86273782E-04 -4.76739592E-04
 -9.73273381E-06 -1.95189138E-05  1.49910285E-05  0.00000000E+00  4.03470638E-06
  2.77709483E-04  0.00000000E+00 -3.29612895E-05  1.31937815E-04  0.00000000E+00
  2.83061083E-05  0.00000000E+00  0.00000000E+00  1.01785994E-05  8.01364338E-06
 -2.42285767E-05  0.00000000E+00  0.00000000E+00  7.71030972E-06  2.81381757E-05
  1.17310785E-04  8.40222921E-05 -2.70373654E-05  7.50799995E-04  6.34033038E-04
  1.07020179E-05  2.42591416E-06  0.00000000E+00 -7.60462814E-05  1.86023607E-05
  0.00000000E+00  2.73944245E-04  8.89047765E-04  0.00000000E+00 -4.76420980E-06
  7.39768626E-05  0.00000000E+00 -2.46875620E-06  0.00000000E+00  0.00000000E+00
  1.95569407E-07 -5.17714375E-06 -3.51381771E-05  0.00000000E+00  0.00000000E+00
 -2.49227015E-05  7.36208091E-05 -2.37749147E-05  0.00000000E+00  0.00000000E+00
 -2.57798450E-04 -1.87006139E-04  0.00000000E+00  8.79118432E-06  5.89438065E-06
  0.00000000E+00  0.00000000E+00  3.12155882E-06 -1.94391091E-05  0.00000000E+00
 -3.67244861E-05 -3.76502324E-05  0.00000000E+00  0.00000000E+00 -6.81872568E-05
  1.71226150E-05  2.72650731E-03  3.88028714E-05  9.63130060E-05 -1.05779795E-04
 -4.49839121E-04  7.26742375E-06  1.59339150E-05  0.00000000E+00 -6.21558864E-05
 -5.78828800E-05  0.00000000E+00  2.32504289E-04 -1.66964235E-04  0.00000000E+00
 -1.80095407E-04 -6.06747868E-05  0.00000000E+00 -8.91077416E-06  0.00000000E+00
  0.00000000E+00  2.19353234E-05  1.99794716E-05  5.41293282E-06  0.00000000E+00
  0.00000000E+00 -1.14543724E-04 -4.84762784E-05 -1.06034533E-05  0.00000000E+00
  0.00000000E+00 -2.17862499E-04 -1.92571062E-04  0.00000000E+00  3.65144091E-06
  5.04889217E-08  0.00000000E+00  0.00000000E+00  2.28530864E-06 -1.43116364E-05
  0.00000000E+00 -4.87118577E-05  5.88676787E-07  0.00000000E+00  0.00000000E+00
 -7.80610148E-05  1.90032380E-04  2.58610537E-04  1.46440349E-03 -7.83623313E-05
 -1.54145334E-03  3.82685829E-04 -1.44609290E-04 -6.55353490E-07  0.00000000E+00
 -2.08617695E-03 -4.05252793E-04  0.00000000E+00  1.06048163E-03  7.83846697E-04
  0.00000000E+00 -1.71282672E-04  5.26932016E-05  0.00000000E+00 -1.23302058E-04
  0.00000000E+00  0.00000000E+00  2.42676771E-04  9.51841783E-05 -4.42973063E-04
  0.00000000E+00  0.00000000E+00  8.96110766E-04 -6.27115068E-05  1.14752811E-05
  0.00000000E+00  0.00000000E+00 -3.44970311E-04 -1.22968116E-04  0.00000000E+00
 -1.50177715E-06  1.49136882E-05  0.00000000E+00  0.00000000E+00  1.90545467E-05
  1.33636290E-05  0.00000000E+00  1.65337699E-04 -7.15604592E-05  0.00000000E+00
  0.00000000E+00 -2.40274162E-04  4.03024974E-05  9.76648615E-01 -9.84884356E-03
  4.35684033E-02  4.52248707E-03 -4.32386265E-04  2.14643892E-03  4.83569376E-04
  0.00000000E+00 -2.38084479E-03 -6.06509542E-04  0.00000000E+00  1.14705928E-03
 -6.57479473E-06  0.00000000E+00  6.65614394E-06 -4.04893604E-05  0.00000000E+00
 -2.32537004E-04  0.00000000E+00  0.00000000E+00  1.02433900E-04  3.25244686E-05
  3.89966975E-04  0.00000000E+00  0.00000000E+00 -8.31472960E-04 -4.22088702E-04
 -1.52019129E-04  0.00000000E+00  0.00000000E+00  2.58657356E-04  1.54074060E-05
  0.00000000E+00  5.20536086E-05  1.78041720E-05  0.00000000E+00  0.00000000E+00
 -2.19486946E-05 -1.33392933E-05  0.00000000E+00  1.38724579E-04  9.64903459E-06
  0.00000000E+00  0.00000000E+00 -1.88264783E-04 -1.41807663E-04  4.68695191E-04
  1.89050114E-03  8.37075665E-05  1.96645522E-05 -3.64347600E-05 -2.50469712E-04
  0.00000000E+00  1.63457112E-04 -1.23550566E-03  0.00000000E+00  3.64747651E-04
 -3.29977749E-04  0.00000000E+00 -5.22515276E-06  0.00000000E+00  0.00000000E+00
  7.34918999E-05  3.28964628E-05 -1.74389556E-04  0.00000000E+00  0.00000000E+00
 -5.30881082E-04 -6.89299287E-05  9.76830665E-01 -9.18067655E-03  4.34402343E-02
  3.46541986E-04 -1.23281576E-03 -1.59465965E-03  1.40743451E-03  0.00000000E+00
  1.61420454E-03 -1.26670541E-03  0.00000000E+00 -5.22805126E-04 -7.21342132E-04
  0.00000000E+00  5.48280787E-05 -6.69379695E-05  0.00000000E+00  3.34431813E-05
  0.00000000E+00  0.00000000E+00 -1.17716221E-04 -1.80090774E-05  7.45090178E-04
  0.00000000E+00  0.00000000E+00 -1.95099475E-04 -1.82009586E-04 -2.70719766E-04
  0.00000000E+00  0.00000000E+00  1.32050516E-04  9.99179381E-05  0.00000000E+00
 -6.43532036E-05  3.51681906E-06  0.00000000E+00  0.00000000E+00  1.65691595E-05
  9.11138304E-06  0.00000000E+00 -9.44549480E-06  1.12741944E-04  0.00000000E+00
  0.00000000E+00  2.26996058E-04  9.67105244E-05 -4.86921416E-03 -2.09759344E-04