title                                                                   
Freq      RMP2-FC                                                     Aug-CC-pVTZ         
Number of atoms                            I                5
Info1-9                                    I   N=           9
          33          24           0           0           0         100
           6           2           1
Full Title                                 C   N=           1
title       
Route                                      C   N=           4
#p freq mp2/aug-cc-pvtz density=current         
Charge                                     I                0
Multiplicity                               I                1
Number of electrons                        I               32
Number of alpha electrons                  I               16
Number of beta electrons                   I               16
Number of basis functions                  I              207
Number of independent functions            I              207
Number of point charges in /Mol/           I                0
Number of translation vectors              I                0
Atomic numbers                             I   N=           5
           1           8           8           7           8
Nuclear charges                            R   N=           5
  1.00000000E+00  8.00000000E+00  8.00000000E+00  7.00000000E+00  8.00000000E+00
Current cartesian coordinates              R   N=          15
  2.09495954E+00 -1.12898931E+00  0.00000000E+00  2.48615301E+00  6.91547486E-01
  0.00000000E+00 -9.47425871E-17  1.73472648E+00 -6.16297582E-33 -1.87426395E+00
 -8.15311910E-02  0.00000000E+00 -1.10804199E+00 -2.21381051E+00 -3.69778549E-32
Number of symbols in /Mol/                 I                0
Force Field                                I                0
Atom Types                                 C   N=           5
                                                            
Int Atom Types                             I   N=           5
           0           0           0           0           0
MM charges                                 R   N=           5
  0.00000000E+00  0.00000000E+00  0.00000000E+00  0.00000000E+00  0.00000000E+00
Integer atomic weights                     I   N=           5
           1          16          16          14          16
Real atomic weights                        R   N=           5
  1.00782504E+00  1.59949146E+01  1.59949146E+01  1.40030740E+01  1.59949146E+01
Atom fragment info                         I   N=           5
           0           0           0           0           0
Atom residue num                           I   N=           5
           0           0           0           0           0
Nuclear spins                              I   N=           5
           1           0           0           2           0
Nuclear ZEff                               R   N=           5
 -1.00000000E+00 -5.60000000E+00 -5.60000000E+00 -4.55000000E+00 -5.60000000E+00
Nuclear ZNuc                               R   N=           5
  1.00000000E+00  8.00000000E+00  8.00000000E+00  7.00000000E+00  8.00000000E+00
Nuclear QMom                               R   N=           5
  0.00000000E+00  0.00000000E+00  0.00000000E+00  2.04400000E+00  0.00000000E+00
Nuclear GFac                               R   N=           5
  2.79284600E+00  0.00000000E+00  0.00000000E+00  4.03761000E-01  0.00000000E+00
MicOpt                                     I   N=           5
          -1          -1          -1          -1          -1
Number of residues                         I                0
Number of secondary structures             I                0
SymInf integers                            I   N=          26
           1           2           1           1           1           1
           1          -1           0           0           0           0
           0           0           0           0           0           0
           0           0           0           0           0           0
           0           0
RotTr to input orientation                 R   N=          12
 -9.77683600E-01 -1.24142848E-16  2.10082787E-01  2.10082787E-01  2.66755783E-17
  9.77683600E-01 -1.26976506E-16  1.00000000E+00  0.00000000E+00  2.28538880E+00
  0.00000000E+00  6.63679391E-01
Number of contracted shells                I               65
Number of primitive shells                 I              119
Pure/Cartesian d shells                    I                0
Pure/Cartesian f shells                    I                0
Highest angular momentum                   I                3
Largest degree of contraction              I                7
Shell types                                I   N=          65
           0           0           0           0           1           1
           1          -2          -2           0           0           0
           0           0           1           1           1           1
          -2          -2          -2          -3          -3           0
           0           0           0           0           1           1
           1           1          -2          -2          -2          -3
          -3           0           0           0           0           0
           1           1           1           1          -2          -2
          -2          -3          -3           0           0           0
           0           0           1           1           1           1
          -2          -2          -2          -3          -3
Number of primitives per shell             I   N=          65
           3           1           1           1           1           1
           1           1           1           7           6           1
           1           1           3           1           1           1
           1           1           1           1           1           7
           6           1           1           1           3           1
           1           1           1           1           1           1
           1           7           6           1           1           1
           3           1           1           1           1           1
           1           1           1           7           6           1
           1           1           3           1           1           1
           1           1           1           1           1
Shell to atom map                          I   N=          65
           1           1           1           1           1           1
           1           1           1           2           2           2
           2           2           2           2           2           2
           2           2           2           2           2           3
           3           3           3           3           3           3
           3           3           3           3           3           3
           3           4           4           4           4           4
           4           4           4           4           4           4
           4           4           4           5           5           5
           5           5           5           5           5           5
           5           5           5           5           5
Primitive exponents                        R   N=         119
  3.38700000E+01  5.09500000E+00  1.15900000E+00  3.25800000E-01  1.02700000E-01
  2.52600000E-02  1.40700000E+00  3.88000000E-01  1.02000000E-01  1.05700000E+00
  2.47000000E-01  1.53300000E+04  2.29900000E+03  5.22400000E+02  1.47300000E+02
  4.75500000E+01  1.67600000E+01  6.20700000E+00  5.22400000E+02  1.47300000E+02
  4.75500000E+01  1.67600000E+01  6.20700000E+00  6.88200000E-01  1.75200000E+00
  2.38400000E-01  7.37600000E-02  3.44600000E+01  7.74900000E+00  2.28000000E+00
  7.15600000E-01  2.14000000E-01  5.97400000E-02  2.31400000E+00  6.45000000E-01
  2.14000000E-01  1.42800000E+00  5.00000000E-01  1.53300000E+04  2.29900000E+03
  5.22400000E+02  1.47300000E+02  4.75500000E+01  1.67600000E+01  6.20700000E+00
  5.22400000E+02  1.47300000E+02  4.75500000E+01  1.67600000E+01  6.20700000E+00
  6.88200000E-01  1.75200000E+00  2.38400000E-01  7.37600000E-02  3.44600000E+01
  7.74900000E+00  2.28000000E+00  7.15600000E-01  2.14000000E-01  5.97400000E-02
  2.31400000E+00  6.45000000E-01  2.14000000E-01  1.42800000E+00  5.00000000E-01
  1.14200000E+04  1.71200000E+03  3.89300000E+02  1.10000000E+02  3.55700000E+01
  1.25400000E+01  4.64400000E+00  3.89300000E+02  1.10000000E+02  3.55700000E+01
  1.25400000E+01  4.64400000E+00  5.11800000E-01  1.29300000E+00  1.78700000E-01
  5.76000000E-02  2.66300000E+01  5.94800000E+00  1.74200000E+00  5.55000000E-01
  1.72500000E-01  4.91000000E-02  1.65400000E+00  4.69000000E-01  1.51000000E-01
  1.09300000E+00  3.64000000E-01  1.53300000E+04  2.29900000E+03  5.22400000E+02
  1.47300000E+02  4.75500000E+01  1.67600000E+01  6.20700000E+00  5.22400000E+02
  1.47300000E+02  4.75500000E+01  1.67600000E+01  6.20700000E+00  6.88200000E-01
  1.75200000E+00  2.38400000E-01  7.37600000E-02  3.44600000E+01  7.74900000E+00
  2.28000000E+00  7.15600000E-01  2.14000000E-01  5.97400000E-02  2.31400000E+00
  6.45000000E-01  2.14000000E-01  1.42800000E+00  5.00000000E-01
Contraction coefficients                   R   N=         119
  2.54948632E-02  1.90362766E-01  8.52162022E-01  1.00000000E+00  1.00000000E+00
  1.00000000E+00  1.00000000E+00  1.00000000E+00  1.00000000E+00  1.00000000E+00
  1.00000000E+00  5.19808943E-04  4.02025621E-03  2.07128267E-02  8.10105536E-02
  2.35962985E-01  4.42653446E-01  3.57064423E-01 -4.42115008E-05 -1.22591041E-03
 -1.05517725E-02 -6.74452633E-02 -1.71198607E-01  1.07329856E+00  1.00000000E+00
  1.00000000E+00  1.00000000E+00  4.11634896E-02  2.57762836E-01  8.02419274E-01
  1.00000000E+00  1.00000000E+00  1.00000000E+00  1.00000000E+00  1.00000000E+00
  1.00000000E+00  1.00000000E+00  1.00000000E+00  5.19808943E-04  4.02025621E-03
  2.07128267E-02  8.10105536E-02  2.35962985E-01  4.42653446E-01  3.57064423E-01
 -4.42115008E-05 -1.22591041E-03 -1.05517725E-02 -6.74452633E-02 -1.71198607E-01
  1.07329856E+00  1.00000000E+00  1.00000000E+00  1.00000000E+00  4.11634896E-02
  2.57762836E-01  8.02419274E-01  1.00000000E+00  1.00000000E+00  1.00000000E+00
  1.00000000E+00  1.00000000E+00  1.00000000E+00  1.00000000E+00  1.00000000E+00
  5.34563860E-04  4.13435660E-03  2.12335358E-02  8.25006224E-02  2.38138871E-01
  4.42551547E-01  3.53757422E-01 -4.89867350E-05 -1.19527323E-03 -1.03490714E-02
 -6.48680190E-02 -1.71552477E-01  1.07289568E+00  1.00000000E+00  1.00000000E+00
  1.00000000E+00  3.98072123E-02  2.49002660E-01  8.10479727E-01  1.00000000E+00
  1.00000000E+00  1.00000000E+00  1.00000000E+00  1.00000000E+00  1.00000000E+00
  1.00000000E+00  1.00000000E+00  5.19808943E-04  4.02025621E-03  2.07128267E-02
  8.10105536E-02  2.35962985E-01  4.42653446E-01  3.57064423E-01 -4.42115008E-05
 -1.22591041E-03 -1.05517725E-02 -6.74452633E-02 -1.71198607E-01  1.07329856E+00
  1.00000000E+00  1.00000000E+00  1.00000000E+00  4.11634896E-02  2.57762836E-01
  8.02419274E-01  1.00000000E+00  1.00000000E+00  1.00000000E+00  1.00000000E+00
  1.00000000E+00  1.00000000E+00  1.00000000E+00  1.00000000E+00
Coordinates of each shell                  R   N=         195
  2.09495954E+00 -1.12898931E+00 -4.02905925E-34  2.09495954E+00 -1.12898931E+00
 -4.02905925E-34  2.09495954E+00 -1.12898931E+00 -4.02905925E-34  2.09495954E+00
 -1.12898931E+00 -4.02905925E-34  2.09495954E+00 -1.12898931E+00 -4.02905925E-34
  2.09495954E+00 -1.12898931E+00 -4.02905925E-34  2.09495954E+00 -1.12898931E+00
 -4.02905925E-34  2.09495954E+00 -1.12898931E+00 -4.02905925E-34  2.09495954E+00
 -1.12898931E+00 -4.02905925E-34  2.48615301E+00  6.91547486E-01  7.27531303E-34
  2.48615301E+00  6.91547486E-01  7.27531303E-34  2.48615301E+00  6.91547486E-01
  7.27531303E-34  2.48615301E+00  6.91547486E-01  7.27531303E-34  2.48615301E+00
  6.91547486E-01  7.27531303E-34  2.48615301E+00  6.91547486E-01  7.27531303E-34
  2.48615301E+00  6.91547486E-01  7.27531303E-34  2.48615301E+00  6.91547486E-01
  7.27531303E-34  2.48615301E+00  6.91547486E-01  7.27531303E-34  2.48615301E+00
  6.91547486E-01  7.27531303E-34  2.48615301E+00  6.91547486E-01  7.27531303E-34
  2.48615301E+00  6.91547486E-01  7.27531303E-34  2.48615301E+00  6.91547486E-01
  7.27531303E-34  2.48615301E+00  6.91547486E-01  7.27531303E-34  1.80501230E-17
  1.73472648E+00  1.02961453E-33  1.80501230E-17  1.73472648E+00  1.02961453E-33
  1.80501230E-17  1.73472648E+00  1.02961453E-33  1.80501230E-17  1.73472648E+00
  1.02961453E-33  1.80501230E-17  1.73472648E+00  1.02961453E-33  1.80501230E-17
  1.73472648E+00  1.02961453E-33  1.80501230E-17  1.73472648E+00  1.02961453E-33
  1.80501230E-17  1.73472648E+00  1.02961453E-33  1.80501230E-17  1.73472648E+00
  1.02961453E-33  1.80501230E-17  1.73472648E+00  1.02961453E-33  1.80501230E-17
  1.73472648E+00  1.02961453E-33  1.80501230E-17  1.73472648E+00  1.02961453E-33
  1.80501230E-17  1.73472648E+00  1.02961453E-33  1.80501230E-17  1.73472648E+00
  1.02961453E-33 -1.87426395E+00 -8.15311910E-02 -2.87429095E-34 -1.87426395E+00
 -8.15311910E-02 -2.87429095E-34 -1.87426395E+00 -8.15311910E-02 -2.87429095E-34
 -1.87426395E+00 -8.15311910E-02 -2.87429095E-34 -1.87426395E+00 -8.15311910E-02
 -2.87429095E-34 -1.87426395E+00 -8.15311910E-02 -2.87429095E-34 -1.87426395E+00
 -8.15311910E-02 -2.87429095E-34 -1.87426395E+00 -8.15311910E-02 -2.87429095E-34
 -1.87426395E+00 -8.15311910E-02 -2.87429095E-34 -1.87426395E+00 -8.15311910E-02
 -2.87429095E-34 -1.87426395E+00 -8.15311910E-02 -2.87429095E-34 -1.87426395E+00
 -8.15311910E-02 -2.87429095E-34 -1.87426395E+00 -8.15311910E-02 -2.87429095E-34
 -1.87426395E+00 -8.15311910E-02 -2.87429095E-34 -1.10804199E+00 -2.21381051E+00
 -1.45528213E-33 -1.10804199E+00 -2.21381051E+00 -1.45528213E-33 -1.10804199E+00
 -2.21381051E+00 -1.45528213E-33 -1.10804199E+00 -2.21381051E+00 -1.45528213E-33
 -1.10804199E+00 -2.21381051E+00 -1.45528213E-33 -1.10804199E+00 -2.21381051E+00
 -1.45528213E-33 -1.10804199E+00 -2.21381051E+00 -1.45528213E-33 -1.10804199E+00
 -2.21381051E+00 -1.45528213E-33 -1.10804199E+00 -2.21381051E+00 -1.45528213E-33
 -1.10804199E+00 -2.21381051E+00 -1.45528213E-33 -1.10804199E+00 -2.21381051E+00
 -1.45528213E-33 -1.10804199E+00 -2.21381051E+00 -1.45528213E-33 -1.10804199E+00
 -2.21381051E+00 -1.45528213E-33 -1.10804199E+00 -2.21381051E+00 -1.45528213E-33
Num ILSW                                   I              100
ILSW                                       I   N=         100
           0           0           0           0           2           0
           0           0           0           0           0          -1
           5           0           0           0           2           0
           0           0           0           0           1           0
           1           0           0           0           0           0
           0           0      100000           0          -1           0
           0           0           0           0           0           0
           0           0           0           1           1           0
           0 -2000000000           1           0           0           0
           0           0           4          52           0           0
           0           0           0           0           0           0
           0           0           0           5           4           1
           0           0           0           0           0           0
           0           0           0           0           0           0
           0           0           0           0           0           0
           0           0           0           0           0           0
           0           0           0           0
Num RLSW                                   I               52
RLSW                                       R   N=          52
  1.00000000E+00  1.00000000E+00  1.00000000E+00  1.00000000E+00  1.00000000E+00
  0.00000000E+00  0.00000000E+00  1.00000000E+00  0.00000000E+00  0.00000000E+00
  0.00000000E+00  0.00000000E+00  1.00000000E+00  0.00000000E+00  0.00000000E+00
  0.00000000E+00  0.00000000E+00  1.00000000E+00  0.00000000E+00  0.00000000E+00
  0.00000000E+00  0.00000000E+00  1.00000000E+00  0.00000000E+00  0.00000000E+00
  0.00000000E+00  0.00000000E+00  1.00000000E+00  0.00000000E+00  0.00000000E+00
  0.00000000E+00  0.00000000E+00  1.00000000E+00  0.00000000E+00  0.00000000E+00
  0.00000000E+00  0.00000000E+00  0.00000000E+00  1.00000000E+00  1.00000000E+00
  0.00000000E+00  1.00000000E+00  0.00000000E+00  0.00000000E+00  0.00000000E+00
  0.00000000E+00  0.00000000E+00  0.00000000E+00  0.00000000E+00  0.00000000E+00
  0.00000000E+00  0.00000000E+00
MxBond                                     I                2
NBond                                      I   N=           5
           1           2           2           2           1
IBond                                      I   N=          10
           2           0           1           3           2           4
           3           5           4           0
RBond                                      R   N=          10
  1.00000000E+00  0.00000000E+00  1.00000000E+00  1.00000000E+00  1.00000000E+00
  1.00000000E+00  1.00000000E+00  2.00000000E+00  2.00000000E+00  0.00000000E+00
Virial Ratio                               R      2.002291551558048E+00
SCF Energy                                 R     -2.795056860611001E+02
MP2 Energy                                 R     -2.804552200293003E+02
Total Energy                               R     -2.804552200293003E+02
Post-SCF wavefunction norm                 R      1.584147651422128E+00
RMS Force                                  R      1.839319013812250E-03
RMS Density                                R      4.732312203795022E-09
NImag                                      I                0
Job Status                                 I                1
Nuclear derivative order                   I                2
External E-field                           R   N=          35
  0.00000000E+00  0.00000000E+00  0.00000000E+00  0.00000000E+00  0.00000000E+00
  0.00000000E+00  0.00000000E+00  0.00000000E+00  0.00000000E+00  0.00000000E+00
  0.00000000E+00  0.00000000E+00  0.00000000E+00  0.00000000E+00  0.00000000E+00
  0.00000000E+00  0.00000000E+00  0.00000000E+00  0.00000000E+00  0.00000000E+00
  0.00000000E+00  0.00000000E+00  0.00000000E+00  0.00000000E+00  0.00000000E+00
  0.00000000E+00  0.00000000E+00  0.00000000E+00  0.00000000E+00  0.00000000E+00
  0.00000000E+00  0.00000000E+00  0.00000000E+00  0.00000000E+00  0.00000000E+00
IOpCl                                      I                0
IROHF                                      I                0
Alpha Orbital Energies                     R   N=         207
 -2.07207633E+01 -2.06870482E+01 -2.06686571E+01 -1.58267069E+01 -1.64199470E+00
 -1.50413448E+00 -1.29419103E+00 -9.60985985E-01 -8.33826376E-01 -7.58037375E-01
 -7.39347636E-01 -6.37334543E-01 -6.18672579E-01 -6.17411947E-01 -5.05461315E-01
 -4.97783304E-01  3.50945170E-02  5.89505346E-02  9.50922585E-02  1.00351278E-01
  1.19813088E-01  1.22562476E-01  1.49324563E-01  1.52033352E-01  1.77403706E-01
  1.80372170E-01  1.89772305E-01  2.11010779E-01  2.16683758E-01  2.42133547E-01
  2.46275674E-01  2.68918799E-01  3.12660815E-01  3.16823733E-01  3.38064759E-01
  3.43399838E-01  3.46452950E-01  3.92423724E-01  4.49059518E-01  4.88418520E-01
  5.05056241E-01  5.18160947E-01  5.44822511E-01  5.61316801E-01  5.97633273E-01
  6.19488381E-01  6.38057385E-01  6.90223809E-01  7.17153434E-01  7.24076225E-01
  7.42438392E-01  7.63933247E-01  7.67300116E-01  7.95599239E-01  8.06167360E-01
  8.39257733E-01  8.42903219E-01  8.51572726E-01  8.84830553E-01  9.07571835E-01
  9.30353971E-01  9.46964544E-01  9.54163048E-01  1.01821269E+00  1.03234169E+00
  1.06322107E+00  1.06593347E+00  1.09514330E+00  1.14428703E+00  1.15628720E+00
  1.16887657E+00  1.22203820E+00  1.22715151E+00  1.24566747E+00  1.35397290E+00
  1.36093152E+00  1.37111196E+00  1.46837972E+00  1.48505058E+00  1.50472929E+00
  1.54239194E+00  1.59681347E+00  1.59687345E+00  1.60509693E+00  1.62849197E+00
  1.69485983E+00  1.74059551E+00  1.80029076E+00  1.82979695E+00  1.88699705E+00
  1.89560751E+00  1.92993267E+00  1.97882104E+00  1.98956190E+00  2.05301751E+00
  2.12303358E+00  2.13017269E+00  2.16542608E+00  2.18822505E+00  2.24348832E+00
  2.25972680E+00  2.29395667E+00  2.35200323E+00  2.36602732E+00  2.38595388E+00
  2.40086550E+00  2.43310888E+00  2.46981592E+00  2.47911208E+00  2.52968173E+00
  2.53778370E+00  2.54854558E+00  2.55741361E+00  2.61454674E+00  2.62987829E+00
  2.67165453E+00  2.67207725E+00  2.75347819E+00  2.80887017E+00  2.81619433E+00
  2.83987452E+00  2.91841327E+00  2.98413068E+00  3.04546803E+00  3.05036176E+00
  3.11501655E+00  3.11858515E+00  3.17319152E+00  3.21325377E+00  3.30771439E+00
  3.33221341E+00  3.36048528E+00  3.47727207E+00  3.67478384E+00  3.86912730E+00
  3.93091348E+00  4.18438866E+00  4.22317301E+00  4.22336576E+00  4.26114553E+00
  4.36937956E+00  4.49853964E+00  4.52852304E+00  4.55191244E+00  4.59847548E+00
  4.69272616E+00  4.80837980E+00  4.89786507E+00  4.91434558E+00  4.93955586E+00
  4.99966964E+00  5.00585998E+00  5.10616215E+00  5.13029625E+00  5.17946687E+00
  5.24662673E+00  5.25791855E+00  5.31711988E+00  5.34554912E+00  5.35671345E+00
  5.55030639E+00  5.63865934E+00  5.70362890E+00  5.89047007E+00  5.99397529E+00
  6.26423710E+00  6.29524528E+00  6.36035803E+00  6.37616033E+00  6.59763613E+00
  6.65874050E+00  6.65910897E+00  6.68914302E+00  6.72467543E+00  6.79880805E+00
  6.80422324E+00  6.84809080E+00  6.96661445E+00  7.02048246E+00  7.06583042E+00
  7.07910115E+00  7.13663490E+00  7.17336597E+00  7.17363988E+00  7.20234519E+00
  7.24194792E+00  7.24673006E+00  7.26607869E+00  7.34764284E+00  7.39111499E+00
  7.42675081E+00  7.44091593E+00  7.45897394E+00  7.55274039E+00  7.66296482E+00
  7.66596414E+00  7.79274296E+00  7.88228964E+00  7.95083524E+00  8.06070279E+00
  8.30657677E+00  8.50009225E+00  8.65042174E+00  1.36101856E+01  1.47320510E+01
  1.50899477E+01  1.56679682E+01
Alpha MO coefficients                      R   N=       42849
  6.44995142E-05 -1.94132244E-05 -1.12755673E-03  1.19498808E-05 -5.14983617E-05
  4.21228569E-05  0.00000000E+00 -9.04256769E-05 -2.88866129E-04  0.00000000E+00
  9.08389552E-08 -3.53408395E-04  0.00000000E+00  4.21568082E-05  0.00000000E+00
  0.00000000E+00 -2.49067521E-05  1.25909753E-05  2.29907356E-04  0.00000000E+00
  0.00000000E+00 -4.02202326E-05 -2.11373405E-04  3.03634857E-03 -9.46236251E-05
 -1.00936589E-04  3.54693441E-03  2.48979333E-03  1.02696908E-04 -5.32411326E-05
  0.00000000E+00 -7.29504053E-04  2.85702772E-04  0.00000000E+00 -1.97461530E-03
  1.11411221E-03  0.00000000E+00 -5.39068600E-04  3.83831738E-05  0.00000000E+00
  2.04749446E-05  0.00000000E+00  0.00000000E+00 -8.89229901E-06  4.41442159E-05
 -4.43286360E-04  0.00000000E+00  0.00000000E+00  4.27900065E-04 -6.62338388E-04
 -3.63170643E-04  0.00000000E+00  0.00000000E+00  5.43282647E-04 -7.45234974E-04
  0.00000000E+00  7.40872395E-05 -5.24569930E-05  0.00000000E+00  0.00000000E+00
 -2.73412644E-05  1.08087895E-04  0.00000000E+00  2.07509980E-04 -5.08237054E-05
  0.00000000E+00  0.00000000E+00 -1.70015516E-04  3.00361088E-04  9.76905265E-01
 -9.17313475E-03  4.34050035E-02  4.83734229E-04 -2.21666857E-03  4.46076486E-04
 -2.15096626E-03  0.00000000E+00 -3.15651336E-04  2.25664333E-03  0.00000000E+00
 -2.31472324E-03 -4.83222515E-04  0.00000000E+00 -2.23815387E-04  9.86712358E-05
  0.00000000E+00  6.96240653E-06  0.00000000E+00  0.00000000E+00 -4.52291292E-06
  3.74887541E-05  8.27447751E-04  0.00000000E+00  0.00000000E+00 -4.75036035E-04
 -1.72307629E-04 -1.38765630E-04  0.00000000E+00  0.00000000E+00 -5.52738542E-04
  3.54997531E-04  0.00000000E+00 -6.61037045E-06 -7.94516804E-05  0.00000000E+00
  0.00000000E+00 -9.06834646E-06  4.82127073E-05  0.00000000E+00  9.23342676E-05
  8.14557448E-07  0.00000000E+00  0.00000000E+00 -3.36066193E-04  3.80941226E-04
  1.05319036E-04  4.63147399E-04 -3.23805365E-04 -8.02817325E-04  3.63059463E-04
 -4.43862867E-05 -1.00104995E-04  0.00000000E+00  7.00579527E-04  1.10701704E-03
  0.00000000E+00 -7.57976592E-04 -6.56080831E-04  0.00000000E+00  1.95795446E-04
  2.10499139E-04  0.00000000E+00 -5.27037283E-05  0.00000000E+00  0.00000000E+00
  1.91212353E-05  9.29628413E-05 -4.16854869E-04  0.00000000E+00  0.00000000E+00
  3.86369056E-05  1.08170029E-03  2.52777565E-05  0.00000000E+00  0.00000000E+00
 -3.17909674E-04  3.02896907E-05  0.00000000E+00 -7.87071672E-05 -1.13612492E-04
  0.00000000E+00  0.00000000E+00 -9.68413577E-05  1.06855718E-04  0.00000000E+00
 -1.24581416E-04  4.58721925E-05  0.00000000E+00  0.00000000E+00  1.38000134E-05
  5.21547996E-04 -6.77831429E-04  4.35511679E-05 -6.91630079E-05  2.01198422E-04
 -1.86862338E-04 -2.92093083E-05 -4.13123318E-05  0.00000000E+00  1.69363494E-04
  2.49870616E-04  0.00000000E+00  5.37274822E-04  3.14445152E-04  0.00000000E+00
 -2.16059756E-04 -6.37424136E-05  0.00000000E+00 -1.27778210E-05  0.00000000E+00
  0.00000000E+00  3.51002450E-06  1.47169605E-05 -2.51746741E-06  0.00000000E+00
  0.00000000E+00 -1.63794949E-04  1.38968020E-05 -2.10149539E-05  0.00000000E+00
  0.00000000E+00 -1.67498618E-04 -3.80076626E-05  0.00000000E+00 -6.20269978E-06
 -9.26532638E-06  0.00000000E+00  0.00000000E+00 -2.19751950E-05  9.17169017E-06
  0.00000000E+00  3.98011723E-05  6.07400950E-05  0.00000000E+00  0.00000000E+00
  1.55438916E-04 -1.04316581E-04  4.02314990E-05  6.43357116E-05 -1.23533800E-04
 -3.16621898E-05  1.85152971E-05  1.13021218E-05  0.00000000E+00  2.39764558E-04
  6.28147244E-05  0.00000000E+00  1.27212480E-04  2.32927566E-05  0.00000000E+00
  1.31046904E-05  0.00000000E+00  0.00000000E+00 -1.25559524E-05  1.63706325E-05
  2.28713548E-05  0.00000000E+00  0.00000000E+00 -9.94338783E-05  6.35609324E-05
 -2.69339698E-04  2.72887150E-05 -1.61671277E-05 -5.58663317E-04  1.62500718E-04
  7.88774731E-06  1.34936483E-05  0.00000000E+00 -3.00342371E-06 -4.05746729E-05
  0.00000000E+00  1.92578206E-04  1.32902339E-04  0.00000000E+00 -4.65692887E-05
  4.81942203E-05  0.00000000E+00 -1.46916936E-06  0.00000000E+00  0.00000000E+00
 -8.45628570E-06 -1.17271386E-05  2.10431043E-05  0.00000000E+00  0.00000000E+00
  5.19830107E-05  1.08227425E-04  6.16674235E-05  0.00000000E+00  0.00000000E+00
 -3.31857506E-05 -8.09841401E-05  0.00000000E+00  7.91457928E-06  1.00919349E-05
  0.00000000E+00  0.00000000E+00 -1.20428162E-06 -2.48893644E-05  0.00000000E+00
 -1.40982741E-05 -3.56443709E-05  0.00000000E+00  0.00000000E+00 -3.27675156E-06
 -1.86009950E-05  7.05549866E-04  2.34756498E-05 -1.97476452E-05  2.78609406E-04
 -4.16878985E-04  1.59593428E-05  2.75104767E-05  0.00000000E+00 -6.33051122E-05
 -1.53855123E-04  0.00000000E+00  1.79062750E-04 -2.07483685E-04  0.00000000E+00
 -1.53589412E-04  1.46010725E-04  0.00000000E+00 -4.10532507E-06  0.00000000E+00
  0.00000000E+00 -2.84173594E-05 -1.00613482E-05 -5.04765410E-05  0.00000000E+00
  0.00000000E+00  7.22360169E-05  1.21649462E-04 -6.16713711E-05  0.00000000E+00
  0.00000000E+00  3.10361788E-05  2.14570225E-05  0.00000000E+00  2.88516614E-06
  3.51811330E-06  0.00000000E+00  0.00000000E+00 -7.96181271E-06 -1.57630616E-06
  0.00000000E+00  3.07957702E-06 -2.54264870E-05  0.00000000E+00  0.00000000E+00
  9.91164083E-05 -1.50130518E-04  2.35634232E-04  1.34601599E-03 -1.63390928E-04
 -5.95400093E-04  9.43738537E-04  5.99959573E-05 -6.19632309E-05  0.00000000E+00
  5.70520545E-04 -2.08680275E-03  0.00000000E+00  1.32401762E-04  4.79417776E-04
  0.00000000E+00  1.91225808E-04 -3.11145009E-04  0.00000000E+00 -1.27884223E-04
  0.00000000E+00  0.00000000E+00 -2.03130221E-04 -1.58387734E-04 -4.71556386E-04
  0.00000000E+00  0.00000000E+00 -6.27321863E-04 -9.25336340E-04 -5.03146269E-05
  0.00000000E+00  0.00000000E+00  4.61304511E-05  1.14765104E-04  0.00000000E+00
  6.61776032E-06  4.26853266E-05  0.00000000E+00  0.00000000E+00 -3.19241335E-05
  5.63063781E-07  0.00000000E+00 -1.36644900E-04  1.58497470E-04  0.00000000E+00
  0.00000000E+00 -3.25741291E-04 -3.51349535E-05  9.76652935E-01 -9.88760020E-03
  4.35647431E-02  3.63014075E-03 -9.22124370E-04 -4.45431104E-04  2.12795618E-03
  0.00000000E+00  5.16420332E-04 -2.51799215E-03  0.00000000E+00 -6.00417432E-05
  8.02311011E-04  0.00000000E+00  1.06982576E-04 -6.78274610E-05  0.00000000E+00
 -1.90887898E-04  0.00000000E+00  0.00000000E+00 -7.10276413E-05 -4.09001191E-05
  4.10705410E-04  0.00000000E+00  0.00000000E+00  8.63284097E-04  4.87958656E-04
 -2.08951863E-04  0.00000000E+00  0.00000000E+00 -1.42838472E-04 -3.61668693E-05
  0.00000000E+00 -5.50100184E-06  7.22836759E-05  0.00000000E+00  0.00000000E+00
 -3.12537856E-05  1.16561493E-05  0.00000000E+00 -8.85658978E-05  8.88651137E-05
  0.00000000E+00  0.00000000E+00 -1.65813906E-04  2.04715887E-04  3.74916274E-04
  1.99221208E-03  1.37116854E-03 -1.81913688E-05  5.07762808E-05  2.68118348E-04
  0.00000000E+00  3.82973967E-04  1.02671570E-03  0.00000000E+00 -1.26051269E-04
  2.35132947E-04  0.00000000E+00 -2.35641399E-05  0.00000000E+00  0.00000000E+00
  3.27134786E-05 -2.88947997E-05 -2.16778915E-04  0.00000000E+00  0.00000000E+00
 -3.48672760E-04  4.06790184E-04  9.76834534E-01 -9.18727841E-03  4.34653932E-02
  1.34545594E-04 -1.90309858E-03 -2.04473503E-03 -8.33227803E-04  0.00000000E+00
  2.08246973E-03  7.69208494E-04  0.00000000E+00 -4.00854970E-04  6.46146269E-04
  0.00000000E+00  2.23323894E-04 -2.98985181E-04  0.00000000E+00  3.07443705E-05
  0.00000000E+00  0.00000000E+00 -7.46064113E-05  6.34080123E-05  7.65945831E-04
  0.00000000E+00  0.00000000E+00 -2.09496397E-04  3.54161048E-04 -2.37925658E-04
  0.00000000E+00  0.00000000E+00  3.34466400E-04  1.07062546E-06  0.00000000E+00
 -8.06144044E-05  1.78804050E-06  0.00000000E+00  0.00000000E+00  1.59530114E-05