 Entering Gaussian System, Link 0=g16
 Input=hoono_r1_0p979971.gjf
 Output=hoono_r1_0p979971.log
 Initial command:
 /sw/contrib/gaussian/g16/B01/g16/l1.exe "/scr/Gau-58674.inp" -scrdir="/scr/"
 Entering Link 1 = /sw/contrib/gaussian/g16/B01/g16/l1.exe PID=     58675.
  
 Copyright (c) 1988-2017, Gaussian, Inc.  All Rights Reserved.
  
 This is part of the Gaussian(R) 16 program.  It is based on
 the Gaussian(R) 09 system (copyright 2009, Gaussian, Inc.),
 the Gaussian(R) 03 system (copyright 2003, Gaussian, Inc.),
 the Gaussian(R) 98 system (copyright 1998, Gaussian, Inc.),
 the Gaussian(R) 94 system (copyright 1995, Gaussian, Inc.),
 the Gaussian 92(TM) system (copyright 1992, Gaussian, Inc.),
 the Gaussian 90(TM) system (copyright 1990, Gaussian, Inc.),
 the Gaussian 88(TM) system (copyright 1988, Gaussian, Inc.),
 the Gaussian 86(TM) system (copyright 1986, Carnegie Mellon
 University), and the Gaussian 82(TM) system (copyright 1983,
 Carnegie Mellon University). Gaussian is a federally registered
 trademark of Gaussian, Inc.
  
 This software contains proprietary and confidential information,
 including trade secrets, belonging to Gaussian, Inc.
  
 This software is provided under written license and may be
 used, copied, transmitted, or stored only in accord with that
 written license.
  
 The following legend is applicable only to US Government
 contracts under FAR:
  
                    RESTRICTED RIGHTS LEGEND
  
 Use, reproduction and disclosure by the US Government is
 subject to restrictions as set forth in subparagraphs (a)
 and (c) of the Commercial Computer Software - Restricted
 Rights clause in FAR 52.227-19.
  
 Gaussian, Inc.
 340 Quinnipiac St., Bldg. 40, Wallingford CT 06492
  
  
 ---------------------------------------------------------------
 Warning -- This program may not be used in any manner that
 competes with the business of Gaussian, Inc. or will provide
 assistance to any competitor of Gaussian, Inc.  The licensee
 of this program is prohibited from giving any competitor of
 Gaussian, Inc. access to this program.  By using this program,
 the user acknowledges that Gaussian, Inc. is engaged in the
 business of creating and licensing software in the field of
 computational chemistry and represents and warrants to the
 licensee that it is not a competitor of Gaussian, Inc. and that
 it will not use this program in any manner prohibited above.
 ---------------------------------------------------------------
  

 Cite this work as:
 Gaussian 16, Revision B.01,
 M. J. Frisch, G. W. Trucks, H. B. Schlegel, G. E. Scuseria, 
 M. A. Robb, J. R. Cheeseman, G. Scalmani, V. Barone, 
 G. A. Petersson, H. Nakatsuji, X. Li, M. Caricato, A. V. Marenich, 
 J. Bloino, B. G. Janesko, R. Gomperts, B. Mennucci, H. P. Hratchian, 
 J. V. Ortiz, A. F. Izmaylov, J. L. Sonnenberg, D. Williams-Young, 
 F. Ding, F. Lipparini, F. Egidi, J. Goings, B. Peng, A. Petrone, 
 T. Henderson, D. Ranasinghe, V. G. Zakrzewski, J. Gao, N. Rega, 
 G. Zheng, W. Liang, M. Hada, M. Ehara, K. Toyota, R. Fukuda, 
 J. Hasegawa, M. Ishida, T. Nakajima, Y. Honda, O. Kitao, H. Nakai, 
 T. Vreven, K. Throssell, J. A. Montgomery, Jr., J. E. Peralta, 
 F. Ogliaro, M. J. Bearpark, J. J. Heyd, E. N. Brothers, K. N. Kudin, 
 V. N. Staroverov, T. A. Keith, R. Kobayashi, J. Normand, 
 K. Raghavachari, A. P. Rendell, J. C. Burant, S. S. Iyengar, 
 J. Tomasi, M. Cossi, J. M. Millam, M. Klene, C. Adamo, R. Cammi, 
 J. W. Ochterski, R. L. Martin, K. Morokuma, O. Farkas, 
 J. B. Foresman, and D. J. Fox, Gaussian, Inc., Wallingford CT, 2016.
 
 ******************************************
 Gaussian 16:  ES64L-G16RevB.01 20-Dec-2017
                 6-Mar-2022 
 ******************************************
 %nproc=28
 Will use up to   28 processors via shared memory.
 %mem=120GB
 %chk=hoono_r1_0p979971.chk
 ---------------------------------------
 #p freq mp2/aug-cc-pvtz density=current
 ---------------------------------------
 1/10=4,30=1,38=1/1,3;
 2/12=2,17=6,18=5,40=1/2;
 3/5=16,6=1,7=10,11=9,25=1,30=1,71=2,140=1/1,2,3;
 4//1;
 5/5=2,38=5,98=1/2;
 8/6=3,8=1,10=1,19=11,30=-1/1;
 9/15=3,16=-3/6;
 11/6=1,8=1,15=11,17=12,24=-1,27=1,28=-2,29=300,32=6,42=3/1,2,10;
 10/6=2,21=1/2;
 8/6=4,8=1,10=1,19=11,30=-1/11,4;
 10/5=1,20=4/2;
 11/12=2,14=11,16=1,17=2,28=-2,42=3,76=2/2,10,12;
 6/7=2,8=2,9=2,10=2,22=-1/1;
 7/8=1,10=1,12=2,25=1,44=2/1,2,3,16;
 1/10=4,30=1/3;
 99//99;
 Leave Link    1 at Sun Mar  6 18:47:52 2022, MaxMem= 16106127360 cpu:               3.6 elap:               0.1
 (Enter /sw/contrib/gaussian/g16/B01/g16/l101.exe)
 -----
 title
 -----
 Symbolic Z-matrix:
 Charge =  0 Multiplicity = 1
 H
 O                    1    r1
 O                    2    r2       1    a1
 N                    3    r3       2    a2       1    d1       0
 O                    4    r4       3    a3       2    d2       0
       Variables:
  r1                    0.97997                  
  r2                    1.42674                  
  r3                    1.38111                  
  r4                    1.19479                  
  a1                  100.63551                  
  a2                  113.13777                  
  a3                  114.33392                  
  d1                    0.                       
  d2                    0.                       
 
 ITRead=  0  0  0  0  0
 MicOpt= -1 -1 -1 -1 -1
 NAtoms=      5 NQM=        5 NQMF=       0 NMMI=      0 NMMIF=      0
                NMic=       0 NMicF=      0.
                    Isotopes and Nuclear Properties:
 (Nuclear quadrupole moments (NQMom) in fm**2, nuclear magnetic moments (NMagM)
  in nuclear magnetons)

  Atom         1           2           3           4           5
 IAtWgt=           1          16          16          14          16
 AtmWgt=   1.0078250  15.9949146  15.9949146  14.0030740  15.9949146
 NucSpn=           1           0           0           2           0
 AtZEff=  -0.0000000  -0.0000000  -0.0000000  -0.0000000  -0.0000000
 NQMom=    0.0000000   0.0000000   0.0000000   2.0440000   0.0000000
 NMagM=    2.7928460   0.0000000   0.0000000   0.4037610   0.0000000
 AtZNuc=   1.0000000   8.0000000   8.0000000   7.0000000   8.0000000
 Leave Link  101 at Sun Mar  6 18:47:52 2022, MaxMem= 16106127360 cpu:               3.9 elap:               0.2
 (Enter /sw/contrib/gaussian/g16/B01/g16/l103.exe)

 GradGradGradGradGradGradGradGradGradGradGradGradGradGradGradGradGradGrad
 Berny optimization.
 Initialization pass.
                       ----------------------------
                       !    Initial Parameters    !
                       ! (Angstroms and Degrees)  !
 ----------------------                            ----------------------
 !      Name          Value   Derivative information (Atomic Units)     !
 ------------------------------------------------------------------------
 !       r1          0.98     calculate D2E/DX2 analytically            !
 !       r2          1.4267   calculate D2E/DX2 analytically            !
 !       r3          1.3811   calculate D2E/DX2 analytically            !
 !       r4          1.1948   calculate D2E/DX2 analytically            !
 !       a1        100.6355   calculate D2E/DX2 analytically            !
 !       a2        113.1378   calculate D2E/DX2 analytically            !
 !       a3        114.3339   calculate D2E/DX2 analytically            !
 !       d1          0.0      calculate D2E/DX2 analytically            !
 !       d2          0.0      calculate D2E/DX2 analytically            !
 ------------------------------------------------------------------------
 Trust Radius=3.00D-01 FncErr=1.00D-07 GrdErr=1.00D-07 EigMax=2.50D+02 EigMin=1.00D-04
 Number of steps in this run=      2 maximum allowed number of steps=      2.
 GradGradGradGradGradGradGradGradGradGradGradGradGradGradGradGradGradGrad

 Leave Link  103 at Sun Mar  6 18:47:53 2022, MaxMem= 16106127360 cpu:               0.4 elap:               0.0
 (Enter /sw/contrib/gaussian/g16/B01/g16/l202.exe)
                          Input orientation:                          
 ---------------------------------------------------------------------
 Center     Atomic      Atomic             Coordinates (Angstroms)
 Number     Number       Type             X           Y           Z
 ---------------------------------------------------------------------
      1          1           0        0.000000    0.000000    0.000000
      2          8           0        0.000000    0.000000    0.979971
      3          8           0        1.402227    0.000000    1.243290
      4          7           0        2.169996    0.000000    0.095253
      5          8           0        1.538751    0.000000   -0.919168
 ---------------------------------------------------------------------
                    Distance matrix (angstroms):
                    1          2          3          4          5
     1  H    0.000000
     2  O    0.979971   0.000000
     3  O    1.874036   1.426737   0.000000
     4  N    2.172085   2.343418   1.381108   0.000000
     5  O    1.792380   2.444276   2.166763   1.194788   0.000000
 Stoichiometry    HNO3
 Framework group  CS[SG(HNO3)]
 Deg. of freedom     7
 Full point group                 CS      NOp   2
 Largest Abelian subgroup         CS      NOp   2
 Largest concise Abelian subgroup C1      NOp   1
                         Standard orientation:                         
 ---------------------------------------------------------------------
 Center     Atomic      Atomic             Coordinates (Angstroms)
 Number     Number       Type             X           Y           Z
 ---------------------------------------------------------------------
      1          1           0        1.110268   -0.592918    0.000000
      2          8           0        1.315808    0.365256    0.000000
      3          8           0       -0.000000    0.916823    0.000000
      4          7           0       -0.991482   -0.044645    0.000000
      5          8           0       -0.587045   -1.168900    0.000000
 ---------------------------------------------------------------------
 Rotational constants (GHZ):          21.3582827           8.1066724           5.8762893
 Leave Link  202 at Sun Mar  6 18:47:53 2022, MaxMem= 16106127360 cpu:               3.0 elap:               0.2
 (Enter /sw/contrib/gaussian/g16/B01/g16/l301.exe)
 Standard basis: Aug-CC-pVTZ (5D, 7F)
 Ernie: Thresh=  0.10000D-02 Tol=  0.10000D-05 Strict=F.
 Ernie:  12 primitive shells out of 131 were deleted.
 There are   166 symmetry adapted cartesian basis functions of A'  symmetry.
 There are    79 symmetry adapted cartesian basis functions of A"  symmetry.
 There are   136 symmetry adapted basis functions of A'  symmetry.
 There are    71 symmetry adapted basis functions of A"  symmetry.
   207 basis functions,   315 primitive gaussians,   245 cartesian basis functions
    16 alpha electrons       16 beta electrons
       nuclear repulsion energy       122.7748826696 Hartrees.
 IExCor=    0 DFT=F Ex=HF Corr=None ExCW=0 ScaHFX=  1.000000
 ScaDFX=  1.000000  1.000000  1.000000  1.000000 ScalE2=  1.000000  1.000000
 IRadAn=      5 IRanWt=     -1 IRanGd=            0 ICorTp=0 IEmpDi=  4
 NAtoms=    5 NActive=    5 NUniq=    5 SFac= 1.00D+00 NAtFMM=   60 NAOKFM=F Big=F
 Integral buffers will be    131072 words long.
 Raffenetti 1 integral format.
 Two-electron integral symmetry is turned on.
 Leave Link  301 at Sun Mar  6 18:47:53 2022, MaxMem= 16106127360 cpu:               2.4 elap:               0.1
 (Enter /sw/contrib/gaussian/g16/B01/g16/l302.exe)
 NPDir=0 NMtPBC=     1 NCelOv=     1 NCel=       1 NClECP=     1 NCelD=      1
         NCelK=      1 NCelE2=     1 NClLst=     1 CellRange=     0.0.
 One-electron integrals computed using PRISM.
 One-electron integral symmetry used in STVInt
 NBasis=   207 RedAO= T EigKep=  1.31D-04  NBF=   136    71
 NBsUse=   207 1.00D-06 EigRej= -1.00D+00 NBFU=   136    71
 Leave Link  302 at Sun Mar  6 18:47:53 2022, MaxMem= 16106127360 cpu:               5.6 elap:               0.2
 (Enter /sw/contrib/gaussian/g16/B01/g16/l303.exe)
 DipDrv:  MaxL=1.
 Leave Link  303 at Sun Mar  6 18:47:53 2022, MaxMem= 16106127360 cpu:               1.3 elap:               0.1
 (Enter /sw/contrib/gaussian/g16/B01/g16/l401.exe)
 ExpMin= 2.53D-02 ExpMax= 1.53D+04 ExpMxC= 5.22D+02 IAcc=3 IRadAn=         5 AccDes= 0.00D+00
 Harris functional with IExCor=  205 and IRadAn=       5 diagonalized for initial guess.
 HarFok:  IExCor=  205 AccDes= 0.00D+00 IRadAn=         5 IDoV= 1 UseB2=F ITyADJ=14
 ICtDFT=  3500011 ScaDFX=  1.000000  1.000000  1.000000  1.000000
 FoFCou: FMM=F IPFlag=           0 FMFlag=      100000 FMFlg1=           0
         NFxFlg=           0 DoJE=T BraDBF=F KetDBF=T FulRan=T
         wScrn=  0.000000 ICntrl=       500 IOpCl=  0 I1Cent=   200000004 NGrid=           0
         NMat0=    1 NMatS0=      1 NMatT0=    0 NMatD0=    1 NMtDS0=    0 NMtDT0=    0
 Petite list used in FoFCou.
 Harris En= -279.644995894744    
 JPrj=0 DoOrth=F DoCkMO=F.
 Initial guess orbital symmetries:
       Occupied  (A') (A') (A') (A') (A') (A') (A') (A') (A') (A')
                 (A") (A') (A") (A') (A") (A')
       Virtual   (A") (A') (A') (A') (A') (A") (A') (A') (A') (A')
                 (A") (A') (A") (A') (A') (A") (A') (A') (A") (A')
                 (A') (A') (A') (A') (A") (A') (A') (A') (A") (A')
                 (A') (A") (A") (A') (A') (A") (A') (A") (A') (A")
                 (A') (A") (A') (A") (A') (A') (A') (A") (A') (A')
                 (A') (A") (A') (A") (A') (A") (A') (A') (A') (A")
                 (A') (A') (A") (A') (A') (A') (A") (A") (A') (A')
                 (A") (A') (A") (A") (A') (A') (A") (A') (A') (A')
                 (A") (A') (A') (A") (A') (A") (A') (A") (A') (A')
                 (A') (A") (A') (A") (A') (A') (A") (A') (A") (A')
                 (A") (A') (A') (A") (A") (A') (A') (A') (A") (A')
                 (A") (A') (A') (A') (A") (A') (A') (A') (A") (A')
                 (A") (A') (A') (A") (A") (A") (A") (A') (A') (A')
                 (A') (A') (A') (A") (A') (A") (A') (A") (A') (A')
                 (A") (A") (A') (A') (A') (A") (A') (A') (A') (A")
                 (A') (A') (A') (A") (A') (A") (A") (A') (A') (A")
                 (A') (A") (A") (A') (A") (A') (A') (A") (A") (A')
                 (A") (A") (A") (A') (A") (A') (A') (A') (A') (A")
                 (A') (A') (A') (A') (A') (A') (A') (A') (A') (A')
                 (A')
 The electronic state of the initial guess is 1-A'.
 Leave Link  401 at Sun Mar  6 18:47:53 2022, MaxMem= 16106127360 cpu:               5.9 elap:               0.3
 (Enter /sw/contrib/gaussian/g16/B01/g16/l502.exe)
 Keep R1 ints in memory in symmetry-blocked form, NReq=348887737.
 FoFCou: FMM=F IPFlag=           0 FMFlag=           0 FMFlg1=           0
         NFxFlg=           0 DoJE=F BraDBF=F KetDBF=F FulRan=T
         wScrn=  0.000000 ICntrl=       600 IOpCl=  0 I1Cent=           0 NGrid=           0
         NMat0=    1 NMatS0=  21528 NMatT0=    0 NMatD0=    1 NMtDS0=    0 NMtDT0=    0
 Petite list used in FoFCou.
 Closed shell SCF:
 Using DIIS extrapolation, IDIIS=  1040.
 NGot= 16106127360 LenX= 15988850015 LenY= 15988789549
 Requested convergence on RMS density matrix=1.00D-08 within 128 cycles.
 Requested convergence on MAX density matrix=1.00D-06.
 Requested convergence on             energy=1.00D-06.
 No special actions if energy rises.

 Cycle   1  Pass 1  IDiag  1:
 E= -279.364093344563    
 DIIS: error= 2.77D-02 at cycle   1 NSaved=   1.
 NSaved= 1 IEnMin= 1 EnMin= -279.364093344563     IErMin= 1 ErrMin= 2.77D-02
 ErrMax= 2.77D-02  0.00D+00 EMaxC= 1.00D-01 BMatC= 4.51D-01 BMatP= 4.51D-01
 IDIUse=3 WtCom= 7.23D-01 WtEn= 2.77D-01
 Coeff-Com:  0.100D+01
 Coeff-En:   0.100D+01
 Coeff:      0.100D+01
 Gap=     0.498 Goal=   None    Shift=    0.000
 GapD=    0.498 DampG=2.000 DampE=0.500 DampFc=1.0000 IDamp=-1.
 RMSDP=1.68D-03 MaxDP=8.78D-02              OVMax= 1.23D-01

 Cycle   2  Pass 1  IDiag  1:
 E= -279.446139778748     Delta-E=       -0.082046434184 Rises=F Damp=F
 DIIS: error= 1.95D-02 at cycle   2 NSaved=   2.
 NSaved= 2 IEnMin= 2 EnMin= -279.446139778748     IErMin= 2 ErrMin= 1.95D-02
 ErrMax= 1.95D-02  0.00D+00 EMaxC= 1.00D-01 BMatC= 8.66D-02 BMatP= 4.51D-01
 IDIUse=3 WtCom= 8.05D-01 WtEn= 1.95D-01
 Coeff-Com:  0.220D+00 0.780D+00
 Coeff-En:   0.805D-01 0.920D+00
 Coeff:      0.192D+00 0.808D+00
 Gap=     0.562 Goal=   None    Shift=    0.000
 RMSDP=9.69D-04 MaxDP=3.69D-02 DE=-8.20D-02 OVMax= 9.15D-02

 Cycle   3  Pass 1  IDiag  1:
 E= -279.484332375306     Delta-E=       -0.038192596558 Rises=F Damp=F
 DIIS: error= 1.11D-02 at cycle   3 NSaved=   3.
 NSaved= 3 IEnMin= 3 EnMin= -279.484332375306     IErMin= 3 ErrMin= 1.11D-02
 ErrMax= 1.11D-02  0.00D+00 EMaxC= 1.00D-01 BMatC= 3.09D-02 BMatP= 8.66D-02
 IDIUse=3 WtCom= 8.89D-01 WtEn= 1.11D-01
 Coeff-Com: -0.347D-01 0.363D+00 0.671D+00
 Coeff-En:   0.000D+00 0.216D+00 0.784D+00
 Coeff:     -0.308D-01 0.347D+00 0.684D+00
 Gap=     0.542 Goal=   None    Shift=    0.000
 RMSDP=4.10D-04 MaxDP=1.58D-02 DE=-3.82D-02 OVMax= 3.91D-02

 Cycle   4  Pass 1  IDiag  1:
 E= -279.505456874529     Delta-E=       -0.021124499223 Rises=F Damp=F
 DIIS: error= 1.63D-03 at cycle   4 NSaved=   4.
 NSaved= 4 IEnMin= 4 EnMin= -279.505456874529     IErMin= 4 ErrMin= 1.63D-03
 ErrMax= 1.63D-03  0.00D+00 EMaxC= 1.00D-01 BMatC= 6.03D-04 BMatP= 3.09D-02
 IDIUse=3 WtCom= 9.84D-01 WtEn= 1.63D-02
 Coeff-Com: -0.120D-01 0.471D-01 0.155D+00 0.810D+00
 Coeff-En:   0.000D+00 0.000D+00 0.000D+00 0.100D+01
 Coeff:     -0.118D-01 0.463D-01 0.152D+00 0.813D+00
 Gap=     0.528 Goal=   None    Shift=    0.000
 RMSDP=9.88D-05 MaxDP=2.30D-03 DE=-2.11D-02 OVMax= 1.18D-02

 Cycle   5  Pass 1  IDiag  1:
 E= -279.506268732644     Delta-E=       -0.000811858115 Rises=F Damp=F
 DIIS: error= 1.10D-03 at cycle   5 NSaved=   5.
 NSaved= 5 IEnMin= 5 EnMin= -279.506268732644     IErMin= 5 ErrMin= 1.10D-03
 ErrMax= 1.10D-03  0.00D+00 EMaxC= 1.00D-01 BMatC= 1.02D-04 BMatP= 6.03D-04
 IDIUse=3 WtCom= 9.89D-01 WtEn= 1.10D-02
 Coeff-Com:  0.539D-02-0.657D-01-0.111D+00 0.579D-01 0.111D+01
 Coeff-En:   0.000D+00 0.000D+00 0.000D+00 0.000D+00 0.100D+01
 Coeff:      0.533D-02-0.650D-01-0.110D+00 0.572D-01 0.111D+01
 Gap=     0.532 Goal=   None    Shift=    0.000
 RMSDP=7.98D-05 MaxDP=2.11D-03 DE=-8.12D-04 OVMax= 1.29D-02

 Cycle   6  Pass 1  IDiag  1:
 E= -279.506630740121     Delta-E=       -0.000362007477 Rises=F Damp=F
 DIIS: error= 3.30D-04 at cycle   6 NSaved=   6.
 NSaved= 6 IEnMin= 6 EnMin= -279.506630740121     IErMin= 6 ErrMin= 3.30D-04
 ErrMax= 3.30D-04  0.00D+00 EMaxC= 1.00D-01 BMatC= 2.39D-05 BMatP= 1.02D-04
 IDIUse=3 WtCom= 9.97D-01 WtEn= 3.30D-03
 Coeff-Com:  0.187D-02-0.696D-02-0.177D-01-0.182D+00 0.107D-01 0.119D+01
 Coeff-En:   0.000D+00 0.000D+00 0.000D+00 0.000D+00 0.000D+00 0.100D+01
 Coeff:      0.187D-02-0.694D-02-0.176D-01-0.181D+00 0.107D-01 0.119D+01
 Gap=     0.532 Goal=   None    Shift=    0.000
 RMSDP=4.65D-05 MaxDP=1.07D-03 DE=-3.62D-04 OVMax= 6.08D-03

 Cycle   7  Pass 1  IDiag  1:
 E= -279.506716182442     Delta-E=       -0.000085442321 Rises=F Damp=F
 DIIS: error= 1.30D-04 at cycle   7 NSaved=   7.
 NSaved= 7 IEnMin= 7 EnMin= -279.506716182442     IErMin= 7 ErrMin= 1.30D-04
 ErrMax= 1.30D-04  0.00D+00 EMaxC= 1.00D-01 BMatC= 3.56D-06 BMatP= 2.39D-05
 IDIUse=3 WtCom= 9.99D-01 WtEn= 1.30D-03
 Coeff-Com: -0.108D-02 0.113D-01 0.249D-01 0.161D-01-0.181D+00-0.148D+00
 Coeff-Com:  0.128D+01
 Coeff-En:   0.000D+00 0.000D+00 0.000D+00 0.000D+00 0.000D+00 0.000D+00
 Coeff-En:   0.100D+01
 Coeff:     -0.108D-02 0.113D-01 0.249D-01 0.161D-01-0.181D+00-0.147D+00
 Coeff:      0.128D+01
 Gap=     0.533 Goal=   None    Shift=    0.000
 RMSDP=1.74D-05 MaxDP=5.09D-04 DE=-8.54D-05 OVMax= 2.32D-03

 Cycle   8  Pass 1  IDiag  1:
 E= -279.506728092433     Delta-E=       -0.000011909990 Rises=F Damp=F
 DIIS: error= 4.73D-05 at cycle   8 NSaved=   8.
 NSaved= 8 IEnMin= 8 EnMin= -279.506728092433     IErMin= 8 ErrMin= 4.73D-05
 ErrMax= 4.73D-05  0.00D+00 EMaxC= 1.00D-01 BMatC= 6.00D-07 BMatP= 3.56D-06
 IDIUse=1 WtCom= 1.00D+00 WtEn= 0.00D+00
 Coeff-Com: -0.559D-03 0.408D-02 0.972D-02 0.249D-01-0.570D-01-0.193D+00
 Coeff-Com:  0.355D+00 0.857D+00
 Coeff:     -0.559D-03 0.408D-02 0.972D-02 0.249D-01-0.570D-01-0.193D+00
 Coeff:      0.355D+00 0.857D+00
 Gap=     0.533 Goal=   None    Shift=    0.000
 RMSDP=5.45D-06 MaxDP=1.54D-04 DE=-1.19D-05 OVMax= 6.49D-04

 Cycle   9  Pass 1  IDiag  1:
 E= -279.506729469259     Delta-E=       -0.000001376827 Rises=F Damp=F
 DIIS: error= 2.45D-05 at cycle   9 NSaved=   9.
 NSaved= 9 IEnMin= 9 EnMin= -279.506729469259     IErMin= 9 ErrMin= 2.45D-05
 ErrMax= 2.45D-05  0.00D+00 EMaxC= 1.00D-01 BMatC= 1.15D-07 BMatP= 6.00D-07
 IDIUse=1 WtCom= 1.00D+00 WtEn= 0.00D+00
 Coeff-Com:  0.239D-03-0.253D-02-0.529D-02-0.560D-02 0.467D-01 0.488D-01
 Coeff-Com: -0.338D+00 0.286D-01 0.123D+01
 Coeff:      0.239D-03-0.253D-02-0.529D-02-0.560D-02 0.467D-01 0.488D-01
 Coeff:     -0.338D+00 0.286D-01 0.123D+01
 Gap=     0.533 Goal=   None    Shift=    0.000
 RMSDP=2.45D-06 MaxDP=6.61D-05 DE=-1.38D-06 OVMax= 2.57D-04

 Cycle  10  Pass 1  IDiag  1:
 E= -279.506729730127     Delta-E=       -0.000000260867 Rises=F Damp=F
 DIIS: error= 5.71D-06 at cycle  10 NSaved=  10.
 NSaved=10 IEnMin=10 EnMin= -279.506729730127     IErMin=10 ErrMin= 5.71D-06
 ErrMax= 5.71D-06  0.00D+00 EMaxC= 1.00D-01 BMatC= 8.19D-09 BMatP= 1.15D-07
 IDIUse=1 WtCom= 1.00D+00 WtEn= 0.00D+00
 Coeff-Com: -0.380D-04 0.489D-03 0.119D-02-0.183D-02-0.109D-01 0.529D-02
 Coeff-Com:  0.724D-01-0.523D-01-0.438D+00 0.142D+01
 Coeff:     -0.380D-04 0.489D-03 0.119D-02-0.183D-02-0.109D-01 0.529D-02
 Coeff:      0.724D-01-0.523D-01-0.438D+00 0.142D+01
 Gap=     0.533 Goal=   None    Shift=    0.000
 RMSDP=7.01D-07 MaxDP=2.54D-05 DE=-2.61D-07 OVMax= 7.52D-05

 Cycle  11  Pass 1  IDiag  1:
 E= -279.506729754780     Delta-E=       -0.000000024653 Rises=F Damp=F
 DIIS: error= 2.21D-06 at cycle  11 NSaved=  11.
 NSaved=11 IEnMin=11 EnMin= -279.506729754780     IErMin=11 ErrMin= 2.21D-06
 ErrMax= 2.21D-06  0.00D+00 EMaxC= 1.00D-01 BMatC= 8.28D-10 BMatP= 8.19D-09
 IDIUse=1 WtCom= 1.00D+00 WtEn= 0.00D+00
 Coeff-Com: -0.160D-04 0.161D-03 0.336D-03 0.892D-03-0.209D-02-0.718D-02
 Coeff-Com:  0.184D-01 0.195D-01-0.470D-01-0.330D+00 0.135D+01
 Coeff:     -0.160D-04 0.161D-03 0.336D-03 0.892D-03-0.209D-02-0.718D-02
 Coeff:      0.184D-01 0.195D-01-0.470D-01-0.330D+00 0.135D+01
 Gap=     0.533 Goal=   None    Shift=    0.000
 RMSDP=2.42D-07 MaxDP=8.99D-06 DE=-2.47D-08 OVMax= 2.84D-05

 Cycle  12  Pass 1  IDiag  1:
 E= -279.506729757750     Delta-E=       -0.000000002970 Rises=F Damp=F
 DIIS: error= 7.15D-07 at cycle  12 NSaved=  12.
 NSaved=12 IEnMin=12 EnMin= -279.506729757750     IErMin=12 ErrMin= 7.15D-07
 ErrMax= 7.15D-07  0.00D+00 EMaxC= 1.00D-01 BMatC= 8.64D-11 BMatP= 8.28D-10
 IDIUse=1 WtCom= 1.00D+00 WtEn= 0.00D+00
 Coeff-Com:  0.257D-05-0.447D-04-0.971D-04 0.131D-03 0.113D-02-0.752D-03
 Coeff-Com: -0.726D-02 0.634D-02 0.411D-01-0.114D+00-0.178D+00 0.125D+01
 Coeff:      0.257D-05-0.447D-04-0.971D-04 0.131D-03 0.113D-02-0.752D-03
 Coeff:     -0.726D-02 0.634D-02 0.411D-01-0.114D+00-0.178D+00 0.125D+01
 Gap=     0.533 Goal=   None    Shift=    0.000
 RMSDP=8.40D-08 MaxDP=2.75D-06 DE=-2.97D-09 OVMax= 9.77D-06

 Cycle  13  Pass 1  IDiag  1:
 E= -279.506729758050     Delta-E=       -0.000000000300 Rises=F Damp=F
 DIIS: error= 1.59D-07 at cycle  13 NSaved=  13.
 NSaved=13 IEnMin=13 EnMin= -279.506729758050     IErMin=13 ErrMin= 1.59D-07
 ErrMax= 1.59D-07  0.00D+00 EMaxC= 1.00D-01 BMatC= 7.20D-12 BMatP= 8.64D-11
 IDIUse=1 WtCom= 1.00D+00 WtEn= 0.00D+00
 Coeff-Com:  0.129D-05-0.121D-04-0.177D-04-0.120D-03 0.472D-04 0.926D-03
 Coeff-Com: -0.106D-02-0.249D-02-0.200D-02 0.546D-01-0.129D+00-0.148D+00
 Coeff-Com:  0.123D+01
 Coeff:      0.129D-05-0.121D-04-0.177D-04-0.120D-03 0.472D-04 0.926D-03
 Coeff:     -0.106D-02-0.249D-02-0.200D-02 0.546D-01-0.129D+00-0.148D+00
 Coeff:      0.123D+01
 Gap=     0.533 Goal=   None    Shift=    0.000
 RMSDP=2.22D-08 MaxDP=6.60D-07 DE=-3.00D-10 OVMax= 2.01D-06

 Cycle  14  Pass 1  IDiag  1:
 E= -279.506729758072     Delta-E=       -0.000000000021 Rises=F Damp=F
 DIIS: error= 4.07D-08 at cycle  14 NSaved=  14.
 NSaved=14 IEnMin=14 EnMin= -279.506729758072     IErMin=14 ErrMin= 4.07D-08
 ErrMax= 4.07D-08  0.00D+00 EMaxC= 1.00D-01 BMatC= 4.83D-13 BMatP= 7.20D-12
 IDIUse=1 WtCom= 1.00D+00 WtEn= 0.00D+00
 Coeff-Com: -0.296D-06 0.440D-05 0.885D-05-0.406D-05-0.112D-03 0.621D-04
 Coeff-Com:  0.637D-03-0.313D-03-0.359D-02 0.815D-02 0.163D-01-0.893D-01
 Coeff-Com: -0.210D-01 0.109D+01
 Coeff:     -0.296D-06 0.440D-05 0.885D-05-0.406D-05-0.112D-03 0.621D-04
 Coeff:      0.637D-03-0.313D-03-0.359D-02 0.815D-02 0.163D-01-0.893D-01
 Coeff:     -0.210D-01 0.109D+01
 Gap=     0.533 Goal=   None    Shift=    0.000
 RMSDP=4.35D-09 MaxDP=1.08D-07 DE=-2.15D-11 OVMax= 4.53D-07

 SCF Done:  E(RHF) =  -279.506729758     A.U. after   14 cycles
            NFock= 14  Conv=0.43D-08     -V/T= 2.0022
 KE= 2.788946010947D+02 PE=-9.064196662585D+02 EE= 2.252434527362D+02
 Leave Link  502 at Sun Mar  6 18:47:57 2022, MaxMem= 16106127360 cpu:              51.6 elap:               3.3
 (Enter /sw/contrib/gaussian/g16/B01/g16/l801.exe)
 ExpMin= 2.53D-02 ExpMax= 1.53D+04 ExpMxC= 5.22D+02 IAcc=3 IRadAn=         5 AccDes= 0.00D+00
 HarFok:  IExCor=  205 AccDes= 0.00D+00 IRadAn=         5 IDoV=-2 UseB2=F ITyADJ=14
 ICtDFT= 12500011 ScaDFX=  1.000000  1.000000  1.000000  1.000000
 Largest valence mixing into a core orbital is  2.07D-04
 Largest core mixing into a valence orbital is  3.10D-05
 Range of M.O.s used for correlation:     5   207
 NBasis=   207 NAE=    16 NBE=    16 NFC=     4 NFV=     0
 NROrb=    203 NOA=    12 NOB=    12 NVA=   191 NVB=   191

 **** Warning!!: The largest alpha MO coefficient is  0.16297465D+02

 Leave Link  801 at Sun Mar  6 18:47:57 2022, MaxMem= 16106127360 cpu:               3.0 elap:               0.1
 (Enter /sw/contrib/gaussian/g16/B01/g16/l906.exe)
 Frozen-core derivative calculation, NFC=   4 NFV=   0.
 FulOut=F Deriv=T AODrv=T NAtomX=     5
   MMem=           0  MDisk=          12 MDiskD=          12
  W3Min=      811440 MinDsk=     2425030 NBas6D=         245
 NBas2D=       30762    NTT=       30135    LW2=     7400000
    MDV= 16105571560 MDiskM=      328644 NBas2p=       30759
 Disk-based method using ON**2 memory for 12 occupieds at a time.
 Permanent disk used for amplitudes=    11516536 words.
 Estimated scratch disk usage=   321863743 words.
 IMap=   1   2   3   4   5   6   7   8   9  10  11  12  13  14  15  16
 Actual    scratch disk usage=   310892607 words.
 JobTyp=1 Pass  1:  I=   5 to  16 NPSUse= 28 ParTrn=T ParDer=T DoDerP=T.
 (rs|ai) integrals will be sorted in core.
 Spin components of T(2) and E(2):
     alpha-alpha T2 =       0.3476229105D-01 E2=     -0.1244971219D+00
     alpha-beta  T2 =       0.1843397012D+00 E2=     -0.6994928725D+00
     beta-beta   T2 =       0.3476229105D-01 E2=     -0.1244971219D+00
 The integrals were generated   1 times.
 ANorm=    0.1119760815D+01
 E2 =    -0.9484871162D+00 EUMP2 =    -0.28045521687427D+03
 Leave Link  906 at Sun Mar  6 18:49:32 2022, MaxMem= 16106127360 cpu:            2651.4 elap:              94.9
 (Enter /sw/contrib/gaussian/g16/B01/g16/l1101.exe)
 Using compressed Sx but separate Hx and Fx, NAtomX=     5.
 Will process      6 centers per pass.
 Leave Link 1101 at Sun Mar  6 18:49:32 2022, MaxMem= 16106127360 cpu:               4.9 elap:               0.2
 (Enter /sw/contrib/gaussian/g16/B01/g16/l1102.exe)
 Leave Link 1102 at Sun Mar  6 18:49:32 2022, MaxMem= 16106127360 cpu:               1.1 elap:               0.1
 (Enter /sw/contrib/gaussian/g16/B01/g16/l1110.exe)
 Forming Gx(P) for the SCF density, NAtomX=     5.
 Integral derivatives from FoFJK, PRISM(SPDF).
 Do as many integral derivatives as possible in FoFJK.
 G2DrvN: MDV=   16106126844.
 G2DrvN: will do     6 centers at a time, making    1 passes.
 Calling FoFCou, ICntrl=  3107 FMM=F I1Cent=   0 AccDes= 0.00D+00.
 FoFJK:  IHMeth= 1 ICntrl=    3107 DoSepK=F KAlg= 0 I1Cent=           0 FoldK=F
 IRaf=         0 NMat=       1 IRICut=       1 DoRegI=T DoRafI=F ISym2E= 1 IDoP0=0 IntGTp=1.
 FoFCou: FMM=F IPFlag=           0 FMFlag=      100000 FMFlg1=           0
         NFxFlg=           0 DoJE=F BraDBF=F KetDBF=F FulRan=T
         wScrn=  0.000000 ICntrl=      3107 IOpCl=  0 I1Cent=           0 NGrid=           0
         NMat0=    1 NMatS0=      1 NMatT0=    0 NMatD0=    1 NMtDS0=    0 NMtDT0=    0
 Petite list used in FoFCou.
 End of G2Drv F.D. properties file   721 does not exist.
 End of G2Drv F.D. properties file   722 does not exist.
 End of G2Drv F.D. properties file   788 does not exist.
 Leave Link 1110 at Sun Mar  6 18:49:35 2022, MaxMem= 16106127360 cpu:              86.1 elap:               3.1
 (Enter /sw/contrib/gaussian/g16/B01/g16/l1002.exe)
 Minotr:  Closed shell wavefunction.
          IDoAtm=11111
          Frozen-core window.
          Direct CPHF calculation.
          Differentiating once with respect to electric field.
                with respect to dipole field.
          Differentiating once with respect to nuclear coordinates.
          Requested convergence is 1.0D-08 RMS, and 1.0D-07 maximum.
          Secondary convergence is 1.0D-12 RMS, and 1.0D-12 maximum.
          NewPWx=T KeepS1=T KeepF1=T KeepIn=T MapXYZ=F SortEE=F KeepMc=T.
 Keep R1 ints in memory in symmetry-blocked form, NReq=348888983.
 FoFCou: FMM=F IPFlag=           0 FMFlag=           0 FMFlg1=           0
         NFxFlg=           0 DoJE=F BraDBF=F KetDBF=F FulRan=T
         wScrn=  0.000000 ICntrl=       600 IOpCl=  0 I1Cent=           0 NGrid=           0
         NMat0=    1 NMatS0=  21528 NMatT0=    0 NMatD0=    1 NMtDS0=    0 NMtDT0=    0
 Petite list used in FoFCou.
          MDV=   16106127360 using IRadAn=       1.
          Solving linear equations simultaneously, MaxMat=       0.
          There are    18 degrees of freedom in the 1st order CPHF.  IDoFFX=6 NUNeed=    18.
     15 vectors produced by pass  0 Test12= 1.70D-14 5.56D-09 XBig12= 7.90D+00 1.23D+00.
 AX will form    15 AO Fock derivatives at one time.
     15 vectors produced by pass  1 Test12= 1.70D-14 5.56D-09 XBig12= 1.35D+00 2.25D-01.
     15 vectors produced by pass  2 Test12= 1.70D-14 5.56D-09 XBig12= 6.65D-02 5.81D-02.
     15 vectors produced by pass  3 Test12= 1.70D-14 5.56D-09 XBig12= 1.92D-03 1.05D-02.
     15 vectors produced by pass  4 Test12= 1.70D-14 5.56D-09 XBig12= 4.11D-05 1.21D-03.
     15 vectors produced by pass  5 Test12= 1.70D-14 5.56D-09 XBig12= 5.70D-07 1.18D-04.
     15 vectors produced by pass  6 Test12= 1.70D-14 5.56D-09 XBig12= 4.42D-09 1.19D-05.
     14 vectors produced by pass  7 Test12= 1.70D-14 5.56D-09 XBig12= 3.35D-11 7.57D-07.
      3 vectors produced by pass  8 Test12= 1.70D-14 5.56D-09 XBig12= 2.32D-13 6.04D-08.
      1 vectors produced by pass  9 Test12= 1.70D-14 5.56D-09 XBig12= 1.58D-15 6.77D-09.
 InvSVY:  IOpt=1 It=  1 EMax= 1.22D-15
 Solved reduced A of dimension   123 with    15 vectors.
 FullF1:  Do perturbations      1 to      18.
 Saving first derivative matrices.
 End of Minotr F.D. properties file   721 does not exist.
 End of Minotr F.D. properties file   722 does not exist.
 End of Minotr F.D. properties file   788 does not exist.
 Leave Link 1002 at Sun Mar  6 18:49:38 2022, MaxMem= 16106127360 cpu:              73.1 elap:               2.8
 (Enter /sw/contrib/gaussian/g16/B01/g16/l811.exe)
 MDV= 16106127360.
 Form MO integral derivatives with frozen-active canonical formalism.
 MOERI=1 MOERIx=1 NAtoms=     5 NAtomX=     5.
 Discarding MO integrals.
 MO basis two electron integral derivatives will not be stored on disk.
 IAlg= 3 DoFC=T DoPWx=T Debug=F.
 Frozen-core window:  NFC=   4 NFV=   0.
 Reordered first order wavefunction length =     18678272
 In DefCFB: NBatch=  1 ICI= 16 ICA=191 LFMax= 96
            Large arrays: LIAPS=   619940160 LIARS=   288257200 words.
 In StABat: MaxSiz= 55 MinSiz= 25 NAtomB=  5
 DoIAMN: NPSUse= 28.
 Leave Link  811 at Sun Mar  6 18:51:06 2022, MaxMem= 16106127360 cpu:            2445.1 elap:              87.6
 (Enter /sw/contrib/gaussian/g16/B01/g16/l804.exe)
 Frozen-core window:  NFC=   4 NFV=   0.
 Closed-shell transformation, MDV= 16106127360 ITran=4 ISComp=1.
 Semi-Direct transformation.
 ModeAB=           2 MOrb=            16 LenV=   16104919925
 LASXX=     67341636 LTotXX=    67341636 LenRXX=    67341636
 LTotAB=    68301760 MaxLAS=    99807120 LenRXY=    99807120
 NonZer=   134683272 LenScr=   202817536 LnRSAI=           0
 LnScr1=           0 LExtra=           0 Total=    369966292
 MaxDsk=          -1 SrtSym=           F ITran=            4
 DoSDTr:  NPSUse= 28
 JobTyp=0 Pass  1:  I=   1 to  16.
 (rs|ai) integrals will be sorted in core.
 Complete sort for first half transformation.
 First half transformation complete.
 Begin second half transformation for I=  10.
 Begin second half transformation for I=  10.
 Complete sort for second half transformation.
 Second half transformation complete.
 Spin components of T(2) and E(2):
     alpha-alpha T2 =       0.3476229105D-01 E2=     -0.1244971219D+00
     alpha-beta  T2 =       0.1843397012D+00 E2=     -0.6994928725D+00
     beta-beta   T2 =       0.3476229105D-01 E2=     -0.1244971219D+00
 ANorm=    0.1583580931D+01
 E2 =    -0.9484871162D+00 EUMP2 =    -0.28045521687427D+03
 Leave Link  804 at Sun Mar  6 18:51:21 2022, MaxMem= 16106127360 cpu:             419.9 elap:              15.1
 (Enter /sw/contrib/gaussian/g16/B01/g16/l1002.exe)
 Minotr:  Closed shell wavefunction.
          Computing MP2/KS-MP2 derivatives.
          Using Z-Vector for PSCF gradient.
          Skipping F1 and S1 gradient terms here.
          IDoAtm=11111
          Frozen-core window.
          Using MO integrals in the linear equations.
          Forming densities via direct SCF.
          Differentiating once with respect to electric field.
                with respect to dipole field.
          Differentiating once with respect to nuclear coordinates.
          Using symmetry in CPHF.
          Requested convergence is 1.0D-10 RMS, and 1.0D-09 maximum.
          NewPWx=F KeepS1=T KeepF1=T KeepIn=T MapXYZ=F SortEE=F KeepMc=T.
          MDV=   16106127360 using IRadAn=       5.
          Solving linear equations separately, MaxMat=       0.
          There are     1 degrees of freedom in the 1st order CPHF.  IDoFFX=0 NUNeed=     1.
 FoFJK:  IHMeth= 1 ICntrl=       0 DoSepK=F KAlg= 0 I1Cent=           0 FoldK=F
 IRaf=         0 NMat=       1 IRICut=       1 DoRegI=T DoRafI=F ISym2E= 0 IDoP0=0 IntGTp=1.
 FoFCou: FMM=F IPFlag=           0 FMFlag=      100000 FMFlg1=           0
         NFxFlg=           0 DoJE=F BraDBF=F KetDBF=F FulRan=T
         wScrn=  0.000000 ICntrl=         0 IOpCl=  0 I1Cent=           0 NGrid=           0
         NMat0=    1 NMatS0=      1 NMatT0=    0 NMatD0=    1 NMtDS0=    0 NMtDT0=    0
 Symmetry not used in FoFCou.
 LinEq1:  Iter=  0 NonCon=     1 RMS=6.59D-03 Max=1.70D-01 NDo=     1
 LinEq1:  Iter=  1 NonCon=     1 RMS=2.00D-03 Max=3.08D-02 NDo=     1
 LinEq1:  Iter=  2 NonCon=     1 RMS=8.87D-04 Max=1.43D-02 NDo=     1
 LinEq1:  Iter=  3 NonCon=     1 RMS=3.80D-04 Max=8.14D-03 NDo=     1
 LinEq1:  Iter=  4 NonCon=     1 RMS=1.37D-04 Max=1.67D-03 NDo=     1
 LinEq1:  Iter=  5 NonCon=     1 RMS=7.63D-05 Max=1.38D-03 NDo=     1
 LinEq1:  Iter=  6 NonCon=     1 RMS=2.43D-05 Max=3.12D-04 NDo=     1
 LinEq1:  Iter=  7 NonCon=     1 RMS=8.18D-06 Max=1.10D-04 NDo=     1
 LinEq1:  Iter=  8 NonCon=     1 RMS=3.98D-06 Max=6.15D-05 NDo=     1
 LinEq1:  Iter=  9 NonCon=     1 RMS=1.04D-06 Max=1.18D-05 NDo=     1
 LinEq1:  Iter= 10 NonCon=     1 RMS=2.30D-07 Max=2.85D-06 NDo=     1
 LinEq1:  Iter= 11 NonCon=     1 RMS=4.95D-08 Max=7.90D-07 NDo=     1
 LinEq1:  Iter= 12 NonCon=     1 RMS=1.16D-08 Max=1.69D-07 NDo=     1
 LinEq1:  Iter= 13 NonCon=     1 RMS=2.04D-09 Max=2.13D-08 NDo=     1
 LinEq1:  Iter= 14 NonCon=     1 RMS=4.24D-10 Max=5.64D-09 NDo=     1
 LinEq1:  Iter= 15 NonCon=     0 RMS=8.69D-11 Max=9.11D-10 NDo=     1
 Linear equations converged to 1.000D-10 1.000D-09 after    15 iterations.
 End of Minotr F.D. properties file   721 does not exist.
 End of Minotr F.D. properties file   722 does not exist.
 End of Minotr F.D. properties file   788 does not exist.
 Leave Link 1002 at Sun Mar  6 18:51:24 2022, MaxMem= 16106127360 cpu:              72.6 elap:               2.7
 (Enter /sw/contrib/gaussian/g16/B01/g16/l1102.exe)
 Use density number 2.
 Symmetrizing basis deriv contribution to polar:
 IMax=3 JMax=2 DiffMx= 0.00D+00
 Leave Link 1102 at Sun Mar  6 18:51:24 2022, MaxMem= 16106127360 cpu:               0.7 elap:               0.1
 (Enter /sw/contrib/gaussian/g16/B01/g16/l1110.exe)
 Forming Gx(P) for generalized density number  2 NAtomX=     5.
 Integral derivatives from FoFJK, PRISM(SPDF).
 Do as many integral derivatives as possible in FoFJK.
 G2DrvN: MDV=   16106126844.
 G2DrvN: will do     6 centers at a time, making    1 passes.
 Calling FoFCou, ICntrl=  3107 FMM=F I1Cent=   0 AccDes= 0.00D+00.
 FoFJK:  IHMeth= 1 ICntrl=    3107 DoSepK=F KAlg= 0 I1Cent=           0 FoldK=F
 IRaf=         0 NMat=       1 IRICut=       1 DoRegI=T DoRafI=F ISym2E= 1 IDoP0=0 IntGTp=1.
 FoFCou: FMM=F IPFlag=           0 FMFlag=      100000 FMFlg1=           0
         NFxFlg=           0 DoJE=F BraDBF=F KetDBF=F FulRan=T
         wScrn=  0.000000 ICntrl=      3107 IOpCl=  0 I1Cent=           0 NGrid=           0
         NMat0=    1 NMatS0=      1 NMatT0=    0 NMatD0=    1 NMtDS0=    0 NMtDT0=    0
 Petite list used in FoFCou.
 End of G2Drv F.D. properties file   721 does not exist.
 End of G2Drv F.D. properties file   722 does not exist.
 End of G2Drv F.D. properties file   788 does not exist.
 Leave Link 1110 at Sun Mar  6 18:51:27 2022, MaxMem= 16106127360 cpu:              81.3 elap:               2.9
 (Enter /sw/contrib/gaussian/g16/B01/g16/l1112.exe)
 MP22nd: MDV=   16106127360
 This link is doing NAtomX=     5 total of    18 degrees of freedom.
 Using ON3 I/O method in MakUI.
 Frozen-core window:  NFC=   4 NFV=   0.
 Using Ix for Sx.
 Use MO integrals over full window.
 Using OV2 memory method for fx*t*t/D, MaxI=    16 DoOO2=F NP=  28.
 R2 and R3 integrals will be kept in memory, NReq=   915591705.
 FoFCou: FMM=F IPFlag=           0 FMFlag=           0 FMFlg1=           0
         NFxFlg=           0 DoJE=F BraDBF=F KetDBF=F FulRan=T
         wScrn=  0.000000 ICntrl=       600 IOpCl=  0 I1Cent=           0 NGrid=           0
         NMat0=    1 NMatS0=      1 NMatT0=    0 NMatD0=    1 NMtDS0=    0 NMtDT0=    0
 Symmetry not used in FoFCou.
 DD1Dir will call FoFMem   1 times, MxPair=       272
 NAB=   136 NAA=     0 NBB=     0.
 Symmetry is being used.
 FoFJK:  IHMeth= 1 ICntrl=       0 DoSepK=F KAlg= 0 I1Cent=           0 FoldK=F
 IRaf=         0 NMat=      18 IRICut=      45 DoRegI=T DoRafI=T ISym2E= 2 IDoP0=3 IntGTp=3.
 Discarding MO integrals.
 Leave Link 1112 at Sun Mar  6 18:52:05 2022, MaxMem= 16106127360 cpu:            1051.7 elap:              38.1
 (Enter /sw/contrib/gaussian/g16/B01/g16/l601.exe)
 Copying SCF densities to generalized density rwf, IOpCl= 0 IROHF=0.

 **********************************************************************

            Population analysis using the MP2 Density.

 **********************************************************************

 Orbital symmetries:
       Occupied  (A') (A') (A') (A') (A') (A') (A') (A') (A') (A')
                 (A") (A') (A') (A") (A') (A")
       Virtual   (A') (A") (A') (A') (A") (A') (A') (A') (A") (A')
                 (A") (A') (A') (A') (A") (A') (A') (A") (A') (A')
                 (A') (A') (A') (A') (A") (A') (A') (A") (A') (A')
                 (A') (A") (A") (A') (A') (A') (A") (A') (A") (A')
                 (A") (A") (A') (A') (A") (A') (A') (A") (A') (A')
                 (A') (A") (A') (A') (A") (A') (A") (A') (A") (A')
                 (A') (A') (A") (A') (A') (A") (A') (A") (A') (A')
                 (A") (A') (A") (A") (A') (A') (A") (A') (A') (A')
                 (A") (A') (A') (A") (A') (A") (A") (A') (A') (A')
                 (A') (A') (A") (A") (A') (A') (A") (A") (A') (A")
                 (A') (A') (A") (A') (A") (A') (A') (A') (A") (A")
                 (A') (A') (A') (A') (A") (A') (A') (A') (A") (A')
                 (A") (A') (A") (A') (A") (A") (A') (A") (A') (A')
                 (A') (A') (A") (A') (A') (A") (A") (A') (A') (A')
                 (A") (A") (A') (A') (A') (A") (A') (A') (A') (A")
                 (A') (A') (A') (A") (A") (A') (A") (A') (A') (A")
                 (A') (A") (A') (A") (A") (A') (A") (A') (A") (A")
                 (A') (A") (A") (A') (A') (A") (A') (A') (A") (A')
                 (A') (A') (A') (A') (A') (A') (A') (A') (A') (A')
                 (A')
 The electronic state is 1-A'.
 Alpha  occ. eigenvalues --  -20.71989 -20.68720 -20.66810 -15.82603  -1.64439
 Alpha  occ. eigenvalues --   -1.50562  -1.29477  -0.96069  -0.83496  -0.75899
 Alpha  occ. eigenvalues --   -0.74006  -0.63859  -0.61891  -0.61850  -0.50465
 Alpha  occ. eigenvalues --   -0.49774
 Alpha virt. eigenvalues --    0.03511   0.06028   0.09509   0.10040   0.11968
 Alpha virt. eigenvalues --    0.12259   0.14942   0.15208   0.17744   0.18032
 Alpha virt. eigenvalues --    0.18977   0.21108   0.21676   0.24236   0.24634
 Alpha virt. eigenvalues --    0.26902   0.31337   0.31692   0.33797   0.34382
 Alpha virt. eigenvalues --    0.34669   0.39260   0.44980   0.48911   0.50514
 Alpha virt. eigenvalues --    0.51845   0.54534   0.56110   0.59933   0.62061
 Alpha virt. eigenvalues --    0.63878   0.68957   0.71679   0.72438   0.74329
 Alpha virt. eigenvalues --    0.76357   0.76718   0.79579   0.80654   0.84023
 Alpha virt. eigenvalues --    0.84310   0.85157   0.88519   0.90751   0.93023
 Alpha virt. eigenvalues --    0.94795   0.95430   1.01845   1.03244   1.06297
 Alpha virt. eigenvalues --    1.06645   1.09560   1.14448   1.15661   1.16945
 Alpha virt. eigenvalues --    1.22220   1.22725   1.24584   1.35413   1.36202
 Alpha virt. eigenvalues --    1.37170   1.46831   1.48730   1.50472   1.54317
 Alpha virt. eigenvalues --    1.59733   1.59759   1.60562   1.62882   1.69555
 Alpha virt. eigenvalues --    1.74113   1.80131   1.82988   1.88823   1.89647
 Alpha virt. eigenvalues --    1.92863   1.97908   1.99218   2.05222   2.12433
 Alpha virt. eigenvalues --    2.13126   2.16644   2.18814   2.24351   2.25900
 Alpha virt. eigenvalues --    2.29434   2.35206   2.36564   2.38737   2.40249
 Alpha virt. eigenvalues --    2.43345   2.46856   2.47992   2.52931   2.53903
 Alpha virt. eigenvalues --    2.54938   2.55887   2.61617   2.62921   2.67292
 Alpha virt. eigenvalues --    2.67389   2.75461   2.80978   2.81627   2.84085
 Alpha virt. eigenvalues --    2.91882   2.98551   3.04682   3.05100   3.11570
 Alpha virt. eigenvalues --    3.11815   3.17470   3.21300   3.30816   3.33311
 Alpha virt. eigenvalues --    3.36174   3.47883   3.67837   3.86987   3.93605
 Alpha virt. eigenvalues --    4.18881   4.22538   4.22547   4.26840   4.37002
 Alpha virt. eigenvalues --    4.50046   4.53047   4.55648   4.60133   4.69373
 Alpha virt. eigenvalues --    4.81537   4.89907   4.91428   4.94607   5.00037
 Alpha virt. eigenvalues --    5.00583   5.10786   5.13685   5.18690   5.25359
 Alpha virt. eigenvalues --    5.26834   5.32199   5.34682   5.36187   5.54768
 Alpha virt. eigenvalues --    5.64487   5.70604   5.88941   5.99855   6.26497
 Alpha virt. eigenvalues --    6.29416   6.36081   6.37759   6.59894   6.65915
 Alpha virt. eigenvalues --    6.65977   6.69015   6.72631   6.79782   6.80472
 Alpha virt. eigenvalues --    6.85150   6.96793   7.02516   7.06620   7.08430
 Alpha virt. eigenvalues --    7.14000   7.17505   7.17641   7.20931   7.24759
 Alpha virt. eigenvalues --    7.24947   7.27083   7.34909   7.39452   7.43163
 Alpha virt. eigenvalues --    7.44236   7.46536   7.56017   7.66371   7.66812
 Alpha virt. eigenvalues --    7.79963   7.88608   7.95321   8.06552   8.31070
 Alpha virt. eigenvalues --    8.50594   8.65423  13.62101  14.78786  15.15920
 Alpha virt. eigenvalues --   15.76478
          Condensed to atoms (all electrons):
               1          2          3          4          5
     1  H    0.583757   0.122380   0.024485   0.000000  -0.005313
     2  O    0.122380   8.388928  -0.231488  -0.000598  -0.008691
     3  O    0.024485  -0.231488   8.372171  -0.168978  -0.034072
     4  N    0.000000  -0.000598  -0.168978   7.135371  -0.119537
     5  O   -0.005313  -0.008691  -0.034072  -0.119537   8.363398
 Mulliken charges:
               1
     1  H    0.274691
     2  O   -0.270531
     3  O    0.037882
     4  N    0.153742
     5  O   -0.195785
 Sum of Mulliken charges =  -0.00000
 Mulliken charges with hydrogens summed into heavy atoms:
               1
     2  O    0.004161
     3  O    0.037882
     4  N    0.153742
     5  O   -0.195785
 APT charges:
               1
     1  H    0.270800
     2  O   -0.302764
     3  O   -0.308909
     4  N    0.643646
     5  O   -0.302772
 Sum of APT charges =  -0.00000
 APT charges with hydrogens summed into heavy atoms:
               1
     2  O   -0.031965
     3  O   -0.308909
     4  N    0.643646
     5  O   -0.302772
 Electronic spatial extent (au):  <R**2>=            207.1873
 Charge=             -0.0000 electrons
 Dipole moment (field-independent basis, Debye):
    X=              0.0534    Y=             -1.0891    Z=              0.0000  Tot=              1.0904
 Quadrupole moment (field-independent basis, Debye-Ang):
   XX=            -23.3708   YY=            -22.9498   ZZ=            -21.9266
   XY=             -1.9693   XZ=              0.0000   YZ=              0.0000
 Traceless Quadrupole moment (field-independent basis, Debye-Ang):
   XX=             -0.6217   YY=             -0.2007   ZZ=              0.8224
   XY=             -1.9693   XZ=              0.0000   YZ=              0.0000
 Octapole moment (field-independent basis, Debye-Ang**2):
  XXX=              2.5800  YYY=              0.2863  ZZZ=              0.0000  XYY=              2.3571
  XXY=             -2.8120  XXZ=              0.0000  XZZ=             -0.5791  YZZ=             -0.7069
  YYZ=              0.0000  XYZ=              0.0000
 Hexadecapole moment (field-independent basis, Debye-Ang**3):
 XXXX=           -127.0183 YYYY=            -94.7709 ZZZZ=            -18.0314 XXXY=            -21.6065
 XXXZ=              0.0000 YYYX=            -19.8232 YYYZ=              0.0000 ZZZX=              0.0000
 ZZZY=              0.0000 XXYY=            -35.6370 XXZZ=            -24.3330 YYZZ=            -18.5724
 XXYZ=              0.0000 YYXZ=              0.0000 ZZXY=             -5.9256
 N-N= 1.227748826696D+02 E-N=-9.071082040060D+02  KE= 2.802113609210D+02
 Symmetry A'   KE= 2.663597729770D+02
 Symmetry A"   KE= 1.385158794404D+01
  Exact polarizability:  30.888   4.143  29.818   0.000   0.000  17.606
 Approx polarizability:  24.533   0.510  27.614  -0.000  -0.000  15.507
 No NMR shielding tensors so no spin-rotation constants.
 Leave Link  601 at Sun Mar  6 18:52:05 2022, MaxMem= 16106127360 cpu:               4.2 elap:               0.2
 (Enter /sw/contrib/gaussian/g16/B01/g16/l701.exe)
 ... and contract with generalized density number  2.
 Compute integral second derivatives.
 Leave Link  701 at Sun Mar  6 18:52:05 2022, MaxMem= 16106127360 cpu:               7.1 elap:               0.3
 (Enter /sw/contrib/gaussian/g16/B01/g16/l702.exe)
 L702 exits ... SP integral derivatives will be done elsewhere.
 Leave Link  702 at Sun Mar  6 18:52:05 2022, MaxMem= 16106127360 cpu:               0.5 elap:               0.0
 (Enter /sw/contrib/gaussian/g16/B01/g16/l703.exe)
 Integral derivatives from FoFJK, PRISM(SPDF).
 Compute integral second derivatives, UseDBF=F ICtDFT=           0.
 Calling FoFJK, ICntrl=  10100127 FMM=F ISym2X=1 I1Cent= 0 IOpClX= 0 NMat=1 NMatS=1 NMatT=0.
 FoFJK:  IHMeth= 1 ICntrl=10100127 DoSepK=F KAlg= 0 I1Cent=           0 FoldK=F
 IRaf=         0 NMat=       1 IRICut=       1 DoRegI=T DoRafI=F ISym2E= 1 IDoP0=0 IntGTp=1.
 FoFCou: FMM=F IPFlag=           0 FMFlag=      100000 FMFlg1=         800
         NFxFlg=           0 DoJE=F BraDBF=F KetDBF=F FulRan=T
         wScrn=  0.000000 ICntrl=  10100127 IOpCl=  0 I1Cent=           0 NGrid=           0
         NMat0=    1 NMatS0=      1 NMatT0=    0 NMatD0=    1 NMtDS0=    0 NMtDT0=    0
 Petite list used in FoFCou.
 Leave Link  703 at Sun Mar  6 18:52:21 2022, MaxMem= 16106127360 cpu:             441.9 elap:              15.8
 (Enter /sw/contrib/gaussian/g16/B01/g16/l716.exe)
 Dipole        = 2.10121201D-02-4.28471094D-01 0.00000000D+00
 Polarizability= 3.08881966D+01 4.14256261D+00 2.98182763D+01
                 0.00000000D+00 0.00000000D+00 1.76064117D+01
 Full mass-weighted force constant matrix:
 Low frequencies ---  -57.9904  -28.9459  -13.2141   -0.0018    0.0006    0.0008
 Low frequencies ---  266.0495  395.6601  510.4870
 Diagonal vibrational polarizability:
        7.3004188       9.9882318      30.4647366
 Harmonic frequencies (cm**-1), IR intensities (KM/Mole), Raman scattering
 activities (A**4/AMU), depolarization ratios for plane and unpolarized
 incident light, reduced masses (AMU), force constants (mDyne/A),
 and normal coordinates:
                      1                      2                      3
                     A"                     A'                     A"
 Frequencies --    263.3351               395.6493               510.4332
 Red. masses --      1.3172                 6.9984                 4.4051
 Frc consts  --      0.0538                 0.6455                 0.6762
 IR Inten    --     74.7561                 7.8496                14.0747
  Atom  AN      X      Y      Z        X      Y      Z        X      Y      Z
     1   1    -0.00  -0.00   0.99    -0.73  -0.25  -0.00    -0.00  -0.00   0.87
     2   8    -0.00  -0.00  -0.09    -0.32  -0.31   0.00    -0.00  -0.00   0.10
     3   8     0.00  -0.00   0.09    -0.07   0.09   0.00    -0.00   0.00  -0.25
     4   7     0.00   0.00  -0.07     0.05   0.09  -0.00    -0.00  -0.00   0.36
     5   8     0.00   0.00   0.01     0.39   0.17   0.00     0.00   0.00  -0.21
                      4                      5                      6
                     A'                     A'                     A'
 Frequencies --    710.8961               837.1960               968.9673
 Red. masses --     13.2028                12.4545                 9.4046
 Frc consts  --      3.9312                 5.1432                 5.2024
 IR Inten    --    217.8547                30.8125                13.6303
  Atom  AN      X      Y      Z        X      Y      Z        X      Y      Z
     1   1    -0.37   0.01  -0.00     0.43  -0.16  -0.00    -0.65   0.00   0.00
     2   8    -0.00  -0.08  -0.00     0.53  -0.20   0.00     0.20  -0.16  -0.00
     3   8     0.37   0.58   0.00    -0.39  -0.02   0.00    -0.35   0.39   0.00
     4   7    -0.41  -0.46  -0.00    -0.43  -0.06  -0.00     0.37   0.05  -0.00
     5   8     0.01  -0.10   0.00     0.21   0.28   0.00    -0.13  -0.27   0.00
                      7                      8                      9
                     A'                     A'                     A'
 Frequencies --   1424.4006              1568.9194              3556.5962
 Red. masses --      1.2920                 7.0007                 1.0639
 Frc consts  --      1.5445                10.1529                 7.9294
 IR Inten    --     78.6342               149.2869                42.0861
  Atom  AN      X      Y      Z        X      Y      Z        X      Y      Z
     1   1     0.97  -0.21   0.00    -0.73   0.17  -0.00     0.16   0.99  -0.00
     2   8    -0.06  -0.05   0.00     0.02   0.02   0.00    -0.01  -0.06   0.00
     3   8    -0.03   0.06  -0.00    -0.04  -0.06  -0.00     0.00  -0.00  -0.00
     4   7     0.06  -0.05   0.00     0.26  -0.42  -0.00    -0.00   0.00  -0.00
     5   8    -0.02   0.04  -0.00    -0.16   0.40   0.00     0.00  -0.00   0.00

 -------------------
 - Thermochemistry -
 -------------------
 Temperature   298.150 Kelvin.  Pressure   1.00000 Atm.
 Atom     1 has atomic number  1 and mass   1.00783
 Atom     2 has atomic number  8 and mass  15.99491
 Atom     3 has atomic number  8 and mass  15.99491
 Atom     4 has atomic number  7 and mass  14.00307
 Atom     5 has atomic number  8 and mass  15.99491
 Molecular mass:    62.99564 amu.
 Principal axes and moments of inertia in atomic units:
                           1         2         3
     Eigenvalues --    84.49842 222.62417 307.12259
           X            0.79638  -0.60479   0.00000
           Y            0.60479   0.79638   0.00000
           Z            0.00000   0.00000   1.00000
 This molecule is an asymmetric top.
 Rotational symmetry number  1.
 Rotational temperatures (Kelvin)      1.02504     0.38906     0.28202
 Rotational constants (GHZ):          21.35828     8.10667     5.87629
 Zero-point vibrational energy      61227.2 (Joules/Mol)
                                   14.63366 (Kcal/Mol)
 Warning -- explicit consideration of   3 degrees of freedom as
           vibrations may cause significant error
 Vibrational temperatures:    378.88   569.25   734.40  1022.82  1204.54
          (Kelvin)           1394.13  2049.39  2257.33  5117.15
 
 Zero-point correction=                           0.023320 (Hartree/Particle)
 Thermal correction to Energy=                    0.027380
 Thermal correction to Enthalpy=                  0.028324
 Thermal correction to Gibbs Free Energy=        -0.002782
 Sum of electronic and zero-point Energies=           -280.431897
 Sum of electronic and thermal Energies=              -280.427837
 Sum of electronic and thermal Enthalpies=            -280.426893
 Sum of electronic and thermal Free Energies=         -280.457999
 
                     E (Thermal)             CV                S
                      KCal/Mol        Cal/Mol-Kelvin    Cal/Mol-Kelvin
 Total                   17.181             12.376             65.468
 Electronic               0.000              0.000              0.000
 Translational            0.889              2.981             38.341
 Rotational               0.889              2.981             23.273
 Vibrational             15.403              6.415              3.854
 Vibration     1          0.670              1.740              1.640
 Vibration     2          0.762              1.479              0.979
 Vibration     3          0.866              1.227              0.633
                       Q            Log10(Q)             Ln(Q)
 Total Bot       0.190403D+02          1.279675          2.946560
 Total V=0       0.101443D+13         12.006222         27.645347
 Vib (Bot)       0.356076D-10        -10.448457        -24.058461
 Vib (Bot)    1  0.736367D+00         -0.132906         -0.306027
 Vib (Bot)    2  0.451920D+00         -0.344938         -0.794250
 Vib (Bot)    3  0.318993D+00         -0.496218         -1.142585
 Vib (V=0)       0.189710D+01          0.278090          0.640326
 Vib (V=0)    1  0.139008D+01          0.143039          0.329359
 Vib (V=0)    2  0.117397D+01          0.069656          0.160389
 Vib (V=0)    3  0.109309D+01          0.038656          0.089009
 Electronic      0.100000D+01          0.000000          0.000000
 Translational   0.196526D+08          7.293420         16.793719
 Rotational      0.272090D+05          4.434712         10.211302
 
                                                                title
                                                             IR Spectrum
 
      3                                                                     1     1                                                  
      5                                                                     5     4               9    8   7      5   3    2         
      5                                                                     6     2               6    3   1      1   9    6         
      7                                                                     9     4               9    7   1      0   6    3         
 
      X                                                                     X     X               X    X   X      X   X    X         
      X                                                                     X     X                    X   X               X         
      X                                                                     X     X                    X   X               X         
      X                                                                     X     X                        X               X         
                                                                            X     X                        X               X         
                                                                            X     X                        X               X         
                                                                            X     X                        X               X         
                                                                            X                              X                         
                                                                            X                              X                         
                                                                            X                              X                         
                                                                            X                              X                         
                                                                            X                              X                         
                                                                            X                              X                         
                                                                            X                              X                         
                                                                                                           X                         
                                                                                                           X                         
                                                                                                           X                         
                                                                                                           X                         
                                                                                                           X                         
                                                                                                           X                         
 
 ***** Axes restored to original set *****
 -------------------------------------------------------------------
 Center     Atomic                   Forces (Hartrees/Bohr)
 Number     Number              X              Y              Z
 -------------------------------------------------------------------
      1        1          -0.000220827   -0.000000000   -0.004575127
      2        8          -0.000121678   -0.000000000    0.004496169
      3        8           0.000311973   -0.000000000   -0.000163458
      4        7           0.000139415   -0.000000000    0.000377174
      5        8          -0.000108883   -0.000000000   -0.000134759
 -------------------------------------------------------------------
 Cartesian Forces:  Max     0.004575127 RMS     0.001663864
 -----------------------------------------------------------------------------------------------
                       Internal Coordinate Forces (Hartree/Bohr or radian)
  Cent   Atom   N1       Length/X         N2         Alpha/Y        N3         Beta/Z          J
 -----------------------------------------------------------------------------------------------
      1  H 
      2  O        1   0.004575(     1)
      3  O        2   0.000351(     2)      1   0.000409(     5)
      4  N        3  -0.000185(     3)      2   0.000370(     6)      1   0.000000(     8)     0
      5  O        4   0.000172(     4)      3  -0.000048(     7)      2   0.000000(     9)     0
 -----------------------------------------------------------------------------------------------
 Internal  Forces:  Max     0.004575127 RMS     0.001542905
 Force constants in Cartesian coordinates: 
                1             2             3             4             5 
      1  0.706894D-01
      2  0.000000D+00  0.356833D-02
      3  0.239556D-01  0.000000D+00  0.454195D+00
      4 -0.499607D-01  0.000000D+00 -0.505311D-02  0.279029D+00
      5  0.000000D+00  0.324951D-04  0.000000D+00  0.000000D+00  0.974327D-02
      6  0.327237D-01  0.000000D+00 -0.438037D+00 -0.122424D-01  0.000000D+00
      7 -0.254502D-01  0.000000D+00 -0.156440D-01 -0.170750D+00  0.000000D+00
      8  0.000000D+00 -0.420368D-02  0.000000D+00  0.000000D+00 -0.189726D-01
      9 -0.446247D-01  0.000000D+00 -0.198521D-01  0.108888D-01  0.000000D+00
     10 -0.561666D-02  0.000000D+00  0.652758D-02 -0.840694D-01  0.000000D+00
     11  0.000000D+00  0.805361D-02  0.000000D+00  0.000000D+00  0.198286D-01
     12 -0.189113D-01  0.000000D+00  0.118590D-01  0.106508D-01  0.000000D+00
     13  0.103381D-01  0.000000D+00 -0.978610D-02  0.257512D-01  0.000000D+00
     14  0.000000D+00 -0.745075D-02  0.000000D+00  0.000000D+00 -0.106318D-01
     15  0.685672D-02  0.000000D+00 -0.816567D-02 -0.424406D-02  0.000000D+00
                6             7             8             9            10 
      6  0.539999D+00
      7 -0.915525D-01  0.304163D+00
      8  0.000000D+00  0.000000D+00  0.409588D-01
      9 -0.967300D-01  0.817380D-01  0.000000D+00  0.316776D+00
     10  0.403242D-01 -0.143982D+00  0.000000D+00 -0.356525D-01  0.554374D+00
     11  0.000000D+00  0.000000D+00 -0.478992D-01  0.000000D+00  0.000000D+00
     12 -0.102833D-01  0.160526D-01  0.000000D+00 -0.254387D-01  0.243355D+00
     13  0.307471D-01  0.360199D-01  0.000000D+00 -0.123497D-01 -0.320706D+00
     14  0.000000D+00  0.000000D+00  0.301166D-01  0.000000D+00  0.000000D+00
     15  0.505095D-02  0.940589D-02  0.000000D+00 -0.174756D+00 -0.254554D+00
               11            12            13            14            15 
     11  0.574915D-01
     12  0.000000D+00  0.448795D+00
     13  0.000000D+00 -0.251147D+00  0.248596D+00
     14 -0.374746D-01  0.000000D+00  0.000000D+00  0.254405D-01
     15  0.000000D+00 -0.424932D+00  0.242535D+00  0.000000D+00  0.602802D+00
 Force constants in internal coordinates: 
                1             2             3             4             5 
      1  0.454195D+00
      2  0.215600D-01  0.259600D+00
      3  0.488148D-02  0.174753D-01  0.207627D+00
      4 -0.121033D-01  0.224755D-01  0.148603D+00  0.721521D+00
      5  0.441419D-01  0.570998D-01 -0.234168D-01  0.208957D-01  0.250897D+00
      6  0.107298D-01  0.225604D-01  0.923552D-01  0.914972D-02 -0.813440D-02
      7  0.901907D-02 -0.730326D-01  0.121219D+00  0.116868D+00 -0.215543D-01
      8  0.000000D+00  0.000000D+00  0.000000D+00  0.000000D+00  0.000000D+00
      9  0.000000D+00  0.000000D+00  0.000000D+00  0.000000D+00  0.000000D+00
                6             7             8             9 
      6  0.521169D+00
      7  0.618913D-01  0.662472D+00
      8  0.000000D+00  0.000000D+00  0.199303D-01
      9  0.000000D+00  0.000000D+00  0.278981D-01  0.108010D+00
 Leave Link  716 at Sun Mar  6 18:52:21 2022, MaxMem= 16106127360 cpu:               0.8 elap:               0.0
 (Enter /sw/contrib/gaussian/g16/B01/g16/l103.exe)

 GradGradGradGradGradGradGradGradGradGradGradGradGradGradGradGradGradGrad
 Berny optimization.
 Search for a local minimum.
 Step number   1 out of a maximum of    2
 All quantities printed in internal units (Hartrees-Bohrs-Radians)
 Second derivative matrix not updated -- analytic derivatives used.
 The second derivative matrix:
                          r1        r2        r3        r4        a1
           r1           0.45420
           r2           0.02156   0.25960
           r3           0.00488   0.01748   0.20763
           r4          -0.01210   0.02248   0.14860   0.72152
           a1           0.04414   0.05710  -0.02342   0.02090   0.25090
           a2           0.01073   0.02256   0.09236   0.00915  -0.00813
           a3           0.00902  -0.07303   0.12122   0.11687  -0.02155
           d1           0.00000   0.00000   0.00000   0.00000   0.00000
           d2           0.00000   0.00000   0.00000   0.00000   0.00000
                          a2        a3        d1        d2
           a2           0.52117
           a3           0.06189   0.66247
           d1           0.00000   0.00000   0.01993
           d2           0.00000   0.00000   0.02790   0.10801
 ITU=  0
     Eigenvalues ---    0.01184   0.11610   0.12465   0.20324   0.27864
     Eigenvalues ---    0.46460   0.51599   0.60765   0.88271
 Angle between quadratic step and forces=  13.21 degrees.
 Linear search not attempted -- first point.
 Variable       Old X    -DE/DX   Delta X   Delta X   Delta X     New X
                                 (Linear)    (Quad)   (Total)
    r1        1.85188   0.00458   0.00000   0.01012   0.01012   1.86200
    r2        2.69614   0.00035   0.00000   0.00064   0.00064   2.69678
    r3        2.60992  -0.00018   0.00000  -0.00224  -0.00224   2.60767
    r4        2.25782   0.00017   0.00000   0.00085   0.00085   2.25867
    a1        1.75642   0.00041   0.00000  -0.00055  -0.00055   1.75587
    a2        1.97463   0.00037   0.00000   0.00084   0.00084   1.97547
    a3        1.99550  -0.00005   0.00000   0.00002   0.00002   1.99553
    d1        0.00000   0.00000   0.00000   0.00000   0.00000   0.00000
    d2        0.00000   0.00000   0.00000   0.00000   0.00000   0.00000
         Item               Value     Threshold  Converged?
 Maximum Force            0.004575     0.000450     NO 
 RMS     Force            0.001543     0.000300     NO 
 Maximum Displacement     0.010122     0.001800     NO 
 RMS     Displacement     0.003490     0.001200     NO 
 Predicted change in Energy=-2.359156D-05
                       ----------------------------
                       ! Non-Optimized Parameters !
                       ! (Angstroms and Degrees)  !
 ----------------------                            ----------------------
 !      Name          Value   Derivative information (Atomic Units)     !
 ------------------------------------------------------------------------
 !       r1          0.9853   -DE/DX =    0.0046                        !
 !       r2          1.4271   -DE/DX =    0.0004                        !
 !       r3          1.3799   -DE/DX =   -0.0002                        !
 !       r4          1.1952   -DE/DX =    0.0002                        !
 !       a1        100.6041   -DE/DX =    0.0004                        !
 !       a2        113.1862   -DE/DX =    0.0004                        !
 !       a3        114.3353   -DE/DX =    0.0                           !
 !       d1          0.0      -DE/DX =    0.0                           !
 !       d2          0.0      -DE/DX =    0.0                           !
 ------------------------------------------------------------------------
 GradGradGradGradGradGradGradGradGradGradGradGradGradGradGradGradGradGrad

 Leave Link  103 at Sun Mar  6 18:52:21 2022, MaxMem= 16106127360 cpu:               2.2 elap:               0.1
 (Enter /sw/contrib/gaussian/g16/B01/g16/l9999.exe)

 ----------------------------------------------------------------------

 Electric dipole moment (input orientation):
 (Debye = 10**-18 statcoulomb cm , SI units = C m)
                  (au)            (Debye)         (10**-30 SI)
   Tot        0.428986D+00      0.109037D+01      0.363709D+01
   x         -0.110413D+00     -0.280642D+00     -0.936120D+00
   y          0.000000D+00      0.000000D+00      0.000000D+00
   z         -0.414533D+00     -0.105364D+01     -0.351456D+01

 Dipole polarizability, Alpha (input orientation).
 (esu units = cm**3 , SI units = C**2 m**2 J**-1)
 Alpha(0;0):
               (au)            (10**-24 esu)      (10**-40 SI)
   iso        0.261043D+02      0.386826D+01      0.430402D+01
   aniso      0.146568D+02      0.217192D+01      0.241658D+01
   xx         0.291420D+02      0.431841D+01      0.480487D+01
   yx         0.000000D+00      0.000000D+00      0.000000D+00
   yy         0.176064D+02      0.260900D+01      0.290291D+01
   zx        -0.399750D+01     -0.592369D+00     -0.659099D+00
   zy         0.000000D+00      0.000000D+00      0.000000D+00
   zz         0.315644D+02      0.467737D+01      0.520427D+01

 ----------------------------------------------------------------------

 Dipole orientation:
     1          0.00000000         -0.00000000         -0.00000000
     8         -0.47663827         -0.00000000         -1.78948722
     8          1.95584085         -0.00000000         -2.95233911
     7          3.91621579         -0.00000000         -1.22938020
     8          3.25691844          0.00000000          0.93003906

 Electric dipole moment (dipole orientation):
 (Debye = 10**-18 statcoulomb cm , SI units = C m)
                  (au)            (Debye)         (10**-30 SI)
   Tot        0.428986D+00      0.109037D+01      0.363709D+01
   x          0.000000D+00      0.000000D+00      0.000000D+00
   y          0.000000D+00      0.000000D+00      0.000000D+00
   z          0.428986D+00      0.109037D+01      0.363709D+01

 Dipole polarizability, Alpha (dipole orientation).
 (esu units = cm**3 , SI units = C**2 m**2 J**-1)
 Alpha(0;0):
               (au)            (10**-24 esu)      (10**-40 SI)
   iso        0.261043D+02      0.386826D+01      0.430402D+01
   aniso      0.146568D+02      0.217192D+01      0.241658D+01
   xx         0.312910D+02      0.463684D+01      0.515918D+01
   yx         0.000000D+00      0.000000D+00      0.000000D+00
   yy         0.176064D+02      0.260900D+01      0.290291D+01
   zx         0.407034D+01      0.603163D+00      0.671109D+00
   zy         0.000000D+00      0.000000D+00      0.000000D+00
   zz         0.294155D+02      0.435893D+01      0.484996D+01

 ----------------------------------------------------------------------
 1\1\GINC-N2398\Freq\RMP2-FC\Aug-CC-pVTZ\H1N1O3\CGAVINH\06-Mar-2022\1\\
 #p freq mp2/aug-cc-pvtz density=current\\title\\0,1\H\O,1,r1\O,2,r2,1,
 a1\N,3,r3,2,a2,1,d1,0\O,4,r4,3,a3,2,d2,0\\r1=0.97997112\r2=1.42673666\
 r3=1.38110764\r4=1.19478846\a1=100.6355057\a2=113.13777052\a3=114.3339
 2022\d1=0.\d2=0.\\Version=ES64L-G16RevB.01\State=1-A'\HF=-279.5067298\
 MP2=-280.4552169\RMSD=4.348e-09\RMSF=1.664e-03\ZeroPoint=0.0233202\The
 rmal=0.0273795\Dipole=-0.1104129,0.,-0.4145334\DipoleDeriv=0.3148336,0
 .,0.0386456,0.,0.2989081,0.,-0.0217654,0.,0.1986571,-0.5278084,0.,0.28
 15191,0.,-0.2549802,0.,-0.1082545,0.,-0.1255048,0.0048497,0.,0.3369283
 ,0.,-0.0103261,0.,0.4425223,0.,-0.9212498,0.1999061,0.,-0.1401526,0.,0
 .0122871,0.,-0.6653711,0.,1.7187438,0.0082191,0.,-0.5169404,0.,-0.0458
 889,0.,0.3528687,0.,-0.8706463\Polar=29.1420473,0.,17.6064117,-3.99750
 27,0.,31.5644257\Quadrupole=0.1520318,0.6114607,-0.7634925,0.,1.399495
 1,0.\PG=CS [SG(H1N1O3)]\NImag=0\\0.07068944,0.,0.00356833,0.02395559,0
 .,0.45419544,-0.04996068,0.,-0.00505311,0.27902912,0.,0.00003250,0.,0.
 ,0.00974327,0.03272369,0.,-0.43803664,-0.01224244,0.,0.53999896,-0.025
 45024,0.,-0.01564397,-0.17075015,0.,-0.09155254,0.30416268,0.,-0.00420
 368,0.,0.,-0.01897261,0.,0.,0.04095884,-0.04462469,0.,-0.01985211,0.01
 088885,0.,-0.09672998,0.08173802,0.,0.31677630,-0.00561666,0.,0.006527
 58,-0.08406944,0.,0.04032421,-0.14398222,0.,-0.03565245,0.55437388,0.,
 0.00805361,0.,0.,0.01982864,0.,0.,-0.04789917,0.,0.,0.05749154,-0.0189
 1131,0.,0.01185899,0.01065076,0.,-0.01028329,0.01605260,0.,-0.02543867
 ,0.24335467,0.,0.44879492,0.01033815,0.,-0.00978610,0.02575115,0.,0.03
 074709,0.03601993,0.,-0.01234972,-0.32070556,0.,-0.25114672,0.24859633
 ,0.,-0.00745075,0.,0.,-0.01063178,0.,0.,0.03011662,0.,0.,-0.03747462,0
 .,0.,0.02544053,0.00685672,0.,-0.00816567,-0.00424406,0.,0.00505095,0.
 00940589,0.,-0.17475554,-0.25455400,0.,-0.42493194,0.24253545,0.,0.602
 80220\\0.00022083,0.,0.00457513,0.00012168,0.,-0.00449617,-0.00031197,
 0.,0.00016346,-0.00013941,0.,-0.00037717,0.00010888,0.,0.00013476\\\@


 HICKORY, DICKORY, DOCK
 TWO MICE RAN UP THE CLOCK
 THE CLOCK STRUCK ONE...
 THE OTHER ESCAPED WITH MINOR INJURIES.
 Job cpu time:       0 days  2 hours  3 minutes 46.6 seconds.
 Elapsed time:       0 days  0 hours  4 minutes 28.8 seconds.
 File lengths (MBytes):  RWF=   7239 Int=      0 D2E=      0 Chk=      8 Scr=      1
 Normal termination of Gaussian 16 at Sun Mar  6 18:52:22 2022.
