 Entering Gaussian System, Link 0=g16
 Input=hoono_r3_1p400307.gjf
 Output=hoono_r3_1p400307.log
 Initial command:
 /sw/contrib/gaussian/g16/B01/g16/l1.exe "/scr/Gau-11642.inp" -scrdir="/scr/"
 Entering Link 1 = /sw/contrib/gaussian/g16/B01/g16/l1.exe PID=     11643.
  
 Copyright (c) 1988-2017, Gaussian, Inc.  All Rights Reserved.
  
 This is part of the Gaussian(R) 16 program.  It is based on
 the Gaussian(R) 09 system (copyright 2009, Gaussian, Inc.),
 the Gaussian(R) 03 system (copyright 2003, Gaussian, Inc.),
 the Gaussian(R) 98 system (copyright 1998, Gaussian, Inc.),
 the Gaussian(R) 94 system (copyright 1995, Gaussian, Inc.),
 the Gaussian 92(TM) system (copyright 1992, Gaussian, Inc.),
 the Gaussian 90(TM) system (copyright 1990, Gaussian, Inc.),
 the Gaussian 88(TM) system (copyright 1988, Gaussian, Inc.),
 the Gaussian 86(TM) system (copyright 1986, Carnegie Mellon
 University), and the Gaussian 82(TM) system (copyright 1983,
 Carnegie Mellon University). Gaussian is a federally registered
 trademark of Gaussian, Inc.
  
 This software contains proprietary and confidential information,
 including trade secrets, belonging to Gaussian, Inc.
  
 This software is provided under written license and may be
 used, copied, transmitted, or stored only in accord with that
 written license.
  
 The following legend is applicable only to US Government
 contracts under FAR:
  
                    RESTRICTED RIGHTS LEGEND
  
 Use, reproduction and disclosure by the US Government is
 subject to restrictions as set forth in subparagraphs (a)
 and (c) of the Commercial Computer Software - Restricted
 Rights clause in FAR 52.227-19.
  
 Gaussian, Inc.
 340 Quinnipiac St., Bldg. 40, Wallingford CT 06492
  
  
 ---------------------------------------------------------------
 Warning -- This program may not be used in any manner that
 competes with the business of Gaussian, Inc. or will provide
 assistance to any competitor of Gaussian, Inc.  The licensee
 of this program is prohibited from giving any competitor of
 Gaussian, Inc. access to this program.  By using this program,
 the user acknowledges that Gaussian, Inc. is engaged in the
 business of creating and licensing software in the field of
 computational chemistry and represents and warrants to the
 licensee that it is not a competitor of Gaussian, Inc. and that
 it will not use this program in any manner prohibited above.
 ---------------------------------------------------------------
  

 Cite this work as:
 Gaussian 16, Revision B.01,
 M. J. Frisch, G. W. Trucks, H. B. Schlegel, G. E. Scuseria, 
 M. A. Robb, J. R. Cheeseman, G. Scalmani, V. Barone, 
 G. A. Petersson, H. Nakatsuji, X. Li, M. Caricato, A. V. Marenich, 
 J. Bloino, B. G. Janesko, R. Gomperts, B. Mennucci, H. P. Hratchian, 
 J. V. Ortiz, A. F. Izmaylov, J. L. Sonnenberg, D. Williams-Young, 
 F. Ding, F. Lipparini, F. Egidi, J. Goings, B. Peng, A. Petrone, 
 T. Henderson, D. Ranasinghe, V. G. Zakrzewski, J. Gao, N. Rega, 
 G. Zheng, W. Liang, M. Hada, M. Ehara, K. Toyota, R. Fukuda, 
 J. Hasegawa, M. Ishida, T. Nakajima, Y. Honda, O. Kitao, H. Nakai, 
 T. Vreven, K. Throssell, J. A. Montgomery, Jr., J. E. Peralta, 
 F. Ogliaro, M. J. Bearpark, J. J. Heyd, E. N. Brothers, K. N. Kudin, 
 V. N. Staroverov, T. A. Keith, R. Kobayashi, J. Normand, 
 K. Raghavachari, A. P. Rendell, J. C. Burant, S. S. Iyengar, 
 J. Tomasi, M. Cossi, J. M. Millam, M. Klene, C. Adamo, R. Cammi, 
 J. W. Ochterski, R. L. Martin, K. Morokuma, O. Farkas, 
 J. B. Foresman, and D. J. Fox, Gaussian, Inc., Wallingford CT, 2016.
 
 ******************************************
 Gaussian 16:  ES64L-G16RevB.01 20-Dec-2017
                 6-Mar-2022 
 ******************************************
 %nproc=28
 Will use up to   28 processors via shared memory.
 %mem=120GB
 %chk=hoono_r3_1p400307.chk
 ---------------------------------------
 #p freq mp2/aug-cc-pvtz density=current
 ---------------------------------------
 1/10=4,30=1,38=1/1,3;
 2/12=2,17=6,18=5,40=1/2;
 3/5=16,6=1,7=10,11=9,25=1,30=1,71=2,140=1/1,2,3;
 4//1;
 5/5=2,38=5,98=1/2;
 8/6=3,8=1,10=1,19=11,30=-1/1;
 9/15=3,16=-3/6;
 11/6=1,8=1,15=11,17=12,24=-1,27=1,28=-2,29=300,32=6,42=3/1,2,10;
 10/6=2,21=1/2;
 8/6=4,8=1,10=1,19=11,30=-1/11,4;
 10/5=1,20=4/2;
 11/12=2,14=11,16=1,17=2,28=-2,42=3,76=2/2,10,12;
 6/7=2,8=2,9=2,10=2,22=-1/1;
 7/8=1,10=1,12=2,25=1,44=2/1,2,3,16;
 1/10=4,30=1/3;
 99//99;
 Leave Link    1 at Sun Mar  6 19:03:42 2022, MaxMem= 16106127360 cpu:               2.8 elap:               0.1
 (Enter /sw/contrib/gaussian/g16/B01/g16/l101.exe)
 -----
 title
 -----
 Symbolic Z-matrix:
 Charge =  0 Multiplicity = 1
 H
 O                    1    r1
 O                    2    r2       1    a1
 N                    3    r3       2    a2       1    d1       0
 O                    4    r4       3    a3       2    d2       0
       Variables:
  r1                    0.98538                  
  r2                    1.42674                  
  r3                    1.40031                  
  r4                    1.19479                  
  a1                  100.63551                  
  a2                  113.13777                  
  a3                  114.33392                  
  d1                    0.                       
  d2                    0.                       
 
 ITRead=  0  0  0  0  0
 MicOpt= -1 -1 -1 -1 -1
 NAtoms=      5 NQM=        5 NQMF=       0 NMMI=      0 NMMIF=      0
                NMic=       0 NMicF=      0.
                    Isotopes and Nuclear Properties:
 (Nuclear quadrupole moments (NQMom) in fm**2, nuclear magnetic moments (NMagM)
  in nuclear magnetons)

  Atom         1           2           3           4           5
 IAtWgt=           1          16          16          14          16
 AtmWgt=   1.0078250  15.9949146  15.9949146  14.0030740  15.9949146
 NucSpn=           1           0           0           2           0
 AtZEff=  -0.0000000  -0.0000000  -0.0000000  -0.0000000  -0.0000000
 NQMom=    0.0000000   0.0000000   0.0000000   2.0440000   0.0000000
 NMagM=    2.7928460   0.0000000   0.0000000   0.4037610   0.0000000
 AtZNuc=   1.0000000   8.0000000   8.0000000   7.0000000   8.0000000
 Leave Link  101 at Sun Mar  6 19:03:42 2022, MaxMem= 16106127360 cpu:               3.4 elap:               0.2
 (Enter /sw/contrib/gaussian/g16/B01/g16/l103.exe)

 GradGradGradGradGradGradGradGradGradGradGradGradGradGradGradGradGradGrad
 Berny optimization.
 Initialization pass.
                       ----------------------------
                       !    Initial Parameters    !
                       ! (Angstroms and Degrees)  !
 ----------------------                            ----------------------
 !      Name          Value   Derivative information (Atomic Units)     !
 ------------------------------------------------------------------------
 !       r1          0.9854   calculate D2E/DX2 analytically            !
 !       r2          1.4267   calculate D2E/DX2 analytically            !
 !       r3          1.4003   calculate D2E/DX2 analytically            !
 !       r4          1.1948   calculate D2E/DX2 analytically            !
 !       a1        100.6355   calculate D2E/DX2 analytically            !
 !       a2        113.1378   calculate D2E/DX2 analytically            !
 !       a3        114.3339   calculate D2E/DX2 analytically            !
 !       d1          0.0      calculate D2E/DX2 analytically            !
 !       d2          0.0      calculate D2E/DX2 analytically            !
 ------------------------------------------------------------------------
 Trust Radius=3.00D-01 FncErr=1.00D-07 GrdErr=1.00D-07 EigMax=2.50D+02 EigMin=1.00D-04
 Number of steps in this run=      2 maximum allowed number of steps=      2.
 GradGradGradGradGradGradGradGradGradGradGradGradGradGradGradGradGradGrad

 Leave Link  103 at Sun Mar  6 19:03:42 2022, MaxMem= 16106127360 cpu:               2.8 elap:               0.1
 (Enter /sw/contrib/gaussian/g16/B01/g16/l202.exe)
                          Input orientation:                          
 ---------------------------------------------------------------------
 Center     Atomic      Atomic             Coordinates (Angstroms)
 Number     Number       Type             X           Y           Z
 ---------------------------------------------------------------------
      1          1           0        0.000000    0.000000    0.000000
      2          8           0        0.000000    0.000000    0.985377
      3          8           0        1.402227    0.000000    1.248696
      4          7           0        2.180669    0.000000    0.084699
      5          8           0        1.549424    0.000000   -0.929722
 ---------------------------------------------------------------------
                    Distance matrix (angstroms):
                    1          2          3          4          5
     1  H    0.000000
     2  O    0.985377   0.000000
     3  O    1.877627   1.426737   0.000000
     4  N    2.182313   2.359351   1.400307   0.000000
     5  O    1.806958   2.463396   2.183385   1.194788   0.000000
 Stoichiometry    HNO3
 Framework group  CS[SG(HNO3)]
 Deg. of freedom     7
 Full point group                 CS      NOp   2
 Largest Abelian subgroup         CS      NOp   2
 Largest concise Abelian subgroup C1      NOp   1
                         Standard orientation:                         
 ---------------------------------------------------------------------
 Center     Atomic      Atomic             Coordinates (Angstroms)
 Number     Number       Type             X           Y           Z
 ---------------------------------------------------------------------
      1          1           0        1.119766   -0.583908    0.000000
      2          8           0        1.319656    0.380981    0.000000
      3          8           0       -0.000000    0.923277   -0.000000
      4          7           0       -0.998381   -0.058607   -0.000000
      5          8           0       -0.586043   -1.179988    0.000000
 ---------------------------------------------------------------------
 Rotational constants (GHZ):          21.3433052           7.9605933           5.7980467
 Leave Link  202 at Sun Mar  6 19:03:42 2022, MaxMem= 16106127360 cpu:               1.3 elap:               0.1
 (Enter /sw/contrib/gaussian/g16/B01/g16/l301.exe)
 Standard basis: Aug-CC-pVTZ (5D, 7F)
 Ernie: Thresh=  0.10000D-02 Tol=  0.10000D-05 Strict=F.
 Ernie:  12 primitive shells out of 131 were deleted.
 There are   166 symmetry adapted cartesian basis functions of A'  symmetry.
 There are    79 symmetry adapted cartesian basis functions of A"  symmetry.
 There are   136 symmetry adapted basis functions of A'  symmetry.
 There are    71 symmetry adapted basis functions of A"  symmetry.
   207 basis functions,   315 primitive gaussians,   245 cartesian basis functions
    16 alpha electrons       16 beta electrons
       nuclear repulsion energy       122.1136905307 Hartrees.
 IExCor=    0 DFT=F Ex=HF Corr=None ExCW=0 ScaHFX=  1.000000
 ScaDFX=  1.000000  1.000000  1.000000  1.000000 ScalE2=  1.000000  1.000000
 IRadAn=      5 IRanWt=     -1 IRanGd=            0 ICorTp=0 IEmpDi=  4
 NAtoms=    5 NActive=    5 NUniq=    5 SFac= 1.00D+00 NAtFMM=   60 NAOKFM=F Big=F
 Integral buffers will be    131072 words long.
 Raffenetti 1 integral format.
 Two-electron integral symmetry is turned on.
 Leave Link  301 at Sun Mar  6 19:03:42 2022, MaxMem= 16106127360 cpu:               1.6 elap:               0.1
 (Enter /sw/contrib/gaussian/g16/B01/g16/l302.exe)
 NPDir=0 NMtPBC=     1 NCelOv=     1 NCel=       1 NClECP=     1 NCelD=      1
         NCelK=      1 NCelE2=     1 NClLst=     1 CellRange=     0.0.
 One-electron integrals computed using PRISM.
 One-electron integral symmetry used in STVInt
 NBasis=   207 RedAO= T EigKep=  1.34D-04  NBF=   136    71
 NBsUse=   207 1.00D-06 EigRej= -1.00D+00 NBFU=   136    71
 Leave Link  302 at Sun Mar  6 19:03:43 2022, MaxMem= 16106127360 cpu:               5.2 elap:               0.2
 (Enter /sw/contrib/gaussian/g16/B01/g16/l303.exe)
 DipDrv:  MaxL=1.
 Leave Link  303 at Sun Mar  6 19:03:43 2022, MaxMem= 16106127360 cpu:               1.8 elap:               0.1
 (Enter /sw/contrib/gaussian/g16/B01/g16/l401.exe)
 ExpMin= 2.53D-02 ExpMax= 1.53D+04 ExpMxC= 5.22D+02 IAcc=3 IRadAn=         5 AccDes= 0.00D+00
 Harris functional with IExCor=  205 and IRadAn=       5 diagonalized for initial guess.
 HarFok:  IExCor=  205 AccDes= 0.00D+00 IRadAn=         5 IDoV= 1 UseB2=F ITyADJ=14
 ICtDFT=  3500011 ScaDFX=  1.000000  1.000000  1.000000  1.000000
 FoFCou: FMM=F IPFlag=           0 FMFlag=      100000 FMFlg1=           0
         NFxFlg=           0 DoJE=T BraDBF=F KetDBF=T FulRan=T
         wScrn=  0.000000 ICntrl=       500 IOpCl=  0 I1Cent=   200000004 NGrid=           0
         NMat0=    1 NMatS0=      1 NMatT0=    0 NMatD0=    1 NMtDS0=    0 NMtDT0=    0
 Petite list used in FoFCou.
 Harris En= -279.643916222431    
 JPrj=0 DoOrth=F DoCkMO=F.
 Initial guess orbital symmetries:
       Occupied  (A') (A') (A') (A') (A') (A') (A') (A') (A') (A')
                 (A") (A') (A") (A') (A") (A')
       Virtual   (A") (A') (A') (A') (A') (A") (A') (A') (A') (A')
                 (A") (A') (A") (A') (A') (A") (A') (A') (A") (A')
                 (A') (A') (A') (A') (A") (A') (A') (A') (A") (A')
                 (A') (A") (A") (A') (A') (A") (A') (A") (A') (A")
                 (A') (A") (A') (A") (A') (A') (A') (A') (A") (A')
                 (A') (A") (A') (A") (A') (A") (A') (A') (A') (A")
                 (A') (A') (A") (A') (A') (A') (A") (A") (A') (A')
                 (A") (A') (A") (A") (A') (A') (A") (A') (A') (A')
                 (A") (A') (A') (A") (A') (A") (A') (A") (A') (A')
                 (A') (A") (A') (A") (A') (A') (A") (A') (A") (A')
                 (A") (A') (A') (A") (A") (A') (A') (A') (A") (A')
                 (A") (A') (A') (A') (A") (A') (A') (A') (A") (A')
                 (A") (A') (A') (A") (A") (A") (A") (A') (A') (A')
                 (A') (A') (A') (A") (A') (A") (A') (A") (A') (A')
                 (A") (A") (A') (A') (A') (A") (A') (A') (A') (A")
                 (A') (A') (A') (A") (A') (A") (A") (A') (A") (A')
                 (A') (A") (A") (A') (A") (A') (A') (A") (A") (A')
                 (A") (A") (A") (A') (A') (A") (A') (A') (A') (A")
                 (A') (A') (A') (A') (A') (A') (A') (A') (A') (A')
                 (A')
 The electronic state of the initial guess is 1-A'.
 Leave Link  401 at Sun Mar  6 19:03:43 2022, MaxMem= 16106127360 cpu:               7.3 elap:               0.3
 (Enter /sw/contrib/gaussian/g16/B01/g16/l502.exe)
 Keep R1 ints in memory in symmetry-blocked form, NReq=348887737.
 FoFCou: FMM=F IPFlag=           0 FMFlag=           0 FMFlg1=           0
         NFxFlg=           0 DoJE=F BraDBF=F KetDBF=F FulRan=T
         wScrn=  0.000000 ICntrl=       600 IOpCl=  0 I1Cent=           0 NGrid=           0
         NMat0=    1 NMatS0=  21528 NMatT0=    0 NMatD0=    1 NMtDS0=    0 NMtDT0=    0
 Petite list used in FoFCou.
 Closed shell SCF:
 Using DIIS extrapolation, IDIIS=  1040.
 NGot= 16106127360 LenX= 15988850015 LenY= 15988789549
 Requested convergence on RMS density matrix=1.00D-08 within 128 cycles.
 Requested convergence on MAX density matrix=1.00D-06.
 Requested convergence on             energy=1.00D-06.
 No special actions if energy rises.

 Cycle   1  Pass 1  IDiag  1:
 E= -279.364210003933    
 DIIS: error= 2.75D-02 at cycle   1 NSaved=   1.
 NSaved= 1 IEnMin= 1 EnMin= -279.364210003933     IErMin= 1 ErrMin= 2.75D-02
 ErrMax= 2.75D-02  0.00D+00 EMaxC= 1.00D-01 BMatC= 4.48D-01 BMatP= 4.48D-01
 IDIUse=3 WtCom= 7.25D-01 WtEn= 2.75D-01
 Coeff-Com:  0.100D+01
 Coeff-En:   0.100D+01
 Coeff:      0.100D+01
 Gap=     0.491 Goal=   None    Shift=    0.000
 GapD=    0.491 DampG=2.000 DampE=0.500 DampFc=1.0000 IDamp=-1.
 RMSDP=1.66D-03 MaxDP=8.89D-02              OVMax= 1.20D-01

 Cycle   2  Pass 1  IDiag  1:
 E= -279.446234207227     Delta-E=       -0.082024203295 Rises=F Damp=F
 DIIS: error= 1.92D-02 at cycle   2 NSaved=   2.
 NSaved= 2 IEnMin= 2 EnMin= -279.446234207227     IErMin= 2 ErrMin= 1.92D-02
 ErrMax= 1.92D-02  0.00D+00 EMaxC= 1.00D-01 BMatC= 8.28D-02 BMatP= 4.48D-01
 IDIUse=3 WtCom= 8.08D-01 WtEn= 1.92D-01
 Coeff-Com:  0.214D+00 0.786D+00
 Coeff-En:   0.612D-01 0.939D+00
 Coeff:      0.184D+00 0.816D+00
 Gap=     0.560 Goal=   None    Shift=    0.000
 RMSDP=9.59D-04 MaxDP=3.68D-02 DE=-8.20D-02 OVMax= 8.97D-02

 Cycle   3  Pass 1  IDiag  1:
 E= -279.482051645294     Delta-E=       -0.035817438066 Rises=F Damp=F
 DIIS: error= 1.14D-02 at cycle   3 NSaved=   3.
 NSaved= 3 IEnMin= 3 EnMin= -279.482051645294     IErMin= 3 ErrMin= 1.14D-02
 ErrMax= 1.14D-02  0.00D+00 EMaxC= 1.00D-01 BMatC= 3.12D-02 BMatP= 8.28D-02
 IDIUse=3 WtCom= 8.86D-01 WtEn= 1.14D-01
 Coeff-Com: -0.344D-01 0.370D+00 0.664D+00
 Coeff-En:   0.000D+00 0.227D+00 0.773D+00
 Coeff:     -0.305D-01 0.354D+00 0.677D+00
 Gap=     0.539 Goal=   None    Shift=    0.000
 RMSDP=4.10D-04 MaxDP=1.62D-02 DE=-3.58D-02 OVMax= 3.79D-02

 Cycle   4  Pass 1  IDiag  1:
 E= -279.503314276344     Delta-E=       -0.021262631050 Rises=F Damp=F
 DIIS: error= 1.65D-03 at cycle   4 NSaved=   4.
 NSaved= 4 IEnMin= 4 EnMin= -279.503314276344     IErMin= 4 ErrMin= 1.65D-03
 ErrMax= 1.65D-03  0.00D+00 EMaxC= 1.00D-01 BMatC= 6.12D-04 BMatP= 3.12D-02
 IDIUse=3 WtCom= 9.84D-01 WtEn= 1.65D-02
 Coeff-Com: -0.123D-01 0.525D-01 0.159D+00 0.800D+00
 Coeff-En:   0.000D+00 0.000D+00 0.000D+00 0.100D+01
 Coeff:     -0.121D-01 0.516D-01 0.157D+00 0.804D+00
 Gap=     0.526 Goal=   None    Shift=    0.000
 RMSDP=9.96D-05 MaxDP=2.35D-03 DE=-2.13D-02 OVMax= 1.21D-02

 Cycle   5  Pass 1  IDiag  1:
 E= -279.504148982783     Delta-E=       -0.000834706439 Rises=F Damp=F
 DIIS: error= 1.12D-03 at cycle   5 NSaved=   5.
 NSaved= 5 IEnMin= 5 EnMin= -279.504148982783     IErMin= 5 ErrMin= 1.12D-03
 ErrMax= 1.12D-03  0.00D+00 EMaxC= 1.00D-01 BMatC= 1.08D-04 BMatP= 6.12D-04
 IDIUse=3 WtCom= 9.89D-01 WtEn= 1.12D-02
 Coeff-Com:  0.547D-02-0.681D-01-0.113D+00 0.595D-01 0.112D+01
 Coeff-En:   0.000D+00 0.000D+00 0.000D+00 0.000D+00 0.100D+01
 Coeff:      0.541D-02-0.673D-01-0.112D+00 0.589D-01 0.111D+01
 Gap=     0.530 Goal=   None    Shift=    0.000
 RMSDP=8.25D-05 MaxDP=2.20D-03 DE=-8.35D-04 OVMax= 1.34D-02

 Cycle   6  Pass 1  IDiag  1:
 E= -279.504537648402     Delta-E=       -0.000388665619 Rises=F Damp=F
 DIIS: error= 3.49D-04 at cycle   6 NSaved=   6.
 NSaved= 6 IEnMin= 6 EnMin= -279.504537648402     IErMin= 6 ErrMin= 3.49D-04
 ErrMax= 3.49D-04  0.00D+00 EMaxC= 1.00D-01 BMatC= 2.52D-05 BMatP= 1.08D-04
 IDIUse=3 WtCom= 9.97D-01 WtEn= 3.49D-03
 Coeff-Com:  0.194D-02-0.754D-02-0.181D-01-0.183D+00-0.433D-02 0.121D+01
 Coeff-En:   0.000D+00 0.000D+00 0.000D+00 0.000D+00 0.000D+00 0.100D+01
 Coeff:      0.193D-02-0.751D-02-0.181D-01-0.182D+00-0.432D-02 0.121D+01
 Gap=     0.530 Goal=   None    Shift=    0.000
 RMSDP=4.95D-05 MaxDP=1.15D-03 DE=-3.89D-04 OVMax= 6.50D-03

 Cycle   7  Pass 1  IDiag  1:
 E= -279.504632944419     Delta-E=       -0.000095296016 Rises=F Damp=F
 DIIS: error= 1.37D-04 at cycle   7 NSaved=   7.
 NSaved= 7 IEnMin= 7 EnMin= -279.504632944419     IErMin= 7 ErrMin= 1.37D-04
 ErrMax= 1.37D-04  0.00D+00 EMaxC= 1.00D-01 BMatC= 4.05D-06 BMatP= 2.52D-05
 IDIUse=3 WtCom= 9.99D-01 WtEn= 1.37D-03
 Coeff-Com: -0.107D-02 0.119D-01 0.254D-01 0.106D-01-0.187D+00-0.101D+00
 Coeff-Com:  0.124D+01
 Coeff-En:   0.000D+00 0.000D+00 0.000D+00 0.000D+00 0.000D+00 0.000D+00
 Coeff-En:   0.100D+01
 Coeff:     -0.107D-02 0.119D-01 0.254D-01 0.106D-01-0.187D+00-0.101D+00
 Coeff:      0.124D+01
 Gap=     0.531 Goal=   None    Shift=    0.000
 RMSDP=1.83D-05 MaxDP=5.34D-04 DE=-9.53D-05 OVMax= 2.41D-03

 Cycle   8  Pass 1  IDiag  1:
 E= -279.504646288620     Delta-E=       -0.000013344201 Rises=F Damp=F
 DIIS: error= 4.87D-05 at cycle   8 NSaved=   8.
 NSaved= 8 IEnMin= 8 EnMin= -279.504646288620     IErMin= 8 ErrMin= 4.87D-05
 ErrMax= 4.87D-05  0.00D+00 EMaxC= 1.00D-01 BMatC= 7.32D-07 BMatP= 4.05D-06
 IDIUse=1 WtCom= 1.00D+00 WtEn= 0.00D+00
 Coeff-Com: -0.623D-03 0.469D-02 0.109D-01 0.271D-01-0.617D-01-0.205D+00
 Coeff-Com:  0.363D+00 0.861D+00
 Coeff:     -0.623D-03 0.469D-02 0.109D-01 0.271D-01-0.617D-01-0.205D+00
 Coeff:      0.363D+00 0.861D+00
 Gap=     0.531 Goal=   None    Shift=    0.000
 RMSDP=6.29D-06 MaxDP=1.77D-04 DE=-1.33D-05 OVMax= 7.44D-04

 Cycle   9  Pass 1  IDiag  1:
 E= -279.504648016394     Delta-E=       -0.000001727774 Rises=F Damp=F
 DIIS: error= 2.52D-05 at cycle   9 NSaved=   9.
 NSaved= 9 IEnMin= 9 EnMin= -279.504648016394     IErMin= 9 ErrMin= 2.52D-05
 ErrMax= 2.52D-05  0.00D+00 EMaxC= 1.00D-01 BMatC= 1.22D-07 BMatP= 7.32D-07
 IDIUse=1 WtCom= 1.00D+00 WtEn= 0.00D+00
 Coeff-Com:  0.251D-03-0.269D-02-0.555D-02-0.605D-02 0.476D-01 0.505D-01
 Coeff-Com: -0.330D+00-0.179D-01 0.126D+01
 Coeff:      0.251D-03-0.269D-02-0.555D-02-0.605D-02 0.476D-01 0.505D-01
 Coeff:     -0.330D+00-0.179D-01 0.126D+01
 Gap=     0.531 Goal=   None    Shift=    0.000
 RMSDP=2.62D-06 MaxDP=7.03D-05 DE=-1.73D-06 OVMax= 2.70D-04

 Cycle  10  Pass 1  IDiag  1:
 E= -279.504648301030     Delta-E=       -0.000000284635 Rises=F Damp=F
 DIIS: error= 5.99D-06 at cycle  10 NSaved=  10.
 NSaved=10 IEnMin=10 EnMin= -279.504648301030     IErMin=10 ErrMin= 5.99D-06
 ErrMax= 5.99D-06  0.00D+00 EMaxC= 1.00D-01 BMatC= 8.25D-09 BMatP= 1.22D-07
 IDIUse=1 WtCom= 1.00D+00 WtEn= 0.00D+00
 Coeff-Com: -0.359D-04 0.471D-03 0.114D-02-0.182D-02-0.103D-01 0.570D-02
 Coeff-Com:  0.648D-01-0.382D-01-0.412D+00 0.139D+01
 Coeff:     -0.359D-04 0.471D-03 0.114D-02-0.182D-02-0.103D-01 0.570D-02
 Coeff:      0.648D-01-0.382D-01-0.412D+00 0.139D+01
 Gap=     0.531 Goal=   None    Shift=    0.000
 RMSDP=6.84D-07 MaxDP=2.52D-05 DE=-2.85D-07 OVMax= 7.18D-05

 Cycle  11  Pass 1  IDiag  1:
 E= -279.504648325099     Delta-E=       -0.000000024069 Rises=F Damp=F
 DIIS: error= 2.23D-06 at cycle  11 NSaved=  11.
 NSaved=11 IEnMin=11 EnMin= -279.504648325099     IErMin=11 ErrMin= 2.23D-06
 ErrMax= 2.23D-06  0.00D+00 EMaxC= 1.00D-01 BMatC= 9.10D-10 BMatP= 8.25D-09
 IDIUse=1 WtCom= 1.00D+00 WtEn= 0.00D+00
 Coeff-Com: -0.187D-04 0.197D-03 0.414D-03 0.830D-03-0.264D-02-0.709D-02
 Coeff-Com:  0.212D-01 0.189D-01-0.701D-01-0.272D+00 0.131D+01
 Coeff:     -0.187D-04 0.197D-03 0.414D-03 0.830D-03-0.264D-02-0.709D-02
 Coeff:      0.212D-01 0.189D-01-0.701D-01-0.272D+00 0.131D+01
 Gap=     0.531 Goal=   None    Shift=    0.000
 RMSDP=2.43D-07 MaxDP=8.99D-06 DE=-2.41D-08 OVMax= 2.80D-05

 Cycle  12  Pass 1  IDiag  1:
 E= -279.504648328250     Delta-E=       -0.000000003151 Rises=F Damp=F
 DIIS: error= 8.66D-07 at cycle  12 NSaved=  12.
 NSaved=12 IEnMin=12 EnMin= -279.504648328250     IErMin=12 ErrMin= 8.66D-07
 ErrMax= 8.66D-07  0.00D+00 EMaxC= 1.00D-01 BMatC= 1.07D-10 BMatP= 9.10D-10
 IDIUse=1 WtCom= 1.00D+00 WtEn= 0.00D+00
 Coeff-Com:  0.261D-05-0.476D-04-0.105D-03 0.171D-03 0.124D-02-0.107D-02
 Coeff-Com: -0.733D-02 0.619D-02 0.448D-01-0.139D+00-0.164D+00 0.126D+01
 Coeff:      0.261D-05-0.476D-04-0.105D-03 0.171D-03 0.124D-02-0.107D-02
 Coeff:     -0.733D-02 0.619D-02 0.448D-01-0.139D+00-0.164D+00 0.126D+01
 Gap=     0.531 Goal=   None    Shift=    0.000
 RMSDP=9.29D-08 MaxDP=3.12D-06 DE=-3.15D-09 OVMax= 1.10D-05

 Cycle  13  Pass 1  IDiag  1:
 E= -279.504648328628     Delta-E=       -0.000000000378 Rises=F Damp=F
 DIIS: error= 1.94D-07 at cycle  13 NSaved=  13.
 NSaved=13 IEnMin=13 EnMin= -279.504648328628     IErMin=13 ErrMin= 1.94D-07
 ErrMax= 1.94D-07  0.00D+00 EMaxC= 1.00D-01 BMatC= 9.21D-12 BMatP= 1.07D-10
 IDIUse=1 WtCom= 1.00D+00 WtEn= 0.00D+00
 Coeff-Com:  0.144D-05-0.144D-04-0.207D-04-0.123D-03 0.612D-04 0.965D-03
 Coeff-Com: -0.120D-02-0.248D-02-0.104D-02 0.554D-01-0.129D+00-0.171D+00
 Coeff-Com:  0.125D+01
 Coeff:      0.144D-05-0.144D-04-0.207D-04-0.123D-03 0.612D-04 0.965D-03
 Coeff:     -0.120D-02-0.248D-02-0.104D-02 0.554D-01-0.129D+00-0.171D+00
 Coeff:      0.125D+01
 Gap=     0.531 Goal=   None    Shift=    0.000
 RMSDP=2.56D-08 MaxDP=7.73D-07 DE=-3.78D-10 OVMax= 2.47D-06

 Cycle  14  Pass 1  IDiag  1:
 E= -279.504648328654     Delta-E=       -0.000000000026 Rises=F Damp=F
 DIIS: error= 4.73D-08 at cycle  14 NSaved=  14.
 NSaved=14 IEnMin=14 EnMin= -279.504648328654     IErMin=14 ErrMin= 4.73D-08
 ErrMax= 4.73D-08  0.00D+00 EMaxC= 1.00D-01 BMatC= 5.67D-13 BMatP= 9.21D-12
 IDIUse=1 WtCom= 1.00D+00 WtEn= 0.00D+00
 Coeff-Com: -0.296D-06 0.456D-05 0.932D-05-0.505D-05-0.119D-03 0.828D-04
 Coeff-Com:  0.621D-03-0.246D-03-0.377D-02 0.908D-02 0.171D-01-0.880D-01
 Coeff-Com: -0.351D-01 0.110D+01
 Coeff:     -0.296D-06 0.456D-05 0.932D-05-0.505D-05-0.119D-03 0.828D-04
 Coeff:      0.621D-03-0.246D-03-0.377D-02 0.908D-02 0.171D-01-0.880D-01
 Coeff:     -0.351D-01 0.110D+01
 Gap=     0.531 Goal=   None    Shift=    0.000
 RMSDP=4.87D-09 MaxDP=1.18D-07 DE=-2.63D-11 OVMax= 5.04D-07

 SCF Done:  E(RHF) =  -279.504648329     A.U. after   14 cycles
            NFock= 14  Conv=0.49D-08     -V/T= 2.0024
 KE= 2.788459706037D+02 PE=-9.050862682264D+02 EE= 2.246219587634D+02
 Leave Link  502 at Sun Mar  6 19:03:48 2022, MaxMem= 16106127360 cpu:              79.6 elap:               4.6
 (Enter /sw/contrib/gaussian/g16/B01/g16/l801.exe)
 ExpMin= 2.53D-02 ExpMax= 1.53D+04 ExpMxC= 5.22D+02 IAcc=3 IRadAn=         5 AccDes= 0.00D+00
 HarFok:  IExCor=  205 AccDes= 0.00D+00 IRadAn=         5 IDoV=-2 UseB2=F ITyADJ=14
 ICtDFT= 12500011 ScaDFX=  1.000000  1.000000  1.000000  1.000000
 Largest valence mixing into a core orbital is  2.08D-04
 Largest core mixing into a valence orbital is  3.20D-05
 Range of M.O.s used for correlation:     5   207
 NBasis=   207 NAE=    16 NBE=    16 NFC=     4 NFV=     0
 NROrb=    203 NOA=    12 NOB=    12 NVA=   191 NVB=   191

 **** Warning!!: The largest alpha MO coefficient is  0.16647120D+02

 Leave Link  801 at Sun Mar  6 19:03:48 2022, MaxMem= 16106127360 cpu:               2.2 elap:               0.1
 (Enter /sw/contrib/gaussian/g16/B01/g16/l906.exe)
 Frozen-core derivative calculation, NFC=   4 NFV=   0.
 FulOut=F Deriv=T AODrv=T NAtomX=     5
   MMem=           0  MDisk=          12 MDiskD=          12
  W3Min=      811440 MinDsk=     2425030 NBas6D=         245
 NBas2D=       30762    NTT=       30135    LW2=     7400000
    MDV= 16105571644 MDiskM=      328644 NBas2p=       30759
 Disk-based method using ON**2 memory for 12 occupieds at a time.
 Permanent disk used for amplitudes=    11516536 words.
 Estimated scratch disk usage=   321863743 words.
 IMap=   1   2   3   4   5   6   7   8   9  10  11  12  13  14  15  16
 Actual    scratch disk usage=   310892607 words.
 JobTyp=1 Pass  1:  I=   5 to  16 NPSUse= 28 ParTrn=T ParDer=T DoDerP=T.
 (rs|ai) integrals will be sorted in core.
 Spin components of T(2) and E(2):
     alpha-alpha T2 =       0.3502142307D-01 E2=     -0.1247019978D+00
     alpha-beta  T2 =       0.1858264354D+00 E2=     -0.7010500706D+00
     beta-beta   T2 =       0.3502142307D-01 E2=     -0.1247019978D+00
 The integrals were generated   1 times.
 ANorm=    0.1120655737D+01
 E2 =    -0.9504540662D+00 EUMP2 =    -0.28045510239482D+03
 Leave Link  906 at Sun Mar  6 19:05:25 2022, MaxMem= 16106127360 cpu:            2723.8 elap:              97.4
 (Enter /sw/contrib/gaussian/g16/B01/g16/l1101.exe)
 Using compressed Sx but separate Hx and Fx, NAtomX=     5.
 Will process      6 centers per pass.
 Leave Link 1101 at Sun Mar  6 19:05:26 2022, MaxMem= 16106127360 cpu:               5.8 elap:               0.2
 (Enter /sw/contrib/gaussian/g16/B01/g16/l1102.exe)
 Leave Link 1102 at Sun Mar  6 19:05:26 2022, MaxMem= 16106127360 cpu:               0.5 elap:               0.0
 (Enter /sw/contrib/gaussian/g16/B01/g16/l1110.exe)
 Forming Gx(P) for the SCF density, NAtomX=     5.
 Integral derivatives from FoFJK, PRISM(SPDF).
 Do as many integral derivatives as possible in FoFJK.
 G2DrvN: MDV=   16106126844.
 G2DrvN: will do     6 centers at a time, making    1 passes.
 Calling FoFCou, ICntrl=  3107 FMM=F I1Cent=   0 AccDes= 0.00D+00.
 FoFJK:  IHMeth= 1 ICntrl=    3107 DoSepK=F KAlg= 0 I1Cent=           0 FoldK=F
 IRaf=         0 NMat=       1 IRICut=       1 DoRegI=T DoRafI=F ISym2E= 1 IDoP0=0 IntGTp=1.
 FoFCou: FMM=F IPFlag=           0 FMFlag=      100000 FMFlg1=           0
         NFxFlg=           0 DoJE=F BraDBF=F KetDBF=F FulRan=T
         wScrn=  0.000000 ICntrl=      3107 IOpCl=  0 I1Cent=           0 NGrid=           0
         NMat0=    1 NMatS0=      1 NMatT0=    0 NMatD0=    1 NMtDS0=    0 NMtDT0=    0
 Petite list used in FoFCou.
 End of G2Drv F.D. properties file   721 does not exist.
 End of G2Drv F.D. properties file   722 does not exist.
 End of G2Drv F.D. properties file   788 does not exist.
 Leave Link 1110 at Sun Mar  6 19:05:29 2022, MaxMem= 16106127360 cpu:              86.9 elap:               3.1
 (Enter /sw/contrib/gaussian/g16/B01/g16/l1002.exe)
 Minotr:  Closed shell wavefunction.
          IDoAtm=11111
          Frozen-core window.
          Direct CPHF calculation.
          Differentiating once with respect to electric field.
                with respect to dipole field.
          Differentiating once with respect to nuclear coordinates.
          Requested convergence is 1.0D-08 RMS, and 1.0D-07 maximum.
          Secondary convergence is 1.0D-12 RMS, and 1.0D-12 maximum.
          NewPWx=T KeepS1=T KeepF1=T KeepIn=T MapXYZ=F SortEE=F KeepMc=T.
 Keep R1 ints in memory in symmetry-blocked form, NReq=348888983.
 FoFCou: FMM=F IPFlag=           0 FMFlag=           0 FMFlg1=           0
         NFxFlg=           0 DoJE=F BraDBF=F KetDBF=F FulRan=T
         wScrn=  0.000000 ICntrl=       600 IOpCl=  0 I1Cent=           0 NGrid=           0
         NMat0=    1 NMatS0=  21528 NMatT0=    0 NMatD0=    1 NMtDS0=    0 NMtDT0=    0
 Petite list used in FoFCou.
          MDV=   16106127360 using IRadAn=       1.
          Solving linear equations simultaneously, MaxMat=       0.
          There are    18 degrees of freedom in the 1st order CPHF.  IDoFFX=6 NUNeed=    18.
     15 vectors produced by pass  0 Test12= 1.70D-14 5.56D-09 XBig12= 8.03D+00 1.23D+00.
 AX will form    15 AO Fock derivatives at one time.
     15 vectors produced by pass  1 Test12= 1.70D-14 5.56D-09 XBig12= 1.38D+00 2.67D-01.
     15 vectors produced by pass  2 Test12= 1.70D-14 5.56D-09 XBig12= 7.01D-02 6.04D-02.
     15 vectors produced by pass  3 Test12= 1.70D-14 5.56D-09 XBig12= 2.11D-03 1.06D-02.
     15 vectors produced by pass  4 Test12= 1.70D-14 5.56D-09 XBig12= 4.48D-05 1.23D-03.
     15 vectors produced by pass  5 Test12= 1.70D-14 5.56D-09 XBig12= 6.28D-07 1.20D-04.
     15 vectors produced by pass  6 Test12= 1.70D-14 5.56D-09 XBig12= 4.77D-09 1.22D-05.
     14 vectors produced by pass  7 Test12= 1.70D-14 5.56D-09 XBig12= 3.57D-11 8.62D-07.
      3 vectors produced by pass  8 Test12= 1.70D-14 5.56D-09 XBig12= 2.52D-13 7.26D-08.
      1 vectors produced by pass  9 Test12= 1.70D-14 5.56D-09 XBig12= 1.78D-15 7.41D-09.
 InvSVY:  IOpt=1 It=  1 EMax= 8.88D-16
 Solved reduced A of dimension   123 with    15 vectors.
 FullF1:  Do perturbations      1 to      18.
 Saving first derivative matrices.
 End of Minotr F.D. properties file   721 does not exist.
 End of Minotr F.D. properties file   722 does not exist.
 End of Minotr F.D. properties file   788 does not exist.
 Leave Link 1002 at Sun Mar  6 19:05:32 2022, MaxMem= 16106127360 cpu:              78.3 elap:               2.9
 (Enter /sw/contrib/gaussian/g16/B01/g16/l811.exe)
 MDV= 16106127360.
 Form MO integral derivatives with frozen-active canonical formalism.
 MOERI=1 MOERIx=1 NAtoms=     5 NAtomX=     5.
 Discarding MO integrals.
 MO basis two electron integral derivatives will not be stored on disk.
 IAlg= 3 DoFC=T DoPWx=T Debug=F.
 Frozen-core window:  NFC=   4 NFV=   0.
 Reordered first order wavefunction length =     18678272
 In DefCFB: NBatch=  1 ICI= 16 ICA=191 LFMax= 96
            Large arrays: LIAPS=   619940160 LIARS=   288257200 words.
 In StABat: MaxSiz= 55 MinSiz= 25 NAtomB=  5
 DoIAMN: NPSUse= 28.
 Leave Link  811 at Sun Mar  6 19:06:54 2022, MaxMem= 16106127360 cpu:            2290.7 elap:              81.9
 (Enter /sw/contrib/gaussian/g16/B01/g16/l804.exe)
 Frozen-core window:  NFC=   4 NFV=   0.
 Closed-shell transformation, MDV= 16106127360 ITran=4 ISComp=1.
 Semi-Direct transformation.
 ModeAB=           2 MOrb=            16 LenV=   16104920023
 LASXX=     67341636 LTotXX=    67341636 LenRXX=    67341636
 LTotAB=    68301760 MaxLAS=    99807120 LenRXY=    99807120
 NonZer=   134683272 LenScr=   202817536 LnRSAI=           0
 LnScr1=           0 LExtra=           0 Total=    369966292
 MaxDsk=          -1 SrtSym=           F ITran=            4
 DoSDTr:  NPSUse= 28
 JobTyp=0 Pass  1:  I=   1 to  16.
 (rs|ai) integrals will be sorted in core.
 Complete sort for first half transformation.
 First half transformation complete.
 Begin second half transformation for I=  10.
 Begin second half transformation for I=  10.
 Complete sort for second half transformation.
 Second half transformation complete.
 Spin components of T(2) and E(2):
     alpha-alpha T2 =       0.3502142307D-01 E2=     -0.1247019978D+00
     alpha-beta  T2 =       0.1858264354D+00 E2=     -0.7010500706D+00
     beta-beta   T2 =       0.3502142307D-01 E2=     -0.1247019978D+00
 ANorm=    0.1584846542D+01
 E2 =    -0.9504540662D+00 EUMP2 =    -0.28045510239482D+03
 Leave Link  804 at Sun Mar  6 19:07:10 2022, MaxMem= 16106127360 cpu:             442.8 elap:              15.9
 (Enter /sw/contrib/gaussian/g16/B01/g16/l1002.exe)
 Minotr:  Closed shell wavefunction.
          Computing MP2/KS-MP2 derivatives.
          Using Z-Vector for PSCF gradient.
          Skipping F1 and S1 gradient terms here.
          IDoAtm=11111
          Frozen-core window.
          Using MO integrals in the linear equations.
          Forming densities via direct SCF.
          Differentiating once with respect to electric field.
                with respect to dipole field.
          Differentiating once with respect to nuclear coordinates.
          Using symmetry in CPHF.
          Requested convergence is 1.0D-10 RMS, and 1.0D-09 maximum.
          NewPWx=F KeepS1=T KeepF1=T KeepIn=T MapXYZ=F SortEE=F KeepMc=T.
          MDV=   16106127360 using IRadAn=       5.
          Solving linear equations separately, MaxMat=       0.
          There are     1 degrees of freedom in the 1st order CPHF.  IDoFFX=0 NUNeed=     1.
 FoFJK:  IHMeth= 1 ICntrl=       0 DoSepK=F KAlg= 0 I1Cent=           0 FoldK=F
 IRaf=         0 NMat=       1 IRICut=       1 DoRegI=T DoRafI=F ISym2E= 0 IDoP0=0 IntGTp=1.
 FoFCou: FMM=F IPFlag=           0 FMFlag=      100000 FMFlg1=           0
         NFxFlg=           0 DoJE=F BraDBF=F KetDBF=F FulRan=T
         wScrn=  0.000000 ICntrl=         0 IOpCl=  0 I1Cent=           0 NGrid=           0
         NMat0=    1 NMatS0=      1 NMatT0=    0 NMatD0=    1 NMtDS0=    0 NMtDT0=    0
 Symmetry not used in FoFCou.
 LinEq1:  Iter=  0 NonCon=     1 RMS=6.67D-03 Max=1.76D-01 NDo=     1
 LinEq1:  Iter=  1 NonCon=     1 RMS=2.07D-03 Max=3.22D-02 NDo=     1
 LinEq1:  Iter=  2 NonCon=     1 RMS=9.18D-04 Max=1.46D-02 NDo=     1
 LinEq1:  Iter=  3 NonCon=     1 RMS=3.97D-04 Max=8.32D-03 NDo=     1
 LinEq1:  Iter=  4 NonCon=     1 RMS=1.44D-04 Max=1.69D-03 NDo=     1
 LinEq1:  Iter=  5 NonCon=     1 RMS=8.02D-05 Max=1.45D-03 NDo=     1
 LinEq1:  Iter=  6 NonCon=     1 RMS=2.55D-05 Max=3.30D-04 NDo=     1
 LinEq1:  Iter=  7 NonCon=     1 RMS=8.74D-06 Max=1.15D-04 NDo=     1
 LinEq1:  Iter=  8 NonCon=     1 RMS=4.23D-06 Max=6.32D-05 NDo=     1
 LinEq1:  Iter=  9 NonCon=     1 RMS=1.10D-06 Max=1.24D-05 NDo=     1
 LinEq1:  Iter= 10 NonCon=     1 RMS=2.43D-07 Max=3.03D-06 NDo=     1
 LinEq1:  Iter= 11 NonCon=     1 RMS=5.16D-08 Max=8.24D-07 NDo=     1
 LinEq1:  Iter= 12 NonCon=     1 RMS=1.22D-08 Max=1.78D-07 NDo=     1
 LinEq1:  Iter= 13 NonCon=     1 RMS=2.15D-09 Max=2.72D-08 NDo=     1
 LinEq1:  Iter= 14 NonCon=     1 RMS=4.50D-10 Max=6.18D-09 NDo=     1
 LinEq1:  Iter= 15 NonCon=     0 RMS=9.27D-11 Max=9.35D-10 NDo=     1
 Linear equations converged to 1.000D-10 1.000D-09 after    15 iterations.
 End of Minotr F.D. properties file   721 does not exist.
 End of Minotr F.D. properties file   722 does not exist.
 End of Minotr F.D. properties file   788 does not exist.
 Leave Link 1002 at Sun Mar  6 19:07:12 2022, MaxMem= 16106127360 cpu:              64.0 elap:               2.3
 (Enter /sw/contrib/gaussian/g16/B01/g16/l1102.exe)
 Use density number 2.
 Symmetrizing basis deriv contribution to polar:
 IMax=3 JMax=2 DiffMx= 0.00D+00
 Leave Link 1102 at Sun Mar  6 19:07:12 2022, MaxMem= 16106127360 cpu:               2.9 elap:               0.1
 (Enter /sw/contrib/gaussian/g16/B01/g16/l1110.exe)
 Forming Gx(P) for generalized density number  2 NAtomX=     5.
 Integral derivatives from FoFJK, PRISM(SPDF).
 Do as many integral derivatives as possible in FoFJK.
 G2DrvN: MDV=   16106126844.
 G2DrvN: will do     6 centers at a time, making    1 passes.
 Calling FoFCou, ICntrl=  3107 FMM=F I1Cent=   0 AccDes= 0.00D+00.
 FoFJK:  IHMeth= 1 ICntrl=    3107 DoSepK=F KAlg= 0 I1Cent=           0 FoldK=F
 IRaf=         0 NMat=       1 IRICut=       1 DoRegI=T DoRafI=F ISym2E= 1 IDoP0=0 IntGTp=1.
 FoFCou: FMM=F IPFlag=           0 FMFlag=      100000 FMFlg1=           0
         NFxFlg=           0 DoJE=F BraDBF=F KetDBF=F FulRan=T
         wScrn=  0.000000 ICntrl=      3107 IOpCl=  0 I1Cent=           0 NGrid=           0
         NMat0=    1 NMatS0=      1 NMatT0=    0 NMatD0=    1 NMtDS0=    0 NMtDT0=    0
 Petite list used in FoFCou.
 End of G2Drv F.D. properties file   721 does not exist.
 End of G2Drv F.D. properties file   722 does not exist.
 End of G2Drv F.D. properties file   788 does not exist.
 Leave Link 1110 at Sun Mar  6 19:07:15 2022, MaxMem= 16106127360 cpu:              90.1 elap:               3.3
 (Enter /sw/contrib/gaussian/g16/B01/g16/l1112.exe)
 MP22nd: MDV=   16106127360
 This link is doing NAtomX=     5 total of    18 degrees of freedom.
 Using ON3 I/O method in MakUI.
 Frozen-core window:  NFC=   4 NFV=   0.
 Using Ix for Sx.
 Use MO integrals over full window.
 Using OV2 memory method for fx*t*t/D, MaxI=    16 DoOO2=F NP=  28.
 R2 and R3 integrals will be kept in memory, NReq=   915591705.
 FoFCou: FMM=F IPFlag=           0 FMFlag=           0 FMFlg1=           0
         NFxFlg=           0 DoJE=F BraDBF=F KetDBF=F FulRan=T
         wScrn=  0.000000 ICntrl=       600 IOpCl=  0 I1Cent=           0 NGrid=           0
         NMat0=    1 NMatS0=      1 NMatT0=    0 NMatD0=    1 NMtDS0=    0 NMtDT0=    0
 Symmetry not used in FoFCou.
 DD1Dir will call FoFMem   1 times, MxPair=       272
 NAB=   136 NAA=     0 NBB=     0.
 Symmetry is being used.
 FoFJK:  IHMeth= 1 ICntrl=       0 DoSepK=F KAlg= 0 I1Cent=           0 FoldK=F
 IRaf=         0 NMat=      18 IRICut=      45 DoRegI=T DoRafI=T ISym2E= 2 IDoP0=3 IntGTp=3.
 Discarding MO integrals.
 Leave Link 1112 at Sun Mar  6 19:07:50 2022, MaxMem= 16106127360 cpu:             965.0 elap:              34.8
 (Enter /sw/contrib/gaussian/g16/B01/g16/l601.exe)
 Copying SCF densities to generalized density rwf, IOpCl= 0 IROHF=0.

 **********************************************************************

            Population analysis using the MP2 Density.

 **********************************************************************

 Orbital symmetries:
       Occupied  (A') (A') (A') (A') (A') (A') (A') (A') (A') (A')
                 (A") (A') (A") (A') (A') (A")
       Virtual   (A') (A") (A') (A') (A") (A') (A') (A') (A") (A')
                 (A") (A') (A') (A') (A") (A') (A') (A") (A') (A')
                 (A') (A') (A') (A') (A") (A') (A') (A") (A') (A')
                 (A') (A") (A") (A') (A') (A') (A") (A') (A") (A')
                 (A") (A") (A') (A') (A") (A') (A') (A") (A') (A')
                 (A') (A") (A') (A') (A") (A') (A") (A') (A") (A')
                 (A') (A') (A") (A') (A') (A") (A') (A") (A') (A')
                 (A") (A') (A") (A") (A') (A') (A") (A') (A') (A')
                 (A") (A') (A') (A") (A') (A") (A") (A') (A') (A')
                 (A') (A') (A") (A") (A') (A') (A") (A") (A') (A")
                 (A') (A') (A") (A') (A") (A') (A') (A') (A") (A")
                 (A') (A') (A') (A') (A") (A') (A') (A') (A") (A')
                 (A") (A") (A') (A') (A") (A") (A') (A") (A') (A')
                 (A') (A') (A") (A') (A') (A") (A") (A') (A') (A')
                 (A") (A") (A') (A') (A') (A") (A') (A') (A') (A")
                 (A') (A') (A') (A") (A") (A') (A") (A') (A') (A")
                 (A') (A") (A') (A") (A") (A') (A') (A") (A") (A")
                 (A') (A") (A") (A') (A') (A") (A') (A') (A') (A")
                 (A') (A') (A') (A') (A') (A') (A') (A') (A') (A')
                 (A')
 The electronic state is 1-A'.
 Alpha  occ. eigenvalues --  -20.71663 -20.69168 -20.66716 -15.82837  -1.63994
 Alpha  occ. eigenvalues --   -1.50491  -1.28694  -0.96147  -0.83258  -0.75672
 Alpha  occ. eigenvalues --   -0.73575  -0.63691  -0.62014  -0.61914  -0.50425
 Alpha  occ. eigenvalues --   -0.49561
 Alpha virt. eigenvalues --    0.03516   0.05746   0.09502   0.10033   0.11972
 Alpha virt. eigenvalues --    0.12217   0.14976   0.15253   0.17765   0.18002
 Alpha virt. eigenvalues --    0.18990   0.21083   0.21677   0.24194   0.24628
 Alpha virt. eigenvalues --    0.26835   0.31161   0.31609   0.33600   0.33778
 Alpha virt. eigenvalues --    0.34529   0.38960   0.44833   0.48851   0.50492
 Alpha virt. eigenvalues --    0.51804   0.54405   0.56058   0.59823   0.61989
 Alpha virt. eigenvalues --    0.63758   0.68887   0.71935   0.72362   0.74266
 Alpha virt. eigenvalues --    0.76295   0.76655   0.79576   0.80488   0.83993
 Alpha virt. eigenvalues --    0.84387   0.85159   0.88401   0.90720   0.92881
 Alpha virt. eigenvalues --    0.94626   0.95603   1.01765   1.03129   1.06017
 Alpha virt. eigenvalues --    1.06526   1.09329   1.14301   1.15483   1.16722
 Alpha virt. eigenvalues --    1.22115   1.22793   1.24566   1.35163   1.36295
 Alpha virt. eigenvalues --    1.37325   1.46737   1.48475   1.50541   1.54215
 Alpha virt. eigenvalues --    1.59504   1.59574   1.60109   1.62313   1.69453
 Alpha virt. eigenvalues --    1.74080   1.80078   1.82694   1.88704   1.89541
 Alpha virt. eigenvalues --    1.92253   1.97665   1.98725   2.05101   2.11906
 Alpha virt. eigenvalues --    2.12778   2.15917   2.18732   2.24096   2.25914
 Alpha virt. eigenvalues --    2.29525   2.35013   2.36292   2.38617   2.40291
 Alpha virt. eigenvalues --    2.42721   2.46743   2.47605   2.52977   2.53020
 Alpha virt. eigenvalues --    2.54828   2.55456   2.61131   2.62763   2.66727
 Alpha virt. eigenvalues --    2.66782   2.75038   2.80540   2.80972   2.84032
 Alpha virt. eigenvalues --    2.91181   2.97439   3.03959   3.04632   3.11376
 Alpha virt. eigenvalues --    3.11611   3.17320   3.21321   3.30564   3.32878
 Alpha virt. eigenvalues --    3.34944   3.48084   3.66314   3.85993   3.92554
 Alpha virt. eigenvalues --    4.18218   4.21614   4.22031   4.26015   4.36695
 Alpha virt. eigenvalues --    4.49741   4.51384   4.55244   4.59410   4.69206
 Alpha virt. eigenvalues --    4.80739   4.88525   4.91084   4.93841   4.98768
 Alpha virt. eigenvalues --    5.00246   5.09870   5.12987   5.17858   5.24816
 Alpha virt. eigenvalues --    5.25668   5.30780   5.33732   5.35426   5.54451
 Alpha virt. eigenvalues --    5.64035   5.69805   5.88575   6.00089   6.26540
 Alpha virt. eigenvalues --    6.28547   6.34879   6.37617   6.59682   6.65094
 Alpha virt. eigenvalues --    6.65636   6.68088   6.72163   6.80556   6.80794
 Alpha virt. eigenvalues --    6.83813   6.95214   7.02047   7.06828   7.07966
 Alpha virt. eigenvalues --    7.13961   7.16156   7.16910   7.20501   7.24290
 Alpha virt. eigenvalues --    7.24375   7.26699   7.34249   7.37560   7.41879
 Alpha virt. eigenvalues --    7.43867   7.46387   7.53752   7.65315   7.65837
 Alpha virt. eigenvalues --    7.78889   7.87542   7.92491   8.04861   8.30284
 Alpha virt. eigenvalues --    8.49282   8.63863  13.51945  14.63084  15.05309
 Alpha virt. eigenvalues --   15.71653
          Condensed to atoms (all electrons):
               1          2          3          4          5
     1  H    0.579903   0.125447   0.024299  -0.002291  -0.005000
     2  O    0.125447   8.383421  -0.230796   0.001281  -0.007686
     3  O    0.024299  -0.230796   8.378524  -0.164945  -0.029919
     4  N   -0.002291   0.001281  -0.164945   7.121723  -0.116571
     5  O   -0.005000  -0.007686  -0.029919  -0.116571   8.348788
 Mulliken charges:
               1
     1  H    0.277642
     2  O   -0.271667
     3  O    0.022836
     4  N    0.160802
     5  O   -0.189613
 Sum of Mulliken charges =  -0.00000
 Mulliken charges with hydrogens summed into heavy atoms:
               1
     2  O    0.005975
     3  O    0.022836
     4  N    0.160802
     5  O   -0.189613
 APT charges:
               1
     1  H    0.267393
     2  O   -0.300230
     3  O   -0.329900
     4  N    0.661660
     5  O   -0.298922
 Sum of APT charges =  -0.00000
 APT charges with hydrogens summed into heavy atoms:
               1
     2  O   -0.032837
     3  O   -0.329900
     4  N    0.661660
     5  O   -0.298922
 Electronic spatial extent (au):  <R**2>=            209.2878
 Charge=             -0.0000 electrons
 Dipole moment (field-independent basis, Debye):
    X=              0.0036    Y=             -1.1838    Z=             -0.0000  Tot=              1.1838
 Quadrupole moment (field-independent basis, Debye-Ang):
   XX=            -23.3122   YY=            -22.9823   ZZ=            -21.9644
   XY=             -1.9336   XZ=              0.0000   YZ=              0.0000
 Traceless Quadrupole moment (field-independent basis, Debye-Ang):
   XX=             -0.5593   YY=             -0.2293   ZZ=              0.7886
   XY=             -1.9336   XZ=              0.0000   YZ=              0.0000
 Octapole moment (field-independent basis, Debye-Ang**2):
  XXX=              2.4721  YYY=              0.1503  ZZZ=             -0.0000  XYY=              2.2581
  XXY=             -2.8769  XXZ=             -0.0000  XZZ=             -0.6054  YZZ=             -0.7787
  YYZ=              0.0000  XYZ=             -0.0000
 Hexadecapole moment (field-independent basis, Debye-Ang**3):
 XXXX=           -127.7445 YYYY=            -96.3937 ZZZZ=            -18.0992 XXXY=            -22.2980
 XXXZ=             -0.0000 YYYX=            -20.3645 YYYZ=              0.0000 ZZZX=             -0.0000
 ZZZY=              0.0000 XXYY=            -36.0306 XXZZ=            -24.4882 YYZZ=            -18.8604
 XXYZ=              0.0000 YYXZ=              0.0000 ZZXY=             -6.1323
 N-N= 1.221136905307D+02 E-N=-9.057882699734D+02  KE= 2.801705666095D+02
 Symmetry A'   KE= 2.663219315080D+02
 Symmetry A"   KE= 1.384863510151D+01
  Exact polarizability:  31.018   4.276  30.136   0.000  -0.000  17.684
 Approx polarizability:  24.723   0.614  27.965   0.000  -0.000  15.547
 No NMR shielding tensors so no spin-rotation constants.
 Leave Link  601 at Sun Mar  6 19:07:50 2022, MaxMem= 16106127360 cpu:               4.7 elap:               0.2
 (Enter /sw/contrib/gaussian/g16/B01/g16/l701.exe)
 ... and contract with generalized density number  2.
 Compute integral second derivatives.
 Leave Link  701 at Sun Mar  6 19:07:51 2022, MaxMem= 16106127360 cpu:               6.1 elap:               0.2
 (Enter /sw/contrib/gaussian/g16/B01/g16/l702.exe)
 L702 exits ... SP integral derivatives will be done elsewhere.
 Leave Link  702 at Sun Mar  6 19:07:51 2022, MaxMem= 16106127360 cpu:               0.6 elap:               0.0
 (Enter /sw/contrib/gaussian/g16/B01/g16/l703.exe)
 Integral derivatives from FoFJK, PRISM(SPDF).
 Compute integral second derivatives, UseDBF=F ICtDFT=           0.
 Calling FoFJK, ICntrl=  10100127 FMM=F ISym2X=1 I1Cent= 0 IOpClX= 0 NMat=1 NMatS=1 NMatT=0.
 FoFJK:  IHMeth= 1 ICntrl=10100127 DoSepK=F KAlg= 0 I1Cent=           0 FoldK=F
 IRaf=         0 NMat=       1 IRICut=       1 DoRegI=T DoRafI=F ISym2E= 1 IDoP0=0 IntGTp=1.
 FoFCou: FMM=F IPFlag=           0 FMFlag=      100000 FMFlg1=         800
         NFxFlg=           0 DoJE=F BraDBF=F KetDBF=F FulRan=T
         wScrn=  0.000000 ICntrl=  10100127 IOpCl=  0 I1Cent=           0 NGrid=           0
         NMat0=    1 NMatS0=      1 NMatT0=    0 NMatD0=    1 NMtDS0=    0 NMtDT0=    0
 Petite list used in FoFCou.
 Leave Link  703 at Sun Mar  6 19:08:07 2022, MaxMem= 16106127360 cpu:             447.5 elap:              16.0
 (Enter /sw/contrib/gaussian/g16/B01/g16/l716.exe)
 Dipole        = 1.41368593D-03-4.65758679D-01-5.01412735D-33
 Polarizability= 3.10178075D+01 4.27630292D+00 3.01361704D+01
                 1.95543907D-31-6.93829074D-32 1.76838359D+01
 Full mass-weighted force constant matrix:
 Low frequencies ---    0.0009    0.0014    0.0018   37.5760   51.9086   62.9388
 Low frequencies ---  344.4738  381.2650  519.1522
 Diagonal vibrational polarizability:
        8.5232151      12.5448154      16.9173689
 Harmonic frequencies (cm**-1), IR intensities (KM/Mole), Raman scattering
 activities (A**4/AMU), depolarization ratios for plane and unpolarized
 incident light, reduced masses (AMU), force constants (mDyne/A),
 and normal coordinates:
                      1                      2                      3
                     A"                     A'                     A"
 Frequencies --    344.4709               381.2510               519.1165
 Red. masses --      1.5096                 7.2238                 3.0913
 Frc consts  --      0.1055                 0.6186                 0.4908
 IR Inten    --     64.0529                 9.4355                23.9396
  Atom  AN      X      Y      Z        X      Y      Z        X      Y      Z
     1   1     0.00   0.00   0.98    -0.72  -0.26   0.00     0.00   0.00   0.92
     2   8     0.00   0.00  -0.11    -0.33  -0.32  -0.00     0.00   0.00   0.06
     3   8     0.00  -0.00   0.11    -0.08   0.07  -0.00     0.00  -0.00  -0.19
     4   7    -0.00  -0.00  -0.10     0.07   0.11   0.00    -0.00  -0.00   0.28
     5   8    -0.00  -0.00   0.03     0.39   0.17  -0.00    -0.00  -0.00  -0.17
                      4                      5                      6
                     A'                     A'                     A'
 Frequencies --    644.7199               834.9553               966.2534
 Red. masses --     13.1562                12.1337                10.0638
 Frc consts  --      3.2220                 4.9839                 5.5360
 IR Inten    --    233.5094                28.4894                11.3807
  Atom  AN      X      Y      Z        X      Y      Z        X      Y      Z
     1   1    -0.37  -0.02  -0.00     0.46  -0.15   0.00    -0.61  -0.02   0.00
     2   8    -0.02  -0.10   0.00     0.52  -0.19  -0.00     0.23  -0.18  -0.00
     3   8     0.36   0.58  -0.00    -0.37  -0.05  -0.00    -0.38   0.42   0.00
     4   7    -0.41  -0.46   0.00    -0.44  -0.05   0.00     0.36   0.04   0.00
     5   8     0.04  -0.08   0.00     0.21   0.30  -0.00    -0.12  -0.27  -0.00
                      7                      8                      9
                     A'                     A'                     A'
 Frequencies --   1434.9889              1560.6952              3489.6708
 Red. masses --      1.3189                 5.9596                 1.0640
 Frc consts  --      1.6001                 8.5528                 7.6342
 IR Inten    --     78.8630               150.0143                39.4743
  Atom  AN      X      Y      Z        X      Y      Z        X      Y      Z
     1   1     0.97  -0.20  -0.00    -0.78   0.17   0.00     0.15   0.99   0.00
     2   8    -0.06  -0.05  -0.00     0.02   0.02   0.00    -0.01  -0.06  -0.00
     3   8    -0.03   0.06   0.00    -0.04  -0.06  -0.00     0.00  -0.00   0.00
     4   7     0.07  -0.06  -0.00     0.24  -0.38   0.00    -0.00   0.00   0.00
     5   8    -0.03   0.05   0.00    -0.15   0.36  -0.00     0.00  -0.00  -0.00

 -------------------
 - Thermochemistry -
 -------------------
 Temperature   298.150 Kelvin.  Pressure   1.00000 Atm.
 Atom     1 has atomic number  1 and mass   1.00783
 Atom     2 has atomic number  8 and mass  15.99491
 Atom     3 has atomic number  8 and mass  15.99491
 Atom     4 has atomic number  7 and mass  14.00307
 Atom     5 has atomic number  8 and mass  15.99491
 Molecular mass:    62.99564 amu.
 Principal axes and moments of inertia in atomic units:
                           1         2         3
     Eigenvalues --    84.55772 226.70938 311.26710
           X            0.79045  -0.61253   0.00000
           Y            0.61253   0.79045   0.00000
           Z            0.00000  -0.00000   1.00000
 This molecule is an asymmetric top.
 Rotational symmetry number  1.
 Rotational temperatures (Kelvin)      1.02432     0.38205     0.27826
 Rotational constants (GHZ):          21.34331     7.96059     5.79805
 Zero-point vibrational energy      60866.7 (Joules/Mol)
                                   14.54750 (Kcal/Mol)
 Warning -- explicit consideration of   3 degrees of freedom as
           vibrations may cause significant error
 Vibrational temperatures:    495.62   548.54   746.89   927.61  1201.31
          (Kelvin)           1390.22  2064.63  2245.49  5020.86
 
 Zero-point correction=                           0.023183 (Hartree/Particle)
 Thermal correction to Energy=                    0.027179
 Thermal correction to Enthalpy=                  0.028124
 Thermal correction to Gibbs Free Energy=        -0.002843
 Sum of electronic and zero-point Energies=           -280.431919
 Sum of electronic and thermal Energies=              -280.427923
 Sum of electronic and thermal Enthalpies=            -280.426979
 Sum of electronic and thermal Free Energies=         -280.457945
 
                     E (Thermal)             CV                S
                      KCal/Mol        Cal/Mol-Kelvin    Cal/Mol-Kelvin
 Total                   17.055             12.369             65.174
 Electronic               0.000              0.000              0.000
 Translational            0.889              2.981             38.341
 Rotational               0.889              2.981             23.305
 Vibrational             15.278              6.408              3.529
 Vibration     1          0.723              1.587              1.191
 Vibration     2          0.751              1.510              1.034
 Vibration     3          0.874              1.208              0.612
                       Q            Log10(Q)             Ln(Q)
 Total Bot       0.203048D+02          1.307600          3.010859
 Total V=0       0.935382D+12         11.970989         27.564221
 Vib (Bot)       0.373643D-10        -10.427544        -24.010306
 Vib (Bot)    1  0.537513D+00         -0.269611         -0.620802
 Vib (Bot)    2  0.473827D+00         -0.324380         -0.746913
 Vib (Bot)    3  0.311191D+00         -0.506973         -1.167349
 Vib (V=0)       0.172126D+01          0.235846          0.543055
 Vib (V=0)    1  0.123411D+01          0.091355          0.210352
 Vib (V=0)    2  0.118885D+01          0.075126          0.172985
 Vib (V=0)    3  0.108893D+01          0.037000          0.085196
 Electronic      0.100000D+01          0.000000          0.000000
 Translational   0.196526D+08          7.293420         16.793719
 Rotational      0.276518D+05          4.441724         10.227447
 
                                                                title
                                                             IR Spectrum
 
     3                                                                      1   1                                                    
     4                                                                      5   4                9    8      6    5    33            
     9                                                                      6   3                6    3      4    1    84            
     0                                                                      1   5                6    5      5    9    14            
 
     X                                                                      X   X                X    X      X    X    XX            
     X                                                                      X   X                     X      X    X     X            
     X                                                                      X   X                            X          X            
                                                                            X   X                            X          X            
                                                                            X   X                            X          X            
                                                                            X   X                            X                       
                                                                            X   X                            X                       
                                                                            X                                X                       
                                                                            X                                X                       
                                                                            X                                X                       
                                                                            X                                X                       
                                                                            X                                X                       
                                                                            X                                X                       
                                                                                                             X                       
                                                                                                             X                       
                                                                                                             X                       
                                                                                                             X                       
                                                                                                             X                       
                                                                                                             X                       
                                                                                                             X                       
 
 ***** Axes restored to original set *****
 -------------------------------------------------------------------
 Center     Atomic                   Forces (Hartrees/Bohr)
 Number     Number              X              Y              Z
 -------------------------------------------------------------------
      1        1          -0.000441329    0.000000000    0.000160073
      2        8           0.001124652   -0.000000000   -0.001444675
      3        8           0.002868894   -0.000000000   -0.004959744
      4        7          -0.004629592    0.000000000    0.000912897
      5        8           0.001077375   -0.000000000    0.005331449
 -------------------------------------------------------------------
 Cartesian Forces:  Max     0.005331449 RMS     0.002425607
 -----------------------------------------------------------------------------------------------
                       Internal Coordinate Forces (Hartree/Bohr or radian)
  Cent   Atom   N1       Length/X         N2         Alpha/Y        N3         Beta/Z          J
 -----------------------------------------------------------------------------------------------
      1  H 
      2  O        1  -0.000160(     1)
      3  O        2  -0.000434(     2)      1   0.000822(     5)
      4  N        3  -0.007165(     3)      2  -0.002922(     6)      1   0.000000(     8)     0
      5  O        4  -0.005096(     4)      3  -0.004294(     7)      2  -0.000000(     9)     0
 -----------------------------------------------------------------------------------------------
 Internal  Forces:  Max     0.007165280 RMS     0.003418589
 Force constants in Cartesian coordinates: 
                1             2             3             4             5 
      1  0.723317D-01
      2  0.000000D+00  0.574514D-02
      3  0.229558D-01  0.000000D+00  0.437231D+00
      4 -0.514297D-01  0.000000D+00 -0.390427D-02  0.280012D+00
      5  0.000000D+00 -0.227781D-02  0.000000D+00  0.000000D+00  0.120846D-01
      6  0.332983D-01  0.000000D+00 -0.421988D+00 -0.104278D-01  0.000000D+00
      7 -0.255724D-01  0.000000D+00 -0.158232D-01 -0.174413D+00  0.000000D+00
      8  0.000000D+00 -0.417097D-02  0.000000D+00  0.000000D+00 -0.181050D-01
      9 -0.441002D-01  0.000000D+00 -0.193075D-01  0.102162D-01  0.000000D+00
     10 -0.557271D-02  0.000000D+00  0.664486D-02 -0.803643D-01  0.000000D+00
     11  0.000000D+00  0.790824D-02  0.000000D+00  0.000000D+00  0.189067D-01
     12 -0.187731D-01  0.000000D+00  0.113188D-01  0.871325D-02  0.000000D+00
     13  0.102431D-01  0.000000D+00 -0.987316D-02  0.261951D-01  0.000000D+00
     14  0.000000D+00 -0.720460D-02  0.000000D+00  0.000000D+00 -0.106085D-01
     15  0.661916D-02  0.000000D+00 -0.725371D-02 -0.459733D-02  0.000000D+00
                6             7             8             9            10 
      6  0.521722D+00
      7 -0.905583D-01  0.300682D+00
      8  0.000000D+00  0.000000D+00  0.410281D-01
      9 -0.950501D-01  0.907631D-01  0.000000D+00  0.289860D+00
     10  0.393917D-01 -0.138091D+00  0.000000D+00 -0.422383D-01  0.543801D+00
     11  0.000000D+00  0.000000D+00 -0.475159D-01  0.000000D+00  0.000000D+00
     12 -0.101125D-01  0.481786D-02  0.000000D+00 -0.412391D-02  0.249243D+00
     13  0.282962D-01  0.373940D-01  0.000000D+00 -0.146409D-01 -0.319773D+00
     14  0.000000D+00  0.000000D+00  0.287638D-01  0.000000D+00  0.000000D+00
     15  0.542940D-02  0.108005D-01  0.000000D+00 -0.171378D+00 -0.253041D+00
               11            12            13            14            15 
     11  0.586205D-01
     12  0.000000D+00  0.421830D+00
     13  0.000000D+00 -0.244001D+00  0.245941D+00
     14 -0.379196D-01  0.000000D+00  0.000000D+00  0.269689D-01
     15  0.000000D+00 -0.418912D+00  0.240219D+00  0.000000D+00  0.592115D+00
 Force constants in internal coordinates: 
                1             2             3             4             5 
      1  0.437231D+00
      2  0.215373D-01  0.260111D+00
      3  0.517376D-02  0.137691D-01  0.175114D+00
      4 -0.113750D-01  0.221184D-01  0.148315D+00  0.710998D+00
      5  0.423044D-01  0.575856D-01 -0.236469D-01  0.205420D-01  0.250502D+00
      6  0.113949D-01  0.194287D-01  0.830346D-01  0.928804D-02 -0.769936D-02
      7  0.102738D-01 -0.732006D-01  0.107592D+00  0.112924D+00 -0.218618D-01
      8  0.000000D+00  0.000000D+00  0.000000D+00  0.000000D+00  0.000000D+00
      9  0.000000D+00  0.000000D+00  0.000000D+00  0.000000D+00  0.000000D+00
                6             7             8             9 
      6  0.491457D+00
      7  0.439294D-01  0.636207D+00
      8  0.000000D+00  0.000000D+00  0.188051D-01
      9  0.000000D+00  0.000000D+00  0.271252D-01  0.106199D+00
 Leave Link  716 at Sun Mar  6 19:08:07 2022, MaxMem= 16106127360 cpu:               1.2 elap:               0.1
 (Enter /sw/contrib/gaussian/g16/B01/g16/l103.exe)

 GradGradGradGradGradGradGradGradGradGradGradGradGradGradGradGradGradGrad
 Berny optimization.
 Search for a local minimum.
 Step number   1 out of a maximum of    2
 All quantities printed in internal units (Hartrees-Bohrs-Radians)
 Second derivative matrix not updated -- analytic derivatives used.
 The second derivative matrix:
                          r1        r2        r3        r4        a1
           r1           0.43723
           r2           0.02154   0.26011
           r3           0.00517   0.01377   0.17511
           r4          -0.01137   0.02212   0.14831   0.71100
           a1           0.04230   0.05759  -0.02365   0.02054   0.25050
           a2           0.01139   0.01943   0.08303   0.00929  -0.00770
           a3           0.01027  -0.07320   0.10759   0.11292  -0.02186
           d1          -0.00000  -0.00000  -0.00000   0.00000   0.00000
           d2          -0.00000   0.00000   0.00000   0.00000   0.00000
                          a2        a3        d1        d2
           a2           0.49146
           a3           0.04393   0.63621
           d1          -0.00000   0.00000   0.01881
           d2           0.00000  -0.00000   0.02713   0.10620
 ITU=  0
     Eigenvalues ---    0.01107   0.10326   0.11393   0.19921   0.27798
     Eigenvalues ---    0.44786   0.49774   0.58374   0.85183
 Angle between quadratic step and forces=  48.48 degrees.
 Linear search not attempted -- first point.
 Variable       Old X    -DE/DX   Delta X   Delta X   Delta X     New X
                                 (Linear)    (Quad)   (Total)
    r1        1.86209  -0.00016   0.00000   0.00023   0.00023   1.86232
    r2        2.69614  -0.00043   0.00000   0.00066   0.00066   2.69680
    r3        2.64620  -0.00717   0.00000  -0.04344  -0.04344   2.60275
    r4        2.25782  -0.00510   0.00000   0.00186   0.00186   2.25968
    a1        1.75642   0.00082   0.00000  -0.00111  -0.00111   1.75531
    a2        1.97463  -0.00292   0.00000   0.00129   0.00129   1.97592
    a3        1.99550  -0.00429   0.00000   0.00021   0.00021   1.99572
    d1        0.00000   0.00000   0.00000   0.00000   0.00000   0.00000
    d2        0.00000  -0.00000   0.00000  -0.00000  -0.00000  -0.00000
         Item               Value     Threshold  Converged?
 Maximum Force            0.007165     0.000450     NO 
 RMS     Force            0.003419     0.000300     NO 
 Maximum Displacement     0.043443     0.001800     NO 
 RMS     Displacement     0.014507     0.001200     NO 
 Predicted change in Energy=-1.479457D-04
                       ----------------------------
                       ! Non-Optimized Parameters !
                       ! (Angstroms and Degrees)  !
 ----------------------                            ----------------------
 !      Name          Value   Derivative information (Atomic Units)     !
 ------------------------------------------------------------------------
 !       r1          0.9855   -DE/DX =   -0.0002                        !
 !       r2          1.4271   -DE/DX =   -0.0004                        !
 !       r3          1.3773   -DE/DX =   -0.0072                        !
 !       r4          1.1958   -DE/DX =   -0.0051                        !
 !       a1        100.5721   -DE/DX =    0.0008                        !
 !       a2        113.2117   -DE/DX =   -0.0029                        !
 !       a3        114.3461   -DE/DX =   -0.0043                        !
 !       d1          0.0      -DE/DX =    0.0                           !
 !       d2          0.0      -DE/DX =    0.0                           !
 ------------------------------------------------------------------------
 GradGradGradGradGradGradGradGradGradGradGradGradGradGradGradGradGradGrad

 Leave Link  103 at Sun Mar  6 19:08:07 2022, MaxMem= 16106127360 cpu:               1.3 elap:               0.1
 (Enter /sw/contrib/gaussian/g16/B01/g16/l9999.exe)

 ----------------------------------------------------------------------

 Electric dipole moment (input orientation):
 (Debye = 10**-18 statcoulomb cm , SI units = C m)
                  (au)            (Debye)         (10**-30 SI)
   Tot        0.465761D+00      0.118385D+01      0.394888D+01
   x         -0.958665D-01     -0.243668D+00     -0.812790D+00
   y          0.000000D+00      0.000000D+00      0.000000D+00
   z         -0.455788D+00     -0.115850D+01     -0.386433D+01

 Dipole polarizability, Alpha (input orientation).
 (esu units = cm**3 , SI units = C**2 m**2 J**-1)
 Alpha(0;0):
               (au)            (10**-24 esu)      (10**-40 SI)
   iso        0.262793D+02      0.389419D+01      0.433287D+01
   aniso      0.148888D+02      0.220629D+01      0.245483D+01
   xx         0.292826D+02      0.433924D+01      0.482806D+01
   yx         0.000000D+00      0.000000D+00      0.000000D+00
   yy         0.176838D+02      0.262047D+01      0.291567D+01
   zx        -0.409948D+01     -0.607481D+00     -0.675914D+00
   zy         0.000000D+00      0.000000D+00      0.000000D+00
   zz         0.318713D+02      0.472284D+01      0.525487D+01

 ----------------------------------------------------------------------

 Dipole orientation:
     1          0.00000000         -0.00000000         -0.00000000
     8         -0.38327037         -0.00000000         -1.82222127
     8          2.10739698         -0.00000000         -2.85457555
     7          3.99968767          0.00000000         -1.00481988
     8          3.22691727          0.00000000          1.11663963

 Electric dipole moment (dipole orientation):
 (Debye = 10**-18 statcoulomb cm , SI units = C m)
                  (au)            (Debye)         (10**-30 SI)
   Tot        0.465761D+00      0.118385D+01      0.394888D+01
   x          0.000000D+00      0.000000D+00      0.000000D+00
   y          0.000000D+00      0.000000D+00      0.000000D+00
   z          0.465761D+00      0.118385D+01      0.394888D+01

 Dipole polarizability, Alpha (dipole orientation).
 (esu units = cm**3 , SI units = C**2 m**2 J**-1)
 Alpha(0;0):
               (au)            (10**-24 esu)      (10**-40 SI)
   iso        0.262793D+02      0.389419D+01      0.433287D+01
   aniso      0.148888D+02      0.220629D+01      0.245483D+01
   xx         0.310438D+02      0.460021D+01      0.511842D+01
   yx         0.000000D+00      0.000000D+00      0.000000D+00
   yy         0.176838D+02      0.262047D+01      0.291567D+01
   zx         0.427355D+01      0.633275D+00      0.704613D+00
   zy         0.000000D+00      0.000000D+00      0.000000D+00
   zz         0.301102D+02      0.446187D+01      0.496450D+01

 ----------------------------------------------------------------------
 1\1\GINC-N2219\Freq\RMP2-FC\Aug-CC-pVTZ\H1N1O3\CGAVINH\06-Mar-2022\1\\
 #p freq mp2/aug-cc-pvtz density=current\\title\\0,1\H\O,1,r1\O,2,r2,1,
 a1\N,3,r3,2,a2,1,d1,0\O,4,r4,3,a3,2,d2,0\\r1=0.98537664\r2=1.42673666\
 r3=1.4003073\r4=1.19478846\a1=100.6355057\a2=113.13777052\a3=114.33392
 022\d1=0.\d2=0.\\Version=ES64L-G16RevB.01\State=1-A'\HF=-279.5046483\M
 P2=-280.4551024\RMSD=4.868e-09\RMSF=2.426e-03\ZeroPoint=0.0231829\Ther
 mal=0.0271794\Dipole=-0.0958665,0.,-0.4557881\DipoleDeriv=0.3123699,0.
 ,0.0392481,0.,0.2978065,0.,-0.0221564,0.,0.1920035,-0.523012,0.,0.2793
 08,0.,-0.2552736,0.,-0.1084611,0.,-0.1224055,-0.0265571,0.,0.3456232,0
 .,-0.0221849,0.,0.4693607,0.,-0.9409593,0.2193002,0.,-0.1382402,0.,0.0
 188602,0.,-0.694964,0.,1.7468186,0.0178989,0.,-0.525939,0.,-0.0392082,
 0.,0.3562207,0.,-0.8754573\Polar=29.2826467,0.,17.6838359,-4.0994836,0
 .,31.8713312\Quadrupole=0.1654126,0.5862811,-0.7516936,0.,1.3679761,0.
 \PG=CS [SG(H1N1O3)]\NImag=0\\0.07233167,0.,0.00574514,0.02295576,0.,0.
 43723069,-0.05142968,0.,-0.00390427,0.28001196,0.,-0.00227781,0.,0.,0.
 01208457,0.03329829,0.,-0.42198837,-0.01042785,0.,0.52172153,-0.025572
 42,0.,-0.01582319,-0.17441306,0.,-0.09055828,0.30068212,0.,-0.00417097
 ,0.,0.,-0.01810500,0.,0.,0.04102806,-0.04410015,0.,-0.01930746,0.01021
 619,0.,-0.09505011,0.09076314,0.,0.28985979,-0.00557271,0.,0.00664486,
 -0.08036429,0.,0.03939165,-0.13809064,0.,-0.04223825,0.54380098,0.,0.0
 0790824,0.,0.,0.01890671,0.,0.,-0.04751589,0.,0.,0.05862055,-0.0187730
 5,0.,0.01131885,0.00871325,0.,-0.01011246,0.00481786,0.,-0.00412391,0.
 24924315,0.,0.42182954,0.01024315,0.,-0.00987316,0.02619507,0.,0.02829
 619,0.03739401,0.,-0.01464093,-0.31977334,0.,-0.24400121,0.24594112,0.
 ,-0.00720460,0.,0.,-0.01060848,0.,0.,0.02876380,0.,0.,-0.03791960,0.,0
 .,0.02696887,0.00661916,0.,-0.00725371,-0.00459733,0.,0.00542940,0.010
 80047,0.,-0.17137831,-0.25304141,0.,-0.41891201,0.24021911,0.,0.592114
 63\\0.00044133,0.,-0.00016007,-0.00112465,0.,0.00144467,-0.00286889,0.
 ,0.00495974,0.00462959,0.,-0.00091290,-0.00107737,0.,-0.00533145\\\@


 CURIOUSER AND CURIOUSER

                  -- ALICE, IN WONDERLAND
 Job cpu time:       0 days  2 hours  2 minutes  2.2 seconds.
 Elapsed time:       0 days  0 hours  4 minutes 24.8 seconds.
 File lengths (MBytes):  RWF=   7239 Int=      0 D2E=      0 Chk=      8 Scr=      1
 Normal termination of Gaussian 16 at Sun Mar  6 19:08:08 2022.
