 Entering Gaussian System, Link 0=g16
 Input=hoono_r4_1p198993.gjf
 Output=hoono_r4_1p198993.log
 Initial command:
 /sw/contrib/gaussian/g16/B01/g16/l1.exe "/scr/Gau-64555.inp" -scrdir="/scr/"
 Entering Link 1 = /sw/contrib/gaussian/g16/B01/g16/l1.exe PID=     64556.
  
 Copyright (c) 1988-2017, Gaussian, Inc.  All Rights Reserved.
  
 This is part of the Gaussian(R) 16 program.  It is based on
 the Gaussian(R) 09 system (copyright 2009, Gaussian, Inc.),
 the Gaussian(R) 03 system (copyright 2003, Gaussian, Inc.),
 the Gaussian(R) 98 system (copyright 1998, Gaussian, Inc.),
 the Gaussian(R) 94 system (copyright 1995, Gaussian, Inc.),
 the Gaussian 92(TM) system (copyright 1992, Gaussian, Inc.),
 the Gaussian 90(TM) system (copyright 1990, Gaussian, Inc.),
 the Gaussian 88(TM) system (copyright 1988, Gaussian, Inc.),
 the Gaussian 86(TM) system (copyright 1986, Carnegie Mellon
 University), and the Gaussian 82(TM) system (copyright 1983,
 Carnegie Mellon University). Gaussian is a federally registered
 trademark of Gaussian, Inc.
  
 This software contains proprietary and confidential information,
 including trade secrets, belonging to Gaussian, Inc.
  
 This software is provided under written license and may be
 used, copied, transmitted, or stored only in accord with that
 written license.
  
 The following legend is applicable only to US Government
 contracts under FAR:
  
                    RESTRICTED RIGHTS LEGEND
  
 Use, reproduction and disclosure by the US Government is
 subject to restrictions as set forth in subparagraphs (a)
 and (c) of the Commercial Computer Software - Restricted
 Rights clause in FAR 52.227-19.
  
 Gaussian, Inc.
 340 Quinnipiac St., Bldg. 40, Wallingford CT 06492
  
  
 ---------------------------------------------------------------
 Warning -- This program may not be used in any manner that
 competes with the business of Gaussian, Inc. or will provide
 assistance to any competitor of Gaussian, Inc.  The licensee
 of this program is prohibited from giving any competitor of
 Gaussian, Inc. access to this program.  By using this program,
 the user acknowledges that Gaussian, Inc. is engaged in the
 business of creating and licensing software in the field of
 computational chemistry and represents and warrants to the
 licensee that it is not a competitor of Gaussian, Inc. and that
 it will not use this program in any manner prohibited above.
 ---------------------------------------------------------------
  

 Cite this work as:
 Gaussian 16, Revision B.01,
 M. J. Frisch, G. W. Trucks, H. B. Schlegel, G. E. Scuseria, 
 M. A. Robb, J. R. Cheeseman, G. Scalmani, V. Barone, 
 G. A. Petersson, H. Nakatsuji, X. Li, M. Caricato, A. V. Marenich, 
 J. Bloino, B. G. Janesko, R. Gomperts, B. Mennucci, H. P. Hratchian, 
 J. V. Ortiz, A. F. Izmaylov, J. L. Sonnenberg, D. Williams-Young, 
 F. Ding, F. Lipparini, F. Egidi, J. Goings, B. Peng, A. Petrone, 
 T. Henderson, D. Ranasinghe, V. G. Zakrzewski, J. Gao, N. Rega, 
 G. Zheng, W. Liang, M. Hada, M. Ehara, K. Toyota, R. Fukuda, 
 J. Hasegawa, M. Ishida, T. Nakajima, Y. Honda, O. Kitao, H. Nakai, 
 T. Vreven, K. Throssell, J. A. Montgomery, Jr., J. E. Peralta, 
 F. Ogliaro, M. J. Bearpark, J. J. Heyd, E. N. Brothers, K. N. Kudin, 
 V. N. Staroverov, T. A. Keith, R. Kobayashi, J. Normand, 
 K. Raghavachari, A. P. Rendell, J. C. Burant, S. S. Iyengar, 
 J. Tomasi, M. Cossi, J. M. Millam, M. Klene, C. Adamo, R. Cammi, 
 J. W. Ochterski, R. L. Martin, K. Morokuma, O. Farkas, 
 J. B. Foresman, and D. J. Fox, Gaussian, Inc., Wallingford CT, 2016.
 
 ******************************************
 Gaussian 16:  ES64L-G16RevB.01 20-Dec-2017
                 6-Mar-2022 
 ******************************************
 %nproc=28
 Will use up to   28 processors via shared memory.
 %mem=120GB
 %chk=hoono_r4_1p198993.chk
 ---------------------------------------
 #p freq mp2/aug-cc-pvtz density=current
 ---------------------------------------
 1/10=4,30=1,38=1/1,3;
 2/12=2,17=6,18=5,40=1/2;
 3/5=16,6=1,7=10,11=9,25=1,30=1,71=2,140=1/1,2,3;
 4//1;
 5/5=2,38=5,98=1/2;
 8/6=3,8=1,10=1,19=11,30=-1/1;
 9/15=3,16=-3/6;
 11/6=1,8=1,15=11,17=12,24=-1,27=1,28=-2,29=300,32=6,42=3/1,2,10;
 10/6=2,21=1/2;
 8/6=4,8=1,10=1,19=11,30=-1/11,4;
 10/5=1,20=4/2;
 11/12=2,14=11,16=1,17=2,28=-2,42=3,76=2/2,10,12;
 6/7=2,8=2,9=2,10=2,22=-1/1;
 7/8=1,10=1,12=2,25=1,44=2/1,2,3,16;
 1/10=4,30=1/3;
 99//99;
 Leave Link    1 at Sun Mar  6 19:10:12 2022, MaxMem= 16106127360 cpu:               2.7 elap:               0.1
 (Enter /sw/contrib/gaussian/g16/B01/g16/l101.exe)
 -----
 title
 -----
 Symbolic Z-matrix:
 Charge =  0 Multiplicity = 1
 H
 O                    1    r1
 O                    2    r2       1    a1
 N                    3    r3       2    a2       1    d1       0
 O                    4    r4       3    a3       2    d2       0
       Variables:
  r1                    0.98538                  
  r2                    1.42674                  
  r3                    1.38111                  
  r4                    1.19899                  
  a1                  100.63551                  
  a2                  113.13777                  
  a3                  114.33392                  
  d1                    0.                       
  d2                    0.                       
 
 ITRead=  0  0  0  0  0
 MicOpt= -1 -1 -1 -1 -1
 NAtoms=      5 NQM=        5 NQMF=       0 NMMI=      0 NMMIF=      0
                NMic=       0 NMicF=      0.
                    Isotopes and Nuclear Properties:
 (Nuclear quadrupole moments (NQMom) in fm**2, nuclear magnetic moments (NMagM)
  in nuclear magnetons)

  Atom         1           2           3           4           5
 IAtWgt=           1          16          16          14          16
 AtmWgt=   1.0078250  15.9949146  15.9949146  14.0030740  15.9949146
 NucSpn=           1           0           0           2           0
 AtZEff=  -0.0000000  -0.0000000  -0.0000000  -0.0000000  -0.0000000
 NQMom=    0.0000000   0.0000000   0.0000000   2.0440000   0.0000000
 NMagM=    2.7928460   0.0000000   0.0000000   0.4037610   0.0000000
 AtZNuc=   1.0000000   8.0000000   8.0000000   7.0000000   8.0000000
 Leave Link  101 at Sun Mar  6 19:10:12 2022, MaxMem= 16106127360 cpu:               2.6 elap:               0.1
 (Enter /sw/contrib/gaussian/g16/B01/g16/l103.exe)

 GradGradGradGradGradGradGradGradGradGradGradGradGradGradGradGradGradGrad
 Berny optimization.
 Initialization pass.
                       ----------------------------
                       !    Initial Parameters    !
                       ! (Angstroms and Degrees)  !
 ----------------------                            ----------------------
 !      Name          Value   Derivative information (Atomic Units)     !
 ------------------------------------------------------------------------
 !       r1          0.9854   calculate D2E/DX2 analytically            !
 !       r2          1.4267   calculate D2E/DX2 analytically            !
 !       r3          1.3811   calculate D2E/DX2 analytically            !
 !       r4          1.199    calculate D2E/DX2 analytically            !
 !       a1        100.6355   calculate D2E/DX2 analytically            !
 !       a2        113.1378   calculate D2E/DX2 analytically            !
 !       a3        114.3339   calculate D2E/DX2 analytically            !
 !       d1          0.0      calculate D2E/DX2 analytically            !
 !       d2          0.0      calculate D2E/DX2 analytically            !
 ------------------------------------------------------------------------
 Trust Radius=3.00D-01 FncErr=1.00D-07 GrdErr=1.00D-07 EigMax=2.50D+02 EigMin=1.00D-04
 Number of steps in this run=      2 maximum allowed number of steps=      2.
 GradGradGradGradGradGradGradGradGradGradGradGradGradGradGradGradGradGrad

 Leave Link  103 at Sun Mar  6 19:10:12 2022, MaxMem= 16106127360 cpu:               0.4 elap:               0.0
 (Enter /sw/contrib/gaussian/g16/B01/g16/l202.exe)
                          Input orientation:                          
 ---------------------------------------------------------------------
 Center     Atomic      Atomic             Coordinates (Angstroms)
 Number     Number       Type             X           Y           Z
 ---------------------------------------------------------------------
      1          1           0        0.000000    0.000000    0.000000
      2          8           0        0.000000    0.000000    0.985377
      3          8           0        1.402227    0.000000    1.248696
      4          7           0        2.169996    0.000000    0.100659
      5          8           0        1.536529    0.000000   -0.917333
 ---------------------------------------------------------------------
                    Distance matrix (angstroms):
                    1          2          3          4          5
     1  H    0.000000
     2  O    0.985377   0.000000
     3  O    1.877627   1.426737   0.000000
     4  N    2.172329   2.343418   1.381108   0.000000
     5  O    1.789531   2.445654   2.170188   1.198994   0.000000
 Stoichiometry    HNO3
 Framework group  CS[SG(HNO3)]
 Deg. of freedom     7
 Full point group                 CS      NOp   2
 Largest Abelian subgroup         CS      NOp   2
 Largest concise Abelian subgroup C1      NOp   1
                         Standard orientation:                         
 ---------------------------------------------------------------------
 Center     Atomic      Atomic             Coordinates (Angstroms)
 Number     Number       Type             X           Y           Z
 ---------------------------------------------------------------------
      1          1           0        1.108605   -0.597435   -0.000000
      2          8           0        1.315616    0.365951    0.000000
      3          8           0        0.000000    0.917978    0.000000
      4          7           0       -0.991818   -0.043144   -0.000000
      5          8           0       -0.586351   -1.171498   -0.000000
 ---------------------------------------------------------------------
 Rotational constants (GHZ):          21.2823110           8.1011092           5.8676057
 Leave Link  202 at Sun Mar  6 19:10:12 2022, MaxMem= 16106127360 cpu:               0.2 elap:               0.0
 (Enter /sw/contrib/gaussian/g16/B01/g16/l301.exe)
 Standard basis: Aug-CC-pVTZ (5D, 7F)
 Ernie: Thresh=  0.10000D-02 Tol=  0.10000D-05 Strict=F.
 Ernie:  12 primitive shells out of 131 were deleted.
 There are   166 symmetry adapted cartesian basis functions of A'  symmetry.
 There are    79 symmetry adapted cartesian basis functions of A"  symmetry.
 There are   136 symmetry adapted basis functions of A'  symmetry.
 There are    71 symmetry adapted basis functions of A"  symmetry.
   207 basis functions,   315 primitive gaussians,   245 cartesian basis functions
    16 alpha electrons       16 beta electrons
       nuclear repulsion energy       122.6309697902 Hartrees.
 IExCor=    0 DFT=F Ex=HF Corr=None ExCW=0 ScaHFX=  1.000000
 ScaDFX=  1.000000  1.000000  1.000000  1.000000 ScalE2=  1.000000  1.000000
 IRadAn=      5 IRanWt=     -1 IRanGd=            0 ICorTp=0 IEmpDi=  4
 NAtoms=    5 NActive=    5 NUniq=    5 SFac= 1.00D+00 NAtFMM=   60 NAOKFM=F Big=F
 Integral buffers will be    131072 words long.
 Raffenetti 1 integral format.
 Two-electron integral symmetry is turned on.
 Leave Link  301 at Sun Mar  6 19:10:12 2022, MaxMem= 16106127360 cpu:               1.4 elap:               0.1
 (Enter /sw/contrib/gaussian/g16/B01/g16/l302.exe)
 NPDir=0 NMtPBC=     1 NCelOv=     1 NCel=       1 NClECP=     1 NCelD=      1
         NCelK=      1 NCelE2=     1 NClLst=     1 CellRange=     0.0.
 One-electron integrals computed using PRISM.
 One-electron integral symmetry used in STVInt
 NBasis=   207 RedAO= T EigKep=  1.32D-04  NBF=   136    71
 NBsUse=   207 1.00D-06 EigRej= -1.00D+00 NBFU=   136    71
 Leave Link  302 at Sun Mar  6 19:10:12 2022, MaxMem= 16106127360 cpu:               3.8 elap:               0.2
 (Enter /sw/contrib/gaussian/g16/B01/g16/l303.exe)
 DipDrv:  MaxL=1.
 Leave Link  303 at Sun Mar  6 19:10:12 2022, MaxMem= 16106127360 cpu:               0.7 elap:               0.0
 (Enter /sw/contrib/gaussian/g16/B01/g16/l401.exe)
 ExpMin= 2.53D-02 ExpMax= 1.53D+04 ExpMxC= 5.22D+02 IAcc=3 IRadAn=         5 AccDes= 0.00D+00
 Harris functional with IExCor=  205 and IRadAn=       5 diagonalized for initial guess.
 HarFok:  IExCor=  205 AccDes= 0.00D+00 IRadAn=         5 IDoV= 1 UseB2=F ITyADJ=14
 ICtDFT=  3500011 ScaDFX=  1.000000  1.000000  1.000000  1.000000
 FoFCou: FMM=F IPFlag=           0 FMFlag=      100000 FMFlg1=           0
         NFxFlg=           0 DoJE=T BraDBF=F KetDBF=T FulRan=T
         wScrn=  0.000000 ICntrl=       500 IOpCl=  0 I1Cent=   200000004 NGrid=           0
         NMat0=    1 NMatS0=      1 NMatT0=    0 NMatD0=    1 NMtDS0=    0 NMtDT0=    0
 Petite list used in FoFCou.
 Harris En= -279.644999005591    
 JPrj=0 DoOrth=F DoCkMO=F.
 Initial guess orbital symmetries:
       Occupied  (A') (A') (A') (A') (A') (A') (A') (A') (A') (A')
                 (A") (A') (A") (A') (A") (A')
       Virtual   (A") (A') (A') (A') (A') (A") (A') (A') (A') (A')
                 (A") (A') (A") (A') (A') (A") (A') (A') (A") (A')
                 (A') (A') (A') (A') (A") (A') (A') (A') (A") (A')
                 (A') (A") (A") (A') (A') (A") (A') (A") (A') (A")
                 (A') (A") (A') (A") (A') (A') (A') (A") (A') (A')
                 (A') (A") (A') (A") (A') (A") (A') (A') (A') (A")
                 (A') (A') (A") (A') (A') (A') (A") (A") (A') (A')
                 (A") (A') (A") (A") (A') (A') (A") (A') (A') (A')
                 (A") (A') (A') (A") (A') (A") (A') (A") (A') (A')
                 (A') (A") (A') (A") (A') (A') (A") (A') (A") (A')
                 (A") (A') (A') (A") (A") (A') (A') (A') (A") (A')
                 (A") (A') (A') (A') (A") (A') (A') (A') (A") (A')
                 (A") (A') (A') (A") (A") (A") (A") (A') (A') (A')
                 (A') (A') (A') (A") (A') (A") (A') (A") (A') (A')
                 (A") (A") (A') (A') (A') (A") (A') (A') (A') (A")
                 (A') (A') (A') (A") (A') (A") (A") (A') (A') (A")
                 (A') (A") (A") (A') (A") (A') (A') (A") (A") (A')
                 (A") (A") (A") (A') (A") (A') (A') (A') (A') (A")
                 (A') (A') (A') (A') (A') (A') (A') (A') (A') (A')
                 (A')
 The electronic state of the initial guess is 1-A'.
 Leave Link  401 at Sun Mar  6 19:10:12 2022, MaxMem= 16106127360 cpu:               6.9 elap:               0.3
 (Enter /sw/contrib/gaussian/g16/B01/g16/l502.exe)
 Keep R1 ints in memory in symmetry-blocked form, NReq=348887737.
 FoFCou: FMM=F IPFlag=           0 FMFlag=           0 FMFlg1=           0
         NFxFlg=           0 DoJE=F BraDBF=F KetDBF=F FulRan=T
         wScrn=  0.000000 ICntrl=       600 IOpCl=  0 I1Cent=           0 NGrid=           0
         NMat0=    1 NMatS0=  21528 NMatT0=    0 NMatD0=    1 NMtDS0=    0 NMtDT0=    0
 Petite list used in FoFCou.
 Closed shell SCF:
 Using DIIS extrapolation, IDIIS=  1040.
 NGot= 16106127360 LenX= 15988850015 LenY= 15988789549
 Requested convergence on RMS density matrix=1.00D-08 within 128 cycles.
 Requested convergence on MAX density matrix=1.00D-06.
 Requested convergence on             energy=1.00D-06.
 No special actions if energy rises.

 Cycle   1  Pass 1  IDiag  1:
 E= -279.362662038821    
 DIIS: error= 2.75D-02 at cycle   1 NSaved=   1.
 NSaved= 1 IEnMin= 1 EnMin= -279.362662038821     IErMin= 1 ErrMin= 2.75D-02
 ErrMax= 2.75D-02  0.00D+00 EMaxC= 1.00D-01 BMatC= 4.51D-01 BMatP= 4.51D-01
 IDIUse=3 WtCom= 7.25D-01 WtEn= 2.75D-01
 Coeff-Com:  0.100D+01
 Coeff-En:   0.100D+01
 Coeff:      0.100D+01
 Gap=     0.496 Goal=   None    Shift=    0.000
 GapD=    0.496 DampG=2.000 DampE=0.500 DampFc=1.0000 IDamp=-1.
 RMSDP=1.68D-03 MaxDP=8.79D-02              OVMax= 1.24D-01

 Cycle   2  Pass 1  IDiag  1:
 E= -279.444216045870     Delta-E=       -0.081554007048 Rises=F Damp=F
 DIIS: error= 1.97D-02 at cycle   2 NSaved=   2.
 NSaved= 2 IEnMin= 2 EnMin= -279.444216045870     IErMin= 2 ErrMin= 1.97D-02
 ErrMax= 1.97D-02  0.00D+00 EMaxC= 1.00D-01 BMatC= 8.77D-02 BMatP= 4.51D-01
 IDIUse=3 WtCom= 8.03D-01 WtEn= 1.97D-01
 Coeff-Com:  0.221D+00 0.779D+00
 Coeff-En:   0.885D-01 0.912D+00
 Coeff:      0.195D+00 0.805D+00
 Gap=     0.562 Goal=   None    Shift=    0.000
 RMSDP=9.73D-04 MaxDP=3.66D-02 DE=-8.16D-02 OVMax= 9.28D-02

 Cycle   3  Pass 1  IDiag  1:
 E= -279.483087941879     Delta-E=       -0.038871896009 Rises=F Damp=F
 DIIS: error= 1.12D-02 at cycle   3 NSaved=   3.
 NSaved= 3 IEnMin= 3 EnMin= -279.483087941879     IErMin= 3 ErrMin= 1.12D-02
 ErrMax= 1.12D-02  0.00D+00 EMaxC= 1.00D-01 BMatC= 3.11D-02 BMatP= 8.77D-02
 IDIUse=3 WtCom= 8.88D-01 WtEn= 1.12D-01
 Coeff-Com: -0.348D-01 0.363D+00 0.672D+00
 Coeff-En:   0.000D+00 0.215D+00 0.785D+00
 Coeff:     -0.309D-01 0.346D+00 0.685D+00
 Gap=     0.541 Goal=   None    Shift=    0.000
 RMSDP=4.12D-04 MaxDP=1.60D-02 DE=-3.89D-02 OVMax= 3.95D-02

 Cycle   4  Pass 1  IDiag  1:
 E= -279.504395694929     Delta-E=       -0.021307753050 Rises=F Damp=F
 DIIS: error= 1.64D-03 at cycle   4 NSaved=   4.
 NSaved= 4 IEnMin= 4 EnMin= -279.504395694929     IErMin= 4 ErrMin= 1.64D-03
 ErrMax= 1.64D-03  0.00D+00 EMaxC= 1.00D-01 BMatC= 6.08D-04 BMatP= 3.11D-02
 IDIUse=3 WtCom= 9.84D-01 WtEn= 1.64D-02
 Coeff-Com: -0.120D-01 0.464D-01 0.154D+00 0.811D+00
 Coeff-En:   0.000D+00 0.000D+00 0.000D+00 0.100D+01
 Coeff:     -0.118D-01 0.457D-01 0.152D+00 0.814D+00
 Gap=     0.528 Goal=   None    Shift=    0.000
 RMSDP=9.93D-05 MaxDP=2.29D-03 DE=-2.13D-02 OVMax= 1.18D-02

 Cycle   5  Pass 1  IDiag  1:
 E= -279.505218135585     Delta-E=       -0.000822440656 Rises=F Damp=F
 DIIS: error= 1.10D-03 at cycle   5 NSaved=   5.
 NSaved= 5 IEnMin= 5 EnMin= -279.505218135585     IErMin= 5 ErrMin= 1.10D-03
 ErrMax= 1.10D-03  0.00D+00 EMaxC= 1.00D-01 BMatC= 1.04D-04 BMatP= 6.08D-04
 IDIUse=3 WtCom= 9.89D-01 WtEn= 1.10D-02
 Coeff-Com:  0.543D-02-0.658D-01-0.111D+00 0.593D-01 0.111D+01
 Coeff-En:   0.000D+00 0.000D+00 0.000D+00 0.000D+00 0.100D+01
 Coeff:      0.537D-02-0.651D-01-0.110D+00 0.586D-01 0.111D+01
 Gap=     0.532 Goal=   None    Shift=    0.000
 RMSDP=8.03D-05 MaxDP=2.13D-03 DE=-8.22D-04 OVMax= 1.30D-02

 Cycle   6  Pass 1  IDiag  1:
 E= -279.505585280705     Delta-E=       -0.000367145121 Rises=F Damp=F
 DIIS: error= 3.30D-04 at cycle   6 NSaved=   6.
 NSaved= 6 IEnMin= 6 EnMin= -279.505585280705     IErMin= 6 ErrMin= 3.30D-04
 ErrMax= 3.30D-04  0.00D+00 EMaxC= 1.00D-01 BMatC= 2.43D-05 BMatP= 1.04D-04
 IDIUse=3 WtCom= 9.97D-01 WtEn= 3.30D-03
 Coeff-Com:  0.189D-02-0.692D-02-0.177D-01-0.183D+00 0.121D-01 0.119D+01
 Coeff-En:   0.000D+00 0.000D+00 0.000D+00 0.000D+00 0.000D+00 0.100D+01
 Coeff:      0.188D-02-0.690D-02-0.177D-01-0.182D+00 0.121D-01 0.119D+01
 Gap=     0.532 Goal=   None    Shift=    0.000
 RMSDP=4.69D-05 MaxDP=1.08D-03 DE=-3.67D-04 OVMax= 6.14D-03

 Cycle   7  Pass 1  IDiag  1:
 E= -279.505672177359     Delta-E=       -0.000086896654 Rises=F Damp=F
 DIIS: error= 1.29D-04 at cycle   7 NSaved=   7.
 NSaved= 7 IEnMin= 7 EnMin= -279.505672177359     IErMin= 7 ErrMin= 1.29D-04
 ErrMax= 1.29D-04  0.00D+00 EMaxC= 1.00D-01 BMatC= 3.61D-06 BMatP= 2.43D-05
 IDIUse=3 WtCom= 9.99D-01 WtEn= 1.29D-03
 Coeff-Com: -0.109D-02 0.113D-01 0.250D-01 0.160D-01-0.180D+00-0.149D+00
 Coeff-Com:  0.128D+01
 Coeff-En:   0.000D+00 0.000D+00 0.000D+00 0.000D+00 0.000D+00 0.000D+00
 Coeff-En:   0.100D+01
 Coeff:     -0.109D-02 0.113D-01 0.250D-01 0.160D-01-0.180D+00-0.149D+00
 Coeff:      0.128D+01
 Gap=     0.533 Goal=   None    Shift=    0.000
 RMSDP=1.76D-05 MaxDP=5.17D-04 DE=-8.69D-05 OVMax= 2.35D-03

 Cycle   8  Pass 1  IDiag  1:
 E= -279.505684330053     Delta-E=       -0.000012152694 Rises=F Damp=F
 DIIS: error= 4.81D-05 at cycle   8 NSaved=   8.
 NSaved= 8 IEnMin= 8 EnMin= -279.505684330053     IErMin= 8 ErrMin= 4.81D-05
 ErrMax= 4.81D-05  0.00D+00 EMaxC= 1.00D-01 BMatC= 6.18D-07 BMatP= 3.61D-06
 IDIUse=1 WtCom= 1.00D+00 WtEn= 0.00D+00
 Coeff-Com: -0.565D-03 0.408D-02 0.978D-02 0.250D-01-0.570D-01-0.194D+00
 Coeff-Com:  0.356D+00 0.857D+00
 Coeff:     -0.565D-03 0.408D-02 0.978D-02 0.250D-01-0.570D-01-0.194D+00
 Coeff:      0.356D+00 0.857D+00
 Gap=     0.533 Goal=   None    Shift=    0.000
 RMSDP=5.53D-06 MaxDP=1.57D-04 DE=-1.22D-05 OVMax= 6.63D-04

 Cycle   9  Pass 1  IDiag  1:
 E= -279.505685755154     Delta-E=       -0.000001425101 Rises=F Damp=F
 DIIS: error= 2.49D-05 at cycle   9 NSaved=   9.
 NSaved= 9 IEnMin= 9 EnMin= -279.505685755154     IErMin= 9 ErrMin= 2.49D-05
 ErrMax= 2.49D-05  0.00D+00 EMaxC= 1.00D-01 BMatC= 1.20D-07 BMatP= 6.18D-07
 IDIUse=1 WtCom= 1.00D+00 WtEn= 0.00D+00
 Coeff-Com:  0.244D-03-0.256D-02-0.537D-02-0.565D-02 0.472D-01 0.494D-01
 Coeff-Com: -0.342D+00 0.288D-01 0.123D+01
 Coeff:      0.244D-03-0.256D-02-0.537D-02-0.565D-02 0.472D-01 0.494D-01
 Coeff:     -0.342D+00 0.288D-01 0.123D+01
 Gap=     0.533 Goal=   None    Shift=    0.000
 RMSDP=2.52D-06 MaxDP=6.83D-05 DE=-1.43D-06 OVMax= 2.65D-04

 Cycle  10  Pass 1  IDiag  1:
 E= -279.505686030974     Delta-E=       -0.000000275820 Rises=F Damp=F
 DIIS: error= 5.86D-06 at cycle  10 NSaved=  10.
 NSaved=10 IEnMin=10 EnMin= -279.505686030974     IErMin=10 ErrMin= 5.86D-06
 ErrMax= 5.86D-06  0.00D+00 EMaxC= 1.00D-01 BMatC= 8.76D-09 BMatP= 1.20D-07
 IDIUse=1 WtCom= 1.00D+00 WtEn= 0.00D+00
 Coeff-Com: -0.384D-04 0.490D-03 0.120D-02-0.195D-02-0.109D-01 0.573D-02
 Coeff-Com:  0.723D-01-0.535D-01-0.435D+00 0.142D+01
 Coeff:     -0.384D-04 0.490D-03 0.120D-02-0.195D-02-0.109D-01 0.573D-02
 Coeff:      0.723D-01-0.535D-01-0.435D+00 0.142D+01
 Gap=     0.533 Goal=   None    Shift=    0.000
 RMSDP=7.25D-07 MaxDP=2.59D-05 DE=-2.76D-07 OVMax= 7.85D-05

 Cycle  11  Pass 1  IDiag  1:
 E= -279.505686057476     Delta-E=       -0.000000026502 Rises=F Damp=F
 DIIS: error= 2.24D-06 at cycle  11 NSaved=  11.
 NSaved=11 IEnMin=11 EnMin= -279.505686057476     IErMin=11 ErrMin= 2.24D-06
 ErrMax= 2.24D-06  0.00D+00 EMaxC= 1.00D-01 BMatC= 9.12D-10 BMatP= 8.76D-09
 IDIUse=1 WtCom= 1.00D+00 WtEn= 0.00D+00
 Coeff-Com: -0.177D-04 0.181D-03 0.386D-03 0.876D-03-0.254D-02-0.722D-02
 Coeff-Com:  0.214D-01 0.182D-01-0.622D-01-0.291D+00 0.132D+01
 Coeff:     -0.177D-04 0.181D-03 0.386D-03 0.876D-03-0.254D-02-0.722D-02
 Coeff:      0.214D-01 0.182D-01-0.622D-01-0.291D+00 0.132D+01
 Gap=     0.533 Goal=   None    Shift=    0.000
 RMSDP=2.52D-07 MaxDP=9.42D-06 DE=-2.65D-08 OVMax= 2.96D-05

 Cycle  12  Pass 1  IDiag  1:
 E= -279.505686060724     Delta-E=       -0.000000003248 Rises=F Damp=F
 DIIS: error= 7.99D-07 at cycle  12 NSaved=  12.
 NSaved=12 IEnMin=12 EnMin= -279.505686060724     IErMin=12 ErrMin= 7.99D-07
 ErrMax= 7.99D-07  0.00D+00 EMaxC= 1.00D-01 BMatC= 9.99D-11 BMatP= 9.12D-10
 IDIUse=1 WtCom= 1.00D+00 WtEn= 0.00D+00
 Coeff-Com:  0.244D-05-0.446D-04-0.985D-04 0.183D-03 0.118D-02-0.105D-02
 Coeff-Com: -0.738D-02 0.748D-02 0.434D-01-0.133D+00-0.150D+00 0.124D+01
 Coeff:      0.244D-05-0.446D-04-0.985D-04 0.183D-03 0.118D-02-0.105D-02
 Coeff:     -0.738D-02 0.748D-02 0.434D-01-0.133D+00-0.150D+00 0.124D+01
 Gap=     0.533 Goal=   None    Shift=    0.000
 RMSDP=9.00D-08 MaxDP=3.00D-06 DE=-3.25D-09 OVMax= 1.07D-05

 Cycle  13  Pass 1  IDiag  1:
 E= -279.505686061076     Delta-E=       -0.000000000352 Rises=F Damp=F
 DIIS: error= 1.74D-07 at cycle  13 NSaved=  13.
 NSaved=13 IEnMin=13 EnMin= -279.505686061076     IErMin=13 ErrMin= 1.74D-07
 ErrMax= 1.74D-07  0.00D+00 EMaxC= 1.00D-01 BMatC= 8.64D-12 BMatP= 9.99D-11
 IDIUse=1 WtCom= 1.00D+00 WtEn= 0.00D+00
 Coeff-Com:  0.142D-05-0.137D-04-0.206D-04-0.129D-03 0.741D-04 0.975D-03
 Coeff-Com: -0.128D-02-0.254D-02-0.128D-02 0.550D-01-0.132D+00-0.157D+00
 Coeff-Com:  0.124D+01
 Coeff:      0.142D-05-0.137D-04-0.206D-04-0.129D-03 0.741D-04 0.975D-03
 Coeff:     -0.128D-02-0.254D-02-0.128D-02 0.550D-01-0.132D+00-0.157D+00
 Coeff:      0.124D+01
 Gap=     0.533 Goal=   None    Shift=    0.000
 RMSDP=2.45D-08 MaxDP=7.42D-07 DE=-3.52D-10 OVMax= 2.28D-06

 Cycle  14  Pass 1  IDiag  1:
 E= -279.505686061100     Delta-E=       -0.000000000024 Rises=F Damp=F
 DIIS: error= 4.38D-08 at cycle  14 NSaved=  14.
 NSaved=14 IEnMin=14 EnMin= -279.505686061100     IErMin=14 ErrMin= 4.38D-08
 ErrMax= 4.38D-08  0.00D+00 EMaxC= 1.00D-01 BMatC= 5.44D-13 BMatP= 8.64D-12
 IDIUse=1 WtCom= 1.00D+00 WtEn= 0.00D+00
 Coeff-Com: -0.293D-06 0.445D-05 0.900D-05-0.557D-05-0.116D-03 0.742D-04
 Coeff-Com:  0.650D-03-0.343D-03-0.370D-02 0.856D-02 0.167D-01-0.861D-01
 Coeff-Com: -0.399D-01 0.110D+01
 Coeff:     -0.293D-06 0.445D-05 0.900D-05-0.557D-05-0.116D-03 0.742D-04
 Coeff:      0.650D-03-0.343D-03-0.370D-02 0.856D-02 0.167D-01-0.861D-01
 Coeff:     -0.399D-01 0.110D+01
 Gap=     0.533 Goal=   None    Shift=    0.000
 RMSDP=4.73D-09 MaxDP=1.17D-07 DE=-2.42D-11 OVMax= 4.92D-07

 SCF Done:  E(RHF) =  -279.505686061     A.U. after   14 cycles
            NFock= 14  Conv=0.47D-08     -V/T= 2.0023
 KE= 2.788666487577D+02 PE=-9.061152448330D+02 EE= 2.251119402241D+02
 Leave Link  502 at Sun Mar  6 19:10:16 2022, MaxMem= 16106127360 cpu:              51.6 elap:               3.3
 (Enter /sw/contrib/gaussian/g16/B01/g16/l801.exe)
 ExpMin= 2.53D-02 ExpMax= 1.53D+04 ExpMxC= 5.22D+02 IAcc=3 IRadAn=         5 AccDes= 0.00D+00
 HarFok:  IExCor=  205 AccDes= 0.00D+00 IRadAn=         5 IDoV=-2 UseB2=F ITyADJ=14
 ICtDFT= 12500011 ScaDFX=  1.000000  1.000000  1.000000  1.000000
 Largest valence mixing into a core orbital is  2.07D-04
 Largest core mixing into a valence orbital is  3.11D-05
 Range of M.O.s used for correlation:     5   207
 NBasis=   207 NAE=    16 NBE=    16 NFC=     4 NFV=     0
 NROrb=    203 NOA=    12 NOB=    12 NVA=   191 NVB=   191

 **** Warning!!: The largest alpha MO coefficient is  0.16407152D+02

 Leave Link  801 at Sun Mar  6 19:10:16 2022, MaxMem= 16106127360 cpu:               2.4 elap:               0.1
 (Enter /sw/contrib/gaussian/g16/B01/g16/l906.exe)
 Frozen-core derivative calculation, NFC=   4 NFV=   0.
 FulOut=F Deriv=T AODrv=T NAtomX=     5
   MMem=           0  MDisk=          12 MDiskD=          12
  W3Min=      811440 MinDsk=     2425030 NBas6D=         245
 NBas2D=       30762    NTT=       30135    LW2=     7400000
    MDV= 16105571546 MDiskM=      328644 NBas2p=       30759
 Disk-based method using ON**2 memory for 12 occupieds at a time.
 Permanent disk used for amplitudes=    11516536 words.
 Estimated scratch disk usage=   321863743 words.
 IMap=   1   2   3   4   5   6   7   8   9  10  11  12  13  14  15  16
 Actual    scratch disk usage=   310892607 words.
 JobTyp=1 Pass  1:  I=   5 to  16 NPSUse= 28 ParTrn=T ParDer=T DoDerP=T.
 (rs|ai) integrals will be sorted in core.
 Spin components of T(2) and E(2):
     alpha-alpha T2 =       0.3489184944D-01 E2=     -0.1246516654D+00
     alpha-beta  T2 =       0.1849781919D+00 E2=     -0.7002306374D+00
     beta-beta   T2 =       0.3489184944D-01 E2=     -0.1246516654D+00
 The integrals were generated   1 times.
 ANorm=    0.1120161547D+01
 E2 =    -0.9495339682D+00 EUMP2 =    -0.28045522002930D+03
 Leave Link  906 at Sun Mar  6 19:11:50 2022, MaxMem= 16106127360 cpu:            2641.6 elap:              94.6
 (Enter /sw/contrib/gaussian/g16/B01/g16/l1101.exe)
 Using compressed Sx but separate Hx and Fx, NAtomX=     5.
 Will process      6 centers per pass.
 Leave Link 1101 at Sun Mar  6 19:11:51 2022, MaxMem= 16106127360 cpu:               4.6 elap:               0.2
 (Enter /sw/contrib/gaussian/g16/B01/g16/l1102.exe)
 Leave Link 1102 at Sun Mar  6 19:11:51 2022, MaxMem= 16106127360 cpu:               1.4 elap:               0.1
 (Enter /sw/contrib/gaussian/g16/B01/g16/l1110.exe)
 Forming Gx(P) for the SCF density, NAtomX=     5.
 Integral derivatives from FoFJK, PRISM(SPDF).
 Do as many integral derivatives as possible in FoFJK.
 G2DrvN: MDV=   16106126844.
 G2DrvN: will do     6 centers at a time, making    1 passes.
 Calling FoFCou, ICntrl=  3107 FMM=F I1Cent=   0 AccDes= 0.00D+00.
 FoFJK:  IHMeth= 1 ICntrl=    3107 DoSepK=F KAlg= 0 I1Cent=           0 FoldK=F
 IRaf=         0 NMat=       1 IRICut=       1 DoRegI=T DoRafI=F ISym2E= 1 IDoP0=0 IntGTp=1.
 FoFCou: FMM=F IPFlag=           0 FMFlag=      100000 FMFlg1=           0
         NFxFlg=           0 DoJE=F BraDBF=F KetDBF=F FulRan=T
         wScrn=  0.000000 ICntrl=      3107 IOpCl=  0 I1Cent=           0 NGrid=           0
         NMat0=    1 NMatS0=      1 NMatT0=    0 NMatD0=    1 NMtDS0=    0 NMtDT0=    0
 Petite list used in FoFCou.
 End of G2Drv F.D. properties file   721 does not exist.
 End of G2Drv F.D. properties file   722 does not exist.
 End of G2Drv F.D. properties file   788 does not exist.
 Leave Link 1110 at Sun Mar  6 19:11:54 2022, MaxMem= 16106127360 cpu:              80.2 elap:               2.9
 (Enter /sw/contrib/gaussian/g16/B01/g16/l1002.exe)
 Minotr:  Closed shell wavefunction.
          IDoAtm=11111
          Frozen-core window.
          Direct CPHF calculation.
          Differentiating once with respect to electric field.
                with respect to dipole field.
          Differentiating once with respect to nuclear coordinates.
          Requested convergence is 1.0D-08 RMS, and 1.0D-07 maximum.
          Secondary convergence is 1.0D-12 RMS, and 1.0D-12 maximum.
          NewPWx=T KeepS1=T KeepF1=T KeepIn=T MapXYZ=F SortEE=F KeepMc=T.
 Keep R1 ints in memory in symmetry-blocked form, NReq=348888983.
 FoFCou: FMM=F IPFlag=           0 FMFlag=           0 FMFlg1=           0
         NFxFlg=           0 DoJE=F BraDBF=F KetDBF=F FulRan=T
         wScrn=  0.000000 ICntrl=       600 IOpCl=  0 I1Cent=           0 NGrid=           0
         NMat0=    1 NMatS0=  21528 NMatT0=    0 NMatD0=    1 NMtDS0=    0 NMtDT0=    0
 Petite list used in FoFCou.
          MDV=   16106127360 using IRadAn=       1.
          Solving linear equations simultaneously, MaxMat=       0.
          There are    18 degrees of freedom in the 1st order CPHF.  IDoFFX=6 NUNeed=    18.
     15 vectors produced by pass  0 Test12= 1.70D-14 5.56D-09 XBig12= 7.97D+00 1.24D+00.
 AX will form    15 AO Fock derivatives at one time.
     15 vectors produced by pass  1 Test12= 1.70D-14 5.56D-09 XBig12= 1.37D+00 2.28D-01.
     15 vectors produced by pass  2 Test12= 1.70D-14 5.56D-09 XBig12= 6.70D-02 5.79D-02.
     15 vectors produced by pass  3 Test12= 1.70D-14 5.56D-09 XBig12= 1.92D-03 1.04D-02.
     15 vectors produced by pass  4 Test12= 1.70D-14 5.56D-09 XBig12= 4.14D-05 1.24D-03.
     15 vectors produced by pass  5 Test12= 1.70D-14 5.56D-09 XBig12= 5.76D-07 1.16D-04.
     15 vectors produced by pass  6 Test12= 1.70D-14 5.56D-09 XBig12= 4.49D-09 1.14D-05.
     14 vectors produced by pass  7 Test12= 1.70D-14 5.56D-09 XBig12= 3.44D-11 7.47D-07.
      3 vectors produced by pass  8 Test12= 1.70D-14 5.56D-09 XBig12= 2.41D-13 6.14D-08.
      1 vectors produced by pass  9 Test12= 1.70D-14 5.56D-09 XBig12= 1.65D-15 6.68D-09.
 InvSVY:  IOpt=1 It=  1 EMax= 1.33D-15
 Solved reduced A of dimension   123 with    15 vectors.
 FullF1:  Do perturbations      1 to      18.
 Saving first derivative matrices.
 End of Minotr F.D. properties file   721 does not exist.
 End of Minotr F.D. properties file   722 does not exist.
 End of Minotr F.D. properties file   788 does not exist.
 Leave Link 1002 at Sun Mar  6 19:11:57 2022, MaxMem= 16106127360 cpu:              74.6 elap:               2.8
 (Enter /sw/contrib/gaussian/g16/B01/g16/l811.exe)
 MDV= 16106127360.
 Form MO integral derivatives with frozen-active canonical formalism.
 MOERI=1 MOERIx=1 NAtoms=     5 NAtomX=     5.
 Discarding MO integrals.
 MO basis two electron integral derivatives will not be stored on disk.
 IAlg= 3 DoFC=T DoPWx=T Debug=F.
 Frozen-core window:  NFC=   4 NFV=   0.
 Reordered first order wavefunction length =     18678272
 In DefCFB: NBatch=  1 ICI= 16 ICA=191 LFMax= 96
            Large arrays: LIAPS=   619940160 LIARS=   288257200 words.
 In StABat: MaxSiz= 55 MinSiz= 25 NAtomB=  5
 DoIAMN: NPSUse= 28.
 Leave Link  811 at Sun Mar  6 19:13:23 2022, MaxMem= 16106127360 cpu:            2408.8 elap:              86.3
 (Enter /sw/contrib/gaussian/g16/B01/g16/l804.exe)
 Frozen-core window:  NFC=   4 NFV=   0.
 Closed-shell transformation, MDV= 16106127360 ITran=4 ISComp=1.
 Semi-Direct transformation.
 ModeAB=           2 MOrb=            16 LenV=   16104919939
 LASXX=     67341636 LTotXX=    67341636 LenRXX=    67341636
 LTotAB=    68301760 MaxLAS=    99807120 LenRXY=    99807120
 NonZer=   134683272 LenScr=   202817536 LnRSAI=           0
 LnScr1=           0 LExtra=           0 Total=    369966292
 MaxDsk=          -1 SrtSym=           F ITran=            4
 DoSDTr:  NPSUse= 28
 JobTyp=0 Pass  1:  I=   1 to  16.
 (rs|ai) integrals will be sorted in core.
 Complete sort for first half transformation.
 First half transformation complete.
 Begin second half transformation for I=  10.
 Begin second half transformation for I=  10.
 Complete sort for second half transformation.
 Second half transformation complete.
 Spin components of T(2) and E(2):
     alpha-alpha T2 =       0.3489184944D-01 E2=     -0.1246516654D+00
     alpha-beta  T2 =       0.1849781919D+00 E2=     -0.7002306374D+00
     beta-beta   T2 =       0.3489184944D-01 E2=     -0.1246516654D+00
 ANorm=    0.1584147651D+01
 E2 =    -0.9495339682D+00 EUMP2 =    -0.28045522002930D+03
 Leave Link  804 at Sun Mar  6 19:13:38 2022, MaxMem= 16106127360 cpu:             415.6 elap:              14.9
 (Enter /sw/contrib/gaussian/g16/B01/g16/l1002.exe)
 Minotr:  Closed shell wavefunction.
          Computing MP2/KS-MP2 derivatives.
          Using Z-Vector for PSCF gradient.
          Skipping F1 and S1 gradient terms here.
          IDoAtm=11111
          Frozen-core window.
          Using MO integrals in the linear equations.
          Forming densities via direct SCF.
          Differentiating once with respect to electric field.
                with respect to dipole field.
          Differentiating once with respect to nuclear coordinates.
          Using symmetry in CPHF.
          Requested convergence is 1.0D-10 RMS, and 1.0D-09 maximum.
          NewPWx=F KeepS1=T KeepF1=T KeepIn=T MapXYZ=F SortEE=F KeepMc=T.
          MDV=   16106127360 using IRadAn=       5.
          Solving linear equations separately, MaxMat=       0.
          There are     1 degrees of freedom in the 1st order CPHF.  IDoFFX=0 NUNeed=     1.
 FoFJK:  IHMeth= 1 ICntrl=       0 DoSepK=F KAlg= 0 I1Cent=           0 FoldK=F
 IRaf=         0 NMat=       1 IRICut=       1 DoRegI=T DoRafI=F ISym2E= 0 IDoP0=0 IntGTp=1.
 FoFCou: FMM=F IPFlag=           0 FMFlag=      100000 FMFlg1=           0
         NFxFlg=           0 DoJE=F BraDBF=F KetDBF=F FulRan=T
         wScrn=  0.000000 ICntrl=         0 IOpCl=  0 I1Cent=           0 NGrid=           0
         NMat0=    1 NMatS0=      1 NMatT0=    0 NMatD0=    1 NMtDS0=    0 NMtDT0=    0
 Symmetry not used in FoFCou.
 LinEq1:  Iter=  0 NonCon=     1 RMS=6.62D-03 Max=1.69D-01 NDo=     1
 LinEq1:  Iter=  1 NonCon=     1 RMS=2.02D-03 Max=3.11D-02 NDo=     1
 LinEq1:  Iter=  2 NonCon=     1 RMS=8.98D-04 Max=1.46D-02 NDo=     1
 LinEq1:  Iter=  3 NonCon=     1 RMS=3.86D-04 Max=8.36D-03 NDo=     1
 LinEq1:  Iter=  4 NonCon=     1 RMS=1.39D-04 Max=1.69D-03 NDo=     1
 LinEq1:  Iter=  5 NonCon=     1 RMS=7.79D-05 Max=1.40D-03 NDo=     1
 LinEq1:  Iter=  6 NonCon=     1 RMS=2.46D-05 Max=2.93D-04 NDo=     1
 LinEq1:  Iter=  7 NonCon=     1 RMS=8.39D-06 Max=1.14D-04 NDo=     1
 LinEq1:  Iter=  8 NonCon=     1 RMS=4.08D-06 Max=6.39D-05 NDo=     1
 LinEq1:  Iter=  9 NonCon=     1 RMS=1.06D-06 Max=1.22D-05 NDo=     1
 LinEq1:  Iter= 10 NonCon=     1 RMS=2.37D-07 Max=2.94D-06 NDo=     1
 LinEq1:  Iter= 11 NonCon=     1 RMS=5.08D-08 Max=8.07D-07 NDo=     1
 LinEq1:  Iter= 12 NonCon=     1 RMS=1.20D-08 Max=1.73D-07 NDo=     1
 LinEq1:  Iter= 13 NonCon=     1 RMS=2.11D-09 Max=2.39D-08 NDo=     1
 LinEq1:  Iter= 14 NonCon=     1 RMS=4.37D-10 Max=5.81D-09 NDo=     1
 LinEq1:  Iter= 15 NonCon=     0 RMS=8.96D-11 Max=9.38D-10 NDo=     1
 Linear equations converged to 1.000D-10 1.000D-09 after    15 iterations.
 End of Minotr F.D. properties file   721 does not exist.
 End of Minotr F.D. properties file   722 does not exist.
 End of Minotr F.D. properties file   788 does not exist.
 Leave Link 1002 at Sun Mar  6 19:13:40 2022, MaxMem= 16106127360 cpu:              65.0 elap:               2.4
 (Enter /sw/contrib/gaussian/g16/B01/g16/l1102.exe)
 Use density number 2.
 Symmetrizing basis deriv contribution to polar:
 IMax=3 JMax=2 DiffMx= 0.00D+00
 Leave Link 1102 at Sun Mar  6 19:13:40 2022, MaxMem= 16106127360 cpu:               2.7 elap:               0.1
 (Enter /sw/contrib/gaussian/g16/B01/g16/l1110.exe)
 Forming Gx(P) for generalized density number  2 NAtomX=     5.
 Integral derivatives from FoFJK, PRISM(SPDF).
 Do as many integral derivatives as possible in FoFJK.
 G2DrvN: MDV=   16106126844.
 G2DrvN: will do     6 centers at a time, making    1 passes.
 Calling FoFCou, ICntrl=  3107 FMM=F I1Cent=   0 AccDes= 0.00D+00.
 FoFJK:  IHMeth= 1 ICntrl=    3107 DoSepK=F KAlg= 0 I1Cent=           0 FoldK=F
 IRaf=         0 NMat=       1 IRICut=       1 DoRegI=T DoRafI=F ISym2E= 1 IDoP0=0 IntGTp=1.
 FoFCou: FMM=F IPFlag=           0 FMFlag=      100000 FMFlg1=           0
         NFxFlg=           0 DoJE=F BraDBF=F KetDBF=F FulRan=T
         wScrn=  0.000000 ICntrl=      3107 IOpCl=  0 I1Cent=           0 NGrid=           0
         NMat0=    1 NMatS0=      1 NMatT0=    0 NMatD0=    1 NMtDS0=    0 NMtDT0=    0
 Petite list used in FoFCou.
 End of G2Drv F.D. properties file   721 does not exist.
 End of G2Drv F.D. properties file   722 does not exist.
 End of G2Drv F.D. properties file   788 does not exist.
 Leave Link 1110 at Sun Mar  6 19:13:43 2022, MaxMem= 16106127360 cpu:              80.8 elap:               2.9
 (Enter /sw/contrib/gaussian/g16/B01/g16/l1112.exe)
 MP22nd: MDV=   16106127360
 This link is doing NAtomX=     5 total of    18 degrees of freedom.
 Using ON3 I/O method in MakUI.
 Frozen-core window:  NFC=   4 NFV=   0.
 Using Ix for Sx.
 Use MO integrals over full window.
 Using OV2 memory method for fx*t*t/D, MaxI=    16 DoOO2=F NP=  28.
 R2 and R3 integrals will be kept in memory, NReq=   915591705.
 FoFCou: FMM=F IPFlag=           0 FMFlag=           0 FMFlg1=           0
         NFxFlg=           0 DoJE=F BraDBF=F KetDBF=F FulRan=T
         wScrn=  0.000000 ICntrl=       600 IOpCl=  0 I1Cent=           0 NGrid=           0
         NMat0=    1 NMatS0=      1 NMatT0=    0 NMatD0=    1 NMtDS0=    0 NMtDT0=    0
 Symmetry not used in FoFCou.
 DD1Dir will call FoFMem   1 times, MxPair=       272
 NAB=   136 NAA=     0 NBB=     0.
 Symmetry is being used.
 FoFJK:  IHMeth= 1 ICntrl=       0 DoSepK=F KAlg= 0 I1Cent=           0 FoldK=F
 IRaf=         0 NMat=      18 IRICut=      45 DoRegI=T DoRafI=T ISym2E= 2 IDoP0=3 IntGTp=3.
 Discarding MO integrals.
 Leave Link 1112 at Sun Mar  6 19:14:08 2022, MaxMem= 16106127360 cpu:             677.8 elap:              24.3
 (Enter /sw/contrib/gaussian/g16/B01/g16/l601.exe)
 Copying SCF densities to generalized density rwf, IOpCl= 0 IROHF=0.

 **********************************************************************

            Population analysis using the MP2 Density.

 **********************************************************************

 Orbital symmetries:
       Occupied  (A') (A') (A') (A') (A') (A') (A') (A') (A') (A')
                 (A") (A') (A') (A") (A') (A")
       Virtual   (A') (A") (A') (A') (A") (A') (A') (A') (A") (A')
                 (A") (A') (A') (A') (A") (A') (A') (A") (A') (A')
                 (A') (A') (A') (A') (A") (A') (A') (A") (A') (A')
                 (A') (A") (A") (A') (A') (A') (A") (A') (A") (A')
                 (A") (A") (A') (A') (A") (A') (A') (A") (A') (A')
                 (A') (A") (A') (A') (A") (A') (A") (A') (A") (A')
                 (A') (A') (A") (A') (A') (A') (A") (A") (A') (A')
                 (A") (A') (A") (A") (A') (A') (A") (A') (A') (A')
                 (A") (A') (A') (A") (A') (A") (A") (A') (A') (A')
                 (A') (A') (A") (A") (A') (A') (A") (A") (A') (A")
                 (A') (A') (A") (A') (A") (A') (A') (A') (A") (A")
                 (A') (A') (A') (A') (A") (A') (A') (A') (A") (A')
                 (A") (A") (A') (A') (A") (A") (A') (A") (A') (A')
                 (A') (A') (A") (A') (A') (A") (A") (A') (A') (A')
                 (A") (A") (A') (A') (A') (A") (A') (A') (A') (A")
                 (A') (A') (A') (A") (A') (A") (A") (A') (A') (A")
                 (A') (A") (A') (A") (A") (A') (A") (A') (A") (A")
                 (A') (A") (A") (A') (A') (A") (A') (A') (A") (A')
                 (A') (A') (A') (A') (A') (A') (A') (A') (A') (A')
                 (A')
 The electronic state is 1-A'.
 Alpha  occ. eigenvalues --  -20.72076 -20.68705 -20.66866 -15.82671  -1.64199
 Alpha  occ. eigenvalues --   -1.50413  -1.29419  -0.96099  -0.83383  -0.75804
 Alpha  occ. eigenvalues --   -0.73935  -0.63733  -0.61867  -0.61741  -0.50546
 Alpha  occ. eigenvalues --   -0.49778
 Alpha virt. eigenvalues --    0.03509   0.05895   0.09509   0.10035   0.11981
 Alpha virt. eigenvalues --    0.12256   0.14932   0.15203   0.17740   0.18037
 Alpha virt. eigenvalues --    0.18977   0.21101   0.21668   0.24213   0.24628
 Alpha virt. eigenvalues --    0.26892   0.31266   0.31682   0.33806   0.34340
 Alpha virt. eigenvalues --    0.34645   0.39242   0.44906   0.48842   0.50506
 Alpha virt. eigenvalues --    0.51816   0.54482   0.56132   0.59763   0.61949
 Alpha virt. eigenvalues --    0.63806   0.69022   0.71715   0.72408   0.74244
 Alpha virt. eigenvalues --    0.76393   0.76730   0.79560   0.80617   0.83926
 Alpha virt. eigenvalues --    0.84290   0.85157   0.88483   0.90757   0.93035
 Alpha virt. eigenvalues --    0.94696   0.95416   1.01821   1.03234   1.06322
 Alpha virt. eigenvalues --    1.06593   1.09514   1.14429   1.15629   1.16888
 Alpha virt. eigenvalues --    1.22204   1.22715   1.24567   1.35397   1.36093
 Alpha virt. eigenvalues --    1.37111   1.46838   1.48505   1.50473   1.54239
 Alpha virt. eigenvalues --    1.59681   1.59687   1.60510   1.62849   1.69486
 Alpha virt. eigenvalues --    1.74060   1.80029   1.82980   1.88700   1.89561
 Alpha virt. eigenvalues --    1.92993   1.97882   1.98956   2.05302   2.12303
 Alpha virt. eigenvalues --    2.13017   2.16543   2.18823   2.24349   2.25973
 Alpha virt. eigenvalues --    2.29396   2.35200   2.36603   2.38595   2.40087
 Alpha virt. eigenvalues --    2.43311   2.46982   2.47911   2.52968   2.53778
 Alpha virt. eigenvalues --    2.54855   2.55741   2.61455   2.62988   2.67165
 Alpha virt. eigenvalues --    2.67208   2.75348   2.80887   2.81619   2.83987
 Alpha virt. eigenvalues --    2.91841   2.98413   3.04547   3.05036   3.11502
 Alpha virt. eigenvalues --    3.11859   3.17319   3.21325   3.30771   3.33221
 Alpha virt. eigenvalues --    3.36049   3.47727   3.67478   3.86913   3.93091
 Alpha virt. eigenvalues --    4.18439   4.22317   4.22337   4.26115   4.36938
 Alpha virt. eigenvalues --    4.49854   4.52852   4.55191   4.59848   4.69273
 Alpha virt. eigenvalues --    4.80838   4.89787   4.91435   4.93956   4.99967
 Alpha virt. eigenvalues --    5.00586   5.10616   5.13030   5.17947   5.24663
 Alpha virt. eigenvalues --    5.25792   5.31712   5.34555   5.35671   5.55031
 Alpha virt. eigenvalues --    5.63866   5.70363   5.89047   5.99398   6.26424
 Alpha virt. eigenvalues --    6.29525   6.36036   6.37616   6.59764   6.65874
 Alpha virt. eigenvalues --    6.65911   6.68914   6.72468   6.79881   6.80422
 Alpha virt. eigenvalues --    6.84809   6.96661   7.02048   7.06583   7.07910
 Alpha virt. eigenvalues --    7.13663   7.17337   7.17364   7.20235   7.24195
 Alpha virt. eigenvalues --    7.24673   7.26608   7.34764   7.39111   7.42675
 Alpha virt. eigenvalues --    7.44092   7.45897   7.55274   7.66296   7.66596
 Alpha virt. eigenvalues --    7.79274   7.88229   7.95084   8.06070   8.30658
 Alpha virt. eigenvalues --    8.50009   8.65042  13.61019  14.73205  15.08995
 Alpha virt. eigenvalues --   15.66797
          Condensed to atoms (all electrons):
               1          2          3          4          5
     1  H    0.578060   0.124273   0.024220  -0.000302  -0.004518
     2  O    0.124273   8.389906  -0.230294  -0.000570  -0.009415
     3  O    0.024220  -0.230294   8.368329  -0.168485  -0.032595
     4  N   -0.000302  -0.000570  -0.168485   7.133691  -0.118505
     5  O   -0.004518  -0.009415  -0.032595  -0.118505   8.362395
 Mulliken charges:
               1
     1  H    0.278266
     2  O   -0.273899
     3  O    0.038825
     4  N    0.154170
     5  O   -0.197362
 Sum of Mulliken charges =  -0.00000
 Mulliken charges with hydrogens summed into heavy atoms:
               1
     2  O    0.004367
     3  O    0.038825
     4  N    0.154170
     5  O   -0.197362
 APT charges:
               1
     1  H    0.271777
     2  O   -0.302372
     3  O   -0.307281
     4  N    0.638315
     5  O   -0.300438
 Sum of APT charges =  -0.00000
 APT charges with hydrogens summed into heavy atoms:
               1
     2  O   -0.030596
     3  O   -0.307281
     4  N    0.638315
     5  O   -0.300438
 Electronic spatial extent (au):  <R**2>=            207.4388
 Charge=             -0.0000 electrons
 Dipole moment (field-independent basis, Debye):
    X=              0.0616    Y=             -1.0754    Z=             -0.0000  Tot=              1.0772
 Quadrupole moment (field-independent basis, Debye-Ang):
   XX=            -23.3864   YY=            -22.9475   ZZ=            -21.9418
   XY=             -1.9836   XZ=             -0.0000   YZ=             -0.0000
 Traceless Quadrupole moment (field-independent basis, Debye-Ang):
   XX=             -0.6278   YY=             -0.1890   ZZ=              0.8168
   XY=             -1.9836   XZ=             -0.0000   YZ=             -0.0000
 Octapole moment (field-independent basis, Debye-Ang**2):
  XXX=              2.5984  YYY=              0.3199  ZZZ=             -0.0000  XYY=              2.3747
  XXY=             -2.7946  XXZ=             -0.0000  XZZ=             -0.5737  YZZ=             -0.6920
  YYZ=             -0.0000  XYZ=             -0.0000
 Hexadecapole moment (field-independent basis, Debye-Ang**3):
 XXXX=           -127.0469 YYYY=            -95.0689 ZZZZ=            -18.0554 XXXY=            -21.6279
 XXXZ=             -0.0000 YYYX=            -19.8526 YYYZ=             -0.0000 ZZZX=             -0.0000
 ZZZY=             -0.0000 XXYY=            -35.6995 XXZZ=            -24.3492 YYZZ=            -18.6300
 XXYZ=             -0.0000 YYXZ=             -0.0000 ZZXY=             -5.9319
 N-N= 1.226309697902D+02 E-N=-9.068076497383D+02  KE= 2.801862969896D+02
 Symmetry A'   KE= 2.663385215019D+02
 Symmetry A"   KE= 1.384777548765D+01
  Exact polarizability:  30.954   4.169  29.946  -0.000   0.000  17.631
 Approx polarizability:  24.588   0.511  27.771   0.000   0.000  15.534
 No NMR shielding tensors so no spin-rotation constants.
 Leave Link  601 at Sun Mar  6 19:14:08 2022, MaxMem= 16106127360 cpu:               4.1 elap:               0.2
 (Enter /sw/contrib/gaussian/g16/B01/g16/l701.exe)
 ... and contract with generalized density number  2.
 Compute integral second derivatives.
 Leave Link  701 at Sun Mar  6 19:14:08 2022, MaxMem= 16106127360 cpu:               5.3 elap:               0.2
 (Enter /sw/contrib/gaussian/g16/B01/g16/l702.exe)
 L702 exits ... SP integral derivatives will be done elsewhere.
 Leave Link  702 at Sun Mar  6 19:14:08 2022, MaxMem= 16106127360 cpu:               1.2 elap:               0.1
 (Enter /sw/contrib/gaussian/g16/B01/g16/l703.exe)
 Integral derivatives from FoFJK, PRISM(SPDF).
 Compute integral second derivatives, UseDBF=F ICtDFT=           0.
 Calling FoFJK, ICntrl=  10100127 FMM=F ISym2X=1 I1Cent= 0 IOpClX= 0 NMat=1 NMatS=1 NMatT=0.
 FoFJK:  IHMeth= 1 ICntrl=10100127 DoSepK=F KAlg= 0 I1Cent=           0 FoldK=F
 IRaf=         0 NMat=       1 IRICut=       1 DoRegI=T DoRafI=F ISym2E= 1 IDoP0=0 IntGTp=1.
 FoFCou: FMM=F IPFlag=           0 FMFlag=      100000 FMFlg1=         800
         NFxFlg=           0 DoJE=F BraDBF=F KetDBF=F FulRan=T
         wScrn=  0.000000 ICntrl=  10100127 IOpCl=  0 I1Cent=           0 NGrid=           0
         NMat0=    1 NMatS0=      1 NMatT0=    0 NMatD0=    1 NMtDS0=    0 NMtDT0=    0
 Petite list used in FoFCou.
 Leave Link  703 at Sun Mar  6 19:14:23 2022, MaxMem= 16106127360 cpu:             411.2 elap:              14.7
 (Enter /sw/contrib/gaussian/g16/B01/g16/l716.exe)
 Dipole        = 2.42435108D-02-4.23110910D-01-1.49726917D-33
 Polarizability= 3.09544349D+01 4.16942667D+00 2.99464645D+01
                -1.46634981D-32 5.52988221D-32 1.76310409D+01
 Full mass-weighted force constant matrix:
 Low frequencies ---   -0.0014   -0.0012    0.0004   16.0100   36.5305   60.9834
 Low frequencies ---  355.9997  397.6449  527.4433
 Diagonal vibrational polarizability:
        7.1973176       9.9470030      15.9050110
 Harmonic frequencies (cm**-1), IR intensities (KM/Mole), Raman scattering
 activities (A**4/AMU), depolarization ratios for plane and unpolarized
 incident light, reduced masses (AMU), force constants (mDyne/A),
 and normal coordinates:
                      1                      2                      3
                     A"                     A'                     A"
 Frequencies --    355.9835               397.6347               527.4097
 Red. masses --      1.5385                 7.0449                 2.9748
 Frc consts  --      0.1149                 0.6563                 0.4875
 IR Inten    --     63.6477                 7.9420                24.6909
  Atom  AN      X      Y      Z        X      Y      Z        X      Y      Z
     1   1     0.00  -0.00   0.98    -0.73  -0.25   0.00    -0.00   0.00   0.93
     2   8    -0.00   0.00  -0.11    -0.33  -0.31  -0.00    -0.00  -0.00   0.06
     3   8     0.00  -0.00   0.11    -0.07   0.08   0.00     0.00   0.00  -0.19
     4   7     0.00   0.00  -0.11     0.06   0.09   0.00    -0.00  -0.00   0.27
     5   8    -0.00  -0.00   0.03     0.39   0.17  -0.00     0.00  -0.00  -0.17
                      4                      5                      6
                     A'                     A'                     A'
 Frequencies --    713.1289               836.8938               969.9857
 Red. masses --     13.2490                12.4143                 9.8065
 Frc consts  --      3.9698                 5.1229                 5.4362
 IR Inten    --    215.2517                32.5250                13.0799
  Atom  AN      X      Y      Z        X      Y      Z        X      Y      Z
     1   1    -0.37   0.00  -0.00     0.43  -0.16   0.00    -0.63  -0.01   0.00
     2   8    -0.01  -0.08  -0.00     0.53  -0.21  -0.00     0.20  -0.17  -0.00
     3   8     0.37   0.58   0.00    -0.38  -0.02   0.00    -0.36   0.41   0.00
     4   7    -0.40  -0.46  -0.00    -0.44  -0.06  -0.00     0.38   0.05  -0.00
     5   8     0.01  -0.10   0.00     0.21   0.29  -0.00    -0.13  -0.28   0.00
                      7                      8                      9
                     A'                     A'                     A'
 Frequencies --   1431.0505              1549.1231              3487.0137
 Red. masses --      1.3614                 5.3350                 1.0638
 Frc consts  --      1.6427                 7.5433                 7.6208
 IR Inten    --     79.2027               146.4793                42.8418
  Atom  AN      X      Y      Z        X      Y      Z        X      Y      Z
     1   1     0.97  -0.20   0.00    -0.81   0.18  -0.00     0.15   0.99  -0.00
     2   8    -0.07  -0.05   0.00     0.03   0.03  -0.00    -0.01  -0.06   0.00
     3   8    -0.03   0.06  -0.00    -0.03  -0.06   0.00     0.00  -0.00  -0.00
     4   7     0.07  -0.06   0.00     0.22  -0.36  -0.00    -0.00   0.00  -0.00
     5   8    -0.03   0.06  -0.00    -0.13   0.34   0.00     0.00  -0.00   0.00

 -------------------
 - Thermochemistry -
 -------------------
 Temperature   298.150 Kelvin.  Pressure   1.00000 Atm.
 Atom     1 has atomic number  1 and mass   1.00783
 Atom     2 has atomic number  8 and mass  15.99491
 Atom     3 has atomic number  8 and mass  15.99491
 Atom     4 has atomic number  7 and mass  14.00307
 Atom     5 has atomic number  8 and mass  15.99491
 Molecular mass:    62.99564 amu.
 Principal axes and moments of inertia in atomic units:
                           1         2         3
     Eigenvalues --    84.80006 222.77705 307.57711
           X            0.79519  -0.60636   0.00000
           Y            0.60636   0.79519   0.00000
           Z            0.00000  -0.00000   1.00000
 This molecule is an asymmetric top.
 Rotational symmetry number  1.
 Rotational temperatures (Kelvin)      1.02139     0.38879     0.28160
 Rotational constants (GHZ):          21.28231     8.10111     5.86761
 Zero-point vibrational energy      61417.6 (Joules/Mol)
                                   14.67916 (Kcal/Mol)
 Warning -- explicit consideration of   3 degrees of freedom as
           vibrations may cause significant error
 Vibrational temperatures:    512.18   572.11   758.82  1026.03  1204.10
          (Kelvin)           1395.59  2058.96  2228.84  5017.03
 
 Zero-point correction=                           0.023393 (Hartree/Particle)
 Thermal correction to Energy=                    0.027324
 Thermal correction to Enthalpy=                  0.028268
 Thermal correction to Gibbs Free Energy=        -0.002579
 Sum of electronic and zero-point Energies=           -280.431827
 Sum of electronic and thermal Energies=              -280.427896
 Sum of electronic and thermal Enthalpies=            -280.426952
 Sum of electronic and thermal Free Energies=         -280.457799
 
                     E (Thermal)             CV                S
                      KCal/Mol        Cal/Mol-Kelvin    Cal/Mol-Kelvin
 Total                   17.146             12.155             64.924
 Electronic               0.000              0.000              0.000
 Translational            0.889              2.981             38.341
 Rotational               0.889              2.981             23.278
 Vibrational             15.369              6.193              3.305
 Vibration     1          0.731              1.563              1.140
 Vibration     2          0.764              1.475              0.971
 Vibration     3          0.882              1.189              0.593
                       Q            Log10(Q)             Ln(Q)
 Total Bot       0.153594D+02          1.186376          2.731731
 Total V=0       0.883643D+12         11.946277         27.507319
 Vib (Bot)       0.286418D-10        -10.543000        -24.276155
 Vib (Bot)    1  0.516256D+00         -0.287135         -0.661152
 Vib (Bot)    2  0.449015D+00         -0.347739         -0.800698
 Vib (Bot)    3  0.303965D+00         -0.517176         -1.190842
 Vib (V=0)       0.164779D+01          0.216901          0.499434
 Vib (V=0)    1  0.121869D+01          0.085895          0.197779
 Vib (V=0)    2  0.117202D+01          0.068936          0.158731
 Vib (V=0)    3  0.108515D+01          0.035488          0.081714
 Electronic      0.100000D+01          0.000000          0.000000
 Translational   0.196526D+08          7.293420         16.793719
 Rotational      0.272870D+05          4.435956         10.214166
 
                                                                title
                                                             IR Spectrum
 
     3                                                                      1   1                                                    
     4                                                                      5   4                9    8    7     5    3 3            
     8                                                                      4   3                7    3    1     2    9 5            
     7                                                                      9   1                0    7    3     7    8 6            
 
     X                                                                      X   X                X    X    X     X    X X            
     X                                                                      X   X                     X    X     X      X            
     X                                                                      X   X                     X    X            X            
     X                                                                      X   X                          X            X            
                                                                            X   X                          X            X            
                                                                            X   X                          X            X            
                                                                            X   X                          X                         
                                                                            X                              X                         
                                                                            X                              X                         
                                                                            X                              X                         
                                                                            X                              X                         
                                                                            X                              X                         
                                                                            X                              X                         
                                                                            X                              X                         
                                                                                                           X                         
                                                                                                           X                         
                                                                                                           X                         
                                                                                                           X                         
                                                                                                           X                         
                                                                                                           X                         
 
 ***** Axes restored to original set *****
 -------------------------------------------------------------------
 Center     Atomic                   Forces (Hartrees/Bohr)
 Number     Number              X              Y              Z
 -------------------------------------------------------------------
      1        1           0.000115356    0.000000000   -0.000123203
      2        8          -0.000091618   -0.000000000    0.000275929
      3        8           0.000361677    0.000000000   -0.001589707
      4        7          -0.002809985   -0.000000000   -0.003353880
      5        8           0.002424570    0.000000000    0.004790861
 -------------------------------------------------------------------
 Cartesian Forces:  Max     0.004790861 RMS     0.001839319
 -----------------------------------------------------------------------------------------------
                       Internal Coordinate Forces (Hartree/Bohr or radian)
  Cent   Atom   N1       Length/X         N2         Alpha/Y        N3         Beta/Z          J
 -----------------------------------------------------------------------------------------------
      1  H 
      2  O        1   0.000123(     1)
      3  O        2  -0.000052(     2)      1  -0.000215(     5)
      4  N        3  -0.001409(     3)      2   0.000178(     6)      1   0.000000(     8)     0
      5  O        4  -0.005349(     4)      3  -0.001071(     7)      2   0.000000(     9)     0
 -----------------------------------------------------------------------------------------------
 Internal  Forces:  Max     0.005348601 RMS     0.001880734
 Force constants in Cartesian coordinates: 
                1             2             3             4             5 
      1  0.721148D-01
      2  0.000000D+00  0.613132D-02
      3  0.243216D-01  0.000000D+00  0.436511D+00
      4 -0.519517D-01  0.000000D+00 -0.465389D-02  0.280695D+00
      5  0.000000D+00 -0.241989D-02  0.000000D+00  0.000000D+00  0.122835D-01
      6  0.320767D-01  0.000000D+00 -0.420323D+00 -0.127307D-01  0.000000D+00
      7 -0.250769D-01  0.000000D+00 -0.159101D-01 -0.170355D+00  0.000000D+00
      8  0.000000D+00 -0.420735D-02  0.000000D+00  0.000000D+00 -0.192000D-01
      9 -0.439370D-01  0.000000D+00 -0.199946D-01  0.107900D-01  0.000000D+00
     10 -0.569598D-02  0.000000D+00  0.634718D-02 -0.840179D-01  0.000000D+00
     11  0.000000D+00  0.801415D-02  0.000000D+00  0.000000D+00  0.199311D-01
     12 -0.191328D-01  0.000000D+00  0.119695D-01  0.107108D-01  0.000000D+00
     13  0.106098D-01  0.000000D+00 -0.101047D-01  0.256291D-01  0.000000D+00
     14  0.000000D+00 -0.751823D-02  0.000000D+00  0.000000D+00 -0.105947D-01
     15  0.667150D-02  0.000000D+00 -0.816276D-02 -0.411614D-02  0.000000D+00
                6             7             8             9            10 
      6  0.522512D+00
      7 -0.909260D-01  0.303735D+00
      8  0.000000D+00  0.000000D+00  0.417065D-01
      9 -0.964537D-01  0.810048D-01  0.000000D+00  0.315929D+00
     10  0.402734D-01 -0.143328D+00  0.000000D+00 -0.355415D-01  0.547993D+00
     11  0.000000D+00  0.000000D+00 -0.482370D-01  0.000000D+00  0.000000D+00
     12 -0.104782D-01  0.169421D-01  0.000000D+00 -0.271279D-01  0.232685D+00
     13  0.313066D-01  0.350254D-01  0.000000D+00 -0.123162D-01 -0.314951D+00
     14  0.000000D+00  0.000000D+00  0.299378D-01  0.000000D+00  0.000000D+00
     15  0.474312D-02  0.888927D-02  0.000000D+00 -0.172352D+00 -0.243764D+00
               11            12            13            14            15 
     11  0.599051D-01
     12  0.000000D+00  0.436537D+00
     13  0.000000D+00 -0.241205D+00  0.243686D+00
     14 -0.396134D-01  0.000000D+00  0.000000D+00  0.277886D-01
     15  0.000000D+00 -0.410900D+00  0.232319D+00  0.000000D+00  0.586673D+00
 Force constants in internal coordinates: 
                1             2             3             4             5 
      1  0.436511D+00
      2  0.223174D-01  0.258614D+00
      3  0.525321D-02  0.171693D-01  0.207613D+00
      4 -0.122691D-01  0.224811D-01  0.146482D+00  0.699358D+00
      5  0.454042D-01  0.562829D-01 -0.243745D-01  0.209853D-01  0.250279D+00
      6  0.122959D-01  0.219527D-01  0.921449D-01  0.960331D-02 -0.931983D-02
      7  0.966723D-02 -0.737927D-01  0.120518D+00  0.116552D+00 -0.231354D-01
      8  0.000000D+00  0.000000D+00  0.000000D+00  0.000000D+00  0.000000D+00
      9  0.000000D+00  0.000000D+00  0.000000D+00  0.000000D+00  0.000000D+00
                6             7             8             9 
      6  0.520880D+00
      7  0.626214D-01  0.660402D+00
      8  0.000000D+00  0.000000D+00  0.207960D-01
      9  0.000000D+00  0.000000D+00  0.284056D-01  0.108778D+00
 Leave Link  716 at Sun Mar  6 19:14:23 2022, MaxMem= 16106127360 cpu:               0.9 elap:               0.1
 (Enter /sw/contrib/gaussian/g16/B01/g16/l103.exe)

 GradGradGradGradGradGradGradGradGradGradGradGradGradGradGradGradGradGrad
 Berny optimization.
 Search for a local minimum.
 Step number   1 out of a maximum of    2
 All quantities printed in internal units (Hartrees-Bohrs-Radians)
 Second derivative matrix not updated -- analytic derivatives used.
 The second derivative matrix:
                          r1        r2        r3        r4        a1
           r1           0.43651
           r2           0.02232   0.25861
           r3           0.00525   0.01717   0.20761
           r4          -0.01227   0.02248   0.14648   0.69936
           a1           0.04540   0.05628  -0.02437   0.02099   0.25028
           a2           0.01230   0.02195   0.09214   0.00960  -0.00932
           a3           0.00967  -0.07379   0.12052   0.11655  -0.02314
           d1           0.00000   0.00000   0.00000  -0.00000  -0.00000
           d2           0.00000  -0.00000  -0.00000  -0.00000  -0.00000
                          a2        a3        d1        d2
           a2           0.52088
           a3           0.06262   0.66040
           d1           0.00000  -0.00000   0.02080
           d2          -0.00000   0.00000   0.02841   0.10878
 ITU=  0
     Eigenvalues ---    0.01242   0.11715   0.12456   0.20328   0.27421
     Eigenvalues ---    0.44925   0.51436   0.59799   0.87001
 Angle between quadratic step and forces=  13.43 degrees.
 Linear search not attempted -- first point.
 Variable       Old X    -DE/DX   Delta X   Delta X   Delta X     New X
                                 (Linear)    (Quad)   (Total)
    r1        1.86209   0.00012   0.00000   0.00011   0.00011   1.86220
    r2        2.69614  -0.00005   0.00000   0.00063   0.00063   2.69677
    r3        2.60992  -0.00141   0.00000  -0.00221  -0.00221   2.60771
    r4        2.26577  -0.00535   0.00000  -0.00720  -0.00720   2.25857
    a1        1.75642  -0.00021   0.00000  -0.00060  -0.00060   1.75582
    a2        1.97463   0.00018   0.00000   0.00082   0.00082   1.97545
    a3        1.99550  -0.00107   0.00000   0.00002   0.00002   1.99553
    d1        0.00000   0.00000   0.00000  -0.00000  -0.00000  -0.00000
    d2        0.00000   0.00000   0.00000   0.00000   0.00000   0.00000
         Item               Value     Threshold  Converged?
 Maximum Force            0.005349     0.000450     NO 
 RMS     Force            0.001881     0.000300     NO 
 Maximum Displacement     0.007201     0.001800     NO 
 RMS     Displacement     0.002542     0.001200     NO 
 Predicted change in Energy=-2.092852D-05
                       ----------------------------
                       ! Non-Optimized Parameters !
                       ! (Angstroms and Degrees)  !
 ----------------------                            ----------------------
 !      Name          Value   Derivative information (Atomic Units)     !
 ------------------------------------------------------------------------
 !       r1          0.9854   -DE/DX =    0.0001                        !
 !       r2          1.4271   -DE/DX =   -0.0001                        !
 !       r3          1.3799   -DE/DX =   -0.0014                        !
 !       r4          1.1952   -DE/DX =   -0.0053                        !
 !       a1        100.6011   -DE/DX =   -0.0002                        !
 !       a2        113.1849   -DE/DX =    0.0002                        !
 !       a3        114.3352   -DE/DX =   -0.0011                        !
 !       d1          0.0      -DE/DX =    0.0                           !
 !       d2          0.0      -DE/DX =    0.0                           !
 ------------------------------------------------------------------------
 GradGradGradGradGradGradGradGradGradGradGradGradGradGradGradGradGradGrad

 Leave Link  103 at Sun Mar  6 19:14:23 2022, MaxMem= 16106127360 cpu:               1.2 elap:               0.1
 (Enter /sw/contrib/gaussian/g16/B01/g16/l9999.exe)

 ----------------------------------------------------------------------

 Electric dipole moment (input orientation):
 (Debye = 10**-18 statcoulomb cm , SI units = C m)
                  (au)            (Debye)         (10**-30 SI)
   Tot        0.423805D+00      0.107720D+01      0.359317D+01
   x         -0.112591D+00     -0.286177D+00     -0.954585D+00
   y          0.000000D+00      0.000000D+00      0.000000D+00
   z         -0.408575D+00     -0.103850D+01     -0.346405D+01

 Dipole polarizability, Alpha (input orientation).
 (esu units = cm**3 , SI units = C**2 m**2 J**-1)
 Alpha(0;0):
               (au)            (10**-24 esu)      (10**-40 SI)
   iso        0.261773D+02      0.387908D+01      0.431606D+01
   aniso      0.147395D+02      0.218416D+01      0.243021D+01
   xx         0.291972D+02      0.432658D+01      0.481397D+01
   yx         0.000000D+00      0.000000D+00      0.000000D+00
   yy         0.176310D+02      0.261265D+01      0.290697D+01
   zx        -0.400842D+01     -0.593987D+00     -0.660900D+00
   zy         0.000000D+00      0.000000D+00      0.000000D+00
   zz         0.317037D+02      0.469800D+01      0.522723D+01

 ----------------------------------------------------------------------

 Dipole orientation:
     1         -0.00000000          0.00000000         -0.00000000
     8         -0.49469563          0.00000000         -1.79517764
     8          1.92771183          0.00000000         -2.97886735
     7          3.90280460         -0.00000000         -1.27279999
     8          3.25981313         -0.00000000          0.89981897

 Electric dipole moment (dipole orientation):
 (Debye = 10**-18 statcoulomb cm , SI units = C m)
                  (au)            (Debye)         (10**-30 SI)
   Tot        0.423805D+00      0.107720D+01      0.359317D+01
   x          0.000000D+00      0.000000D+00      0.000000D+00
   y          0.000000D+00      0.000000D+00      0.000000D+00
   z          0.423805D+00      0.107720D+01      0.359317D+01

 Dipole polarizability, Alpha (dipole orientation).
 (esu units = cm**3 , SI units = C**2 m**2 J**-1)
 Alpha(0;0):
               (au)            (10**-24 esu)      (10**-40 SI)
   iso        0.261773D+02      0.387908D+01      0.431606D+01
   aniso      0.147395D+02      0.218416D+01      0.243021D+01
   xx         0.314274D+02      0.465706D+01      0.518167D+01
   yx         0.000000D+00      0.000000D+00      0.000000D+00
   yy         0.176310D+02      0.261265D+01      0.290697D+01
   zx         0.408457D+01      0.605271D+00      0.673455D+00
   zy         0.000000D+00      0.000000D+00      0.000000D+00
   zz         0.294735D+02      0.436753D+01      0.485953D+01

 ----------------------------------------------------------------------
 1\1\GINC-N2398\Freq\RMP2-FC\Aug-CC-pVTZ\H1N1O3\CGAVINH\06-Mar-2022\1\\
 #p freq mp2/aug-cc-pvtz density=current\\title\\0,1\H\O,1,r1\O,2,r2,1,
 a1\N,3,r3,2,a2,1,d1,0\O,4,r4,3,a3,2,d2,0\\r1=0.98537664\r2=1.42673666\
 r3=1.38110764\r4=1.19899356\a1=100.6355057\a2=113.13777052\a3=114.3339
 2022\d1=0.\d2=0.\\Version=ES64L-G16RevB.01\State=1-A'\HF=-279.5056861\
 MP2=-280.45522\RMSD=4.732e-09\RMSF=1.839e-03\ZeroPoint=0.0233927\Therm
 al=0.0273241\Dipole=-0.1125908,0.,-0.4085755\DipoleDeriv=0.3170178,0.,
 0.0380032,0.,0.2980462,0.,-0.0242501,0.,0.2002656,-0.5285851,0.,0.2829
 075,0.,-0.2537622,0.,-0.1053891,0.,-0.1247697,0.0072752,0.,0.3328086,0
 .,-0.0085568,0.,0.4416747,0.,-0.9205625,0.1978304,0.,-0.1438049,0.,0.0
 115458,0.,-0.6653117,0.,1.7055689,0.0064617,0.,-0.5099143,0.,-0.047273
 1,0.,0.3532762,0.,-0.8605022\Polar=29.1971938,0.,17.6310409,-4.0084248
 ,0.,31.7037056\Quadrupole=0.1534584,0.6072579,-0.7607163,0.,1.4116263,
 0.\PG=CS [SG(H1N1O3)]\NImag=0\\0.07211482,0.,0.00613132,0.02432156,0.,
 0.43651119,-0.05195174,0.,-0.00465389,0.28069540,0.,-0.00241989,0.,0.,
 0.01228351,0.03207673,0.,-0.42032334,-0.01273069,0.,0.52251208,-0.0250
 7691,0.,-0.01591014,-0.17035489,0.,-0.09092603,0.30373468,0.,-0.004207
 35,0.,0.,-0.01920001,0.,0.,0.04170650,-0.04393703,0.,-0.01999463,0.010
 78997,0.,-0.09645366,0.08100477,0.,0.31592859,-0.00569598,0.,0.0063471
 8,-0.08401786,0.,0.04027342,-0.14332828,0.,-0.03554149,0.54799278,0.,0
 .00801415,0.,0.,0.01993111,0.,0.,-0.04823697,0.,0.,0.05990513,-0.01913
 276,0.,0.01196954,0.01071075,0.,-0.01047819,0.01694212,0.,-0.02712793,
 0.23268490,0.,0.43653707,0.01060981,0.,-0.01010472,0.02562909,0.,0.031
 30655,0.03502541,0.,-0.01231621,-0.31495066,0.,-0.24120501,0.24368634,
 0.,-0.00751823,0.,0.,-0.01059472,0.,0.,0.02993782,0.,0.,-0.03961342,0.
 ,0.,0.02778855,0.00667150,0.,-0.00816276,-0.00411614,0.,0.00474312,0.0
 0888927,0.,-0.17235237,-0.24376401,0.,-0.41090049,0.23231938,0.,0.5866
 7250\\-0.00011536,0.,0.00012320,0.00009162,0.,-0.00027593,-0.00036168,
 0.,0.00158971,0.00280999,0.,0.00335388,-0.00242457,0.,-0.00479086\\\@


 TO ERR IS HUMAN - AND TO BLAME IT ON A COMPUTER IS EVEN MORE SO.
 Job cpu time:       0 days  1 hours 55 minutes 52.3 seconds.
 Elapsed time:       0 days  0 hours  4 minutes 11.4 seconds.
 File lengths (MBytes):  RWF=   7239 Int=      0 D2E=      0 Chk=      8 Scr=      1
 Normal termination of Gaussian 16 at Sun Mar  6 19:14:24 2022.
