title                                                                   
Freq      RMP2-FC                                                     Aug-CC-pVTZ         
Number of atoms                            I                5
Info1-9                                    I   N=           9
          33          24           0           0           0         100
           6           2           1
Full Title                                 C   N=           1
title       
Route                                      C   N=           4
#p freq mp2/aug-cc-pvtz density=current         
Charge                                     I                0
Multiplicity                               I                1
Number of electrons                        I               32
Number of alpha electrons                  I               16
Number of beta electrons                   I               16
Number of basis functions                  I              207
Number of independent functions            I              207
Number of point charges in /Mol/           I                0
Number of translation vectors              I                0
Atomic numbers                             I   N=           5
           1           8           8           7           8
Nuclear charges                            R   N=           5
  1.00000000E+00  8.00000000E+00  8.00000000E+00  7.00000000E+00  8.00000000E+00
Current cartesian coordinates              R   N=          15
  2.11432545E+00 -1.10574636E+00 -4.93038066E-32  2.49316793E+00  7.17400627E-01
  0.00000000E+00 -2.07146749E-16  1.74370121E+00  4.31408308E-32 -1.88553624E+00
 -1.08430724E-01  4.93038066E-32 -1.10761440E+00 -2.22800666E+00 -3.69778549E-32
Number of symbols in /Mol/                 I                0
Force Field                                I                0
Atom Types                                 C   N=           5
                                                            
Int Atom Types                             I   N=           5
           0           0           0           0           0
MM charges                                 R   N=           5
  0.00000000E+00  0.00000000E+00  0.00000000E+00  0.00000000E+00  0.00000000E+00
Integer atomic weights                     I   N=           5
           1          16          16          14          16
Real atomic weights                        R   N=           5
  1.00782504E+00  1.59949146E+01  1.59949146E+01  1.40030740E+01  1.59949146E+01
Atom fragment info                         I   N=           5
           0           0           0           0           0
Atom residue num                           I   N=           5
           0           0           0           0           0
Nuclear spins                              I   N=           5
           1           0           0           2           0
Nuclear ZEff                               R   N=           5
 -1.00000000E+00 -5.60000000E+00 -5.60000000E+00 -4.55000000E+00 -5.60000000E+00
Nuclear ZNuc                               R   N=           5
  1.00000000E+00  8.00000000E+00  8.00000000E+00  7.00000000E+00  8.00000000E+00
Nuclear QMom                               R   N=           5
  0.00000000E+00  0.00000000E+00  0.00000000E+00  2.04400000E+00  0.00000000E+00
Nuclear GFac                               R   N=           5
  2.79284600E+00  0.00000000E+00  0.00000000E+00  4.03761000E-01  0.00000000E+00
MicOpt                                     I   N=           5
          -1          -1          -1          -1          -1
Number of residues                         I                0
Number of secondary structures             I                0
SymInf integers                            I   N=          26
           1           2           1           1           1           1
           1          -1           0           0           0           0
           0           0           0           0           0           0
           0           0           0           0           0           0
           0           0
RotTr to input orientation                 R   N=          12
 -9.79085353E-01  1.22351439E-16  2.03449925E-01  2.03449925E-01 -2.54241278E-17
  9.79085353E-01  1.24965039E-16  1.00000000E+00  0.00000000E+00  2.29506909E+00
  0.00000000E+00  6.52460707E-01
Number of contracted shells                I               65
Number of primitive shells                 I              119
Pure/Cartesian d shells                    I                0
Pure/Cartesian f shells                    I                0
Highest angular momentum                   I                3
Largest degree of contraction              I                7
Shell types                                I   N=          65
           0           0           0           0           1           1
           1          -2          -2           0           0           0
           0           0           1           1           1           1
          -2          -2          -2          -3          -3           0
           0           0           0           0           1           1
           1           1          -2          -2          -2          -3
          -3           0           0           0           0           0
           1           1           1           1          -2          -2
          -2          -3          -3           0           0           0
           0           0           1           1           1           1
          -2          -2          -2          -3          -3
Number of primitives per shell             I   N=          65
           3           1           1           1           1           1
           1           1           1           7           6           1
           1           1           3           1           1           1
           1           1           1           1           1           7
           6           1           1           1           3           1
           1           1           1           1           1           1
           1           7           6           1           1           1
           3           1           1           1           1           1
           1           1           1           7           6           1
           1           1           3           1           1           1
           1           1           1           1           1
Shell to atom map                          I   N=          65
           1           1           1           1           1           1
           1           1           1           2           2           2
           2           2           2           2           2           2
           2           2           2           2           2           3
           3           3           3           3           3           3
           3           3           3           3           3           3
           3           4           4           4           4           4
           4           4           4           4           4           4
           4           4           4           5           5           5
           5           5           5           5           5           5
           5           5           5           5           5
Primitive exponents                        R   N=         119
  3.38700000E+01  5.09500000E+00  1.15900000E+00  3.25800000E-01  1.02700000E-01
  2.52600000E-02  1.40700000E+00  3.88000000E-01  1.02000000E-01  1.05700000E+00
  2.47000000E-01  1.53300000E+04  2.29900000E+03  5.22400000E+02  1.47300000E+02
  4.75500000E+01  1.67600000E+01  6.20700000E+00  5.22400000E+02  1.47300000E+02
  4.75500000E+01  1.67600000E+01  6.20700000E+00  6.88200000E-01  1.75200000E+00
  2.38400000E-01  7.37600000E-02  3.44600000E+01  7.74900000E+00  2.28000000E+00
  7.15600000E-01  2.14000000E-01  5.97400000E-02  2.31400000E+00  6.45000000E-01
  2.14000000E-01  1.42800000E+00  5.00000000E-01  1.53300000E+04  2.29900000E+03
  5.22400000E+02  1.47300000E+02  4.75500000E+01  1.67600000E+01  6.20700000E+00
  5.22400000E+02  1.47300000E+02  4.75500000E+01  1.67600000E+01  6.20700000E+00
  6.88200000E-01  1.75200000E+00  2.38400000E-01  7.37600000E-02  3.44600000E+01
  7.74900000E+00  2.28000000E+00  7.15600000E-01  2.14000000E-01  5.97400000E-02
  2.31400000E+00  6.45000000E-01  2.14000000E-01  1.42800000E+00  5.00000000E-01
  1.14200000E+04  1.71200000E+03  3.89300000E+02  1.10000000E+02  3.55700000E+01
  1.25400000E+01  4.64400000E+00  3.89300000E+02  1.10000000E+02  3.55700000E+01
  1.25400000E+01  4.64400000E+00  5.11800000E-01  1.29300000E+00  1.78700000E-01
  5.76000000E-02  2.66300000E+01  5.94800000E+00  1.74200000E+00  5.55000000E-01
  1.72500000E-01  4.91000000E-02  1.65400000E+00  4.69000000E-01  1.51000000E-01
  1.09300000E+00  3.64000000E-01  1.53300000E+04  2.29900000E+03  5.22400000E+02
  1.47300000E+02  4.75500000E+01  1.67600000E+01  6.20700000E+00  5.22400000E+02
  1.47300000E+02  4.75500000E+01  1.67600000E+01  6.20700000E+00  6.88200000E-01
  1.75200000E+00  2.38400000E-01  7.37600000E-02  3.44600000E+01  7.74900000E+00
  2.28000000E+00  7.15600000E-01  2.14000000E-01  5.97400000E-02  2.31400000E+00
  6.45000000E-01  2.14000000E-01  1.42800000E+00  5.00000000E-01
Contraction coefficients                   R   N=         119
  2.54948632E-02  1.90362766E-01  8.52162022E-01  1.00000000E+00  1.00000000E+00
  1.00000000E+00  1.00000000E+00  1.00000000E+00  1.00000000E+00  1.00000000E+00
  1.00000000E+00  5.19808943E-04  4.02025621E-03  2.07128267E-02  8.10105536E-02
  2.35962985E-01  4.42653446E-01  3.57064423E-01 -4.42115008E-05 -1.22591041E-03
 -1.05517725E-02 -6.74452633E-02 -1.71198607E-01  1.07329856E+00  1.00000000E+00
  1.00000000E+00  1.00000000E+00  4.11634896E-02  2.57762836E-01  8.02419274E-01
  1.00000000E+00  1.00000000E+00  1.00000000E+00  1.00000000E+00  1.00000000E+00
  1.00000000E+00  1.00000000E+00  1.00000000E+00  5.19808943E-04  4.02025621E-03
  2.07128267E-02  8.10105536E-02  2.35962985E-01  4.42653446E-01  3.57064423E-01
 -4.42115008E-05 -1.22591041E-03 -1.05517725E-02 -6.74452633E-02 -1.71198607E-01
  1.07329856E+00  1.00000000E+00  1.00000000E+00  1.00000000E+00  4.11634896E-02
  2.57762836E-01  8.02419274E-01  1.00000000E+00  1.00000000E+00  1.00000000E+00
  1.00000000E+00  1.00000000E+00  1.00000000E+00  1.00000000E+00  1.00000000E+00
  5.34563860E-04  4.13435660E-03  2.12335358E-02  8.25006224E-02  2.38138871E-01
  4.42551547E-01  3.53757422E-01 -4.89867350E-05 -1.19527323E-03 -1.03490714E-02
 -6.48680190E-02 -1.71552477E-01  1.07289568E+00  1.00000000E+00  1.00000000E+00
  1.00000000E+00  3.98072123E-02  2.49002660E-01  8.10479727E-01  1.00000000E+00
  1.00000000E+00  1.00000000E+00  1.00000000E+00  1.00000000E+00  1.00000000E+00
  1.00000000E+00  1.00000000E+00  5.19808943E-04  4.02025621E-03  2.07128267E-02
  8.10105536E-02  2.35962985E-01  4.42653446E-01  3.57064423E-01 -4.42115008E-05
 -1.22591041E-03 -1.05517725E-02 -6.74452633E-02 -1.71198607E-01  1.07329856E+00
  1.00000000E+00  1.00000000E+00  1.00000000E+00  4.11634896E-02  2.57762836E-01
  8.02419274E-01  1.00000000E+00  1.00000000E+00  1.00000000E+00  1.00000000E+00
  1.00000000E+00  1.00000000E+00  1.00000000E+00  1.00000000E+00
Coordinates of each shell                  R   N=         195
  2.11432545E+00 -1.10574636E+00 -3.22896391E-33  2.11432545E+00 -1.10574636E+00
 -3.22896391E-33  2.11432545E+00 -1.10574636E+00 -3.22896391E-33  2.11432545E+00
 -1.10574636E+00 -3.22896391E-33  2.11432545E+00 -1.10574636E+00 -3.22896391E-33
  2.11432545E+00 -1.10574636E+00 -3.22896391E-33  2.11432545E+00 -1.10574636E+00
 -3.22896391E-33  2.11432545E+00 -1.10574636E+00 -3.22896391E-33  2.11432545E+00
 -1.10574636E+00 -3.22896391E-33  2.49316793E+00  7.17400627E-01  5.98634628E-33
  2.49316793E+00  7.17400627E-01  5.98634628E-33  2.49316793E+00  7.17400627E-01
  5.98634628E-33  2.49316793E+00  7.17400627E-01  5.98634628E-33  2.49316793E+00
  7.17400627E-01  5.98634628E-33  2.49316793E+00  7.17400627E-01  5.98634628E-33
  2.49316793E+00  7.17400627E-01  5.98634628E-33  2.49316793E+00  7.17400627E-01
  5.98634628E-33  2.49316793E+00  7.17400627E-01  5.98634628E-33  2.49316793E+00
  7.17400627E-01  5.98634628E-33  2.49316793E+00  7.17400627E-01  5.98634628E-33
  2.49316793E+00  7.17400627E-01  5.98634628E-33  2.49316793E+00  7.17400627E-01
  5.98634628E-33  2.49316793E+00  7.17400627E-01  5.98634628E-33 -2.17955675E-17
  1.74370121E+00  8.44892496E-33 -2.17955675E-17  1.74370121E+00  8.44892496E-33
 -2.17955675E-17  1.74370121E+00  8.44892496E-33 -2.17955675E-17  1.74370121E+00
  8.44892496E-33 -2.17955675E-17  1.74370121E+00  8.44892496E-33 -2.17955675E-17
  1.74370121E+00  8.44892496E-33 -2.17955675E-17  1.74370121E+00  8.44892496E-33
 -2.17955675E-17  1.74370121E+00  8.44892496E-33 -2.17955675E-17  1.74370121E+00
  8.44892496E-33 -2.17955675E-17  1.74370121E+00  8.44892496E-33 -2.17955675E-17
  1.74370121E+00  8.44892496E-33 -2.17955675E-17  1.74370121E+00  8.44892496E-33
 -2.17955675E-17  1.74370121E+00  8.44892496E-33 -2.17955675E-17  1.74370121E+00
  8.44892496E-33 -1.88553624E+00 -1.08430724E-01 -2.42384903E-33 -1.88553624E+00
 -1.08430724E-01 -2.42384903E-33 -1.88553624E+00 -1.08430724E-01 -2.42384903E-33
 -1.88553624E+00 -1.08430724E-01 -2.42384903E-33 -1.88553624E+00 -1.08430724E-01
 -2.42384903E-33 -1.88553624E+00 -1.08430724E-01 -2.42384903E-33 -1.88553624E+00
 -1.08430724E-01 -2.42384903E-33 -1.88553624E+00 -1.08430724E-01 -2.42384903E-33
 -1.88553624E+00 -1.08430724E-01 -2.42384903E-33 -1.88553624E+00 -1.08430724E-01
 -2.42384903E-33 -1.88553624E+00 -1.08430724E-01 -2.42384903E-33 -1.88553624E+00
 -1.08430724E-01 -2.42384903E-33 -1.88553624E+00 -1.08430724E-01 -2.42384903E-33
 -1.88553624E+00 -1.08430724E-01 -2.42384903E-33 -1.10761440E+00 -2.22800666E+00
 -1.19107829E-32 -1.10761440E+00 -2.22800666E+00 -1.19107829E-32 -1.10761440E+00
 -2.22800666E+00 -1.19107829E-32 -1.10761440E+00 -2.22800666E+00 -1.19107829E-32
 -1.10761440E+00 -2.22800666E+00 -1.19107829E-32 -1.10761440E+00 -2.22800666E+00
 -1.19107829E-32 -1.10761440E+00 -2.22800666E+00 -1.19107829E-32 -1.10761440E+00
 -2.22800666E+00 -1.19107829E-32 -1.10761440E+00 -2.22800666E+00 -1.19107829E-32
 -1.10761440E+00 -2.22800666E+00 -1.19107829E-32 -1.10761440E+00 -2.22800666E+00
 -1.19107829E-32 -1.10761440E+00 -2.22800666E+00 -1.19107829E-32 -1.10761440E+00
 -2.22800666E+00 -1.19107829E-32 -1.10761440E+00 -2.22800666E+00 -1.19107829E-32
Num ILSW                                   I              100
ILSW                                       I   N=         100
           0           0           0           0           2           0
           0           0           0           0           0          -1
           5           0           0           0           2           0
           0           0           0           0           1           0
           1           0           0           0           0           0
           0           0      100000           0          -1           0
           0           0           0           0           0           0
           0           0           0           1           1           0
           0 -2000000000           1           0           0           0
           0           0           4          52           0           0
           0           0           0           0           0           0
           0           0           0           5           4           1
           0           0           0           0           0           0
           0           0           0           0           0           0
           0           0           0           0           0           0
           0           0           0           0           0           0
           0           0           0           0
Num RLSW                                   I               52
RLSW                                       R   N=          52
  1.00000000E+00  1.00000000E+00  1.00000000E+00  1.00000000E+00  1.00000000E+00
  0.00000000E+00  0.00000000E+00  1.00000000E+00  0.00000000E+00  0.00000000E+00
  0.00000000E+00  0.00000000E+00  1.00000000E+00  0.00000000E+00  0.00000000E+00
  0.00000000E+00  0.00000000E+00  1.00000000E+00  0.00000000E+00  0.00000000E+00
  0.00000000E+00  0.00000000E+00  1.00000000E+00  0.00000000E+00  0.00000000E+00
  0.00000000E+00  0.00000000E+00  1.00000000E+00  0.00000000E+00  0.00000000E+00
  0.00000000E+00  0.00000000E+00  1.00000000E+00  0.00000000E+00  0.00000000E+00
  0.00000000E+00  0.00000000E+00  0.00000000E+00  1.00000000E+00  1.00000000E+00
  0.00000000E+00  1.00000000E+00  0.00000000E+00  0.00000000E+00  0.00000000E+00
  0.00000000E+00  0.00000000E+00  0.00000000E+00  0.00000000E+00  0.00000000E+00
  0.00000000E+00  0.00000000E+00
MxBond                                     I                2
NBond                                      I   N=           5
           1           2           2           2           1
IBond                                      I   N=          10
           2           0           1           3           2           4
           3           5           4           0
RBond                                      R   N=          10
  1.00000000E+00  0.00000000E+00  1.00000000E+00  1.00000000E+00  1.00000000E+00
  1.00000000E+00  1.00000000E+00  2.00000000E+00  2.00000000E+00  0.00000000E+00
Virial Ratio                               R      2.002350898127610E+00
SCF Energy                                 R     -2.795048145271759E+02
MP2 Energy                                 R     -2.804551241665398E+02
Total Energy                               R     -2.804551241665398E+02
Post-SCF wavefunction norm                 R      1.584748702536818E+00
RMS Force                                  R      2.224508770422504E-03
RMS Density                                R      4.830393257761769E-09
NImag                                      I                0
Job Status                                 I                1
Nuclear derivative order                   I                2
External E-field                           R   N=          35
  0.00000000E+00  0.00000000E+00  0.00000000E+00  0.00000000E+00  0.00000000E+00
  0.00000000E+00  0.00000000E+00  0.00000000E+00  0.00000000E+00  0.00000000E+00
  0.00000000E+00  0.00000000E+00  0.00000000E+00  0.00000000E+00  0.00000000E+00
  0.00000000E+00  0.00000000E+00  0.00000000E+00  0.00000000E+00  0.00000000E+00
  0.00000000E+00  0.00000000E+00  0.00000000E+00  0.00000000E+00  0.00000000E+00
  0.00000000E+00  0.00000000E+00  0.00000000E+00  0.00000000E+00  0.00000000E+00
  0.00000000E+00  0.00000000E+00  0.00000000E+00  0.00000000E+00  0.00000000E+00
IOpCl                                      I                0
IROHF                                      I                0
Alpha Orbital Energies                     R   N=         207
 -2.07169040E+01 -2.06912959E+01 -2.06672624E+01 -1.58281688E+01 -1.64029474E+00
 -1.50494042E+00 -1.28752957E+00 -9.61367128E-01 -8.32767496E-01 -7.56899806E-01
 -7.36104402E-01 -6.36942591E-01 -6.19985002E-01 -6.19117238E-01 -5.04301537E-01
 -4.95775143E-01  3.51500780E-02  5.77027126E-02  9.50292640E-02  1.00334856E-01
  1.19721658E-01  1.22213368E-01  1.49728657E-01  1.52485922E-01  1.77635932E-01
  1.80044754E-01  1.89893164E-01  2.10844295E-01  2.16766203E-01  2.42014485E-01
  2.46282292E-01  2.68412858E-01  3.11711767E-01  3.16146120E-01  3.36653553E-01
  3.37963490E-01  3.45316572E-01  3.89790864E-01  4.48387850E-01  4.88517485E-01
  5.04933140E-01  5.18073860E-01  5.44131793E-01  5.60627311E-01  5.98298656E-01
  6.19922724E-01  6.37667706E-01  6.88941106E-01  7.19158332E-01  7.23675037E-01
  7.42692429E-01  7.63017824E-01  7.66611026E-01  7.95758423E-01  8.05024819E-01
  8.39917940E-01  8.43807723E-01  8.51596680E-01  8.84122202E-01  9.07255281E-01
  9.28978789E-01  9.46404837E-01  9.55859706E-01  1.01770615E+00  1.03137253E+00
  1.06042685E+00  1.06532491E+00  1.09346023E+00  1.14313450E+00  1.15493320E+00
  1.16742136E+00  1.22128740E+00  1.22787315E+00  1.24567421E+00  1.35180534E+00
  1.36295197E+00  1.37294655E+00  1.46746922E+00  1.48479154E+00  1.50535461E+00
  1.54214796E+00  1.59524627E+00  1.59586569E+00  1.60147635E+00  1.62359457E+00
  1.69462859E+00  1.74079801E+00  1.80080301E+00  1.82718553E+00  1.88714433E+00
  1.89549660E+00  1.92311167E+00  1.97687301E+00  1.98744713E+00  2.05108840E+00
  2.11949100E+00  2.12799991E+00  2.15984114E+00  2.18730663E+00  2.24119025E+00
  2.25918435E+00  2.29516107E+00  2.35030624E+00  2.36322723E+00  2.38625228E+00
  2.40282750E+00  2.42775171E+00  2.46758584E+00  2.47636036E+00  2.52973585E+00
  2.53090861E+00  2.54837164E+00  2.55491693E+00  2.61170041E+00  2.62785078E+00
  2.66775562E+00  2.66834394E+00  2.75078694E+00  2.80577450E+00  2.81037576E+00
  2.84032317E+00  2.91245909E+00  2.97538096E+00  3.04031848E+00  3.04676087E+00
  3.11390515E+00  3.11625805E+00  3.17323829E+00  3.21321693E+00  3.30589070E+00
  3.32908293E+00  3.35041628E+00  3.48057411E+00  3.66441773E+00  3.86077555E+00
  3.92598134E+00  4.18237616E+00  4.21677683E+00  4.22080072E+00  4.26072576E+00
  4.36718760E+00  4.49761262E+00  4.51510440E+00  4.55274800E+00  4.59453002E+00
  4.69222957E+00  4.80769311E+00  4.88634209E+00  4.91113506E+00  4.93867260E+00
  4.98861903E+00  5.00273376E+00  5.09944177E+00  5.13016226E+00  5.17866239E+00
  5.24837076E+00  5.25685683E+00  5.30865260E+00  5.33850245E+00  5.35410927E+00
  5.54478522E+00  5.64073904E+00  5.69876685E+00  5.88606220E+00  6.00062980E+00
  6.26535009E+00  6.28656030E+00  6.34975999E+00  6.37619508E+00  6.59692337E+00
  6.65168403E+00  6.65659102E+00  6.68164791E+00  6.72203377E+00  6.80497566E+00
  6.80763657E+00  6.83912232E+00  6.95347971E+00  7.02049012E+00  7.06811071E+00
  7.07968536E+00  7.13968183E+00  7.16269857E+00  7.16961026E+00  7.20488632E+00
  7.24316516E+00  7.24411799E+00  7.26735828E+00  7.34306462E+00  7.37731471E+00
  7.41953219E+00  7.43898047E+00  7.46383724E+00  7.53937794E+00  7.65439114E+00
  7.65882153E+00  7.78938530E+00  7.87614599E+00  7.92734990E+00  8.05002617E+00
  8.30318415E+00  8.49353565E+00  8.63981765E+00  1.35272554E+01  1.46427644E+01
  1.50568210E+01  1.57207381E+01
Alpha MO coefficients                      R   N=       42849
  6.75363629E-05 -4.47538928E-05 -1.17269003E-03  8.89670451E-06 -5.21399237E-05
  4.33579384E-05  0.00000000E+00 -9.11601824E-05 -3.01470880E-04  0.00000000E+00
  5.73081757E-06 -3.62795246E-04  0.00000000E+00  4.34576427E-05  0.00000000E+00
  0.00000000E+00 -2.53247054E-05  1.33051757E-05  2.30701714E-04  0.00000000E+00
  0.00000000E+00 -4.28307603E-05 -2.07911132E-04  3.18612086E-03 -9.22415542E-05
 -9.62037951E-05  3.49634383E-03  2.49187136E-03  1.04026211E-04 -5.25063466E-05
  0.00000000E+00 -7.32422015E-04  2.77007728E-04  0.00000000E+00 -1.94212311E-03
  1.05654766E-03  0.00000000E+00 -5.39831461E-04  2.57995842E-05  0.00000000E+00
  2.08036209E-05  0.00000000E+00  0.00000000E+00 -1.04627283E-05  4.42408197E-05
 -4.45564946E-04  0.00000000E+00  0.00000000E+00  4.42412266E-04 -6.54594865E-04
 -3.63008593E-04  0.00000000E+00  0.00000000E+00  5.43616088E-04 -7.31634887E-04
  0.00000000E+00  7.51445024E-05 -5.23077536E-05  0.00000000E+00  0.00000000E+00
 -2.93720460E-05  1.07058213E-04  0.00000000E+00  2.09892234E-04 -4.94739992E-05
  0.00000000E+00  0.00000000E+00 -1.83293955E-04  3.00211782E-04  9.76918499E-01
 -9.15176706E-03  4.33802566E-02  5.71123677E-04 -2.19408298E-03  4.96618577E-04
 -2.11998270E-03  0.00000000E+00 -3.88443997E-04  2.20760985E-03  0.00000000E+00
 -2.22807510E-03 -5.45520579E-04  0.00000000E+00 -2.11113443E-04  9.81815393E-05
  0.00000000E+00  1.34574236E-05  0.00000000E+00  0.00000000E+00 -3.47970548E-06
  3.16402922E-05  8.15256282E-04  0.00000000E+00  0.00000000E+00 -4.80965557E-04
 -1.43726655E-04 -1.55071124E-04  0.00000000E+00  0.00000000E+00 -5.53377905E-04
  3.34853806E-04  0.00000000E+00 -3.12708337E-06 -7.90746611E-05  0.00000000E+00
  0.00000000E+00 -1.03943058E-05  4.80793852E-05  0.00000000E+00  9.13694439E-05
  8.51578834E-06  0.00000000E+00  0.00000000E+00 -3.26497625E-04  3.69001120E-04
  9.70675860E-05  4.02020537E-04 -3.22529328E-04 -7.11359006E-04  3.85055427E-04
 -4.58691621E-05 -1.02180286E-04  0.00000000E+00  6.25148142E-04  1.02694708E-03
  0.00000000E+00 -7.63029366E-04 -6.73273939E-04  0.00000000E+00  1.92912977E-04
  2.10188695E-04  0.00000000E+00 -4.41458320E-05  0.00000000E+00  0.00000000E+00
  2.09480996E-05  7.67412231E-05 -4.12060275E-04  0.00000000E+00  0.00000000E+00
 -1.99235122E-05  1.05452839E-03  2.39153135E-05  0.00000000E+00  0.00000000E+00
 -3.39279119E-04  3.40033187E-05  0.00000000E+00 -7.86866447E-05 -1.13841336E-04
  0.00000000E+00  0.00000000E+00 -1.01832896E-04  1.07953323E-04  0.00000000E+00
 -1.20661056E-04  4.31399404E-05  0.00000000E+00  0.00000000E+00 -8.05910098E-06
  5.19329956E-04 -8.81282998E-04  3.26385351E-05 -7.73381326E-05  1.44468472E-04
 -2.14925811E-04 -3.12731446E-05 -4.18095390E-05  0.00000000E+00  1.80878598E-04
  2.38134286E-04  0.00000000E+00  5.71269393E-04  2.98439278E-04  0.00000000E+00
 -2.10102541E-04 -7.19577052E-05  0.00000000E+00 -1.17117760E-05  0.00000000E+00
  0.00000000E+00  4.21840070E-06  1.35321156E-05 -2.31820887E-06  0.00000000E+00
  0.00000000E+00 -1.64162462E-04  2.97369700E-05 -1.71604333E-05  0.00000000E+00
  0.00000000E+00 -1.63432805E-04 -2.76571470E-05  0.00000000E+00 -7.59176320E-06
 -1.04044496E-05  0.00000000E+00  0.00000000E+00 -2.52991386E-05  7.35098000E-06
  0.00000000E+00  4.11830723E-05  6.17623562E-05  0.00000000E+00  0.00000000E+00
  1.50875431E-04 -1.01748900E-04  4.06821932E-05  4.04641726E-05 -1.44554395E-04
 -3.09989647E-05  1.45790864E-05  7.63217306E-06  0.00000000E+00  2.43756330E-04
  6.69075146E-05  0.00000000E+00  1.35291341E-04  2.74344762E-05  0.00000000E+00
  1.50521746E-05  0.00000000E+00  0.00000000E+00 -1.43404516E-05  1.34371117E-05
  2.37941218E-05  0.00000000E+00  0.00000000E+00 -1.05951597E-04  5.77057468E-05
 -1.88366575E-04  1.98900063E-05 -1.28173423E-05 -5.48637676E-04  1.72769156E-04
  7.27719219E-06  1.35935832E-05  0.00000000E+00 -1.88361866E-07 -3.98573349E-05
  0.00000000E+00  1.85459008E-04  9.85145054E-05  0.00000000E+00 -5.19829155E-05
  4.37381830E-05  0.00000000E+00 -6.99388383E-07  0.00000000E+00  0.00000000E+00
 -8.23721936E-06 -1.25222267E-05  1.68150942E-05  0.00000000E+00  0.00000000E+00
  4.64457205E-05  1.08895501E-04  5.60840955E-05  0.00000000E+00  0.00000000E+00
 -3.20424881E-05 -6.74133825E-05  0.00000000E+00  7.73339626E-06  1.04475263E-05
  0.00000000E+00  0.00000000E+00 -6.35984860E-07 -2.30176745E-05  0.00000000E+00
 -1.25751024E-05 -3.25060055E-05  0.00000000E+00  0.00000000E+00 -1.85361816E-06
 -2.08542176E-05  9.06064093E-04  1.81749845E-05 -1.04104565E-05  2.57355437E-04
 -4.21351132E-04  1.57121699E-05  2.74689512E-05  0.00000000E+00 -5.70205613E-05
 -1.46338067E-04  0.00000000E+00  2.06548574E-04 -1.66861309E-04  0.00000000E+00
 -1.46616654E-04  1.45903642E-04  0.00000000E+00 -3.72458922E-06  0.00000000E+00
  0.00000000E+00 -2.76886454E-05 -1.00043899E-05 -4.92878229E-05  0.00000000E+00
  0.00000000E+00  6.82830609E-05  1.14404662E-04 -5.84448991E-05  0.00000000E+00
  0.00000000E+00  4.88410206E-05  9.82544940E-06  0.00000000E+00  2.87962537E-06
  4.83422102E-06  0.00000000E+00  0.00000000E+00 -6.52310266E-06  4.31102256E-07
  0.00000000E+00  3.04278319E-06 -2.62397026E-05  0.00000000E+00  0.00000000E+00
  9.63960049E-05 -1.46414382E-04  2.39436962E-04  1.36741012E-03 -1.50630225E-04
 -6.05443665E-04  9.24293572E-04  6.33003486E-05 -7.22659538E-05  0.00000000E+00
  5.96014424E-04 -2.05622341E-03  0.00000000E+00  1.33504740E-04  4.96884756E-04
  0.00000000E+00  1.87620496E-04 -3.01554024E-04  0.00000000E+00 -1.28257424E-04
  0.00000000E+00  0.00000000E+00 -2.00226283E-04 -1.60045726E-04 -4.64746463E-04
  0.00000000E+00  0.00000000E+00 -6.02861509E-04 -9.12653870E-04 -4.75008076E-05
  0.00000000E+00  0.00000000E+00  5.20607575E-05  1.19108019E-04  0.00000000E+00
  8.02969453E-06  3.56692575E-05  0.00000000E+00  0.00000000E+00 -2.67953590E-05
 -4.04573097E-06  0.00000000E+00 -1.34695317E-04  1.59712817E-04  0.00000000E+00
  0.00000000E+00 -3.19919179E-04 -3.21732302E-05  9.76650965E-01 -9.89110274E-03
  4.35644093E-02  3.67014400E-03 -8.92095849E-04 -4.64236515E-04  2.12461688E-03
  0.00000000E+00  5.32290219E-04 -2.49956525E-03  0.00000000E+00 -6.28678572E-05
  8.17293177E-04  0.00000000E+00  1.07248629E-04 -6.39598914E-05  0.00000000E+00
 -1.94568844E-04  0.00000000E+00  0.00000000E+00 -7.33440946E-05 -4.62544486E-05
  4.05282953E-04  0.00000000E+00  0.00000000E+00  8.47322711E-04  4.95630565E-04
 -2.09307220E-04  0.00000000E+00  0.00000000E+00 -1.40823894E-04 -3.80420319E-05
  0.00000000E+00 -5.03378785E-06  7.01948827E-05  0.00000000E+00  0.00000000E+00
 -3.01336423E-05  9.94621725E-06  0.00000000E+00 -8.96972521E-05  8.92600099E-05
  0.00000000E+00  0.00000000E+00 -1.68260301E-04  2.00183714E-04  3.78440685E-04
  1.98634358E-03  1.30436367E-03 -1.87864769E-05  4.80065481E-05  2.69678732E-04
  0.00000000E+00  3.88101969E-04  1.03606605E-03  0.00000000E+00 -1.09445432E-04
  2.26693406E-04  0.00000000E+00 -2.30346245E-05  0.00000000E+00  0.00000000E+00
  3.12925348E-05 -2.77505230E-05 -2.13135602E-04  0.00000000E+00  0.00000000E+00
 -3.59499896E-04  4.00880045E-04  9.76835781E-01 -9.18393539E-03  4.34620626E-02
  1.07768298E-04 -1.87820691E-03 -2.03439358E-03 -8.53401931E-04  0.00000000E+00
  2.07091446E-03  7.90405801E-04  0.00000000E+00 -3.85249962E-04  6.33783523E-04
  0.00000000E+00  2.19306122E-04 -2.96697399E-04  0.00000000E+00  3.16097887E-05
  0.00000000E+00  0.00000000E+00 -7.47103774E-05  6.09626907E-05  7.65186713E-04
  0.00000000E+00  0.00000000E+00 -2.06417726E-04  3.49989516E-04 -2.35898469E-04
  0.00000000E+00  0.00000000E+00  3.32413206E-04  3.59448793E-06  0.00000000E+00
 -8.00499315E-05  7.58382091E-07  0.00000000E+00  0.00000000E+00  1.67504162E-05