 Entering Gaussian System, Link 0=g16
 Input=hoono_r4_1p180438.gjf
 Output=hoono_r4_1p180438.log
 Initial command:
 /sw/contrib/gaussian/g16/B01/g16/l1.exe "/scr/Gau-17432.inp" -scrdir="/scr/"
 Entering Link 1 = /sw/contrib/gaussian/g16/B01/g16/l1.exe PID=     17433.
  
 Copyright (c) 1988-2017, Gaussian, Inc.  All Rights Reserved.
  
 This is part of the Gaussian(R) 16 program.  It is based on
 the Gaussian(R) 09 system (copyright 2009, Gaussian, Inc.),
 the Gaussian(R) 03 system (copyright 2003, Gaussian, Inc.),
 the Gaussian(R) 98 system (copyright 1998, Gaussian, Inc.),
 the Gaussian(R) 94 system (copyright 1995, Gaussian, Inc.),
 the Gaussian 92(TM) system (copyright 1992, Gaussian, Inc.),
 the Gaussian 90(TM) system (copyright 1990, Gaussian, Inc.),
 the Gaussian 88(TM) system (copyright 1988, Gaussian, Inc.),
 the Gaussian 86(TM) system (copyright 1986, Carnegie Mellon
 University), and the Gaussian 82(TM) system (copyright 1983,
 Carnegie Mellon University). Gaussian is a federally registered
 trademark of Gaussian, Inc.
  
 This software contains proprietary and confidential information,
 including trade secrets, belonging to Gaussian, Inc.
  
 This software is provided under written license and may be
 used, copied, transmitted, or stored only in accord with that
 written license.
  
 The following legend is applicable only to US Government
 contracts under FAR:
  
                    RESTRICTED RIGHTS LEGEND
  
 Use, reproduction and disclosure by the US Government is
 subject to restrictions as set forth in subparagraphs (a)
 and (c) of the Commercial Computer Software - Restricted
 Rights clause in FAR 52.227-19.
  
 Gaussian, Inc.
 340 Quinnipiac St., Bldg. 40, Wallingford CT 06492
  
  
 ---------------------------------------------------------------
 Warning -- This program may not be used in any manner that
 competes with the business of Gaussian, Inc. or will provide
 assistance to any competitor of Gaussian, Inc.  The licensee
 of this program is prohibited from giving any competitor of
 Gaussian, Inc. access to this program.  By using this program,
 the user acknowledges that Gaussian, Inc. is engaged in the
 business of creating and licensing software in the field of
 computational chemistry and represents and warrants to the
 licensee that it is not a competitor of Gaussian, Inc. and that
 it will not use this program in any manner prohibited above.
 ---------------------------------------------------------------
  

 Cite this work as:
 Gaussian 16, Revision B.01,
 M. J. Frisch, G. W. Trucks, H. B. Schlegel, G. E. Scuseria, 
 M. A. Robb, J. R. Cheeseman, G. Scalmani, V. Barone, 
 G. A. Petersson, H. Nakatsuji, X. Li, M. Caricato, A. V. Marenich, 
 J. Bloino, B. G. Janesko, R. Gomperts, B. Mennucci, H. P. Hratchian, 
 J. V. Ortiz, A. F. Izmaylov, J. L. Sonnenberg, D. Williams-Young, 
 F. Ding, F. Lipparini, F. Egidi, J. Goings, B. Peng, A. Petrone, 
 T. Henderson, D. Ranasinghe, V. G. Zakrzewski, J. Gao, N. Rega, 
 G. Zheng, W. Liang, M. Hada, M. Ehara, K. Toyota, R. Fukuda, 
 J. Hasegawa, M. Ishida, T. Nakajima, Y. Honda, O. Kitao, H. Nakai, 
 T. Vreven, K. Throssell, J. A. Montgomery, Jr., J. E. Peralta, 
 F. Ogliaro, M. J. Bearpark, J. J. Heyd, E. N. Brothers, K. N. Kudin, 
 V. N. Staroverov, T. A. Keith, R. Kobayashi, J. Normand, 
 K. Raghavachari, A. P. Rendell, J. C. Burant, S. S. Iyengar, 
 J. Tomasi, M. Cossi, J. M. Millam, M. Klene, C. Adamo, R. Cammi, 
 J. W. Ochterski, R. L. Martin, K. Morokuma, O. Farkas, 
 J. B. Foresman, and D. J. Fox, Gaussian, Inc., Wallingford CT, 2016.
 
 ******************************************
 Gaussian 16:  ES64L-G16RevB.01 20-Dec-2017
                21-Feb-2022 
 ******************************************
 %nproc=28
 Will use up to   28 processors via shared memory.
 %mem=120GB
 %chk=hoono_r4_1p180438.chk
 ---------------------------------------
 #p freq mp2/aug-cc-pvtz density=current
 ---------------------------------------
 1/10=4,30=1,38=1/1,3;
 2/12=2,17=6,18=5,40=1/2;
 3/5=16,6=1,7=10,11=9,25=1,30=1,71=2,140=1/1,2,3;
 4//1;
 5/5=2,38=5,98=1/2;
 8/6=3,8=1,10=1,19=11,30=-1/1;
 9/15=3,16=-3/6;
 11/6=1,8=1,15=11,17=12,24=-1,27=1,28=-2,29=300,32=6,42=3/1,2,10;
 10/6=2,21=1/2;
 8/6=4,8=1,10=1,19=11,30=-1/11,4;
 10/5=1,20=4/2;
 11/12=2,14=11,16=1,17=2,28=-2,42=3,76=2/2,10,12;
 6/7=2,8=2,9=2,10=2,22=-1/1;
 7/8=1,10=1,12=2,25=1,44=2/1,2,3,16;
 1/10=4,30=1/3;
 99//99;
 Leave Link    1 at Mon Feb 21 20:24:22 2022, MaxMem= 16106127360 cpu:               3.3 elap:               0.1
 (Enter /sw/contrib/gaussian/g16/B01/g16/l101.exe)
 -----
 title
 -----
 Symbolic Z-matrix:
 Charge =  0 Multiplicity = 1
 H
 O                    1    r1
 O                    2    r2       1    a1
 N                    3    r3       2    a2       1    d1       0
 O                    4    r4       3    a3       2    d2       0
       Variables:
  r1                    0.96898                  
  r2                    1.45492                  
  r3                    1.45878                  
  r4                    1.18044                  
  a1                   97.59495                  
  a2                  102.29752                  
  a3                  109.06955                  
  d1                  180.                       
  d2                  180.                       
 
 ITRead=  0  0  0  0  0
 MicOpt= -1 -1 -1 -1 -1
 NAtoms=      5 NQM=        5 NQMF=       0 NMMI=      0 NMMIF=      0
                NMic=       0 NMicF=      0.
                    Isotopes and Nuclear Properties:
 (Nuclear quadrupole moments (NQMom) in fm**2, nuclear magnetic moments (NMagM)
  in nuclear magnetons)

  Atom         1           2           3           4           5
 IAtWgt=           1          16          16          14          16
 AtmWgt=   1.0078250  15.9949146  15.9949146  14.0030740  15.9949146
 NucSpn=           1           0           0           2           0
 AtZEff=  -0.0000000  -0.0000000  -0.0000000  -0.0000000  -0.0000000
 NQMom=    0.0000000   0.0000000   0.0000000   2.0440000   0.0000000
 NMagM=    2.7928460   0.0000000   0.0000000   0.4037610   0.0000000
 AtZNuc=   1.0000000   8.0000000   8.0000000   7.0000000   8.0000000
 Leave Link  101 at Mon Feb 21 20:24:22 2022, MaxMem= 16106127360 cpu:               3.4 elap:               0.2
 (Enter /sw/contrib/gaussian/g16/B01/g16/l103.exe)

 GradGradGradGradGradGradGradGradGradGradGradGradGradGradGradGradGradGrad
 Berny optimization.
 Initialization pass.
                       ----------------------------
                       !    Initial Parameters    !
                       ! (Angstroms and Degrees)  !
 ----------------------                            ----------------------
 !      Name          Value   Derivative information (Atomic Units)     !
 ------------------------------------------------------------------------
 !       r1          0.969    calculate D2E/DX2 analytically            !
 !       r2          1.4549   calculate D2E/DX2 analytically            !
 !       r3          1.4588   calculate D2E/DX2 analytically            !
 !       r4          1.1804   calculate D2E/DX2 analytically            !
 !       a1         97.5949   calculate D2E/DX2 analytically            !
 !       a2        102.2975   calculate D2E/DX2 analytically            !
 !       a3        109.0696   calculate D2E/DX2 analytically            !
 !       d1        180.0      calculate D2E/DX2 analytically            !
 !       d2        180.0      calculate D2E/DX2 analytically            !
 ------------------------------------------------------------------------
 Trust Radius=3.00D-01 FncErr=1.00D-07 GrdErr=1.00D-07 EigMax=2.50D+02 EigMin=1.00D-04
 Number of steps in this run=      2 maximum allowed number of steps=      2.
 GradGradGradGradGradGradGradGradGradGradGradGradGradGradGradGradGradGrad

 Leave Link  103 at Mon Feb 21 20:24:22 2022, MaxMem= 16106127360 cpu:               0.5 elap:               0.0
 (Enter /sw/contrib/gaussian/g16/B01/g16/l202.exe)
                          Input orientation:                          
 ---------------------------------------------------------------------
 Center     Atomic      Atomic             Coordinates (Angstroms)
 Number     Number       Type             X           Y           Z
 ---------------------------------------------------------------------
      1          1           0        0.000000    0.000000    0.000000
      2          8           0        0.000000    0.000000    0.968976
      3          8           0        1.442156    0.000000    1.161271
      4          7           0        1.561752    0.000000    2.615144
      5          8           0        2.705273    0.000000    2.908048
 ---------------------------------------------------------------------
                    Distance matrix (angstroms):
                    1          2          3          4          5
     1  H    0.000000
     2  O    0.968976   0.000000
     3  O    1.851584   1.454919   0.000000
     4  N    3.045989   2.269127   1.458784   0.000000
     5  O    3.971806   3.328439   2.155620   1.180438   0.000000
 Stoichiometry    HNO3
 Framework group  CS[SG(HNO3)]
 Deg. of freedom     7
 Full point group                 CS      NOp   2
 Largest Abelian subgroup         CS      NOp   2
 Largest concise Abelian subgroup C1      NOp   1
                         Standard orientation:                         
 ---------------------------------------------------------------------
 Center     Atomic      Atomic             Coordinates (Angstroms)
 Number     Number       Type             X           Y           Z
 ---------------------------------------------------------------------
      1          1           0        1.545489    1.693101   -0.000000
      2          8           0        1.453876    0.728466   -0.000000
      3          8           0        0.000000    0.673382   -0.000000
      4          7           0       -0.256518   -0.762672    0.000000
      5          8           0       -1.422609   -0.946149    0.000000
 ---------------------------------------------------------------------
 Rotational constants (GHZ):          54.8891682           4.9883153           4.5727452
 Leave Link  202 at Mon Feb 21 20:24:22 2022, MaxMem= 16106127360 cpu:               0.7 elap:               0.1
 (Enter /sw/contrib/gaussian/g16/B01/g16/l301.exe)
 Standard basis: Aug-CC-pVTZ (5D, 7F)
 Ernie: Thresh=  0.10000D-02 Tol=  0.10000D-05 Strict=F.
 Ernie:  12 primitive shells out of 131 were deleted.
 There are   166 symmetry adapted cartesian basis functions of A'  symmetry.
 There are    79 symmetry adapted cartesian basis functions of A"  symmetry.
 There are   136 symmetry adapted basis functions of A'  symmetry.
 There are    71 symmetry adapted basis functions of A"  symmetry.
   207 basis functions,   315 primitive gaussians,   245 cartesian basis functions
    16 alpha electrons       16 beta electrons
       nuclear repulsion energy       116.5793665730 Hartrees.
 IExCor=    0 DFT=F Ex=HF Corr=None ExCW=0 ScaHFX=  1.000000
 ScaDFX=  1.000000  1.000000  1.000000  1.000000 ScalE2=  1.000000  1.000000
 IRadAn=      5 IRanWt=     -1 IRanGd=            0 ICorTp=0 IEmpDi=  4
 NAtoms=    5 NActive=    5 NUniq=    5 SFac= 1.00D+00 NAtFMM=   60 NAOKFM=F Big=F
 Integral buffers will be    131072 words long.
 Raffenetti 1 integral format.
 Two-electron integral symmetry is turned on.
 Leave Link  301 at Mon Feb 21 20:24:22 2022, MaxMem= 16106127360 cpu:               2.3 elap:               0.1
 (Enter /sw/contrib/gaussian/g16/B01/g16/l302.exe)
 NPDir=0 NMtPBC=     1 NCelOv=     1 NCel=       1 NClECP=     1 NCelD=      1
         NCelK=      1 NCelE2=     1 NClLst=     1 CellRange=     0.0.
 One-electron integrals computed using PRISM.
 One-electron integral symmetry used in STVInt
 NBasis=   207 RedAO= T EigKep=  1.84D-04  NBF=   136    71
 NBsUse=   207 1.00D-06 EigRej= -1.00D+00 NBFU=   136    71
 Leave Link  302 at Mon Feb 21 20:24:23 2022, MaxMem= 16106127360 cpu:               4.6 elap:               0.2
 (Enter /sw/contrib/gaussian/g16/B01/g16/l303.exe)
 DipDrv:  MaxL=1.
 Leave Link  303 at Mon Feb 21 20:24:23 2022, MaxMem= 16106127360 cpu:               1.0 elap:               0.1
 (Enter /sw/contrib/gaussian/g16/B01/g16/l401.exe)
 ExpMin= 2.53D-02 ExpMax= 1.53D+04 ExpMxC= 5.22D+02 IAcc=3 IRadAn=         5 AccDes= 0.00D+00
 Harris functional with IExCor=  205 and IRadAn=       5 diagonalized for initial guess.
 HarFok:  IExCor=  205 AccDes= 0.00D+00 IRadAn=         5 IDoV= 1 UseB2=F ITyADJ=14
 ICtDFT=  3500011 ScaDFX=  1.000000  1.000000  1.000000  1.000000
 FoFCou: FMM=F IPFlag=           0 FMFlag=      100000 FMFlg1=           0
         NFxFlg=           0 DoJE=T BraDBF=F KetDBF=T FulRan=T
         wScrn=  0.000000 ICntrl=       500 IOpCl=  0 I1Cent=   200000004 NGrid=           0
         NMat0=    1 NMatS0=      1 NMatT0=    0 NMatD0=    1 NMtDS0=    0 NMtDT0=    0
 Petite list used in FoFCou.
 Harris En= -279.628726738685    
 JPrj=0 DoOrth=F DoCkMO=F.
 Initial guess orbital symmetries:
       Occupied  (A') (A') (A') (A') (A') (A') (A') (A') (A') (A')
                 (A") (A') (A') (A") (A") (A')
       Virtual   (A") (A') (A') (A') (A') (A') (A") (A') (A') (A')
                 (A") (A') (A") (A') (A') (A") (A') (A") (A') (A')
                 (A') (A') (A') (A') (A') (A") (A') (A") (A') (A')
                 (A") (A') (A") (A') (A') (A") (A') (A") (A') (A')
                 (A") (A') (A") (A') (A") (A') (A') (A') (A") (A")
                 (A') (A') (A') (A') (A") (A') (A") (A') (A") (A')
                 (A') (A') (A") (A') (A') (A") (A') (A") (A') (A')
                 (A") (A') (A') (A") (A") (A') (A') (A") (A') (A')
                 (A') (A") (A') (A") (A') (A") (A') (A") (A') (A')
                 (A') (A") (A') (A") (A') (A") (A") (A') (A') (A')
                 (A") (A') (A") (A') (A') (A') (A') (A") (A") (A')
                 (A") (A') (A') (A') (A") (A') (A') (A') (A") (A')
                 (A") (A') (A') (A") (A") (A') (A") (A') (A") (A')
                 (A') (A') (A') (A") (A") (A') (A") (A') (A') (A')
                 (A') (A") (A") (A') (A') (A") (A') (A') (A') (A')
                 (A") (A') (A') (A") (A') (A") (A') (A") (A') (A")
                 (A') (A") (A') (A") (A') (A") (A") (A") (A') (A')
                 (A") (A') (A") (A') (A") (A') (A") (A") (A') (A')
                 (A') (A') (A') (A') (A') (A') (A') (A') (A') (A')
                 (A')
 The electronic state of the initial guess is 1-A'.
 Leave Link  401 at Mon Feb 21 20:24:23 2022, MaxMem= 16106127360 cpu:               7.3 elap:               0.3
 (Enter /sw/contrib/gaussian/g16/B01/g16/l502.exe)
 Keep R1 ints in memory in symmetry-blocked form, NReq=348887737.
 FoFCou: FMM=F IPFlag=           0 FMFlag=           0 FMFlg1=           0
         NFxFlg=           0 DoJE=F BraDBF=F KetDBF=F FulRan=T
         wScrn=  0.000000 ICntrl=       600 IOpCl=  0 I1Cent=           0 NGrid=           0
         NMat0=    1 NMatS0=  21528 NMatT0=    0 NMatD0=    1 NMtDS0=    0 NMtDT0=    0
 Petite list used in FoFCou.
 Closed shell SCF:
 Using DIIS extrapolation, IDIIS=  1040.
 NGot= 16106127360 LenX= 15988850015 LenY= 15988789549
 Requested convergence on RMS density matrix=1.00D-08 within 128 cycles.
 Requested convergence on MAX density matrix=1.00D-06.
 Requested convergence on             energy=1.00D-06.
 No special actions if energy rises.

 Cycle   1  Pass 1  IDiag  1:
 E= -279.366657250391    
 DIIS: error= 2.67D-02 at cycle   1 NSaved=   1.
 NSaved= 1 IEnMin= 1 EnMin= -279.366657250391     IErMin= 1 ErrMin= 2.67D-02
 ErrMax= 2.67D-02  0.00D+00 EMaxC= 1.00D-01 BMatC= 4.40D-01 BMatP= 4.40D-01
 IDIUse=3 WtCom= 7.33D-01 WtEn= 2.67D-01
 Coeff-Com:  0.100D+01
 Coeff-En:   0.100D+01
 Coeff:      0.100D+01
 Gap=     0.510 Goal=   None    Shift=    0.000
 GapD=    0.510 DampG=2.000 DampE=0.500 DampFc=1.0000 IDamp=-1.
 RMSDP=1.64D-03 MaxDP=9.97D-02              OVMax= 1.17D-01

 Cycle   2  Pass 1  IDiag  1:
 E= -279.447658498066     Delta-E=       -0.081001247675 Rises=F Damp=F
 DIIS: error= 1.82D-02 at cycle   2 NSaved=   2.
 NSaved= 2 IEnMin= 2 EnMin= -279.447658498066     IErMin= 2 ErrMin= 1.82D-02
 ErrMax= 1.82D-02  0.00D+00 EMaxC= 1.00D-01 BMatC= 7.59D-02 BMatP= 4.40D-01
 IDIUse=3 WtCom= 8.18D-01 WtEn= 1.82D-01
 Coeff-Com:  0.203D+00 0.797D+00
 Coeff-En:   0.253D-01 0.975D+00
 Coeff:      0.170D+00 0.830D+00
 Gap=     0.533 Goal=   None    Shift=    0.000
 RMSDP=9.16D-04 MaxDP=3.79D-02 DE=-8.10D-02 OVMax= 7.03D-02

 Cycle   3  Pass 1  IDiag  1:
 E= -279.479078380962     Delta-E=       -0.031419882896 Rises=F Damp=F
 DIIS: error= 1.05D-02 at cycle   3 NSaved=   3.
 NSaved= 3 IEnMin= 3 EnMin= -279.479078380962     IErMin= 3 ErrMin= 1.05D-02
 ErrMax= 1.05D-02  0.00D+00 EMaxC= 1.00D-01 BMatC= 2.95D-02 BMatP= 7.59D-02
 IDIUse=3 WtCom= 8.95D-01 WtEn= 1.05D-01
 Coeff-Com: -0.333D-01 0.374D+00 0.659D+00
 Coeff-En:   0.000D+00 0.236D+00 0.764D+00
 Coeff:     -0.298D-01 0.360D+00 0.670D+00
 Gap=     0.512 Goal=   None    Shift=    0.000
 RMSDP=3.83D-04 MaxDP=1.59D-02 DE=-3.14D-02 OVMax= 3.97D-02

 Cycle   4  Pass 1  IDiag  1:
 E= -279.498770314381     Delta-E=       -0.019691933419 Rises=F Damp=F
 DIIS: error= 1.31D-03 at cycle   4 NSaved=   4.
 NSaved= 4 IEnMin= 4 EnMin= -279.498770314381     IErMin= 4 ErrMin= 1.31D-03
 ErrMax= 1.31D-03  0.00D+00 EMaxC= 1.00D-01 BMatC= 5.09D-04 BMatP= 2.95D-02
 IDIUse=3 WtCom= 9.87D-01 WtEn= 1.31D-02
 Coeff-Com: -0.117D-01 0.551D-01 0.157D+00 0.799D+00
 Coeff-En:   0.000D+00 0.000D+00 0.000D+00 0.100D+01
 Coeff:     -0.116D-01 0.544D-01 0.155D+00 0.802D+00
 Gap=     0.504 Goal=   None    Shift=    0.000
 RMSDP=9.18D-05 MaxDP=2.79D-03 DE=-1.97D-02 OVMax= 1.14D-02

 Cycle   5  Pass 1  IDiag  1:
 E= -279.499474536388     Delta-E=       -0.000704222007 Rises=F Damp=F
 DIIS: error= 7.48D-04 at cycle   5 NSaved=   5.
 NSaved= 5 IEnMin= 5 EnMin= -279.499474536388     IErMin= 5 ErrMin= 7.48D-04
 ErrMax= 7.48D-04  0.00D+00 EMaxC= 1.00D-01 BMatC= 8.98D-05 BMatP= 5.09D-04
 IDIUse=3 WtCom= 9.93D-01 WtEn= 7.48D-03
 Coeff-Com:  0.625D-02-0.722D-01-0.119D+00 0.170D-01 0.117D+01
 Coeff-En:   0.000D+00 0.000D+00 0.000D+00 0.000D+00 0.100D+01
 Coeff:      0.621D-02-0.716D-01-0.118D+00 0.168D-01 0.117D+01
 Gap=     0.504 Goal=   None    Shift=    0.000
 RMSDP=7.80D-05 MaxDP=2.16D-03 DE=-7.04D-04 OVMax= 1.14D-02

 Cycle   6  Pass 1  IDiag  1:
 E= -279.499803465642     Delta-E=       -0.000328929254 Rises=F Damp=F
 DIIS: error= 2.94D-04 at cycle   6 NSaved=   6.
 NSaved= 6 IEnMin= 6 EnMin= -279.499803465642     IErMin= 6 ErrMin= 2.94D-04
 ErrMax= 2.94D-04  0.00D+00 EMaxC= 1.00D-01 BMatC= 1.73D-05 BMatP= 8.98D-05
 IDIUse=3 WtCom= 9.97D-01 WtEn= 2.94D-03
 Coeff-Com:  0.413D-03 0.389D-02 0.871D-02-0.132D+00-0.262D+00 0.138D+01
 Coeff-En:   0.000D+00 0.000D+00 0.000D+00 0.000D+00 0.000D+00 0.100D+01
 Coeff:      0.411D-03 0.387D-02 0.869D-02-0.132D+00-0.262D+00 0.138D+01
 Gap=     0.504 Goal=   None    Shift=    0.000
 RMSDP=4.67D-05 MaxDP=1.29D-03 DE=-3.29D-04 OVMax= 5.79D-03

 Cycle   7  Pass 1  IDiag  1:
 E= -279.499879857135     Delta-E=       -0.000076391493 Rises=F Damp=F
 DIIS: error= 1.21D-04 at cycle   7 NSaved=   7.
 NSaved= 7 IEnMin= 7 EnMin= -279.499879857135     IErMin= 7 ErrMin= 1.21D-04
 ErrMax= 1.21D-04  0.00D+00 EMaxC= 1.00D-01 BMatC= 4.20D-06 BMatP= 1.73D-05
 IDIUse=3 WtCom= 9.99D-01 WtEn= 1.21D-03
 Coeff-Com: -0.967D-03 0.132D-01 0.263D-01-0.187D-01-0.273D+00 0.336D+00
 Coeff-Com:  0.917D+00
 Coeff-En:   0.000D+00 0.000D+00 0.000D+00 0.000D+00 0.000D+00 0.000D+00
 Coeff-En:   0.100D+01
 Coeff:     -0.966D-03 0.132D-01 0.263D-01-0.187D-01-0.273D+00 0.336D+00
 Coeff:      0.917D+00
 Gap=     0.504 Goal=   None    Shift=    0.000
 RMSDP=1.33D-05 MaxDP=3.82D-04 DE=-7.64D-05 OVMax= 1.58D-03

 Cycle   8  Pass 1  IDiag  1:
 E= -279.499888599559     Delta-E=       -0.000008742424 Rises=F Damp=F
 DIIS: error= 6.10D-05 at cycle   8 NSaved=   8.
 NSaved= 8 IEnMin= 8 EnMin= -279.499888599559     IErMin= 8 ErrMin= 6.10D-05
 ErrMax= 6.10D-05  0.00D+00 EMaxC= 1.00D-01 BMatC= 6.51D-07 BMatP= 4.20D-06
 IDIUse=1 WtCom= 1.00D+00 WtEn= 0.00D+00
 Coeff-Com: -0.446D-03 0.325D-02 0.737D-02 0.278D-01-0.375D-01-0.209D+00
 Coeff-Com:  0.227D+00 0.981D+00
 Coeff:     -0.446D-03 0.325D-02 0.737D-02 0.278D-01-0.375D-01-0.209D+00
 Coeff:      0.227D+00 0.981D+00
 Gap=     0.504 Goal=   None    Shift=    0.000
 RMSDP=6.75D-06 MaxDP=2.03D-04 DE=-8.74D-06 OVMax= 7.25D-04

 Cycle   9  Pass 1  IDiag  1:
 E= -279.499890393040     Delta-E=       -0.000001793481 Rises=F Damp=F
 DIIS: error= 1.73D-05 at cycle   9 NSaved=   9.
 NSaved= 9 IEnMin= 9 EnMin= -279.499890393040     IErMin= 9 ErrMin= 1.73D-05
 ErrMax= 1.73D-05  0.00D+00 EMaxC= 1.00D-01 BMatC= 7.95D-08 BMatP= 6.51D-07
 IDIUse=1 WtCom= 1.00D+00 WtEn= 0.00D+00
 Coeff-Com:  0.135D-03-0.180D-02-0.324D-02-0.269D-02 0.356D-01 0.342D-02
 Coeff-Com: -0.191D+00-0.912D-01 0.125D+01
 Coeff:      0.135D-03-0.180D-02-0.324D-02-0.269D-02 0.356D-01 0.342D-02
 Coeff:     -0.191D+00-0.912D-01 0.125D+01
 Gap=     0.504 Goal=   None    Shift=    0.000
 RMSDP=2.08D-06 MaxDP=7.28D-05 DE=-1.79D-06 OVMax= 1.94D-04

 Cycle  10  Pass 1  IDiag  1:
 E= -279.499890578052     Delta-E=       -0.000000185012 Rises=F Damp=F
 DIIS: error= 4.34D-06 at cycle  10 NSaved=  10.
 NSaved=10 IEnMin=10 EnMin= -279.499890578052     IErMin=10 ErrMin= 4.34D-06
 ErrMax= 4.34D-06  0.00D+00 EMaxC= 1.00D-01 BMatC= 6.36D-09 BMatP= 7.95D-08
 IDIUse=1 WtCom= 1.00D+00 WtEn= 0.00D+00
 Coeff-Com:  0.274D-04-0.188D-03-0.215D-03-0.275D-02 0.534D-03 0.205D-01
 Coeff-Com: -0.122D-01-0.681D-01-0.112D+00 0.117D+01
 Coeff:      0.274D-04-0.188D-03-0.215D-03-0.275D-02 0.534D-03 0.205D-01
 Coeff:     -0.122D-01-0.681D-01-0.112D+00 0.117D+01
 Gap=     0.504 Goal=   None    Shift=    0.000
 RMSDP=5.46D-07 MaxDP=2.30D-05 DE=-1.85D-07 OVMax= 4.84D-05

 Cycle  11  Pass 1  IDiag  1:
 E= -279.499890593077     Delta-E=       -0.000000015025 Rises=F Damp=F
 DIIS: error= 2.24D-06 at cycle  11 NSaved=  11.
 NSaved=11 IEnMin=11 EnMin= -279.499890593077     IErMin=11 ErrMin= 2.24D-06
 ErrMax= 2.24D-06  0.00D+00 EMaxC= 1.00D-01 BMatC= 7.83D-10 BMatP= 6.36D-09
 IDIUse=1 WtCom= 1.00D+00 WtEn= 0.00D+00
 Coeff-Com: -0.231D-04 0.256D-03 0.516D-03 0.611D-03-0.446D-02-0.425D-02
 Coeff-Com:  0.255D-01 0.293D-01-0.144D+00-0.179D+00 0.128D+01
 Coeff:     -0.231D-04 0.256D-03 0.516D-03 0.611D-03-0.446D-02-0.425D-02
 Coeff:      0.255D-01 0.293D-01-0.144D+00-0.179D+00 0.128D+01
 Gap=     0.504 Goal=   None    Shift=    0.000
 RMSDP=1.98D-07 MaxDP=7.26D-06 DE=-1.50D-08 OVMax= 1.90D-05

 Cycle  12  Pass 1  IDiag  1:
 E= -279.499890595297     Delta-E=       -0.000000002220 Rises=F Damp=F
 DIIS: error= 6.32D-07 at cycle  12 NSaved=  12.
 NSaved=12 IEnMin=12 EnMin= -279.499890595297     IErMin=12 ErrMin= 6.32D-07
 ErrMax= 6.32D-07  0.00D+00 EMaxC= 1.00D-01 BMatC= 8.52D-11 BMatP= 7.83D-10
 IDIUse=1 WtCom= 1.00D+00 WtEn= 0.00D+00
 Coeff-Com:  0.155D-05-0.331D-04-0.711D-04 0.201D-03 0.119D-02-0.254D-02
 Coeff-Com: -0.448D-02 0.611D-02 0.439D-01-0.127D+00-0.249D+00 0.133D+01
 Coeff:      0.155D-05-0.331D-04-0.711D-04 0.201D-03 0.119D-02-0.254D-02
 Coeff:     -0.448D-02 0.611D-02 0.439D-01-0.127D+00-0.249D+00 0.133D+01
 Gap=     0.504 Goal=   None    Shift=    0.000
 RMSDP=7.92D-08 MaxDP=3.10D-06 DE=-2.22D-09 OVMax= 7.31D-06

 Cycle  13  Pass 1  IDiag  1:
 E= -279.499890595571     Delta-E=       -0.000000000274 Rises=F Damp=F
 DIIS: error= 1.87D-07 at cycle  13 NSaved=  13.
 NSaved=13 IEnMin=13 EnMin= -279.499890595571     IErMin=13 ErrMin= 1.87D-07
 ErrMax= 1.87D-07  0.00D+00 EMaxC= 1.00D-01 BMatC= 4.76D-12 BMatP= 8.52D-11
 IDIUse=1 WtCom= 1.00D+00 WtEn= 0.00D+00
 Coeff-Com:  0.136D-05-0.145D-04-0.235D-04-0.986D-04 0.124D-03 0.842D-03
 Coeff-Com: -0.114D-02-0.320D-02 0.814D-03 0.433D-01-0.465D-01-0.309D+00
 Coeff-Com:  0.131D+01
 Coeff:      0.136D-05-0.145D-04-0.235D-04-0.986D-04 0.124D-03 0.842D-03
 Coeff:     -0.114D-02-0.320D-02 0.814D-03 0.433D-01-0.465D-01-0.309D+00
 Coeff:      0.131D+01
 Gap=     0.504 Goal=   None    Shift=    0.000
 RMSDP=2.07D-08 MaxDP=6.13D-07 DE=-2.74D-10 OVMax= 1.66D-06

 Cycle  14  Pass 1  IDiag  1:
 E= -279.499890595586     Delta-E=       -0.000000000015 Rises=F Damp=F
 DIIS: error= 2.63D-08 at cycle  14 NSaved=  14.
 NSaved=14 IEnMin=14 EnMin= -279.499890595586     IErMin=14 ErrMin= 2.63D-08
 ErrMax= 2.63D-08  0.00D+00 EMaxC= 1.00D-01 BMatC= 2.32D-13 BMatP= 4.76D-12
 IDIUse=1 WtCom= 1.00D+00 WtEn= 0.00D+00
 Coeff-Com: -0.199D-06 0.322D-05 0.576D-05 0.458D-05-0.859D-04 0.504D-04
 Coeff-Com:  0.318D-03 0.193D-03-0.252D-02 0.186D-02 0.163D-01-0.262D-01
 Coeff-Com: -0.195D+00 0.120D+01
 Coeff:     -0.199D-06 0.322D-05 0.576D-05 0.458D-05-0.859D-04 0.504D-04
 Coeff:      0.318D-03 0.193D-03-0.252D-02 0.186D-02 0.163D-01-0.262D-01
 Coeff:     -0.195D+00 0.120D+01
 Gap=     0.504 Goal=   None    Shift=    0.000
 RMSDP=4.06D-09 MaxDP=9.85D-08 DE=-1.52D-11 OVMax= 3.68D-07

 SCF Done:  E(RHF) =  -279.499890596     A.U. after   14 cycles
            NFock= 14  Conv=0.41D-08     -V/T= 2.0025
 KE= 2.787988838443D+02 PE=-8.944485045087D+02 EE= 2.195703634958D+02
 Leave Link  502 at Mon Feb 21 20:24:27 2022, MaxMem= 16106127360 cpu:              56.8 elap:               3.7
 (Enter /sw/contrib/gaussian/g16/B01/g16/l801.exe)
 ExpMin= 2.53D-02 ExpMax= 1.53D+04 ExpMxC= 5.22D+02 IAcc=3 IRadAn=         5 AccDes= 0.00D+00
 HarFok:  IExCor=  205 AccDes= 0.00D+00 IRadAn=         5 IDoV=-2 UseB2=F ITyADJ=14
 ICtDFT= 12500011 ScaDFX=  1.000000  1.000000  1.000000  1.000000
 Largest valence mixing into a core orbital is  2.09D-04
 Largest core mixing into a valence orbital is  3.66D-05
 Range of M.O.s used for correlation:     5   207
 NBasis=   207 NAE=    16 NBE=    16 NFC=     4 NFV=     0
 NROrb=    203 NOA=    12 NOB=    12 NVA=   191 NVB=   191

 **** Warning!!: The largest alpha MO coefficient is  0.17671223D+02

 Leave Link  801 at Mon Feb 21 20:24:27 2022, MaxMem= 16106127360 cpu:               2.9 elap:               0.1
 (Enter /sw/contrib/gaussian/g16/B01/g16/l906.exe)
 Frozen-core derivative calculation, NFC=   4 NFV=   0.
 FulOut=F Deriv=T AODrv=T NAtomX=     5
   MMem=           0  MDisk=          12 MDiskD=          12
  W3Min=      811440 MinDsk=     2425030 NBas6D=         245
 NBas2D=       30762    NTT=       30135    LW2=     7400000
    MDV= 16105574325 MDiskM=      328644 NBas2p=       30702
 Disk-based method using ON**2 memory for 12 occupieds at a time.
 Permanent disk used for amplitudes=    11516536 words.
 Estimated scratch disk usage=   321251614 words.
 IMap=   1   2   3   4   5   6   7   8   9  10  11  12  13  14  15  16
 Actual    scratch disk usage=   310331678 words.
 JobTyp=1 Pass  1:  I=   5 to  16 NPSUse= 28 ParTrn=T ParDer=T DoDerP=T.
 (rs|ai) integrals will be sorted in core.
 Spin components of T(2) and E(2):
     alpha-alpha T2 =       0.3422833325D-01 E2=     -0.1226175496D+00
     alpha-beta  T2 =       0.1879820508D+00 E2=     -0.7014828584D+00
     beta-beta   T2 =       0.3422833325D-01 E2=     -0.1226175496D+00
 The integrals were generated   1 times.
 ANorm=    0.1120909772D+01
 E2 =    -0.9467179576D+00 EUMP2 =    -0.28044660855319D+03
 Leave Link  906 at Mon Feb 21 20:26:04 2022, MaxMem= 16106127360 cpu:            2703.1 elap:              96.7
 (Enter /sw/contrib/gaussian/g16/B01/g16/l1101.exe)
 Using compressed Sx but separate Hx and Fx, NAtomX=     5.
 Will process      6 centers per pass.
 Leave Link 1101 at Mon Feb 21 20:26:04 2022, MaxMem= 16106127360 cpu:               5.6 elap:               0.2
 (Enter /sw/contrib/gaussian/g16/B01/g16/l1102.exe)
 Leave Link 1102 at Mon Feb 21 20:26:04 2022, MaxMem= 16106127360 cpu:               0.5 elap:               0.0
 (Enter /sw/contrib/gaussian/g16/B01/g16/l1110.exe)
 Forming Gx(P) for the SCF density, NAtomX=     5.
 Integral derivatives from FoFJK, PRISM(SPDF).
 Do as many integral derivatives as possible in FoFJK.
 G2DrvN: MDV=   16106126844.
 G2DrvN: will do     6 centers at a time, making    1 passes.
 Calling FoFCou, ICntrl=  3107 FMM=F I1Cent=   0 AccDes= 0.00D+00.
 FoFJK:  IHMeth= 1 ICntrl=    3107 DoSepK=F KAlg= 0 I1Cent=           0 FoldK=F
 IRaf=         0 NMat=       1 IRICut=       1 DoRegI=T DoRafI=F ISym2E= 1 IDoP0=0 IntGTp=1.
 FoFCou: FMM=F IPFlag=           0 FMFlag=      100000 FMFlg1=           0
         NFxFlg=           0 DoJE=F BraDBF=F KetDBF=F FulRan=T
         wScrn=  0.000000 ICntrl=      3107 IOpCl=  0 I1Cent=           0 NGrid=           0
         NMat0=    1 NMatS0=      1 NMatT0=    0 NMatD0=    1 NMtDS0=    0 NMtDT0=    0
 Petite list used in FoFCou.
 End of G2Drv F.D. properties file   721 does not exist.
 End of G2Drv F.D. properties file   722 does not exist.
 End of G2Drv F.D. properties file   788 does not exist.
 Leave Link 1110 at Mon Feb 21 20:26:07 2022, MaxMem= 16106127360 cpu:              83.4 elap:               3.0
 (Enter /sw/contrib/gaussian/g16/B01/g16/l1002.exe)
 Minotr:  Closed shell wavefunction.
          IDoAtm=11111
          Frozen-core window.
          Direct CPHF calculation.
          Differentiating once with respect to electric field.
                with respect to dipole field.
          Differentiating once with respect to nuclear coordinates.
          Requested convergence is 1.0D-08 RMS, and 1.0D-07 maximum.
          Secondary convergence is 1.0D-12 RMS, and 1.0D-12 maximum.
          NewPWx=T KeepS1=T KeepF1=T KeepIn=T MapXYZ=F SortEE=F KeepMc=T.
 Keep R1 ints in memory in symmetry-blocked form, NReq=348888983.
 FoFCou: FMM=F IPFlag=           0 FMFlag=           0 FMFlg1=           0
         NFxFlg=           0 DoJE=F BraDBF=F KetDBF=F FulRan=T
         wScrn=  0.000000 ICntrl=       600 IOpCl=  0 I1Cent=           0 NGrid=           0
         NMat0=    1 NMatS0=  21528 NMatT0=    0 NMatD0=    1 NMtDS0=    0 NMtDT0=    0
 Petite list used in FoFCou.
          MDV=   16106127360 using IRadAn=       1.
          Solving linear equations simultaneously, MaxMat=       0.
          There are    18 degrees of freedom in the 1st order CPHF.  IDoFFX=6 NUNeed=    18.
     15 vectors produced by pass  0 Test12= 1.70D-14 5.56D-09 XBig12= 8.39D+00 1.04D+00.
 AX will form    15 AO Fock derivatives at one time.
     15 vectors produced by pass  1 Test12= 1.70D-14 5.56D-09 XBig12= 1.39D+00 2.67D-01.
     15 vectors produced by pass  2 Test12= 1.70D-14 5.56D-09 XBig12= 1.46D-01 1.02D-01.
     15 vectors produced by pass  3 Test12= 1.70D-14 5.56D-09 XBig12= 5.17D-03 1.17D-02.
     15 vectors produced by pass  4 Test12= 1.70D-14 5.56D-09 XBig12= 1.07D-04 2.05D-03.
     15 vectors produced by pass  5 Test12= 1.70D-14 5.56D-09 XBig12= 1.48D-06 1.78D-04.
     15 vectors produced by pass  6 Test12= 1.70D-14 5.56D-09 XBig12= 1.17D-08 1.52D-05.
     12 vectors produced by pass  7 Test12= 1.70D-14 5.56D-09 XBig12= 8.67D-11 1.42D-06.
      3 vectors produced by pass  8 Test12= 1.70D-14 5.56D-09 XBig12= 6.20D-13 1.22D-07.
      2 vectors produced by pass  9 Test12= 1.70D-14 5.56D-09 XBig12= 4.26D-15 9.57D-09.
 InvSVY:  IOpt=1 It=  1 EMax= 1.55D-15
 Solved reduced A of dimension   122 with    15 vectors.
 FullF1:  Do perturbations      1 to      18.
 Saving first derivative matrices.
 End of Minotr F.D. properties file   721 does not exist.
 End of Minotr F.D. properties file   722 does not exist.
 End of Minotr F.D. properties file   788 does not exist.
 Leave Link 1002 at Mon Feb 21 20:26:10 2022, MaxMem= 16106127360 cpu:              80.9 elap:               2.9
 (Enter /sw/contrib/gaussian/g16/B01/g16/l811.exe)
 MDV= 16106127360.
 Form MO integral derivatives with frozen-active canonical formalism.
 MOERI=1 MOERIx=1 NAtoms=     5 NAtomX=     5.
 Discarding MO integrals.
 MO basis two electron integral derivatives will not be stored on disk.
 IAlg= 3 DoFC=T DoPWx=T Debug=F.
 Frozen-core window:  NFC=   4 NFV=   0.
 Reordered first order wavefunction length =     18678272
 In DefCFB: NBatch=  1 ICI= 16 ICA=191 LFMax= 96
            Large arrays: LIAPS=   619940160 LIARS=   288257200 words.
 In StABat: MaxSiz= 55 MinSiz= 25 NAtomB=  5
 DoIAMN: NPSUse= 28.
 Leave Link  811 at Mon Feb 21 20:27:30 2022, MaxMem= 16106127360 cpu:            2251.2 elap:              80.6
 (Enter /sw/contrib/gaussian/g16/B01/g16/l804.exe)
 Frozen-core window:  NFC=   4 NFV=   0.
 Closed-shell transformation, MDV= 16106127360 ITran=4 ISComp=1.
 Semi-Direct transformation.
 ModeAB=           2 MOrb=            16 LenV=   16104923065
 LASXX=     67341636 LTotXX=    67341636 LenRXX=    67341636
 LTotAB=    68301760 MaxLAS=    99807120 LenRXY=    99807120
 NonZer=   134683272 LenScr=   202817536 LnRSAI=           0
 LnScr1=           0 LExtra=           0 Total=    369966292
 MaxDsk=          -1 SrtSym=           F ITran=            4
 DoSDTr:  NPSUse= 28
 JobTyp=0 Pass  1:  I=   1 to  16.
 (rs|ai) integrals will be sorted in core.
 Complete sort for first half transformation.
 First half transformation complete.
 Begin second half transformation for I=  10.
 Begin second half transformation for I=  10.
 Complete sort for second half transformation.
 Second half transformation complete.
 Spin components of T(2) and E(2):
     alpha-alpha T2 =       0.3422833325D-01 E2=     -0.1226175496D+00
     alpha-beta  T2 =       0.1879820508D+00 E2=     -0.7014828584D+00
     beta-beta   T2 =       0.3422833325D-01 E2=     -0.1226175496D+00
 ANorm=    0.1585205802D+01
 E2 =    -0.9467179576D+00 EUMP2 =    -0.28044660855319D+03
 Leave Link  804 at Mon Feb 21 20:27:46 2022, MaxMem= 16106127360 cpu:             443.5 elap:              15.9
 (Enter /sw/contrib/gaussian/g16/B01/g16/l1002.exe)
 Minotr:  Closed shell wavefunction.
          Computing MP2/KS-MP2 derivatives.
          Using Z-Vector for PSCF gradient.
          Skipping F1 and S1 gradient terms here.
          IDoAtm=11111
          Frozen-core window.
          Using MO integrals in the linear equations.
          Forming densities via direct SCF.
          Differentiating once with respect to electric field.
                with respect to dipole field.
          Differentiating once with respect to nuclear coordinates.
          Using symmetry in CPHF.
          Requested convergence is 1.0D-10 RMS, and 1.0D-09 maximum.
          NewPWx=F KeepS1=T KeepF1=T KeepIn=T MapXYZ=F SortEE=F KeepMc=T.
          MDV=   16106127360 using IRadAn=       5.
          Solving linear equations separately, MaxMat=       0.
          There are     1 degrees of freedom in the 1st order CPHF.  IDoFFX=0 NUNeed=     1.
 FoFJK:  IHMeth= 1 ICntrl=       0 DoSepK=F KAlg= 0 I1Cent=           0 FoldK=F
 IRaf=         0 NMat=       1 IRICut=       1 DoRegI=T DoRafI=F ISym2E= 0 IDoP0=0 IntGTp=1.
 FoFCou: FMM=F IPFlag=           0 FMFlag=      100000 FMFlg1=           0
         NFxFlg=           0 DoJE=F BraDBF=F KetDBF=F FulRan=T
         wScrn=  0.000000 ICntrl=         0 IOpCl=  0 I1Cent=           0 NGrid=           0
         NMat0=    1 NMatS0=      1 NMatT0=    0 NMatD0=    1 NMtDS0=    0 NMtDT0=    0
 Symmetry not used in FoFCou.
 LinEq1:  Iter=  0 NonCon=     1 RMS=6.01D-03 Max=1.36D-01 NDo=     1
 LinEq1:  Iter=  1 NonCon=     1 RMS=1.94D-03 Max=3.95D-02 NDo=     1
 LinEq1:  Iter=  2 NonCon=     1 RMS=8.88D-04 Max=1.44D-02 NDo=     1
 LinEq1:  Iter=  3 NonCon=     1 RMS=3.99D-04 Max=8.28D-03 NDo=     1
 LinEq1:  Iter=  4 NonCon=     1 RMS=1.23D-04 Max=1.97D-03 NDo=     1
 LinEq1:  Iter=  5 NonCon=     1 RMS=4.87D-05 Max=7.77D-04 NDo=     1
 LinEq1:  Iter=  6 NonCon=     1 RMS=2.16D-05 Max=2.43D-04 NDo=     1
 LinEq1:  Iter=  7 NonCon=     1 RMS=8.70D-06 Max=1.64D-04 NDo=     1
 LinEq1:  Iter=  8 NonCon=     1 RMS=3.70D-06 Max=3.58D-05 NDo=     1
 LinEq1:  Iter=  9 NonCon=     1 RMS=1.00D-06 Max=1.35D-05 NDo=     1
 LinEq1:  Iter= 10 NonCon=     1 RMS=1.97D-07 Max=2.13D-06 NDo=     1
 LinEq1:  Iter= 11 NonCon=     1 RMS=3.63D-08 Max=3.74D-07 NDo=     1
 LinEq1:  Iter= 12 NonCon=     1 RMS=8.79D-09 Max=1.34D-07 NDo=     1
 LinEq1:  Iter= 13 NonCon=     1 RMS=1.60D-09 Max=2.71D-08 NDo=     1
 LinEq1:  Iter= 14 NonCon=     1 RMS=2.88D-10 Max=4.02D-09 NDo=     1
 LinEq1:  Iter= 15 NonCon=     0 RMS=5.09D-11 Max=5.59D-10 NDo=     1
 Linear equations converged to 1.000D-10 1.000D-09 after    15 iterations.
 End of Minotr F.D. properties file   721 does not exist.
 End of Minotr F.D. properties file   722 does not exist.
 End of Minotr F.D. properties file   788 does not exist.
 Leave Link 1002 at Mon Feb 21 20:27:49 2022, MaxMem= 16106127360 cpu:              64.5 elap:               2.4
 (Enter /sw/contrib/gaussian/g16/B01/g16/l1102.exe)
 Use density number 2.
 Symmetrizing basis deriv contribution to polar:
 IMax=3 JMax=2 DiffMx= 0.00D+00
 Leave Link 1102 at Mon Feb 21 20:27:49 2022, MaxMem= 16106127360 cpu:               1.2 elap:               0.1
 (Enter /sw/contrib/gaussian/g16/B01/g16/l1110.exe)
 Forming Gx(P) for generalized density number  2 NAtomX=     5.
 Integral derivatives from FoFJK, PRISM(SPDF).
 Do as many integral derivatives as possible in FoFJK.
 G2DrvN: MDV=   16106126844.
 G2DrvN: will do     6 centers at a time, making    1 passes.
 Calling FoFCou, ICntrl=  3107 FMM=F I1Cent=   0 AccDes= 0.00D+00.
 FoFJK:  IHMeth= 1 ICntrl=    3107 DoSepK=F KAlg= 0 I1Cent=           0 FoldK=F
 IRaf=         0 NMat=       1 IRICut=       1 DoRegI=T DoRafI=F ISym2E= 1 IDoP0=0 IntGTp=1.
 FoFCou: FMM=F IPFlag=           0 FMFlag=      100000 FMFlg1=           0
         NFxFlg=           0 DoJE=F BraDBF=F KetDBF=F FulRan=T
         wScrn=  0.000000 ICntrl=      3107 IOpCl=  0 I1Cent=           0 NGrid=           0
         NMat0=    1 NMatS0=      1 NMatT0=    0 NMatD0=    1 NMtDS0=    0 NMtDT0=    0
 Petite list used in FoFCou.
 End of G2Drv F.D. properties file   721 does not exist.
 End of G2Drv F.D. properties file   722 does not exist.
 End of G2Drv F.D. properties file   788 does not exist.
 Leave Link 1110 at Mon Feb 21 20:27:52 2022, MaxMem= 16106127360 cpu:              83.1 elap:               3.0
 (Enter /sw/contrib/gaussian/g16/B01/g16/l1112.exe)
 MP22nd: MDV=   16106127360
 This link is doing NAtomX=     5 total of    18 degrees of freedom.
 Using ON3 I/O method in MakUI.
 Frozen-core window:  NFC=   4 NFV=   0.
 Using Ix for Sx.
 Use MO integrals over full window.
 Using OV2 memory method for fx*t*t/D, MaxI=    16 DoOO2=F NP=  28.
 R2 and R3 integrals will be kept in memory, NReq=   915591705.
 FoFCou: FMM=F IPFlag=           0 FMFlag=           0 FMFlg1=           0
         NFxFlg=           0 DoJE=F BraDBF=F KetDBF=F FulRan=T
         wScrn=  0.000000 ICntrl=       600 IOpCl=  0 I1Cent=           0 NGrid=           0
         NMat0=    1 NMatS0=      1 NMatT0=    0 NMatD0=    1 NMtDS0=    0 NMtDT0=    0
 Symmetry not used in FoFCou.
 DD1Dir will call FoFMem   1 times, MxPair=       272
 NAB=   136 NAA=     0 NBB=     0.
 Symmetry is being used.
 FoFJK:  IHMeth= 1 ICntrl=       0 DoSepK=F KAlg= 0 I1Cent=           0 FoldK=F
 IRaf=         0 NMat=      18 IRICut=      45 DoRegI=T DoRafI=T ISym2E= 2 IDoP0=3 IntGTp=3.
 Discarding MO integrals.
 Leave Link 1112 at Mon Feb 21 20:28:19 2022, MaxMem= 16106127360 cpu:             769.9 elap:              27.6
 (Enter /sw/contrib/gaussian/g16/B01/g16/l601.exe)
 Copying SCF densities to generalized density rwf, IOpCl= 0 IROHF=0.

 **********************************************************************

            Population analysis using the MP2 Density.

 **********************************************************************

 Orbital symmetries:
       Occupied  (A') (A') (A') (A') (A') (A') (A') (A') (A') (A')
                 (A") (A') (A") (A') (A") (A')
       Virtual   (A') (A") (A') (A') (A') (A") (A') (A') (A") (A')
                 (A") (A') (A') (A') (A") (A') (A') (A") (A') (A')
                 (A') (A') (A') (A') (A") (A') (A') (A") (A') (A')
                 (A") (A') (A") (A') (A') (A") (A') (A') (A") (A')
                 (A") (A') (A") (A') (A') (A") (A') (A') (A") (A')
                 (A") (A') (A') (A') (A") (A') (A") (A') (A") (A')
                 (A') (A') (A") (A') (A') (A") (A') (A") (A') (A')
                 (A") (A') (A') (A") (A") (A') (A') (A") (A') (A')
                 (A') (A") (A') (A") (A') (A") (A') (A") (A') (A')
                 (A") (A') (A') (A") (A') (A") (A') (A") (A') (A')
                 (A") (A') (A") (A') (A') (A") (A') (A') (A") (A')
                 (A") (A') (A') (A') (A") (A') (A') (A') (A") (A')
                 (A") (A') (A") (A') (A') (A") (A") (A') (A") (A')
                 (A') (A') (A') (A") (A") (A") (A') (A') (A') (A')
                 (A") (A') (A") (A') (A') (A") (A') (A') (A') (A')
                 (A") (A') (A') (A") (A') (A") (A') (A") (A') (A")
                 (A') (A") (A') (A') (A") (A") (A") (A') (A") (A')
                 (A") (A') (A") (A') (A") (A') (A") (A') (A") (A')
                 (A') (A') (A') (A') (A') (A') (A') (A') (A') (A')
                 (A')
 The electronic state is 1-A'.
 Alpha  occ. eigenvalues --  -20.69313 -20.68390 -20.66121 -15.81424  -1.61636
 Alpha  occ. eigenvalues --   -1.49549  -1.25538  -0.94941  -0.77173  -0.75665
 Alpha  occ. eigenvalues --   -0.70997  -0.67815  -0.61841  -0.59004  -0.48601
 Alpha  occ. eigenvalues --   -0.47438
 Alpha virt. eigenvalues --    0.02937   0.06869   0.08610   0.10172   0.13382
 Alpha virt. eigenvalues --    0.13414   0.14388   0.15429   0.17809   0.19428
 Alpha virt. eigenvalues --    0.19946   0.20635   0.22048   0.23463   0.23732
 Alpha virt. eigenvalues --    0.26594   0.29245   0.30350   0.31001   0.34353
 Alpha virt. eigenvalues --    0.34940   0.38684   0.42154   0.43151   0.52752
 Alpha virt. eigenvalues --    0.52768   0.55785   0.58142   0.62061   0.63876
 Alpha virt. eigenvalues --    0.67745   0.68384   0.70631   0.71091   0.72378
 Alpha virt. eigenvalues --    0.72883   0.74469   0.79103   0.79144   0.81067
 Alpha virt. eigenvalues --    0.81182   0.82808   0.86741   0.90738   0.92105
 Alpha virt. eigenvalues --    0.92541   0.95608   0.97542   0.98380   1.01599
 Alpha virt. eigenvalues --    1.05137   1.05416   1.08052   1.11633   1.14026
 Alpha virt. eigenvalues --    1.18891   1.21939   1.23123   1.33811   1.34982
 Alpha virt. eigenvalues --    1.38467   1.45293   1.48729   1.50778   1.53773
 Alpha virt. eigenvalues --    1.56692   1.57994   1.61252   1.66182   1.66923
 Alpha virt. eigenvalues --    1.70359   1.79265   1.83209   1.83432   1.87569
 Alpha virt. eigenvalues --    1.91000   1.95871   1.98965   2.00624   2.07734
 Alpha virt. eigenvalues --    2.12067   2.13105   2.14887   2.22392   2.26349
 Alpha virt. eigenvalues --    2.26409   2.28864   2.31316   2.34096   2.38524
 Alpha virt. eigenvalues --    2.42223   2.42648   2.45396   2.46153   2.47520
 Alpha virt. eigenvalues --    2.49933   2.58810   2.59472   2.61893   2.62081
 Alpha virt. eigenvalues --    2.63329   2.66466   2.75368   2.82042   2.85100
 Alpha virt. eigenvalues --    2.87967   2.89186   2.92064   2.95563   3.02290
 Alpha virt. eigenvalues --    3.06960   3.11849   3.20374   3.22399   3.31475
 Alpha virt. eigenvalues --    3.34025   3.51275   3.64248   3.83691   3.84126
 Alpha virt. eigenvalues --    4.14747   4.16147   4.18216   4.23455   4.35047
 Alpha virt. eigenvalues --    4.39168   4.46058   4.51719   4.64997   4.70873
 Alpha virt. eigenvalues --    4.79976   4.82277   4.82672   4.89635   5.02468
 Alpha virt. eigenvalues --    5.07661   5.09953   5.14852   5.17568   5.23864
 Alpha virt. eigenvalues --    5.27122   5.30831   5.32790   5.34766   5.60388
 Alpha virt. eigenvalues --    5.65772   5.76047   5.82491   5.96138   6.16599
 Alpha virt. eigenvalues --    6.30684   6.33730   6.39297   6.49361   6.50526
 Alpha virt. eigenvalues --    6.61230   6.66665   6.69555   6.75611   6.76161
 Alpha virt. eigenvalues --    6.82668   6.89456   7.01025   7.05339   7.05520
 Alpha virt. eigenvalues --    7.08859   7.11964   7.14706   7.18012   7.21790
 Alpha virt. eigenvalues --    7.23942   7.30173   7.30444   7.34127   7.39236
 Alpha virt. eigenvalues --    7.42972   7.48316   7.60061   7.60581   7.61676
 Alpha virt. eigenvalues --    7.66315   7.78067   7.87093   8.08877   8.31077
 Alpha virt. eigenvalues --    8.40797   8.54195  13.37049  14.31376  15.15696
 Alpha virt. eigenvalues --   15.86627
          Condensed to atoms (all electrons):
               1          2          3          4          5
     1  H    0.589286   0.128382   0.020069   0.012321  -0.000648
     2  O    0.128382   8.320771  -0.173405  -0.090389   0.015456
     3  O    0.020069  -0.173405   8.461258  -0.126079  -0.036798
     4  N    0.012321  -0.090389  -0.126079   6.967994  -0.054482
     5  O   -0.000648   0.015456  -0.036798  -0.054482   8.271840
 Mulliken charges:
               1
     1  H    0.250591
     2  O   -0.200815
     3  O   -0.145045
     4  N    0.290636
     5  O   -0.195367
 Sum of Mulliken charges =  -0.00000
 Mulliken charges with hydrogens summed into heavy atoms:
               1
     2  O    0.049776
     3  O   -0.145045
     4  N    0.290636
     5  O   -0.195367
 APT charges:
               1
     1  H    0.299661
     2  O   -0.288389
     3  O   -0.489722
     4  N    0.863097
     5  O   -0.384647
 Sum of APT charges =  -0.00000
 APT charges with hydrogens summed into heavy atoms:
               1
     2  O    0.011272
     3  O   -0.489722
     4  N    0.863097
     5  O   -0.384647
 Electronic spatial extent (au):  <R**2>=            253.8034
 Charge=              0.0000 electrons
 Dipole moment (field-independent basis, Debye):
    X=              0.5441    Y=              1.4032    Z=             -0.0000  Tot=              1.5050
 Quadrupole moment (field-independent basis, Debye-Ang):
   XX=            -22.5188   YY=            -18.6157   ZZ=            -22.0265
   XY=              3.2239   XZ=              0.0000   YZ=             -0.0000
 Traceless Quadrupole moment (field-independent basis, Debye-Ang):
   XX=             -1.4651   YY=              2.4379   ZZ=             -0.9728
   XY=              3.2239   XZ=              0.0000   YZ=             -0.0000
 Octapole moment (field-independent basis, Debye-Ang**2):
  XXX=              2.9340  YYY=             11.5373  ZZZ=              0.0000  XYY=              7.9978
  XXY=              6.6110  XXZ=             -0.0000  XZZ=             -1.5469  YZZ=             -0.8222
  YYZ=             -0.0000  XYZ=             -0.0000
 Hexadecapole moment (field-independent basis, Debye-Ang**3):
 XXXX=           -158.8442 YYYY=            -90.3922 ZZZZ=            -18.2566 XXXY=            -37.0424
 XXXZ=              0.0000 YYYX=            -31.0279 YYYZ=              0.0000 ZZZX=              0.0000
 ZZZY=              0.0000 XXYY=            -34.1640 XXZZ=            -30.9285 YYZZ=            -20.8141
 XXYZ=             -0.0000 YYXZ=             -0.0000 ZZXY=            -15.1770
 N-N= 1.165793665730D+02 E-N=-8.952443839906D+02  KE= 2.801573099238D+02
 Symmetry A'   KE= 2.661898879607D+02
 Symmetry A"   KE= 1.396742196309D+01
  Exact polarizability:  34.103   9.577  30.384  -0.000   0.000  17.946
 Approx polarizability:  29.224   5.184  23.605  -0.000  -0.000  15.564
 No NMR shielding tensors so no spin-rotation constants.
 Leave Link  601 at Mon Feb 21 20:28:20 2022, MaxMem= 16106127360 cpu:               4.2 elap:               0.2
 (Enter /sw/contrib/gaussian/g16/B01/g16/l701.exe)
 ... and contract with generalized density number  2.
 Compute integral second derivatives.
 Leave Link  701 at Mon Feb 21 20:28:20 2022, MaxMem= 16106127360 cpu:               6.1 elap:               0.2
 (Enter /sw/contrib/gaussian/g16/B01/g16/l702.exe)
 L702 exits ... SP integral derivatives will be done elsewhere.
 Leave Link  702 at Mon Feb 21 20:28:20 2022, MaxMem= 16106127360 cpu:               0.9 elap:               0.1
 (Enter /sw/contrib/gaussian/g16/B01/g16/l703.exe)
 Integral derivatives from FoFJK, PRISM(SPDF).
 Compute integral second derivatives, UseDBF=F ICtDFT=           0.
 Calling FoFJK, ICntrl=  10100127 FMM=F ISym2X=1 I1Cent= 0 IOpClX= 0 NMat=1 NMatS=1 NMatT=0.
 FoFJK:  IHMeth= 1 ICntrl=10100127 DoSepK=F KAlg= 0 I1Cent=           0 FoldK=F
 IRaf=         0 NMat=       1 IRICut=       1 DoRegI=T DoRafI=F ISym2E= 1 IDoP0=0 IntGTp=1.
 FoFCou: FMM=F IPFlag=           0 FMFlag=      100000 FMFlg1=         800
         NFxFlg=           0 DoJE=F BraDBF=F KetDBF=F FulRan=T
         wScrn=  0.000000 ICntrl=  10100127 IOpCl=  0 I1Cent=           0 NGrid=           0
         NMat0=    1 NMatS0=      1 NMatT0=    0 NMatD0=    1 NMtDS0=    0 NMtDT0=    0
 Petite list used in FoFCou.
 Leave Link  703 at Mon Feb 21 20:28:35 2022, MaxMem= 16106127360 cpu:             422.5 elap:              15.1
 (Enter /sw/contrib/gaussian/g16/B01/g16/l716.exe)
 Dipole        = 2.14052870D-01 5.52067677D-01-1.65725727D-33
 Polarizability= 3.41031822D+01 9.57694554D+00 3.03838821D+01
                -2.20950561D-32 2.86792807D-31 1.79460869D+01
 Full mass-weighted force constant matrix:
 Low frequencies --- -271.0551   -0.0007   -0.0006    0.0014   37.7374   50.3137
 Low frequencies ---   78.6537  261.0491  348.2856
 ******    1 imaginary frequencies (negative Signs) ****** 
 Diagonal vibrational polarizability:
       14.1593410      25.9153649      46.0486078
 Harmonic frequencies (cm**-1), IR intensities (KM/Mole), Raman scattering
 activities (A**4/AMU), depolarization ratios for plane and unpolarized
 incident light, reduced masses (AMU), force constants (mDyne/A),
 and normal coordinates:
                      1                      2                      3
                     A"                     A"                     A'
 Frequencies --   -270.8901               258.1291               348.1423
 Red. masses --      1.1312                11.2347                 8.5014
 Frc consts  --      0.0489                 0.4410                 0.6071
 IR Inten    --    125.1392                 0.3870                 7.6557
  Atom  AN      X      Y      Z        X      Y      Z        X      Y      Z
     1   1     0.00   0.00   1.00     0.00  -0.00  -0.53     0.55  -0.43   0.00
     2   8     0.00   0.00  -0.06     0.00  -0.00  -0.33    -0.08  -0.37   0.00
     3   8     0.00   0.00  -0.04    -0.00   0.00   0.34    -0.14   0.44  -0.00
     4   7    -0.00  -0.00   0.05    -0.00  -0.00   0.54     0.03   0.24  -0.00
     5   8    -0.00  -0.00  -0.00    -0.00  -0.00  -0.45     0.16  -0.25   0.00
                      4                      5                      6
                     A'                     A'                     A'
 Frequencies --    446.6805               785.4558               966.0983
 Red. masses --     12.4587                13.1276                15.3949
 Frc consts  --      1.4646                 4.7718                 8.4659
 IR Inten    --    197.3106               170.6805                23.8001
  Atom  AN      X      Y      Z        X      Y      Z        X      Y      Z
     1   1     0.39   0.22   0.00    -0.32   0.18  -0.00    -0.17  -0.04   0.00
     2   8     0.33   0.22   0.00     0.42   0.08   0.00    -0.52   0.03   0.00
     3   8     0.18   0.42  -0.00    -0.06  -0.26  -0.00     0.75  -0.02  -0.00
     4   7    -0.36  -0.42  -0.00    -0.14   0.63  -0.00    -0.12   0.24  -0.00
     5   8    -0.22  -0.29   0.00    -0.22  -0.38   0.00    -0.12  -0.22   0.00
                      7                      8                      9
                     A'                     A'                     A'
 Frequencies --   1370.0365              1616.5137              3778.7909
 Red. masses --      1.1410                12.1464                 1.0676
 Frc consts  --      1.2618                18.7006                 8.9814
 IR Inten    --    159.3811               115.4252                83.2757
  Atom  AN      X      Y      Z        X      Y      Z        X      Y      Z
     1   1     0.99  -0.05   0.00    -0.44   0.01  -0.00     0.10   0.99  -0.00
     2   8    -0.03   0.05   0.00    -0.00  -0.04  -0.00    -0.01  -0.06  -0.00
     3   8    -0.02  -0.05  -0.00     0.00   0.16   0.00     0.00   0.00   0.00
     4   7     0.03   0.01  -0.00     0.67  -0.06   0.00    -0.00  -0.00   0.00
     5   8    -0.04  -0.01   0.00    -0.56  -0.06  -0.00     0.00   0.00  -0.00

 -------------------
 - Thermochemistry -
 -------------------
 Temperature   298.150 Kelvin.  Pressure   1.00000 Atm.
 Atom     1 has atomic number  1 and mass   1.00783
 Atom     2 has atomic number  8 and mass  15.99491
 Atom     3 has atomic number  8 and mass  15.99491
 Atom     4 has atomic number  7 and mass  14.00307
 Atom     5 has atomic number  8 and mass  15.99491
 Molecular mass:    62.99564 amu.
 Principal axes and moments of inertia in atomic units:
                           1         2         3
     Eigenvalues --    32.87973 361.79373 394.67347
           X            0.80889  -0.58797   0.00000
           Y            0.58797   0.80889   0.00000
           Z            0.00000  -0.00000   1.00000
 This molecule is an asymmetric top.
 Rotational symmetry number  1.
 Rotational temperatures (Kelvin)      2.63426     0.23940     0.21946
 Rotational constants (GHZ):          54.88917     4.98832     4.57275
    1 imaginary frequencies ignored.
 Zero-point vibrational energy      57240.4 (Joules/Mol)
                                   13.68078 (Kcal/Mol)
 Warning -- explicit consideration of   3 degrees of freedom as
           vibrations may cause significant error
 Vibrational temperatures:    371.39   500.90   642.67  1130.10  1390.00
          (Kelvin)           1971.18  2325.80  5436.84
 
 Zero-point correction=                           0.021802 (Hartree/Particle)
 Thermal correction to Energy=                    0.025876
 Thermal correction to Enthalpy=                  0.026820
 Thermal correction to Gibbs Free Energy=        -0.004262
 Sum of electronic and zero-point Energies=           -280.424807
 Sum of electronic and thermal Energies=              -280.420733
 Sum of electronic and thermal Enthalpies=            -280.419789
 Sum of electronic and thermal Free Energies=         -280.450870
 
                     E (Thermal)             CV                S
                      KCal/Mol        Cal/Mol-Kelvin    Cal/Mol-Kelvin
 Total                   16.237             11.915             65.416
 Electronic               0.000              0.000              0.000
 Translational            0.889              2.981             38.341
 Rotational               0.889              2.981             23.067
 Vibrational             14.460              5.954              4.009
 Vibration     1          0.667              1.749              1.674
 Vibration     2          0.726              1.579              1.175
 Vibration     3          0.806              1.368              0.806
                       Q            Log10(Q)             Ln(Q)
 Total Bot       0.912459D+02          1.960214          4.513558
 Total V=0       0.973415D+12         11.988298         27.604076
 Vib (Bot)       0.189293D-09         -9.722865        -22.387725
 Vib (Bot)    1  0.753149D+00         -0.123119         -0.283492
 Vib (Bot)    2  0.530591D+00         -0.275240         -0.633763
 Vib (Bot)    3  0.384947D+00         -0.414600         -0.954651
 Vib (V=0)       0.201938D+01          0.305219          0.702793
 Vib (V=0)    1  0.140401D+01          0.147370          0.339332
 Vib (V=0)    2  0.122906D+01          0.089573          0.206249
 Vib (V=0)    3  0.113102D+01          0.053470          0.123118
 Electronic      0.100000D+01          0.000000          0.000000
 Translational   0.196526D+08          7.293420         16.793719
 Rotational      0.245278D+05          4.389659         10.107564
 
                                                                title
                                                             IR Spectrum
 
     3                                                                        1       1                                              
     7                                                                        6       3             9     7          4   3  2        
     7                                                                        1       7             6     8          4   4  5        
     9                                                                        7       0             6     5          7   8  8        
 
     X                                                                        X       X             X     X          X   X  X        
     X                                                                        X       X             X     X          X               
     X                                                                        X       X                   X          X               
     X                                                                        X       X                   X          X               
     X                                                                        X       X                   X          X               
     X                                                                        X       X                   X          X               
     X                                                                        X       X                   X          X               
     X                                                                        X       X                   X          X               
                                                                              X       X                   X          X               
                                                                              X       X                   X          X               
                                                                              X       X                   X          X               
                                                                              X       X                   X          X               
                                                                                      X                   X          X               
                                                                                      X                   X          X               
                                                                                      X                   X          X               
                                                                                      X                   X          X               
                                                                                                          X          X               
                                                                                                                     X               
                                                                                                                     X               
                                                                                                                     X               
 
 ***** Axes restored to original set *****
 -------------------------------------------------------------------
 Center     Atomic                   Forces (Hartrees/Bohr)
 Number     Number              X              Y              Z
 -------------------------------------------------------------------
      1        1           0.000115485    0.000000000   -0.000063165
      2        8           0.000203769    0.000000000    0.000350031
      3        8           0.000655552    0.000000000    0.002501146
      4        7           0.012362640    0.000000000    0.001365806
      5        8          -0.013337446   -0.000000000   -0.004153818
 -------------------------------------------------------------------
 Cartesian Forces:  Max     0.013337446 RMS     0.004876534
 -----------------------------------------------------------------------------------------------
                       Internal Coordinate Forces (Hartree/Bohr or radian)
  Cent   Atom   N1       Length/X         N2         Alpha/Y        N3         Beta/Z          J
 -----------------------------------------------------------------------------------------------
      1  H 
      2  O        1   0.000063(     1)
      3  O        2  -0.000354(     2)      1  -0.000211(     5)
      4  N        3  -0.002859(     3)      2  -0.000454(     6)      1   0.000000(     8)     0
      5  O        4  -0.013951(     4)      3  -0.001594(     7)      2  -0.000000(     9)     0
 -----------------------------------------------------------------------------------------------
 Internal  Forces:  Max     0.013951029 RMS     0.004781019
 Force constants in Cartesian coordinates: 
                1             2             3             4             5 
      1  0.646909D-01
      2  0.000000D+00 -0.241941D-02
      3  0.527056D-02  0.000000D+00  0.512385D+00
      4 -0.359255D-01  0.000000D+00 -0.162366D-01  0.272544D+00
      5  0.000000D+00  0.313313D-02  0.000000D+00  0.000000D+00  0.205029D-02
      6  0.483892D-01  0.000000D+00 -0.508563D+00  0.332033D-01  0.000000D+00
      7 -0.182582D-01  0.000000D+00  0.124847D-01 -0.219951D+00  0.000000D+00
      8  0.000000D+00  0.987788D-03  0.000000D+00  0.000000D+00 -0.656088D-02
      9 -0.532265D-01  0.000000D+00 -0.471710D-03 -0.191556D-01  0.000000D+00
     10 -0.926385D-02  0.000000D+00 -0.480871D-02 -0.170145D-01  0.000000D+00
     11  0.000000D+00 -0.272628D-02  0.000000D+00  0.000000D+00 -0.492131D-02
     12  0.520863D-02  0.000000D+00 -0.475749D-02  0.113080D-01  0.000000D+00
     13 -0.124333D-02  0.000000D+00  0.329002D-02  0.347282D-03  0.000000D+00
     14  0.000000D+00  0.102477D-02  0.000000D+00  0.000000D+00  0.629876D-02
     15 -0.564183D-02  0.000000D+00  0.140707D-02 -0.911909D-02  0.000000D+00
                6             7             8             9            10 
      6  0.594898D+00
      7 -0.210500D-01  0.341015D+00
      8  0.000000D+00  0.000000D+00  0.507481D-02
      9 -0.787541D-01  0.347452D-01  0.000000D+00  0.179458D+00
     10 -0.524746D-01 -0.782592D-01  0.000000D+00  0.171964D+00  0.772151D+00
     11  0.000000D+00  0.000000D+00  0.788233D-02  0.000000D+00  0.000000D+00
     12  0.166037D-01  0.621923D-01  0.000000D+00 -0.812145D-01 -0.292375D-01
     13 -0.806779D-02 -0.245461D-01  0.000000D+00 -0.134327D+00 -0.667614D+00
     14  0.000000D+00  0.000000D+00 -0.738405D-02  0.000000D+00  0.000000D+00
     15 -0.241842D-01 -0.883721D-01  0.000000D+00 -0.190178D-01 -0.854430D-01
               11            12            13            14            15 
     11  0.151062D-01
     12  0.000000D+00  0.187338D+00
     13  0.000000D+00 -0.494713D-01  0.693056D+00
     14 -0.153410D-01  0.000000D+00  0.000000D+00  0.154015D-01
     15  0.000000D+00 -0.117969D+00  0.188576D+00  0.000000D+00  0.159764D+00
 Force constants in internal coordinates: 
                1             2             3             4             5 
      1  0.512385D+00
      2 -0.103646D-01  0.280828D+00
      3  0.346365D-02  0.258619D-02  0.115281D+00
      4 -0.353626D-02  0.584964D-02  0.148755D+00  0.750878D+00
      5  0.976642D-02  0.651966D-01  0.236797D-02  0.476887D-02  0.217020D+00
      6  0.463484D-02  0.593254D-01  0.410139D-01  0.216008D-01  0.316154D-01
      7 -0.121954D-02  0.372819D-01  0.303925D-01  0.836228D-01  0.210652D-01
      8  0.000000D+00  0.000000D+00  0.000000D+00  0.000000D+00  0.000000D+00
      9  0.000000D+00  0.000000D+00  0.000000D+00  0.000000D+00  0.000000D+00
                6             7             8             9 
      6  0.283539D+00
      7  0.944551D-01  0.476147D+00
      8  0.000000D+00  0.000000D+00 -0.782834D-02
      9  0.000000D+00  0.000000D+00 -0.392076D-02  0.411514D-01
 Leave Link  716 at Mon Feb 21 20:28:35 2022, MaxMem= 16106127360 cpu:               1.1 elap:               0.1
 (Enter /sw/contrib/gaussian/g16/B01/g16/l103.exe)

 GradGradGradGradGradGradGradGradGradGradGradGradGradGradGradGradGradGrad
 Berny optimization.
 Search for a local minimum.
 Step number   1 out of a maximum of    2
 All quantities printed in internal units (Hartrees-Bohrs-Radians)
 Second derivative matrix not updated -- analytic derivatives used.
 The second derivative matrix:
                          r1        r2        r3        r4        a1
           r1           0.51239
           r2          -0.01036   0.28083
           r3           0.00346   0.00259   0.11528
           r4          -0.00354   0.00585   0.14876   0.75088
           a1           0.00977   0.06520   0.00237   0.00477   0.21702
           a2           0.00463   0.05933   0.04101   0.02160   0.03162
           a3          -0.00122   0.03728   0.03039   0.08362   0.02107
           d1           0.00000  -0.00000  -0.00000  -0.00000  -0.00000
           d2          -0.00000   0.00000   0.00000   0.00000   0.00000
                          a2        a3        d1        d2
           a2           0.28354
           a3           0.09446   0.47615
           d1          -0.00000  -0.00000  -0.00783
           d2          -0.00000  -0.00000  -0.00392   0.04115
 ITU=  0
     Eigenvalues ---   -0.00814   0.04146   0.07566   0.17550   0.22556
     Eigenvalues ---    0.32443   0.50717   0.51317   0.81460
 Eigenvalue     1 is  -8.14D-03 should be greater than     0.000000 Eigenvector:
                          d1        d2        a3        a2        r3
   1                    0.99685   0.07929   0.00000   0.00000  -0.00000
                          r4        r2        a1        r1
   1                    0.00000   0.00000  -0.00000  -0.00000
 Angle between quadratic step and forces=  10.52 degrees.
 Linear search not attempted -- first point.
 Variable       Old X    -DE/DX   Delta X   Delta X   Delta X     New X
                                 (Linear)    (Quad)   (Total)
    r1        1.83110   0.00006   0.00000  -0.00001  -0.00001   1.83109
    r2        2.74940  -0.00035   0.00000  -0.00083  -0.00083   2.74857
    r3        2.75670  -0.00286   0.00000  -0.00116  -0.00116   2.75554
    r4        2.23070  -0.01395   0.00000  -0.01835  -0.01835   2.21236
    a1        1.70335  -0.00021   0.00000  -0.00033  -0.00033   1.70302
    a2        1.78543  -0.00045   0.00000   0.00018   0.00018   1.78560
    a3        1.90362  -0.00159   0.00000  -0.00001  -0.00001   1.90362
    d1        3.14159   0.00000   0.00000   0.00000   0.00000   3.14159
    d2        3.14159  -0.00000   0.00000  -0.00000   0.00000   3.14159
         Item               Value     Threshold  Converged?
 Maximum Force            0.013951     0.000450     NO 
 RMS     Force            0.004781     0.000300     NO 
 Maximum Displacement     0.018346     0.001800     NO 
 RMS     Displacement     0.006135     0.001200     NO 
 Predicted change in Energy=-1.297750D-04
                       ----------------------------
                       ! Non-Optimized Parameters !
                       ! (Angstroms and Degrees)  !
 ----------------------                            ----------------------
 !      Name          Value   Derivative information (Atomic Units)     !
 ------------------------------------------------------------------------
 !       r1          0.969    -DE/DX =    0.0001                        !
 !       r2          1.4545   -DE/DX =   -0.0004                        !
 !       r3          1.4582   -DE/DX =   -0.0029                        !
 !       r4          1.1707   -DE/DX =   -0.014                         !
 !       a1         97.5758   -DE/DX =   -0.0002                        !
 !       a2        102.3076   -DE/DX =   -0.0005                        !
 !       a3        109.0692   -DE/DX =   -0.0016                        !
 !       d1        180.0      -DE/DX =    0.0                           !
 !       d2        180.0      -DE/DX =    0.0                           !
 ------------------------------------------------------------------------
 GradGradGradGradGradGradGradGradGradGradGradGradGradGradGradGradGradGrad

 Leave Link  103 at Mon Feb 21 20:28:35 2022, MaxMem= 16106127360 cpu:               1.1 elap:               0.1
 (Enter /sw/contrib/gaussian/g16/B01/g16/l9999.exe)

 ----------------------------------------------------------------------

 Electric dipole moment (input orientation):
 (Debye = 10**-18 statcoulomb cm , SI units = C m)
                  (au)            (Debye)         (10**-30 SI)
   Tot        0.592113D+00      0.150500D+01      0.502014D+01
   x         -0.160898D+00     -0.408963D+00     -0.136415D+01
   y          0.000000D+00      0.000000D+00      0.000000D+00
   z         -0.569832D+00     -0.144837D+01     -0.483124D+01

 Dipole polarizability, Alpha (input orientation).
 (esu units = cm**3 , SI units = C**2 m**2 J**-1)
 Alpha(0;0):
               (au)            (10**-24 esu)      (10**-40 SI)
   iso        0.274777D+02      0.407178D+01      0.453046D+01
   aniso      0.221347D+02      0.328003D+01      0.364952D+01
   xx         0.322671D+02      0.478150D+01      0.532013D+01
   yx         0.000000D+00      0.000000D+00      0.000000D+00
   yy         0.179461D+02      0.265934D+01      0.295891D+01
   zx         0.975580D+01      0.144566D+01      0.160851D+01
   zy         0.000000D+00      0.000000D+00      0.000000D+00
   zz         0.322199D+02      0.477450D+01      0.531235D+01

 ----------------------------------------------------------------------

 Dipole orientation:
     1          0.00000000          0.00000000         -0.00000000
     8         -0.49757584          0.00000000         -1.76219742
     8          2.02641083          0.00000000         -2.85246636
     7          1.49733598          0.00000000         -5.55792152
     8          3.42655766          0.00000000         -6.67780865

 Electric dipole moment (dipole orientation):
 (Debye = 10**-18 statcoulomb cm , SI units = C m)
                  (au)            (Debye)         (10**-30 SI)
   Tot        0.592113D+00      0.150500D+01      0.502014D+01
   x          0.000000D+00      0.000000D+00      0.000000D+00
   y          0.000000D+00      0.000000D+00      0.000000D+00
   z          0.592113D+00      0.150500D+01      0.502014D+01

 Dipole polarizability, Alpha (dipole orientation).
 (esu units = cm**3 , SI units = C**2 m**2 J**-1)
 Alpha(0;0):
               (au)            (10**-24 esu)      (10**-40 SI)
   iso        0.274777D+02      0.407178D+01      0.453046D+01
   aniso      0.221347D+02      0.328003D+01      0.364952D+01
   xx         0.271611D+02      0.402487D+01      0.447827D+01
   yx         0.000000D+00      0.000000D+00      0.000000D+00
   yy         0.179461D+02      0.265934D+01      0.295891D+01
   zx        -0.832739D+01     -0.123399D+01     -0.137300D+01
   zy         0.000000D+00      0.000000D+00      0.000000D+00
   zz         0.373259D+02      0.553113D+01      0.615421D+01

 ----------------------------------------------------------------------
 1\1\GINC-N2125\Freq\RMP2-FC\Aug-CC-pVTZ\H1N1O3\CGAVINH\21-Feb-2022\1\\
 #p freq mp2/aug-cc-pvtz density=current\\title\\0,1\H\O,1,r1\O,2,r2,1,
 a1\N,3,r3,2,a2,1,d1,0\O,4,r4,3,a3,2,d2,0\\r1=0.96897556\r2=1.45491931\
 r3=1.45878406\r4=1.18043809\a1=97.59494903\a2=102.29752444\a3=109.0695
 5123\d1=180.\d2=180.\\Version=ES64L-G16RevB.01\State=1-A'\HF=-279.4998
 906\MP2=-280.4466086\RMSD=4.057e-09\RMSF=4.877e-03\ZeroPoint=0.0218017
 \Thermal=0.0258755\Dipole=-0.1608985,0.,-0.5698325\DipoleDeriv=0.26639
 93,0.,0.0484458,0.,0.3558713,0.,0.0827752,0.,0.2767127,-0.3299343,0.,-
 0.2089036,0.,-0.3132978,0.,-0.1121119,0.,-0.2219351,-0.0398893,0.,0.14
 98537,0.,-0.0830144,0.,-0.7500354,0.,-1.3462632,0.867267,0.,0.8853942,
 0.,0.0654363,0.,0.9133956,0.,1.6565881,-0.7638427,0.,-0.8747902,0.,-0.
 0249954,0.,-0.1340234,0.,-0.3651025\Polar=32.267132,0.,17.9460869,9.75
 57997,0.,32.2199322\Quadrupole=-1.5145543,-0.7232501,2.2378044,0.,2.08
 08887,0.\PG=CS [SG(H1N1O3)]\NImag=1\\0.06469088,0.,-0.00241941,0.00527
 056,0.,0.51238524,-0.03592552,0.,-0.01623657,0.27254396,0.,0.00313313,
 0.,0.,0.00205029,0.04838918,0.,-0.50856311,0.03320327,0.,0.59489773,-0
 .01825818,0.,0.01248471,-0.21995122,0.,-0.02105004,0.34101476,0.,0.000
 98779,0.,0.,-0.00656088,0.,0.,0.00507481,-0.05322654,0.,-0.00047171,-0
 .01915561,0.,-0.07875415,0.03474522,0.,0.17945812,-0.00926385,0.,-0.00
 480871,-0.01701450,0.,-0.05247462,-0.07825924,0.,0.17196389,0.77215147
 ,0.,-0.00272628,0.,0.,-0.00492131,0.,0.,0.00788233,0.,0.,0.01510624,0.
 00520863,0.,-0.00475749,0.01130800,0.,0.01660370,0.06219225,0.,-0.0812
 1451,-0.02923753,0.,0.18733772,-0.00124333,0.,0.00329002,0.00034728,0.
 ,-0.00806779,-0.02454612,0.,-0.13432695,-0.66761387,0.,-0.04947135,0.6
 9305604,0.,0.00102477,0.,0.,0.00629876,0.,0.,-0.00738405,0.,0.,-0.0153
 4099,0.,0.,0.01540151,-0.00564183,0.,0.00140707,-0.00911909,0.,-0.0241
 8417,-0.08837213,0.,-0.01901775,-0.08544302,0.,-0.11796942,0.18857608,
 0.,0.15976427\\-0.00011548,0.,0.00006316,-0.00020377,0.,-0.00035003,-0
 .00065555,0.,-0.00250115,-0.01236264,0.,-0.00136581,0.01333745,0.,0.00
 415382\\\@


 I DO NOT KNOW WHAT I MAY APPEAR TO THE WORLD; BUT TO MYSELF
 I SEEM TO HAVE BEEN ONLY LIKE A BOY PLAYING ON THE SEASHORE,
 AND DIVERTING MYSELF IN NOW AND THEN FINDING A SMOOTHER PEBBLE
 OR A PRETTIER SHELL THAN ORDINARY, WHILST THE GREAT OCEAN OF
 TRUTH LAY ALL UNDISCOVERED BEFORE ME.
                                          -- NEWTON (1642-1726)
 Job cpu time:       0 days  1 hours 56 minutes 46.7 seconds.
 Elapsed time:       0 days  0 hours  4 minutes 13.1 seconds.
 File lengths (MBytes):  RWF=   7239 Int=      0 D2E=      0 Chk=      8 Scr=      1
 Normal termination of Gaussian 16 at Mon Feb 21 20:28:36 2022.
