 Entering Gaussian System, Link 0=g16
 Input=hoono_r3_1p435454.gjf
 Output=hoono_r3_1p435454.log
 Initial command:
 /sw/contrib/gaussian/g16/B01/g16/l1.exe "/scr/Gau-11582.inp" -scrdir="/scr/"
 Entering Link 1 = /sw/contrib/gaussian/g16/B01/g16/l1.exe PID=     11583.
  
 Copyright (c) 1988-2017, Gaussian, Inc.  All Rights Reserved.
  
 This is part of the Gaussian(R) 16 program.  It is based on
 the Gaussian(R) 09 system (copyright 2009, Gaussian, Inc.),
 the Gaussian(R) 03 system (copyright 2003, Gaussian, Inc.),
 the Gaussian(R) 98 system (copyright 1998, Gaussian, Inc.),
 the Gaussian(R) 94 system (copyright 1995, Gaussian, Inc.),
 the Gaussian 92(TM) system (copyright 1992, Gaussian, Inc.),
 the Gaussian 90(TM) system (copyright 1990, Gaussian, Inc.),
 the Gaussian 88(TM) system (copyright 1988, Gaussian, Inc.),
 the Gaussian 86(TM) system (copyright 1986, Carnegie Mellon
 University), and the Gaussian 82(TM) system (copyright 1983,
 Carnegie Mellon University). Gaussian is a federally registered
 trademark of Gaussian, Inc.
  
 This software contains proprietary and confidential information,
 including trade secrets, belonging to Gaussian, Inc.
  
 This software is provided under written license and may be
 used, copied, transmitted, or stored only in accord with that
 written license.
  
 The following legend is applicable only to US Government
 contracts under FAR:
  
                    RESTRICTED RIGHTS LEGEND
  
 Use, reproduction and disclosure by the US Government is
 subject to restrictions as set forth in subparagraphs (a)
 and (c) of the Commercial Computer Software - Restricted
 Rights clause in FAR 52.227-19.
  
 Gaussian, Inc.
 340 Quinnipiac St., Bldg. 40, Wallingford CT 06492
  
  
 ---------------------------------------------------------------
 Warning -- This program may not be used in any manner that
 competes with the business of Gaussian, Inc. or will provide
 assistance to any competitor of Gaussian, Inc.  The licensee
 of this program is prohibited from giving any competitor of
 Gaussian, Inc. access to this program.  By using this program,
 the user acknowledges that Gaussian, Inc. is engaged in the
 business of creating and licensing software in the field of
 computational chemistry and represents and warrants to the
 licensee that it is not a competitor of Gaussian, Inc. and that
 it will not use this program in any manner prohibited above.
 ---------------------------------------------------------------
  

 Cite this work as:
 Gaussian 16, Revision B.01,
 M. J. Frisch, G. W. Trucks, H. B. Schlegel, G. E. Scuseria, 
 M. A. Robb, J. R. Cheeseman, G. Scalmani, V. Barone, 
 G. A. Petersson, H. Nakatsuji, X. Li, M. Caricato, A. V. Marenich, 
 J. Bloino, B. G. Janesko, R. Gomperts, B. Mennucci, H. P. Hratchian, 
 J. V. Ortiz, A. F. Izmaylov, J. L. Sonnenberg, D. Williams-Young, 
 F. Ding, F. Lipparini, F. Egidi, J. Goings, B. Peng, A. Petrone, 
 T. Henderson, D. Ranasinghe, V. G. Zakrzewski, J. Gao, N. Rega, 
 G. Zheng, W. Liang, M. Hada, M. Ehara, K. Toyota, R. Fukuda, 
 J. Hasegawa, M. Ishida, T. Nakajima, Y. Honda, O. Kitao, H. Nakai, 
 T. Vreven, K. Throssell, J. A. Montgomery, Jr., J. E. Peralta, 
 F. Ogliaro, M. J. Bearpark, J. J. Heyd, E. N. Brothers, K. N. Kudin, 
 V. N. Staroverov, T. A. Keith, R. Kobayashi, J. Normand, 
 K. Raghavachari, A. P. Rendell, J. C. Burant, S. S. Iyengar, 
 J. Tomasi, M. Cossi, J. M. Millam, M. Klene, C. Adamo, R. Cammi, 
 J. W. Ochterski, R. L. Martin, K. Morokuma, O. Farkas, 
 J. B. Foresman, and D. J. Fox, Gaussian, Inc., Wallingford CT, 2016.
 
 ******************************************
 Gaussian 16:  ES64L-G16RevB.01 20-Dec-2017
                21-Feb-2022 
 ******************************************
 %nproc=28
 Will use up to   28 processors via shared memory.
 %mem=120GB
 %chk=hoono_r3_1p435454.chk
 ---------------------------------------
 #p freq mp2/aug-cc-pvtz density=current
 ---------------------------------------
 1/10=4,30=1,38=1/1,3;
 2/12=2,17=6,18=5,40=1/2;
 3/5=16,6=1,7=10,11=9,25=1,30=1,71=2,140=1/1,2,3;
 4//1;
 5/5=2,38=5,98=1/2;
 8/6=3,8=1,10=1,19=11,30=-1/1;
 9/15=3,16=-3/6;
 11/6=1,8=1,15=11,17=12,24=-1,27=1,28=-2,29=300,32=6,42=3/1,2,10;
 10/6=2,21=1/2;
 8/6=4,8=1,10=1,19=11,30=-1/11,4;
 10/5=1,20=4/2;
 11/12=2,14=11,16=1,17=2,28=-2,42=3,76=2/2,10,12;
 6/7=2,8=2,9=2,10=2,22=-1/1;
 7/8=1,10=1,12=2,25=1,44=2/1,2,3,16;
 1/10=4,30=1/3;
 99//99;
 Leave Link    1 at Mon Feb 21 20:20:07 2022, MaxMem= 16106127360 cpu:               2.2 elap:               0.1
 (Enter /sw/contrib/gaussian/g16/B01/g16/l101.exe)
 -----
 title
 -----
 Symbolic Z-matrix:
 Charge =  0 Multiplicity = 1
 H
 O                    1    r1
 O                    2    r2       1    a1
 N                    3    r3       2    a2       1    d1       0
 O                    4    r4       3    a3       2    d2       0
       Variables:
  r1                    0.96898                  
  r2                    1.45492                  
  r3                    1.43545                  
  r4                    1.17073                  
  a1                   97.59495                  
  a2                  102.29752                  
  a3                  109.06955                  
  d1                  180.                       
  d2                  180.                       
 
 ITRead=  0  0  0  0  0
 MicOpt= -1 -1 -1 -1 -1
 NAtoms=      5 NQM=        5 NQMF=       0 NMMI=      0 NMMIF=      0
                NMic=       0 NMicF=      0.
                    Isotopes and Nuclear Properties:
 (Nuclear quadrupole moments (NQMom) in fm**2, nuclear magnetic moments (NMagM)
  in nuclear magnetons)

  Atom         1           2           3           4           5
 IAtWgt=           1          16          16          14          16
 AtmWgt=   1.0078250  15.9949146  15.9949146  14.0030740  15.9949146
 NucSpn=           1           0           0           2           0
 AtZEff=  -0.0000000  -0.0000000  -0.0000000  -0.0000000  -0.0000000
 NQMom=    0.0000000   0.0000000   0.0000000   2.0440000   0.0000000
 NMagM=    2.7928460   0.0000000   0.0000000   0.4037610   0.0000000
 AtZNuc=   1.0000000   8.0000000   8.0000000   7.0000000   8.0000000
 Leave Link  101 at Mon Feb 21 20:20:08 2022, MaxMem= 16106127360 cpu:               3.1 elap:               0.1
 (Enter /sw/contrib/gaussian/g16/B01/g16/l103.exe)

 GradGradGradGradGradGradGradGradGradGradGradGradGradGradGradGradGradGrad
 Berny optimization.
 Initialization pass.
                       ----------------------------
                       !    Initial Parameters    !
                       ! (Angstroms and Degrees)  !
 ----------------------                            ----------------------
 !      Name          Value   Derivative information (Atomic Units)     !
 ------------------------------------------------------------------------
 !       r1          0.969    calculate D2E/DX2 analytically            !
 !       r2          1.4549   calculate D2E/DX2 analytically            !
 !       r3          1.4355   calculate D2E/DX2 analytically            !
 !       r4          1.1707   calculate D2E/DX2 analytically            !
 !       a1         97.5949   calculate D2E/DX2 analytically            !
 !       a2        102.2975   calculate D2E/DX2 analytically            !
 !       a3        109.0696   calculate D2E/DX2 analytically            !
 !       d1        180.0      calculate D2E/DX2 analytically            !
 !       d2        180.0      calculate D2E/DX2 analytically            !
 ------------------------------------------------------------------------
 Trust Radius=3.00D-01 FncErr=1.00D-07 GrdErr=1.00D-07 EigMax=2.50D+02 EigMin=1.00D-04
 Number of steps in this run=      2 maximum allowed number of steps=      2.
 GradGradGradGradGradGradGradGradGradGradGradGradGradGradGradGradGradGrad

 Leave Link  103 at Mon Feb 21 20:20:08 2022, MaxMem= 16106127360 cpu:               0.5 elap:               0.0
 (Enter /sw/contrib/gaussian/g16/B01/g16/l202.exe)
                          Input orientation:                          
 ---------------------------------------------------------------------
 Center     Atomic      Atomic             Coordinates (Angstroms)
 Number     Number       Type             X           Y           Z
 ---------------------------------------------------------------------
      1          1           0        0.000000    0.000000    0.000000
      2          8           0        0.000000    0.000000    0.968976
      3          8           0        1.442156    0.000000    1.161271
      4          7           0        1.559839    0.000000    2.591893
      5          8           0        2.693955    0.000000    2.882388
 ---------------------------------------------------------------------
                    Distance matrix (angstroms):
                    1          2          3          4          5
     1  H    0.000000
     2  O    0.968976   0.000000
     3  O    1.851584   1.454919   0.000000
     4  N    3.025063   2.250990   1.435454   0.000000
     5  O    3.945320   3.304321   2.128202   1.170729   0.000000
 Stoichiometry    HNO3
 Framework group  CS[SG(HNO3)]
 Deg. of freedom     7
 Full point group                 CS      NOp   2
 Largest Abelian subgroup         CS      NOp   2
 Largest concise Abelian subgroup C1      NOp   1
                         Standard orientation:                         
 ---------------------------------------------------------------------
 Center     Atomic      Atomic             Coordinates (Angstroms)
 Number     Number       Type             X           Y           Z
 ---------------------------------------------------------------------
      1          1           0        1.552109    1.671868    0.000000
      2          8           0        1.454205    0.707851    0.000000
      3          8           0        0.000000    0.662253    0.000000
      4          7           0       -0.261629   -0.749157   -0.000000
      5          8           0       -1.419293   -0.923575   -0.000000
 ---------------------------------------------------------------------
 Rotational constants (GHZ):          55.9721251           5.0705627           4.6493721
 Leave Link  202 at Mon Feb 21 20:20:08 2022, MaxMem= 16106127360 cpu:               1.1 elap:               0.1
 (Enter /sw/contrib/gaussian/g16/B01/g16/l301.exe)
 Standard basis: Aug-CC-pVTZ (5D, 7F)
 Ernie: Thresh=  0.10000D-02 Tol=  0.10000D-05 Strict=F.
 Ernie:  12 primitive shells out of 131 were deleted.
 There are   166 symmetry adapted cartesian basis functions of A'  symmetry.
 There are    79 symmetry adapted cartesian basis functions of A"  symmetry.
 There are   136 symmetry adapted basis functions of A'  symmetry.
 There are    71 symmetry adapted basis functions of A"  symmetry.
   207 basis functions,   315 primitive gaussians,   245 cartesian basis functions
    16 alpha electrons       16 beta electrons
       nuclear repulsion energy       117.5151904781 Hartrees.
 IExCor=    0 DFT=F Ex=HF Corr=None ExCW=0 ScaHFX=  1.000000
 ScaDFX=  1.000000  1.000000  1.000000  1.000000 ScalE2=  1.000000  1.000000
 IRadAn=      5 IRanWt=     -1 IRanGd=            0 ICorTp=0 IEmpDi=  4
 NAtoms=    5 NActive=    5 NUniq=    5 SFac= 1.00D+00 NAtFMM=   60 NAOKFM=F Big=F
 Integral buffers will be    131072 words long.
 Raffenetti 1 integral format.
 Two-electron integral symmetry is turned on.
 Leave Link  301 at Mon Feb 21 20:20:08 2022, MaxMem= 16106127360 cpu:               1.5 elap:               0.1
 (Enter /sw/contrib/gaussian/g16/B01/g16/l302.exe)
 NPDir=0 NMtPBC=     1 NCelOv=     1 NCel=       1 NClECP=     1 NCelD=      1
         NCelK=      1 NCelE2=     1 NClLst=     1 CellRange=     0.0.
 One-electron integrals computed using PRISM.
 One-electron integral symmetry used in STVInt
 NBasis=   207 RedAO= T EigKep=  1.79D-04  NBF=   136    71
 NBsUse=   207 1.00D-06 EigRej= -1.00D+00 NBFU=   136    71
 Leave Link  302 at Mon Feb 21 20:20:08 2022, MaxMem= 16106127360 cpu:               5.0 elap:               0.2
 (Enter /sw/contrib/gaussian/g16/B01/g16/l303.exe)
 DipDrv:  MaxL=1.
 Leave Link  303 at Mon Feb 21 20:20:08 2022, MaxMem= 16106127360 cpu:               1.6 elap:               0.1
 (Enter /sw/contrib/gaussian/g16/B01/g16/l401.exe)
 ExpMin= 2.53D-02 ExpMax= 1.53D+04 ExpMxC= 5.22D+02 IAcc=3 IRadAn=         5 AccDes= 0.00D+00
 Harris functional with IExCor=  205 and IRadAn=       5 diagonalized for initial guess.
 HarFok:  IExCor=  205 AccDes= 0.00D+00 IRadAn=         5 IDoV= 1 UseB2=F ITyADJ=14
 ICtDFT=  3500011 ScaDFX=  1.000000  1.000000  1.000000  1.000000
 FoFCou: FMM=F IPFlag=           0 FMFlag=      100000 FMFlg1=           0
         NFxFlg=           0 DoJE=T BraDBF=F KetDBF=T FulRan=T
         wScrn=  0.000000 ICntrl=       500 IOpCl=  0 I1Cent=   200000004 NGrid=           0
         NMat0=    1 NMatS0=      1 NMatT0=    0 NMatD0=    1 NMtDS0=    0 NMtDT0=    0
 Petite list used in FoFCou.
 Harris En= -279.629554766690    
 JPrj=0 DoOrth=F DoCkMO=F.
 Initial guess orbital symmetries:
       Occupied  (A') (A') (A') (A') (A') (A') (A') (A') (A') (A')
                 (A") (A') (A') (A") (A") (A')
       Virtual   (A") (A') (A') (A') (A') (A') (A") (A') (A') (A')
                 (A") (A') (A") (A') (A') (A") (A') (A") (A') (A')
                 (A') (A') (A') (A') (A') (A") (A') (A") (A') (A')
                 (A") (A') (A") (A') (A') (A") (A') (A") (A') (A')
                 (A") (A') (A") (A') (A") (A') (A') (A') (A") (A")
                 (A') (A') (A') (A') (A") (A') (A") (A') (A") (A')
                 (A') (A') (A") (A') (A') (A") (A') (A") (A') (A')
                 (A") (A') (A') (A") (A") (A') (A') (A") (A') (A')
                 (A') (A") (A') (A") (A') (A") (A') (A") (A') (A')
                 (A') (A") (A') (A") (A') (A") (A") (A') (A") (A')
                 (A') (A') (A") (A') (A') (A') (A") (A') (A") (A')
                 (A") (A') (A') (A') (A") (A') (A') (A') (A") (A')
                 (A") (A') (A') (A") (A") (A') (A') (A") (A") (A')
                 (A') (A') (A') (A") (A") (A') (A") (A') (A') (A')
                 (A') (A") (A") (A') (A') (A") (A') (A') (A') (A')
                 (A") (A') (A') (A") (A') (A") (A') (A") (A') (A")
                 (A') (A") (A') (A") (A') (A") (A") (A") (A') (A')
                 (A") (A') (A") (A') (A") (A') (A") (A") (A') (A')
                 (A') (A') (A') (A') (A') (A') (A') (A') (A') (A')
                 (A')
 The electronic state of the initial guess is 1-A'.
 Leave Link  401 at Mon Feb 21 20:20:08 2022, MaxMem= 16106127360 cpu:               7.9 elap:               0.3
 (Enter /sw/contrib/gaussian/g16/B01/g16/l502.exe)
 Keep R1 ints in memory in symmetry-blocked form, NReq=348887737.
 FoFCou: FMM=F IPFlag=           0 FMFlag=           0 FMFlg1=           0
         NFxFlg=           0 DoJE=F BraDBF=F KetDBF=F FulRan=T
         wScrn=  0.000000 ICntrl=       600 IOpCl=  0 I1Cent=           0 NGrid=           0
         NMat0=    1 NMatS0=  21528 NMatT0=    0 NMatD0=    1 NMtDS0=    0 NMtDT0=    0
 Petite list used in FoFCou.
 Closed shell SCF:
 Using DIIS extrapolation, IDIIS=  1040.
 NGot= 16106127360 LenX= 15988850015 LenY= 15988789549
 Requested convergence on RMS density matrix=1.00D-08 within 128 cycles.
 Requested convergence on MAX density matrix=1.00D-06.
 Requested convergence on             energy=1.00D-06.
 No special actions if energy rises.

 Cycle   1  Pass 1  IDiag  1:
 E= -279.369946361919    
 DIIS: error= 2.58D-02 at cycle   1 NSaved=   1.
 NSaved= 1 IEnMin= 1 EnMin= -279.369946361919     IErMin= 1 ErrMin= 2.58D-02
 ErrMax= 2.58D-02  0.00D+00 EMaxC= 1.00D-01 BMatC= 4.42D-01 BMatP= 4.42D-01
 IDIUse=3 WtCom= 7.42D-01 WtEn= 2.58D-01
 Coeff-Com:  0.100D+01
 Coeff-En:   0.100D+01
 Coeff:      0.100D+01
 Gap=     0.521 Goal=   None    Shift=    0.000
 GapD=    0.521 DampG=2.000 DampE=0.500 DampFc=1.0000 IDamp=-1.
 RMSDP=1.64D-03 MaxDP=9.75D-02              OVMax= 1.17D-01

 Cycle   2  Pass 1  IDiag  1:
 E= -279.451594457248     Delta-E=       -0.081648095329 Rises=F Damp=F
 DIIS: error= 1.79D-02 at cycle   2 NSaved=   2.
 NSaved= 2 IEnMin= 2 EnMin= -279.451594457248     IErMin= 2 ErrMin= 1.79D-02
 ErrMax= 1.79D-02  0.00D+00 EMaxC= 1.00D-01 BMatC= 7.67D-02 BMatP= 4.42D-01
 IDIUse=3 WtCom= 8.21D-01 WtEn= 1.79D-01
 Coeff-Com:  0.203D+00 0.797D+00
 Coeff-En:   0.251D-01 0.975D+00
 Coeff:      0.171D+00 0.829D+00
 Gap=     0.533 Goal=   None    Shift=    0.000
 RMSDP=9.18D-04 MaxDP=3.79D-02 DE=-8.16D-02 OVMax= 6.70D-02

 Cycle   3  Pass 1  IDiag  1:
 E= -279.483543484856     Delta-E=       -0.031949027607 Rises=F Damp=F
 DIIS: error= 9.83D-03 at cycle   3 NSaved=   3.
 NSaved= 3 IEnMin= 3 EnMin= -279.483543484856     IErMin= 3 ErrMin= 9.83D-03
 ErrMax= 9.83D-03  0.00D+00 EMaxC= 1.00D-01 BMatC= 2.88D-02 BMatP= 7.67D-02
 IDIUse=3 WtCom= 9.02D-01 WtEn= 9.83D-02
 Coeff-Com: -0.336D-01 0.370D+00 0.663D+00
 Coeff-En:   0.000D+00 0.228D+00 0.772D+00
 Coeff:     -0.303D-01 0.356D+00 0.674D+00
 Gap=     0.510 Goal=   None    Shift=    0.000
 RMSDP=3.78D-04 MaxDP=1.49D-02 DE=-3.19D-02 OVMax= 4.01D-02

 Cycle   4  Pass 1  IDiag  1:
 E= -279.502768465993     Delta-E=       -0.019224981137 Rises=F Damp=F
 DIIS: error= 1.26D-03 at cycle   4 NSaved=   4.
 NSaved= 4 IEnMin= 4 EnMin= -279.502768465993     IErMin= 4 ErrMin= 1.26D-03
 ErrMax= 1.26D-03  0.00D+00 EMaxC= 1.00D-01 BMatC= 4.69D-04 BMatP= 2.88D-02
 IDIUse=3 WtCom= 9.87D-01 WtEn= 1.26D-02
 Coeff-Com: -0.111D-01 0.490D-01 0.148D+00 0.814D+00
 Coeff-En:   0.000D+00 0.000D+00 0.000D+00 0.100D+01
 Coeff:     -0.110D-01 0.484D-01 0.146D+00 0.816D+00
 Gap=     0.502 Goal=   None    Shift=    0.000
 RMSDP=9.00D-05 MaxDP=2.69D-03 DE=-1.92D-02 OVMax= 1.07D-02

 Cycle   5  Pass 1  IDiag  1:
 E= -279.503420787188     Delta-E=       -0.000652321195 Rises=F Damp=F
 DIIS: error= 6.94D-04 at cycle   5 NSaved=   5.
 NSaved= 5 IEnMin= 5 EnMin= -279.503420787188     IErMin= 5 ErrMin= 6.94D-04
 ErrMax= 6.94D-04  0.00D+00 EMaxC= 1.00D-01 BMatC= 8.30D-05 BMatP= 4.69D-04
 IDIUse=3 WtCom= 9.93D-01 WtEn= 6.94D-03
 Coeff-Com:  0.597D-02-0.690D-01-0.114D+00 0.284D-01 0.115D+01
 Coeff-En:   0.000D+00 0.000D+00 0.000D+00 0.000D+00 0.100D+01
 Coeff:      0.593D-02-0.685D-01-0.113D+00 0.282D-01 0.115D+01
 Gap=     0.502 Goal=   None    Shift=    0.000
 RMSDP=7.33D-05 MaxDP=2.05D-03 DE=-6.52D-04 OVMax= 1.08D-02

 Cycle   6  Pass 1  IDiag  1:
 E= -279.503713319637     Delta-E=       -0.000292532449 Rises=F Damp=F
 DIIS: error= 2.85D-04 at cycle   6 NSaved=   6.
 NSaved= 6 IEnMin= 6 EnMin= -279.503713319637     IErMin= 6 ErrMin= 2.85D-04
 ErrMax= 2.85D-04  0.00D+00 EMaxC= 1.00D-01 BMatC= 1.60D-05 BMatP= 8.30D-05
 IDIUse=3 WtCom= 9.97D-01 WtEn= 2.85D-03
 Coeff-Com:  0.526D-03 0.224D-02 0.523D-02-0.136D+00-0.219D+00 0.135D+01
 Coeff-En:   0.000D+00 0.000D+00 0.000D+00 0.000D+00 0.000D+00 0.100D+01
 Coeff:      0.525D-03 0.223D-02 0.521D-02-0.135D+00-0.218D+00 0.135D+01
 Gap=     0.502 Goal=   None    Shift=    0.000
 RMSDP=4.33D-05 MaxDP=1.18D-03 DE=-2.93D-04 OVMax= 5.39D-03

 Cycle   7  Pass 1  IDiag  1:
 E= -279.503780221573     Delta-E=       -0.000066901936 Rises=F Damp=F
 DIIS: error= 1.06D-04 at cycle   7 NSaved=   7.
 NSaved= 7 IEnMin= 7 EnMin= -279.503780221573     IErMin= 7 ErrMin= 1.06D-04
 ErrMax= 1.06D-04  0.00D+00 EMaxC= 1.00D-01 BMatC= 3.96D-06 BMatP= 1.60D-05
 IDIUse=3 WtCom= 9.99D-01 WtEn= 1.06D-03
 Coeff-Com: -0.910D-03 0.126D-01 0.250D-01-0.231D-01-0.268D+00 0.345D+00
 Coeff-Com:  0.909D+00
 Coeff-En:   0.000D+00 0.000D+00 0.000D+00 0.000D+00 0.000D+00 0.000D+00
 Coeff-En:   0.100D+01
 Coeff:     -0.909D-03 0.126D-01 0.250D-01-0.231D-01-0.268D+00 0.345D+00
 Coeff:      0.909D+00
 Gap=     0.502 Goal=   None    Shift=    0.000
 RMSDP=1.26D-05 MaxDP=3.58D-04 DE=-6.69D-05 OVMax= 1.50D-03

 Cycle   8  Pass 1  IDiag  1:
 E= -279.503788195746     Delta-E=       -0.000007974173 Rises=F Damp=F
 DIIS: error= 5.63D-05 at cycle   8 NSaved=   8.
 NSaved= 8 IEnMin= 8 EnMin= -279.503788195746     IErMin= 8 ErrMin= 5.63D-05
 ErrMax= 5.63D-05  0.00D+00 EMaxC= 1.00D-01 BMatC= 5.58D-07 BMatP= 3.96D-06
 IDIUse=1 WtCom= 1.00D+00 WtEn= 0.00D+00
 Coeff-Com: -0.418D-03 0.312D-02 0.704D-02 0.268D-01-0.416D-01-0.192D+00
 Coeff-Com:  0.198D+00 0.999D+00
 Coeff:     -0.418D-03 0.312D-02 0.704D-02 0.268D-01-0.416D-01-0.192D+00
 Coeff:      0.198D+00 0.999D+00
 Gap=     0.502 Goal=   None    Shift=    0.000
 RMSDP=6.26D-06 MaxDP=1.90D-04 DE=-7.97D-06 OVMax= 6.71D-04

 Cycle   9  Pass 1  IDiag  1:
 E= -279.503789745373     Delta-E=       -0.000001549627 Rises=F Damp=F
 DIIS: error= 1.60D-05 at cycle   9 NSaved=   9.
 NSaved= 9 IEnMin= 9 EnMin= -279.503789745373     IErMin= 9 ErrMin= 1.60D-05
 ErrMax= 1.60D-05  0.00D+00 EMaxC= 1.00D-01 BMatC= 6.85D-08 BMatP= 5.58D-07
 IDIUse=1 WtCom= 1.00D+00 WtEn= 0.00D+00
 Coeff-Com:  0.111D-03-0.158D-02-0.283D-02-0.106D-02 0.331D-01-0.492D-02
 Coeff-Com: -0.174D+00-0.647D-01 0.122D+01
 Coeff:      0.111D-03-0.158D-02-0.283D-02-0.106D-02 0.331D-01-0.492D-02
 Coeff:     -0.174D+00-0.647D-01 0.122D+01
 Gap=     0.502 Goal=   None    Shift=    0.000
 RMSDP=1.87D-06 MaxDP=6.41D-05 DE=-1.55D-06 OVMax= 1.74D-04

 Cycle  10  Pass 1  IDiag  1:
 E= -279.503789899698     Delta-E=       -0.000000154325 Rises=F Damp=F
 DIIS: error= 4.21D-06 at cycle  10 NSaved=  10.
 NSaved=10 IEnMin=10 EnMin= -279.503789899698     IErMin=10 ErrMin= 4.21D-06
 ErrMax= 4.21D-06  0.00D+00 EMaxC= 1.00D-01 BMatC= 5.68D-09 BMatP= 6.85D-08
 IDIUse=1 WtCom= 1.00D+00 WtEn= 0.00D+00
 Coeff-Com:  0.334D-04-0.265D-03-0.379D-03-0.288D-02 0.237D-02 0.208D-01
 Coeff-Com: -0.191D-01-0.781D-01-0.695D-01 0.115D+01
 Coeff:      0.334D-04-0.265D-03-0.379D-03-0.288D-02 0.237D-02 0.208D-01
 Coeff:     -0.191D-01-0.781D-01-0.695D-01 0.115D+01
 Gap=     0.502 Goal=   None    Shift=    0.000
 RMSDP=5.15D-07 MaxDP=2.15D-05 DE=-1.54D-07 OVMax= 4.46D-05

 Cycle  11  Pass 1  IDiag  1:
 E= -279.503789912821     Delta-E=       -0.000000013123 Rises=F Damp=F
 DIIS: error= 2.02D-06 at cycle  11 NSaved=  11.
 NSaved=11 IEnMin=11 EnMin= -279.503789912821     IErMin=11 ErrMin= 2.02D-06
 ErrMax= 2.02D-06  0.00D+00 EMaxC= 1.00D-01 BMatC= 6.79D-10 BMatP= 5.68D-09
 IDIUse=1 WtCom= 1.00D+00 WtEn= 0.00D+00
 Coeff-Com: -0.212D-04 0.239D-03 0.482D-03 0.527D-03-0.446D-02-0.352D-02
 Coeff-Com:  0.234D-01 0.298D-01-0.140D+00-0.202D+00 0.130D+01
 Coeff:     -0.212D-04 0.239D-03 0.482D-03 0.527D-03-0.446D-02-0.352D-02
 Coeff:      0.234D-01 0.298D-01-0.140D+00-0.202D+00 0.130D+01
 Gap=     0.502 Goal=   None    Shift=    0.000
 RMSDP=1.85D-07 MaxDP=6.99D-06 DE=-1.31D-08 OVMax= 1.74D-05

 Cycle  12  Pass 1  IDiag  1:
 E= -279.503789914707     Delta-E=       -0.000000001886 Rises=F Damp=F
 DIIS: error= 5.57D-07 at cycle  12 NSaved=  12.
 NSaved=12 IEnMin=12 EnMin= -279.503789914707     IErMin=12 ErrMin= 5.57D-07
 ErrMax= 5.57D-07  0.00D+00 EMaxC= 1.00D-01 BMatC= 6.67D-11 BMatP= 6.79D-10
 IDIUse=1 WtCom= 1.00D+00 WtEn= 0.00D+00
 Coeff-Com:  0.101D-05-0.259D-04-0.566D-04 0.210D-03 0.101D-02-0.235D-02
 Coeff-Com: -0.399D-02 0.610D-02 0.406D-01-0.104D+00-0.285D+00 0.135D+01
 Coeff:      0.101D-05-0.259D-04-0.566D-04 0.210D-03 0.101D-02-0.235D-02
 Coeff:     -0.399D-02 0.610D-02 0.406D-01-0.104D+00-0.285D+00 0.135D+01
 Gap=     0.502 Goal=   None    Shift=    0.000
 RMSDP=7.07D-08 MaxDP=2.80D-06 DE=-1.89D-09 OVMax= 6.26D-06

 Cycle  13  Pass 1  IDiag  1:
 E= -279.503789914918     Delta-E=       -0.000000000212 Rises=F Damp=F
 DIIS: error= 1.58D-07 at cycle  13 NSaved=  13.
 NSaved=13 IEnMin=13 EnMin= -279.503789914918     IErMin=13 ErrMin= 1.58D-07
 ErrMax= 1.58D-07  0.00D+00 EMaxC= 1.00D-01 BMatC= 3.40D-12 BMatP= 6.67D-11
 IDIUse=1 WtCom= 1.00D+00 WtEn= 0.00D+00
 Coeff-Com:  0.123D-05-0.132D-04-0.219D-04-0.859D-04 0.138D-03 0.707D-03
 Coeff-Com: -0.979D-03-0.301D-02 0.704D-03 0.375D-01-0.324D-01-0.302D+00
 Coeff-Com:  0.130D+01
 Coeff:      0.123D-05-0.132D-04-0.219D-04-0.859D-04 0.138D-03 0.707D-03
 Coeff:     -0.979D-03-0.301D-02 0.704D-03 0.375D-01-0.324D-01-0.302D+00
 Coeff:      0.130D+01
 Gap=     0.502 Goal=   None    Shift=    0.000
 RMSDP=1.77D-08 MaxDP=4.86D-07 DE=-2.12D-10 OVMax= 1.44D-06

 Cycle  14  Pass 1  IDiag  1:
 E= -279.503789914930     Delta-E=       -0.000000000011 Rises=F Damp=F
 DIIS: error= 2.14D-08 at cycle  14 NSaved=  14.
 NSaved=14 IEnMin=14 EnMin= -279.503789914930     IErMin=14 ErrMin= 2.14D-08
 ErrMax= 2.14D-08  0.00D+00 EMaxC= 1.00D-01 BMatC= 1.62D-13 BMatP= 3.40D-12
 IDIUse=1 WtCom= 1.00D+00 WtEn= 0.00D+00
 Coeff-Com: -0.164D-06 0.271D-05 0.486D-05 0.302D-05-0.759D-04 0.467D-04
 Coeff-Com:  0.286D-03 0.164D-03-0.227D-02 0.112D-02 0.161D-01-0.260D-01
 Coeff-Com: -0.190D+00 0.120D+01
 Coeff:     -0.164D-06 0.271D-05 0.486D-05 0.302D-05-0.759D-04 0.467D-04
 Coeff:      0.286D-03 0.164D-03-0.227D-02 0.112D-02 0.161D-01-0.260D-01
 Coeff:     -0.190D+00 0.120D+01
 Gap=     0.502 Goal=   None    Shift=    0.000
 RMSDP=3.49D-09 MaxDP=8.75D-08 DE=-1.14D-11 OVMax= 3.13D-07

 SCF Done:  E(RHF) =  -279.503789915     A.U. after   14 cycles
            NFock= 14  Conv=0.35D-08     -V/T= 2.0022
 KE= 2.788847701044D+02 PE=-8.963635970926D+02 EE= 2.204598465952D+02
 Leave Link  502 at Mon Feb 21 20:20:12 2022, MaxMem= 16106127360 cpu:              55.6 elap:               3.5
 (Enter /sw/contrib/gaussian/g16/B01/g16/l801.exe)
 ExpMin= 2.53D-02 ExpMax= 1.53D+04 ExpMxC= 5.22D+02 IAcc=3 IRadAn=         5 AccDes= 0.00D+00
 HarFok:  IExCor=  205 AccDes= 0.00D+00 IRadAn=         5 IDoV=-2 UseB2=F ITyADJ=14
 ICtDFT= 12500011 ScaDFX=  1.000000  1.000000  1.000000  1.000000
 Largest valence mixing into a core orbital is  2.07D-04
 Largest core mixing into a valence orbital is  3.55D-05
 Range of M.O.s used for correlation:     5   207
 NBasis=   207 NAE=    16 NBE=    16 NFC=     4 NFV=     0
 NROrb=    203 NOA=    12 NOB=    12 NVA=   191 NVB=   191

 **** Warning!!: The largest alpha MO coefficient is  0.17963627D+02

 Leave Link  801 at Mon Feb 21 20:20:12 2022, MaxMem= 16106127360 cpu:               1.9 elap:               0.1
 (Enter /sw/contrib/gaussian/g16/B01/g16/l906.exe)
 Frozen-core derivative calculation, NFC=   4 NFV=   0.
 FulOut=F Deriv=T AODrv=T NAtomX=     5
   MMem=           0  MDisk=          12 MDiskD=          12
  W3Min=      811440 MinDsk=     2425030 NBas6D=         245
 NBas2D=       30762    NTT=       30135    LW2=     7400000
    MDV= 16105574255 MDiskM=      328644 NBas2p=       30702
 Disk-based method using ON**2 memory for 12 occupieds at a time.
 Permanent disk used for amplitudes=    11516536 words.
 Estimated scratch disk usage=   321251614 words.
 IMap=   1   2   3   4   5   6   7   8   9  10  11  12  13  14  15  16
 Actual    scratch disk usage=   310331678 words.
 JobTyp=1 Pass  1:  I=   5 to  16 NPSUse= 28 ParTrn=T ParDer=T DoDerP=T.
 (rs|ai) integrals will be sorted in core.
 Spin components of T(2) and E(2):
     alpha-alpha T2 =       0.3374848805D-01 E2=     -0.1221466095D+00
     alpha-beta  T2 =       0.1852348635D+00 E2=     -0.6985344794D+00
     beta-beta   T2 =       0.3374848805D-01 E2=     -0.1221466095D+00
 The integrals were generated   1 times.
 ANorm=    0.1119255038D+01
 E2 =    -0.9428276984D+00 EUMP2 =    -0.28044661761334D+03
 Leave Link  906 at Mon Feb 21 20:21:48 2022, MaxMem= 16106127360 cpu:            2693.8 elap:              96.3
 (Enter /sw/contrib/gaussian/g16/B01/g16/l1101.exe)
 Using compressed Sx but separate Hx and Fx, NAtomX=     5.
 Will process      6 centers per pass.
 Leave Link 1101 at Mon Feb 21 20:21:49 2022, MaxMem= 16106127360 cpu:               5.2 elap:               0.2
 (Enter /sw/contrib/gaussian/g16/B01/g16/l1102.exe)
 Leave Link 1102 at Mon Feb 21 20:21:49 2022, MaxMem= 16106127360 cpu:               1.4 elap:               0.1
 (Enter /sw/contrib/gaussian/g16/B01/g16/l1110.exe)
 Forming Gx(P) for the SCF density, NAtomX=     5.
 Integral derivatives from FoFJK, PRISM(SPDF).
 Do as many integral derivatives as possible in FoFJK.
 G2DrvN: MDV=   16106126844.
 G2DrvN: will do     6 centers at a time, making    1 passes.
 Calling FoFCou, ICntrl=  3107 FMM=F I1Cent=   0 AccDes= 0.00D+00.
 FoFJK:  IHMeth= 1 ICntrl=    3107 DoSepK=F KAlg= 0 I1Cent=           0 FoldK=F
 IRaf=         0 NMat=       1 IRICut=       1 DoRegI=T DoRafI=F ISym2E= 1 IDoP0=0 IntGTp=1.
 FoFCou: FMM=F IPFlag=           0 FMFlag=      100000 FMFlg1=           0
         NFxFlg=           0 DoJE=F BraDBF=F KetDBF=F FulRan=T
         wScrn=  0.000000 ICntrl=      3107 IOpCl=  0 I1Cent=           0 NGrid=           0
         NMat0=    1 NMatS0=      1 NMatT0=    0 NMatD0=    1 NMtDS0=    0 NMtDT0=    0
 Petite list used in FoFCou.
 End of G2Drv F.D. properties file   721 does not exist.
 End of G2Drv F.D. properties file   722 does not exist.
 End of G2Drv F.D. properties file   788 does not exist.
 Leave Link 1110 at Mon Feb 21 20:21:52 2022, MaxMem= 16106127360 cpu:              82.8 elap:               3.0
 (Enter /sw/contrib/gaussian/g16/B01/g16/l1002.exe)
 Minotr:  Closed shell wavefunction.
          IDoAtm=11111
          Frozen-core window.
          Direct CPHF calculation.
          Differentiating once with respect to electric field.
                with respect to dipole field.
          Differentiating once with respect to nuclear coordinates.
          Requested convergence is 1.0D-08 RMS, and 1.0D-07 maximum.
          Secondary convergence is 1.0D-12 RMS, and 1.0D-12 maximum.
          NewPWx=T KeepS1=T KeepF1=T KeepIn=T MapXYZ=F SortEE=F KeepMc=T.
 Keep R1 ints in memory in symmetry-blocked form, NReq=348888983.
 FoFCou: FMM=F IPFlag=           0 FMFlag=           0 FMFlg1=           0
         NFxFlg=           0 DoJE=F BraDBF=F KetDBF=F FulRan=T
         wScrn=  0.000000 ICntrl=       600 IOpCl=  0 I1Cent=           0 NGrid=           0
         NMat0=    1 NMatS0=  21528 NMatT0=    0 NMatD0=    1 NMtDS0=    0 NMtDT0=    0
 Petite list used in FoFCou.
          MDV=   16106127360 using IRadAn=       1.
          Solving linear equations simultaneously, MaxMat=       0.
          There are    18 degrees of freedom in the 1st order CPHF.  IDoFFX=6 NUNeed=    18.
     15 vectors produced by pass  0 Test12= 1.70D-14 5.56D-09 XBig12= 8.25D+00 1.02D+00.
 AX will form    15 AO Fock derivatives at one time.
     15 vectors produced by pass  1 Test12= 1.70D-14 5.56D-09 XBig12= 1.31D+00 2.13D-01.
     15 vectors produced by pass  2 Test12= 1.70D-14 5.56D-09 XBig12= 1.35D-01 9.26D-02.
     15 vectors produced by pass  3 Test12= 1.70D-14 5.56D-09 XBig12= 4.61D-03 1.01D-02.
     15 vectors produced by pass  4 Test12= 1.70D-14 5.56D-09 XBig12= 9.25D-05 1.78D-03.
     15 vectors produced by pass  5 Test12= 1.70D-14 5.56D-09 XBig12= 1.28D-06 1.57D-04.
     15 vectors produced by pass  6 Test12= 1.70D-14 5.56D-09 XBig12= 1.01D-08 1.42D-05.
     12 vectors produced by pass  7 Test12= 1.70D-14 5.56D-09 XBig12= 7.36D-11 1.24D-06.
      3 vectors produced by pass  8 Test12= 1.70D-14 5.56D-09 XBig12= 5.29D-13 1.18D-07.
      2 vectors produced by pass  9 Test12= 1.70D-14 5.56D-09 XBig12= 3.64D-15 1.02D-08.
 InvSVY:  IOpt=1 It=  1 EMax= 9.99D-16
 Solved reduced A of dimension   122 with    15 vectors.
 FullF1:  Do perturbations      1 to      18.
 Saving first derivative matrices.
 End of Minotr F.D. properties file   721 does not exist.
 End of Minotr F.D. properties file   722 does not exist.
 End of Minotr F.D. properties file   788 does not exist.
 Leave Link 1002 at Mon Feb 21 20:21:55 2022, MaxMem= 16106127360 cpu:              79.6 elap:               2.9
 (Enter /sw/contrib/gaussian/g16/B01/g16/l811.exe)
 MDV= 16106127360.
 Form MO integral derivatives with frozen-active canonical formalism.
 MOERI=1 MOERIx=1 NAtoms=     5 NAtomX=     5.
 Discarding MO integrals.
 MO basis two electron integral derivatives will not be stored on disk.
 IAlg= 3 DoFC=T DoPWx=T Debug=F.
 Frozen-core window:  NFC=   4 NFV=   0.
 Reordered first order wavefunction length =     18678272
 In DefCFB: NBatch=  1 ICI= 16 ICA=191 LFMax= 96
            Large arrays: LIAPS=   619940160 LIARS=   288257200 words.
 In StABat: MaxSiz= 55 MinSiz= 25 NAtomB=  5
 DoIAMN: NPSUse= 28.
 Leave Link  811 at Mon Feb 21 20:23:19 2022, MaxMem= 16106127360 cpu:            2346.3 elap:              83.9
 (Enter /sw/contrib/gaussian/g16/B01/g16/l804.exe)
 Frozen-core window:  NFC=   4 NFV=   0.
 Closed-shell transformation, MDV= 16106127360 ITran=4 ISComp=1.
 Semi-Direct transformation.
 ModeAB=           2 MOrb=            16 LenV=   16104922953
 LASXX=     67341636 LTotXX=    67341636 LenRXX=    67341636
 LTotAB=    68301760 MaxLAS=    99807120 LenRXY=    99807120
 NonZer=   134683272 LenScr=   202817536 LnRSAI=           0
 LnScr1=           0 LExtra=           0 Total=    369966292
 MaxDsk=          -1 SrtSym=           F ITran=            4
 DoSDTr:  NPSUse= 28
 JobTyp=0 Pass  1:  I=   1 to  16.
 (rs|ai) integrals will be sorted in core.
 Complete sort for first half transformation.
 First half transformation complete.
 Begin second half transformation for I=  10.
 Begin second half transformation for I=  10.
 Complete sort for second half transformation.
 Second half transformation complete.
 Spin components of T(2) and E(2):
     alpha-alpha T2 =       0.3374848805D-01 E2=     -0.1221466095D+00
     alpha-beta  T2 =       0.1852348635D+00 E2=     -0.6985344794D+00
     beta-beta   T2 =       0.3374848805D-01 E2=     -0.1221466095D+00
 ANorm=    0.1582865654D+01
 E2 =    -0.9428276984D+00 EUMP2 =    -0.28044661761334D+03
 Leave Link  804 at Mon Feb 21 20:23:34 2022, MaxMem= 16106127360 cpu:             436.8 elap:              15.6
 (Enter /sw/contrib/gaussian/g16/B01/g16/l1002.exe)
 Minotr:  Closed shell wavefunction.
          Computing MP2/KS-MP2 derivatives.
          Using Z-Vector for PSCF gradient.
          Skipping F1 and S1 gradient terms here.
          IDoAtm=11111
          Frozen-core window.
          Using MO integrals in the linear equations.
          Forming densities via direct SCF.
          Differentiating once with respect to electric field.
                with respect to dipole field.
          Differentiating once with respect to nuclear coordinates.
          Using symmetry in CPHF.
          Requested convergence is 1.0D-10 RMS, and 1.0D-09 maximum.
          NewPWx=F KeepS1=T KeepF1=T KeepIn=T MapXYZ=F SortEE=F KeepMc=T.
          MDV=   16106127360 using IRadAn=       5.
          Solving linear equations separately, MaxMat=       0.
          There are     1 degrees of freedom in the 1st order CPHF.  IDoFFX=0 NUNeed=     1.
 FoFJK:  IHMeth= 1 ICntrl=       0 DoSepK=F KAlg= 0 I1Cent=           0 FoldK=F
 IRaf=         0 NMat=       1 IRICut=       1 DoRegI=T DoRafI=F ISym2E= 0 IDoP0=0 IntGTp=1.
 FoFCou: FMM=F IPFlag=           0 FMFlag=      100000 FMFlg1=           0
         NFxFlg=           0 DoJE=F BraDBF=F KetDBF=F FulRan=T
         wScrn=  0.000000 ICntrl=         0 IOpCl=  0 I1Cent=           0 NGrid=           0
         NMat0=    1 NMatS0=      1 NMatT0=    0 NMatD0=    1 NMtDS0=    0 NMtDT0=    0
 Symmetry not used in FoFCou.
 LinEq1:  Iter=  0 NonCon=     1 RMS=5.87D-03 Max=1.33D-01 NDo=     1
 LinEq1:  Iter=  1 NonCon=     1 RMS=1.84D-03 Max=3.64D-02 NDo=     1
 LinEq1:  Iter=  2 NonCon=     1 RMS=8.34D-04 Max=1.16D-02 NDo=     1
 LinEq1:  Iter=  3 NonCon=     1 RMS=3.70D-04 Max=7.78D-03 NDo=     1
 LinEq1:  Iter=  4 NonCon=     1 RMS=1.14D-04 Max=1.53D-03 NDo=     1
 LinEq1:  Iter=  5 NonCon=     1 RMS=4.39D-05 Max=7.00D-04 NDo=     1
 LinEq1:  Iter=  6 NonCon=     1 RMS=1.97D-05 Max=2.24D-04 NDo=     1
 LinEq1:  Iter=  7 NonCon=     1 RMS=7.78D-06 Max=1.44D-04 NDo=     1
 LinEq1:  Iter=  8 NonCon=     1 RMS=3.33D-06 Max=3.07D-05 NDo=     1
 LinEq1:  Iter=  9 NonCon=     1 RMS=9.00D-07 Max=1.16D-05 NDo=     1
 LinEq1:  Iter= 10 NonCon=     1 RMS=1.73D-07 Max=1.77D-06 NDo=     1
 LinEq1:  Iter= 11 NonCon=     1 RMS=3.15D-08 Max=3.15D-07 NDo=     1
 LinEq1:  Iter= 12 NonCon=     1 RMS=7.58D-09 Max=1.14D-07 NDo=     1
 LinEq1:  Iter= 13 NonCon=     1 RMS=1.39D-09 Max=2.27D-08 NDo=     1
 LinEq1:  Iter= 14 NonCon=     1 RMS=2.48D-10 Max=3.22D-09 NDo=     1
 LinEq1:  Iter= 15 NonCon=     0 RMS=4.49D-11 Max=4.68D-10 NDo=     1
 Linear equations converged to 1.000D-10 1.000D-09 after    15 iterations.
 End of Minotr F.D. properties file   721 does not exist.
 End of Minotr F.D. properties file   722 does not exist.
 End of Minotr F.D. properties file   788 does not exist.
 Leave Link 1002 at Mon Feb 21 20:23:37 2022, MaxMem= 16106127360 cpu:              63.6 elap:               2.3
 (Enter /sw/contrib/gaussian/g16/B01/g16/l1102.exe)
 Use density number 2.
 Symmetrizing basis deriv contribution to polar:
 IMax=3 JMax=2 DiffMx= 0.00D+00
 Leave Link 1102 at Mon Feb 21 20:23:37 2022, MaxMem= 16106127360 cpu:               0.7 elap:               0.1
 (Enter /sw/contrib/gaussian/g16/B01/g16/l1110.exe)
 Forming Gx(P) for generalized density number  2 NAtomX=     5.
 Integral derivatives from FoFJK, PRISM(SPDF).
 Do as many integral derivatives as possible in FoFJK.
 G2DrvN: MDV=   16106126844.
 G2DrvN: will do     6 centers at a time, making    1 passes.
 Calling FoFCou, ICntrl=  3107 FMM=F I1Cent=   0 AccDes= 0.00D+00.
 FoFJK:  IHMeth= 1 ICntrl=    3107 DoSepK=F KAlg= 0 I1Cent=           0 FoldK=F
 IRaf=         0 NMat=       1 IRICut=       1 DoRegI=T DoRafI=F ISym2E= 1 IDoP0=0 IntGTp=1.
 FoFCou: FMM=F IPFlag=           0 FMFlag=      100000 FMFlg1=           0
         NFxFlg=           0 DoJE=F BraDBF=F KetDBF=F FulRan=T
         wScrn=  0.000000 ICntrl=      3107 IOpCl=  0 I1Cent=           0 NGrid=           0
         NMat0=    1 NMatS0=      1 NMatT0=    0 NMatD0=    1 NMtDS0=    0 NMtDT0=    0
 Petite list used in FoFCou.
 End of G2Drv F.D. properties file   721 does not exist.
 End of G2Drv F.D. properties file   722 does not exist.
 End of G2Drv F.D. properties file   788 does not exist.
 Leave Link 1110 at Mon Feb 21 20:23:40 2022, MaxMem= 16106127360 cpu:              84.1 elap:               3.0
 (Enter /sw/contrib/gaussian/g16/B01/g16/l1112.exe)
 MP22nd: MDV=   16106127360
 This link is doing NAtomX=     5 total of    18 degrees of freedom.
 Using ON3 I/O method in MakUI.
 Frozen-core window:  NFC=   4 NFV=   0.
 Using Ix for Sx.
 Use MO integrals over full window.
 Using OV2 memory method for fx*t*t/D, MaxI=    16 DoOO2=F NP=  28.
 R2 and R3 integrals will be kept in memory, NReq=   915591705.
 FoFCou: FMM=F IPFlag=           0 FMFlag=           0 FMFlg1=           0
         NFxFlg=           0 DoJE=F BraDBF=F KetDBF=F FulRan=T
         wScrn=  0.000000 ICntrl=       600 IOpCl=  0 I1Cent=           0 NGrid=           0
         NMat0=    1 NMatS0=      1 NMatT0=    0 NMatD0=    1 NMtDS0=    0 NMtDT0=    0
 Symmetry not used in FoFCou.
 DD1Dir will call FoFMem   1 times, MxPair=       272
 NAB=   136 NAA=     0 NBB=     0.
 Symmetry is being used.
 FoFJK:  IHMeth= 1 ICntrl=       0 DoSepK=F KAlg= 0 I1Cent=           0 FoldK=F
 IRaf=         0 NMat=      18 IRICut=      45 DoRegI=T DoRafI=T ISym2E= 2 IDoP0=3 IntGTp=3.
 Discarding MO integrals.
 Leave Link 1112 at Mon Feb 21 20:24:16 2022, MaxMem= 16106127360 cpu:             994.2 elap:              35.9
 (Enter /sw/contrib/gaussian/g16/B01/g16/l601.exe)
 Copying SCF densities to generalized density rwf, IOpCl= 0 IROHF=0.

 **********************************************************************

            Population analysis using the MP2 Density.

 **********************************************************************

 Orbital symmetries:
       Occupied  (A') (A') (A') (A') (A') (A') (A') (A') (A') (A')
                 (A") (A') (A") (A') (A") (A')
       Virtual   (A') (A") (A') (A') (A') (A") (A') (A') (A") (A')
                 (A") (A') (A') (A') (A") (A') (A') (A") (A') (A')
                 (A') (A') (A') (A') (A") (A') (A') (A") (A') (A')
                 (A") (A') (A") (A') (A') (A") (A') (A") (A') (A")
                 (A') (A') (A") (A') (A') (A") (A') (A') (A") (A')
                 (A") (A') (A') (A') (A") (A') (A") (A') (A") (A')
                 (A') (A') (A") (A') (A') (A") (A') (A") (A') (A')
                 (A") (A') (A') (A") (A") (A') (A') (A") (A') (A')
                 (A') (A") (A') (A") (A") (A') (A') (A") (A') (A')
                 (A") (A') (A') (A") (A') (A") (A') (A") (A') (A')
                 (A") (A') (A") (A') (A') (A') (A") (A') (A") (A')
                 (A") (A') (A') (A') (A") (A') (A') (A') (A") (A')
                 (A") (A') (A") (A') (A') (A") (A") (A') (A") (A')
                 (A') (A') (A') (A") (A") (A") (A') (A') (A') (A')
                 (A") (A') (A") (A') (A') (A") (A') (A') (A') (A')
                 (A") (A') (A') (A") (A') (A") (A') (A") (A') (A")
                 (A') (A") (A') (A") (A') (A") (A") (A') (A") (A')
                 (A") (A') (A") (A') (A") (A') (A") (A") (A') (A')
                 (A') (A') (A') (A') (A') (A') (A') (A') (A') (A')
                 (A')
 The electronic state is 1-A'.
 Alpha  occ. eigenvalues --  -20.69483 -20.67872 -20.66283 -15.80910  -1.62566
 Alpha  occ. eigenvalues --   -1.49889  -1.26147  -0.94640  -0.77470  -0.76204
 Alpha  occ. eigenvalues --   -0.71601  -0.67817  -0.61922  -0.59062  -0.48756
 Alpha  occ. eigenvalues --   -0.47334
 Alpha virt. eigenvalues --    0.02899   0.07469   0.08635   0.10197   0.13375
 Alpha virt. eigenvalues --    0.13406   0.14361   0.15407   0.17774   0.19420
 Alpha virt. eigenvalues --    0.19993   0.20918   0.22010   0.23438   0.23767
 Alpha virt. eigenvalues --    0.26614   0.30121   0.30338   0.31314   0.34518
 Alpha virt. eigenvalues --    0.35083   0.38854   0.42112   0.43088   0.52845
 Alpha virt. eigenvalues --    0.53022   0.56112   0.58290   0.62764   0.63968
 Alpha virt. eigenvalues --    0.67512   0.68437   0.70550   0.71062   0.72386
 Alpha virt. eigenvalues --    0.72783   0.74391   0.79121   0.79307   0.81111
 Alpha virt. eigenvalues --    0.81125   0.83179   0.86996   0.90838   0.92107
 Alpha virt. eigenvalues --    0.92804   0.95439   0.98079   0.98372   1.01457
 Alpha virt. eigenvalues --    1.05309   1.05597   1.08458   1.11944   1.14363
 Alpha virt. eigenvalues --    1.19071   1.22140   1.23330   1.34152   1.35484
 Alpha virt. eigenvalues --    1.38356   1.45705   1.48792   1.50786   1.53955
 Alpha virt. eigenvalues --    1.56964   1.58431   1.61445   1.66574   1.67006
 Alpha virt. eigenvalues --    1.70547   1.79331   1.83257   1.83874   1.87778
 Alpha virt. eigenvalues --    1.91301   1.95636   1.99687   2.00768   2.08531
 Alpha virt. eigenvalues --    2.12349   2.13529   2.14674   2.22901   2.26295
 Alpha virt. eigenvalues --    2.26464   2.29365   2.31501   2.34994   2.38595
 Alpha virt. eigenvalues --    2.42780   2.43416   2.45736   2.46570   2.48044
 Alpha virt. eigenvalues --    2.50490   2.58741   2.59853   2.62647   2.62676
 Alpha virt. eigenvalues --    2.63281   2.67042   2.76145   2.83505   2.86586
 Alpha virt. eigenvalues --    2.89261   2.89286   2.94303   2.95920   3.03418
 Alpha virt. eigenvalues --    3.07702   3.12928   3.20125   3.23239   3.32084
 Alpha virt. eigenvalues --    3.34856   3.52067   3.65225   3.84949   3.85069
 Alpha virt. eigenvalues --    4.14882   4.15828   4.18760   4.26810   4.35147
 Alpha virt. eigenvalues --    4.39421   4.46203   4.52206   4.67026   4.71361
 Alpha virt. eigenvalues --    4.80949   4.82575   4.84347   4.89806   5.03104
 Alpha virt. eigenvalues --    5.08451   5.11173   5.14374   5.18559   5.24873
 Alpha virt. eigenvalues --    5.28029   5.31333   5.33220   5.36500   5.61142
 Alpha virt. eigenvalues --    5.67789   5.78286   5.82750   5.96343   6.17870
 Alpha virt. eigenvalues --    6.30911   6.34753   6.40008   6.49914   6.51043
 Alpha virt. eigenvalues --    6.61468   6.66680   6.70842   6.75545   6.76300
 Alpha virt. eigenvalues --    6.83901   6.90629   7.01987   7.05498   7.06043
 Alpha virt. eigenvalues --    7.08985   7.13163   7.15634   7.18258   7.23541
 Alpha virt. eigenvalues --    7.24023   7.30329   7.32923   7.35364   7.40642
 Alpha virt. eigenvalues --    7.44237   7.49086   7.61226   7.62790   7.64726
 Alpha virt. eigenvalues --    7.67999   7.79827   7.89375   8.12106   8.32469
 Alpha virt. eigenvalues --    8.40905   8.55579  13.45674  14.52544  15.18229
 Alpha virt. eigenvalues --   16.19956
          Condensed to atoms (all electrons):
               1          2          3          4          5
     1  H    0.589136   0.128239   0.020234   0.012577  -0.000632
     2  O    0.128239   8.321982  -0.171658  -0.094692   0.016126
     3  O    0.020234  -0.171658   8.463380  -0.136630  -0.043542
     4  N    0.012577  -0.094692  -0.136630   6.992882  -0.058885
     5  O   -0.000632   0.016126  -0.043542  -0.058885   8.290349
 Mulliken charges:
               1
     1  H    0.250446
     2  O   -0.199997
     3  O   -0.131783
     4  N    0.284750
     5  O   -0.203416
 Sum of Mulliken charges =  -0.00000
 Mulliken charges with hydrogens summed into heavy atoms:
               1
     2  O    0.050449
     3  O   -0.131783
     4  N    0.284750
     5  O   -0.203416
 APT charges:
               1
     1  H    0.299973
     2  O   -0.283284
     3  O   -0.481742
     4  N    0.862197
     5  O   -0.397144
 Sum of APT charges =   0.00000
 APT charges with hydrogens summed into heavy atoms:
               1
     2  O    0.016689
     3  O   -0.481742
     4  N    0.862197
     5  O   -0.397144
 Electronic spatial extent (au):  <R**2>=            250.4878
 Charge=             -0.0000 electrons
 Dipole moment (field-independent basis, Debye):
    X=              0.6150    Y=              1.4938    Z=              0.0000  Tot=              1.6154
 Quadrupole moment (field-independent basis, Debye-Ang):
   XX=            -22.5094   YY=            -18.7141   ZZ=            -21.9767
   XY=              3.2118   XZ=              0.0000   YZ=             -0.0000
 Traceless Quadrupole moment (field-independent basis, Debye-Ang):
   XX=             -1.4427   YY=              2.3526   ZZ=             -0.9100
   XY=              3.2118   XZ=              0.0000   YZ=             -0.0000
 Octapole moment (field-independent basis, Debye-Ang**2):
  XXX=              3.3197  YYY=             11.3366  ZZZ=             -0.0000  XYY=              7.9456
  XXY=              6.7676  XXZ=              0.0000  XZZ=             -1.5387  YZZ=             -0.7652
  YYZ=              0.0000  XYZ=              0.0000
 Hexadecapole moment (field-independent basis, Debye-Ang**3):
 XXXX=           -158.5781 YYYY=            -87.4631 ZZZZ=            -18.1727 XXXY=            -35.9254
 XXXZ=              0.0000 YYYX=            -30.3547 YYYZ=             -0.0000 ZZZX=             -0.0000
 ZZZY=             -0.0000 XXYY=            -33.6839 XXZZ=            -30.8857 YYZZ=            -20.1792
 XXYZ=             -0.0000 YYXZ=             -0.0000 ZZXY=            -14.8069
 N-N= 1.175151904781D+02 E-N=-8.971282001008D+02  KE= 2.802276478717D+02
 Symmetry A'   KE= 2.662478535292D+02
 Symmetry A"   KE= 1.397979434241D+01
  Exact polarizability:  34.022   9.340  29.774  -0.000   0.000  17.850
 Approx polarizability:  28.903   4.955  23.013  -0.000   0.000  15.486
 No NMR shielding tensors so no spin-rotation constants.
 Leave Link  601 at Mon Feb 21 20:24:16 2022, MaxMem= 16106127360 cpu:               4.4 elap:               0.2
 (Enter /sw/contrib/gaussian/g16/B01/g16/l701.exe)
 ... and contract with generalized density number  2.
 Compute integral second derivatives.
 Leave Link  701 at Mon Feb 21 20:24:16 2022, MaxMem= 16106127360 cpu:               8.9 elap:               0.4
 (Enter /sw/contrib/gaussian/g16/B01/g16/l702.exe)
 L702 exits ... SP integral derivatives will be done elsewhere.
 Leave Link  702 at Mon Feb 21 20:24:16 2022, MaxMem= 16106127360 cpu:               0.8 elap:               0.1
 (Enter /sw/contrib/gaussian/g16/B01/g16/l703.exe)
 Integral derivatives from FoFJK, PRISM(SPDF).
 Compute integral second derivatives, UseDBF=F ICtDFT=           0.
 Calling FoFJK, ICntrl=  10100127 FMM=F ISym2X=1 I1Cent= 0 IOpClX= 0 NMat=1 NMatS=1 NMatT=0.
 FoFJK:  IHMeth= 1 ICntrl=10100127 DoSepK=F KAlg= 0 I1Cent=           0 FoldK=F
 IRaf=         0 NMat=       1 IRICut=       1 DoRegI=T DoRafI=F ISym2E= 1 IDoP0=0 IntGTp=1.
 FoFCou: FMM=F IPFlag=           0 FMFlag=      100000 FMFlg1=         800
         NFxFlg=           0 DoJE=F BraDBF=F KetDBF=F FulRan=T
         wScrn=  0.000000 ICntrl=  10100127 IOpCl=  0 I1Cent=           0 NGrid=           0
         NMat0=    1 NMatS0=      1 NMatT0=    0 NMatD0=    1 NMtDS0=    0 NMtDT0=    0
 Petite list used in FoFCou.
 Leave Link  703 at Mon Feb 21 20:24:32 2022, MaxMem= 16106127360 cpu:             431.6 elap:              15.5
 (Enter /sw/contrib/gaussian/g16/B01/g16/l716.exe)
 Dipole        = 2.41957858D-01 5.87708474D-01 9.90246070D-32
 Polarizability= 3.40223408D+01 9.33975046D+00 2.97738156D+01
                -1.73447871D-30 2.35013456D-30 1.78498533D+01
 Full mass-weighted force constant matrix:
 Low frequencies --- -263.0195  -81.4848  -46.5951  -42.9094   -0.0009   -0.0007
 Low frequencies ---   -0.0006  220.2835  348.9832
 ******    1 imaginary frequencies (negative Signs) ****** 
 Diagonal vibrational polarizability:
       11.7149547      19.8595270      48.8188796
 Harmonic frequencies (cm**-1), IR intensities (KM/Mole), Raman scattering
 activities (A**4/AMU), depolarization ratios for plane and unpolarized
 incident light, reduced masses (AMU), force constants (mDyne/A),
 and normal coordinates:
                      1                      2                      3
                     A"                     A"                     A'
 Frequencies --   -262.9415               218.9435               348.9168
 Red. masses --      1.1448                10.1788                 8.6614
 Frc consts  --      0.0466                 0.2875                 0.6213
 IR Inten    --    124.1184                 0.9037                 2.5958
  Atom  AN      X      Y      Z        X      Y      Z        X      Y      Z
     1   1     0.00   0.00   1.00    -0.00   0.00  -0.59     0.53  -0.45  -0.00
     2   8    -0.00   0.00  -0.07     0.00   0.00  -0.30    -0.10  -0.38  -0.00
     3   8     0.00  -0.00  -0.04    -0.00  -0.00   0.32    -0.15   0.42   0.00
     4   7     0.00  -0.00   0.06     0.00  -0.00   0.51     0.05   0.28   0.00
     5   8     0.00   0.00  -0.01    -0.00   0.00  -0.43     0.17  -0.25  -0.00
                      4                      5                      6
                     A'                     A'                     A'
 Frequencies --    498.9710               803.3693               970.8382
 Red. masses --     12.2804                12.5835                15.2559
 Frc consts  --      1.8014                 4.7850                 8.4719
 IR Inten    --    172.6950               191.6459                25.5157
  Atom  AN      X      Y      Z        X      Y      Z        X      Y      Z
     1   1     0.42   0.18  -0.00    -0.37   0.18  -0.00    -0.19  -0.03  -0.00
     2   8     0.35   0.19  -0.00     0.41   0.07  -0.00    -0.50   0.03  -0.00
     3   8     0.16   0.44   0.00    -0.08  -0.30   0.00     0.75  -0.03   0.00
     4   7    -0.36  -0.36   0.00    -0.11   0.63   0.00    -0.13   0.26   0.00
     5   8    -0.23  -0.33  -0.00    -0.20  -0.34  -0.00    -0.12  -0.23  -0.00
                      7                      8                      9
                     A'                     A'                     A'
 Frequencies --   1375.7611              1688.4205              3779.1972
 Red. masses --      1.1372                13.1285                 1.0675
 Frc consts  --      1.2681                22.0510                 8.9832
 IR Inten    --    157.2315               129.7031                82.0991
  Atom  AN      X      Y      Z        X      Y      Z        X      Y      Z
     1   1     0.99  -0.05   0.00    -0.35   0.01  -0.00     0.11   0.99  -0.00
     2   8    -0.03   0.05   0.00    -0.00  -0.04   0.00    -0.01  -0.06   0.00
     3   8    -0.02  -0.05  -0.00     0.00   0.15   0.00     0.00   0.00   0.00
     4   7     0.02   0.01  -0.00     0.70  -0.05  -0.00    -0.00  -0.00  -0.00
     5   8    -0.03  -0.01   0.00    -0.59  -0.06  -0.00     0.00   0.00  -0.00

 -------------------
 - Thermochemistry -
 -------------------
 Temperature   298.150 Kelvin.  Pressure   1.00000 Atm.
 Atom     1 has atomic number  1 and mass   1.00783
 Atom     2 has atomic number  8 and mass  15.99491
 Atom     3 has atomic number  8 and mass  15.99491
 Atom     4 has atomic number  7 and mass  14.00307
 Atom     5 has atomic number  8 and mass  15.99491
 Molecular mass:    62.99564 amu.
 Principal axes and moments of inertia in atomic units:
                           1         2         3
     Eigenvalues --    32.24357 355.92523 388.16880
           X            0.81607  -0.57795   0.00000
           Y            0.57795   0.81607   0.00000
           Z            0.00000  -0.00000   1.00000
 This molecule is an asymmetric top.
 Rotational symmetry number  1.
 Rotational temperatures (Kelvin)      2.68624     0.24335     0.22313
 Rotational constants (GHZ):          55.97213     5.07056     4.64937
    1 imaginary frequencies ignored.
 Zero-point vibrational energy      57925.7 (Joules/Mol)
                                   13.84457 (Kcal/Mol)
 Warning -- explicit consideration of   3 degrees of freedom as
           vibrations may cause significant error
 Vibrational temperatures:    315.01   502.01   717.91  1155.87  1396.82
          (Kelvin)           1979.41  2429.26  5437.42
 
 Zero-point correction=                           0.022063 (Hartree/Particle)
 Thermal correction to Energy=                    0.026143
 Thermal correction to Enthalpy=                  0.027088
 Thermal correction to Gibbs Free Energy=        -0.004029
 Sum of electronic and zero-point Energies=           -280.424555
 Sum of electronic and thermal Energies=              -280.420474
 Sum of electronic and thermal Enthalpies=            -280.419530
 Sum of electronic and thermal Free Energies=         -280.450646
 
                     E (Thermal)             CV                S
                      KCal/Mol        Cal/Mol-Kelvin    Cal/Mol-Kelvin
 Total                   16.405             11.812             65.489
 Electronic               0.000              0.000              0.000
 Translational            0.889              2.981             38.341
 Rotational               0.889              2.981             23.014
 Vibrational             14.628              5.851              4.135
 Vibration     1          0.647              1.812              1.968
 Vibration     2          0.726              1.577              1.171
 Vibration     3          0.854              1.252              0.661
                       Q            Log10(Q)             Ln(Q)
 Total Bot       0.712910D+02          1.853035          4.266771
 Total V=0       0.100271D+13         12.001176         27.633728
 Vib (Bot)       0.151830D-09         -9.818642        -22.608258
 Vib (Bot)    1  0.903845D+00         -0.043906         -0.101098
 Vib (Bot)    2  0.529149D+00         -0.276422         -0.636486
 Vib (Bot)    3  0.329684D+00         -0.481902         -1.109620
 Vib (V=0)       0.213550D+01          0.329499          0.758700
 Vib (V=0)    1  0.153293D+01          0.185521          0.427178
 Vib (V=0)    2  0.122801D+01          0.089202          0.205395
 Vib (V=0)    3  0.109891D+01          0.040962          0.094318
 Electronic      0.100000D+01          0.000000          0.000000
 Translational   0.196526D+08          7.293420         16.793719
 Rotational      0.238922D+05          4.378257         10.081309
 
                                                                title
                                                             IR Spectrum
 
     3                                                                      1         1                                              
     7                                                                      6         3             9     8         4    3   2       
     7                                                                      8         7             7     0         9    4   1       
     9                                                                      8         6             1     3         9    9   9       
 
     X                                                                      X         X             X     X         X    X   X       
     X                                                                      X         X             X     X         X                
     X                                                                      X         X             X     X         X                
     X                                                                      X         X                   X         X                
     X                                                                      X         X                   X         X                
     X                                                                      X         X                   X         X                
     X                                                                      X         X                   X         X                
     X                                                                      X         X                   X         X                
     X                                                                      X         X                   X         X                
                                                                            X         X                   X         X                
                                                                            X         X                   X         X                
                                                                            X         X                   X         X                
                                                                            X         X                   X         X                
                                                                            X         X                   X         X                
                                                                                      X                   X         X                
                                                                                      X                   X         X                
                                                                                                          X         X                
                                                                                                          X         X                
                                                                                                          X                          
                                                                                                          X                          
 
 ***** Axes restored to original set *****
 -------------------------------------------------------------------
 Center     Atomic                   Forces (Hartrees/Bohr)
 Number     Number              X              Y              Z
 -------------------------------------------------------------------
      1        1           0.000003069   -0.000000000   -0.000157891
      2        8           0.000182527   -0.000000000   -0.000496026
      3        8          -0.001874871   -0.000000000   -0.004801500
      4        7          -0.005147479    0.000000000    0.003005021
      5        8           0.006836754   -0.000000000    0.002450396
 -------------------------------------------------------------------
 Cartesian Forces:  Max     0.006836754 RMS     0.002770634
 -----------------------------------------------------------------------------------------------
                       Internal Coordinate Forces (Hartree/Bohr or radian)
  Cent   Atom   N1       Length/X         N2         Alpha/Y        N3         Beta/Z          J
 -----------------------------------------------------------------------------------------------
      1  H 
      2  O        1   0.000158(     1)
      3  O        2  -0.000098(     2)      1  -0.000006(     5)
      4  N        3   0.005576(     3)      2   0.001855(     6)      1  -0.000000(     8)     0
      5  O        4   0.007231(     4)      3   0.001499(     7)      2  -0.000000(     9)     0
 -----------------------------------------------------------------------------------------------
 Internal  Forces:  Max     0.007230964 RMS     0.003146343
 Force constants in Cartesian coordinates: 
                1             2             3             4             5 
      1  0.650246D-01
      2  0.000000D+00 -0.223356D-02
      3  0.542129D-02  0.000000D+00  0.512511D+00
      4 -0.363866D-01  0.000000D+00 -0.165879D-01  0.274062D+00
      5  0.000000D+00  0.291673D-02  0.000000D+00  0.000000D+00  0.255070D-02
      6  0.487089D-01  0.000000D+00 -0.508442D+00  0.342858D-01  0.000000D+00
      7 -0.176588D-01  0.000000D+00  0.128442D-01 -0.219391D+00  0.000000D+00
      8  0.000000D+00  0.888630D-03  0.000000D+00  0.000000D+00 -0.699926D-02
      9 -0.533416D-01  0.000000D+00 -0.395142D-03 -0.189460D-01  0.000000D+00
     10 -0.985779D-02  0.000000D+00 -0.497998D-02 -0.189616D-01  0.000000D+00
     11  0.000000D+00 -0.260235D-02  0.000000D+00  0.000000D+00 -0.517655D-02
     12  0.491955D-02  0.000000D+00 -0.521886D-02  0.112074D-01  0.000000D+00
     13 -0.112143D-02  0.000000D+00  0.330243D-02  0.676621D-03  0.000000D+00
     14  0.000000D+00  0.103054D-02  0.000000D+00  0.000000D+00  0.670838D-02
     15 -0.570814D-02  0.000000D+00  0.154509D-02 -0.995917D-02  0.000000D+00
                6             7             8             9            10 
      6  0.597216D+00
      7 -0.190685D-01  0.344890D+00
      8  0.000000D+00  0.000000D+00  0.309043D-02
      9 -0.795890D-01  0.383600D-01  0.000000D+00  0.202511D+00
     10 -0.559860D-01 -0.810871D-01  0.000000D+00  0.175908D+00  0.841508D+00
     11  0.000000D+00  0.000000D+00  0.102292D-01  0.000000D+00  0.000000D+00
     12  0.154235D-01  0.622917D-01  0.000000D+00 -0.986685D-01 -0.153019D-01
     13 -0.794017D-02 -0.267533D-01  0.000000D+00 -0.141980D+00 -0.731601D+00
     14  0.000000D+00  0.000000D+00 -0.720903D-02  0.000000D+00  0.000000D+00
     15 -0.246080D-01 -0.944274D-01  0.000000D+00 -0.238582D-01 -0.996401D-01
               11            12            13            14            15 
     11  0.478510D-02
     12  0.000000D+00  0.204290D+00
     13  0.000000D+00 -0.631167D-01  0.758800D+00
     14 -0.723544D-02  0.000000D+00  0.000000D+00  0.670555D-02
     15  0.000000D+00 -0.115827D+00  0.209735D+00  0.000000D+00  0.162748D+00
 Force constants in internal coordinates: 
                1             2             3             4             5 
      1  0.512511D+00
      2 -0.105309D-01  0.282104D+00
      3  0.379894D-02  0.432868D-02  0.140573D+00
      4 -0.358253D-02  0.563072D-02  0.157558D+00  0.822930D+00
      5  0.993001D-02  0.650792D-01  0.308743D-02  0.458278D-02  0.218312D+00
      6  0.521671D-02  0.623484D-01  0.457893D-01  0.216876D-01  0.327554D-01
      7 -0.149849D-02  0.392374D-01  0.381256D-01  0.892205D-01  0.212747D-01
      8  0.000000D+00  0.000000D+00  0.000000D+00  0.000000D+00  0.000000D+00
      9  0.000000D+00  0.000000D+00  0.000000D+00  0.000000D+00  0.000000D+00
                6             7             8             9 
      6  0.298363D+00
      7  0.943786D-01  0.498684D+00
      8  0.000000D+00  0.000000D+00 -0.707270D-02
      9  0.000000D+00  0.000000D+00 -0.391058D-02  0.431442D-01
 Leave Link  716 at Mon Feb 21 20:24:32 2022, MaxMem= 16106127360 cpu:               1.2 elap:               0.1
 (Enter /sw/contrib/gaussian/g16/B01/g16/l103.exe)

 GradGradGradGradGradGradGradGradGradGradGradGradGradGradGradGradGradGrad
 Berny optimization.
 Search for a local minimum.
 Step number   1 out of a maximum of    2
 All quantities printed in internal units (Hartrees-Bohrs-Radians)
 Second derivative matrix not updated -- analytic derivatives used.
 The second derivative matrix:
                          r1        r2        r3        r4        a1
           r1           0.51251
           r2          -0.01053   0.28210
           r3           0.00380   0.00433   0.14057
           r4          -0.00358   0.00563   0.15756   0.82293
           a1           0.00993   0.06508   0.00309   0.00458   0.21831
           a2           0.00522   0.06235   0.04579   0.02169   0.03276
           a3          -0.00150   0.03924   0.03813   0.08922   0.02127
           d1          -0.00000   0.00000  -0.00000  -0.00000   0.00000
           d2           0.00000   0.00000  -0.00000  -0.00000   0.00000
                          a2        a3        d1        d2
           a2           0.29836
           a3           0.09438   0.49868
           d1           0.00000   0.00000  -0.00707
           d2           0.00000   0.00000  -0.00391   0.04314
 ITU=  0
     Eigenvalues ---   -0.00738   0.04345   0.09733   0.17685   0.23586
     Eigenvalues ---    0.33264   0.51326   0.52999   0.88754
 Eigenvalue     1 is  -7.38D-03 should be greater than     0.000000 Eigenvector:
                          d1        d2        r3        a2        a3
   1                    0.99702   0.07718   0.00000  -0.00000  -0.00000
                          a1        r4        r2        r1
   1                    0.00000  -0.00000  -0.00000  -0.00000
 Angle between quadratic step and forces=  51.38 degrees.
 Linear search not attempted -- first point.
 Variable       Old X    -DE/DX   Delta X   Delta X   Delta X     New X
                                 (Linear)    (Quad)   (Total)
    r1        1.83110   0.00016   0.00000   0.00002   0.00002   1.83112
    r2        2.74940  -0.00010   0.00000  -0.00098  -0.00098   2.74842
    r3        2.71262   0.00558   0.00000   0.03780   0.03780   2.75042
    r4        2.21236   0.00723   0.00000   0.00156   0.00156   2.21392
    a1        1.70335  -0.00001   0.00000  -0.00038  -0.00038   1.70298
    a2        1.78543   0.00186   0.00000   0.00061   0.00061   1.78604
    a3        1.90362   0.00150   0.00000  -0.00019  -0.00019   1.90344
    d1        3.14159  -0.00000   0.00000  -0.00000   0.00000   3.14159
    d2        3.14159  -0.00000   0.00000  -0.00000   0.00000   3.14159
         Item               Value     Threshold  Converged?
 Maximum Force            0.007231     0.000450     NO 
 RMS     Force            0.003146     0.000300     NO 
 Maximum Displacement     0.037803     0.001800     NO 
 RMS     Displacement     0.012618     0.001200     NO 
 Predicted change in Energy=-1.115072D-04
                       ----------------------------
                       ! Non-Optimized Parameters !
                       ! (Angstroms and Degrees)  !
 ----------------------                            ----------------------
 !      Name          Value   Derivative information (Atomic Units)     !
 ------------------------------------------------------------------------
 !       r1          0.969    -DE/DX =    0.0002                        !
 !       r2          1.4544   -DE/DX =   -0.0001                        !
 !       r3          1.4555   -DE/DX =    0.0056                        !
 !       r4          1.1716   -DE/DX =    0.0072                        !
 !       a1         97.5734   -DE/DX =    0.0                           !
 !       a2        102.3323   -DE/DX =    0.0019                        !
 !       a3        109.0589   -DE/DX =    0.0015                        !
 !       d1        180.0      -DE/DX =    0.0                           !
 !       d2        180.0      -DE/DX =    0.0                           !
 ------------------------------------------------------------------------
 GradGradGradGradGradGradGradGradGradGradGradGradGradGradGradGradGradGrad

 Leave Link  103 at Mon Feb 21 20:24:32 2022, MaxMem= 16106127360 cpu:               0.5 elap:               0.0
 (Enter /sw/contrib/gaussian/g16/B01/g16/l9999.exe)

 ----------------------------------------------------------------------

 Electric dipole moment (input orientation):
 (Debye = 10**-18 statcoulomb cm , SI units = C m)
                  (au)            (Debye)         (10**-30 SI)
   Tot        0.635567D+00      0.161545D+01      0.538856D+01
   x         -0.181338D+00     -0.460916D+00     -0.153745D+01
   y          0.000000D+00      0.000000D+00      0.000000D+00
   z         -0.609148D+00     -0.154830D+01     -0.516457D+01

 Dipole polarizability, Alpha (input orientation).
 (esu units = cm**3 , SI units = C**2 m**2 J**-1)
 Alpha(0;0):
               (au)            (10**-24 esu)      (10**-40 SI)
   iso        0.272153D+02      0.403290D+01      0.448720D+01
   aniso      0.217390D+02      0.322138D+01      0.358427D+01
   xx         0.321013D+02      0.475692D+01      0.529278D+01
   yx         0.000000D+00      0.000000D+00      0.000000D+00
   yy         0.178499D+02      0.264508D+01      0.294304D+01
   zx         0.957612D+01      0.141904D+01      0.157889D+01
   zy         0.000000D+00      0.000000D+00      0.000000D+00
   zz         0.316949D+02      0.469670D+01      0.522578D+01

 ----------------------------------------------------------------------

 Dipole orientation:
     1          0.00000000          0.00000000         -0.00000000
     8         -0.52244453          0.00000000         -1.75498523
     8          1.98587277          0.00000000         -2.88083572
     7          1.42766653          0.00000000         -5.53539535
     8          3.32512326          0.00000000         -6.67301610

 Electric dipole moment (dipole orientation):
 (Debye = 10**-18 statcoulomb cm , SI units = C m)
                  (au)            (Debye)         (10**-30 SI)
   Tot        0.635567D+00      0.161545D+01      0.538856D+01
   x          0.000000D+00      0.000000D+00      0.000000D+00
   y          0.000000D+00      0.000000D+00      0.000000D+00
   z          0.635567D+00      0.161545D+01      0.538856D+01

 Dipole polarizability, Alpha (dipole orientation).
 (esu units = cm**3 , SI units = C**2 m**2 J**-1)
 Alpha(0;0):
               (au)            (10**-24 esu)      (10**-40 SI)
   iso        0.272153D+02      0.403290D+01      0.448720D+01
   aniso      0.217390D+02      0.322138D+01      0.358427D+01
   xx         0.268309D+02      0.397592D+01      0.442381D+01
   yx         0.000000D+00      0.000000D+00      0.000000D+00
   yy         0.178499D+02      0.264508D+01      0.294304D+01
   zx        -0.812814D+01     -0.120447D+01     -0.134015D+01
   zy         0.000000D+00      0.000000D+00      0.000000D+00
   zz         0.369653D+02      0.547769D+01      0.609475D+01

 ----------------------------------------------------------------------
 1\1\GINC-N2124\Freq\RMP2-FC\Aug-CC-pVTZ\H1N1O3\CGAVINH\21-Feb-2022\1\\
 #p freq mp2/aug-cc-pvtz density=current\\title\\0,1\H\O,1,r1\O,2,r2,1,
 a1\N,3,r3,2,a2,1,d1,0\O,4,r4,3,a3,2,d2,0\\r1=0.96897556\r2=1.45491931\
 r3=1.43545413\r4=1.17072885\a1=97.59494903\a2=102.29752444\a3=109.0695
 5123\d1=180.\d2=180.\\Version=ES64L-G16RevB.01\State=1-A'\HF=-279.5037
 899\MP2=-280.4466176\RMSD=3.494e-09\RMSF=2.771e-03\ZeroPoint=0.0220627
 \Thermal=0.0261434\Dipole=-0.1813383,0.,-0.609148\DipoleDeriv=0.268356
 2,0.,0.0504661,0.,0.3562353,0.,0.0820694,0.,0.2753283,-0.3241555,0.,-0
 .2084883,0.,-0.3117334,0.,-0.1095036,0.,-0.213964,-0.0304021,0.,0.1588
 942,0.,-0.0727309,0.,-0.7609858,0.,-1.3420932,0.8662498,0.,0.8718032,0
 .,0.0591811,0.,0.9317733,0.,1.661159,-0.7800483,0.,-0.8726751,0.,-0.03
 09522,0.,-0.1433533,0.,-0.3804302\Polar=32.1012732,0.,17.8498533,9.576
 1235,0.,31.6948832\Quadrupole=-1.5238483,-0.6765331,2.2003814,0.,2.055
 4966,0.\PG=CS [SG(H1N1O3)]\NImag=1\\0.06502455,0.,-0.00223356,0.005421
 29,0.,0.51251088,-0.03638657,0.,-0.01658791,0.27406228,0.,0.00291673,0
 .,0.,0.00255070,0.04870887,0.,-0.50844197,0.03428576,0.,0.59721550,-0.
 01765877,0.,0.01284417,-0.21939077,0.,-0.01906846,0.34488993,0.,0.0008
 8863,0.,0.,-0.00699926,0.,0.,0.00309043,-0.05334157,0.,-0.00039514,-0.
 01894604,0.,-0.07958903,0.03836001,0.,0.20251083,-0.00985779,0.,-0.004
 97998,-0.01896157,0.,-0.05598599,-0.08108708,0.,0.17590795,0.84150788,
 0.,-0.00260235,0.,0.,-0.00517655,0.,0.,0.01022924,0.,0.,0.00478510,0.0
 0491955,0.,-0.00521886,0.01120737,0.,0.01542355,0.06229166,0.,-0.09866
 845,-0.01530188,0.,0.20429031,-0.00112143,0.,0.00330243,0.00067662,0.,
 -0.00794017,-0.02675333,0.,-0.14198034,-0.73160144,0.,-0.06311670,0.75
 879958,0.,0.00103054,0.,0.,0.00670838,0.,0.,-0.00720903,0.,0.,-0.00723
 544,0.,0.,0.00670555,-0.00570814,0.,0.00154509,-0.00995917,0.,-0.02460
 805,-0.09442738,0.,-0.02385820,-0.09964010,0.,-0.11582655,0.20973479,0
 .,0.16274771\\-0.00000307,0.,0.00015789,-0.00018253,0.,0.00049603,0.00
 187487,0.,0.00480150,0.00514748,0.,-0.00300502,-0.00683675,0.,-0.00245
 040\\\@


 TELEVISION IS CALLED A MEDIUM BECAUSE IT ISN'T
 RARE, AND IT ISN'T WELL DONE.
 Job cpu time:       0 days  2 hours  1 minutes 58.6 seconds.
 Elapsed time:       0 days  0 hours  4 minutes 24.4 seconds.
 File lengths (MBytes):  RWF=   7239 Int=      0 D2E=      0 Chk=      8 Scr=      1
 Normal termination of Gaussian 16 at Mon Feb 21 20:24:33 2022.
