 Entering Gaussian System, Link 0=g16
 Input=hoono_r1_0p977732.gjf
 Output=hoono_r1_0p977732.log
 Initial command:
 /sw/contrib/gaussian/g16/B01/g16/l1.exe "/scr/Gau-29201.inp" -scrdir="/scr/"
 Entering Link 1 = /sw/contrib/gaussian/g16/B01/g16/l1.exe PID=     29202.
  
 Copyright (c) 1988-2017, Gaussian, Inc.  All Rights Reserved.
  
 This is part of the Gaussian(R) 16 program.  It is based on
 the Gaussian(R) 09 system (copyright 2009, Gaussian, Inc.),
 the Gaussian(R) 03 system (copyright 2003, Gaussian, Inc.),
 the Gaussian(R) 98 system (copyright 1998, Gaussian, Inc.),
 the Gaussian(R) 94 system (copyright 1995, Gaussian, Inc.),
 the Gaussian 92(TM) system (copyright 1992, Gaussian, Inc.),
 the Gaussian 90(TM) system (copyright 1990, Gaussian, Inc.),
 the Gaussian 88(TM) system (copyright 1988, Gaussian, Inc.),
 the Gaussian 86(TM) system (copyright 1986, Carnegie Mellon
 University), and the Gaussian 82(TM) system (copyright 1983,
 Carnegie Mellon University). Gaussian is a federally registered
 trademark of Gaussian, Inc.
  
 This software contains proprietary and confidential information,
 including trade secrets, belonging to Gaussian, Inc.
  
 This software is provided under written license and may be
 used, copied, transmitted, or stored only in accord with that
 written license.
  
 The following legend is applicable only to US Government
 contracts under FAR:
  
                    RESTRICTED RIGHTS LEGEND
  
 Use, reproduction and disclosure by the US Government is
 subject to restrictions as set forth in subparagraphs (a)
 and (c) of the Commercial Computer Software - Restricted
 Rights clause in FAR 52.227-19.
  
 Gaussian, Inc.
 340 Quinnipiac St., Bldg. 40, Wallingford CT 06492
  
  
 ---------------------------------------------------------------
 Warning -- This program may not be used in any manner that
 competes with the business of Gaussian, Inc. or will provide
 assistance to any competitor of Gaussian, Inc.  The licensee
 of this program is prohibited from giving any competitor of
 Gaussian, Inc. access to this program.  By using this program,
 the user acknowledges that Gaussian, Inc. is engaged in the
 business of creating and licensing software in the field of
 computational chemistry and represents and warrants to the
 licensee that it is not a competitor of Gaussian, Inc. and that
 it will not use this program in any manner prohibited above.
 ---------------------------------------------------------------
  

 Cite this work as:
 Gaussian 16, Revision B.01,
 M. J. Frisch, G. W. Trucks, H. B. Schlegel, G. E. Scuseria, 
 M. A. Robb, J. R. Cheeseman, G. Scalmani, V. Barone, 
 G. A. Petersson, H. Nakatsuji, X. Li, M. Caricato, A. V. Marenich, 
 J. Bloino, B. G. Janesko, R. Gomperts, B. Mennucci, H. P. Hratchian, 
 J. V. Ortiz, A. F. Izmaylov, J. L. Sonnenberg, D. Williams-Young, 
 F. Ding, F. Lipparini, F. Egidi, J. Goings, B. Peng, A. Petrone, 
 T. Henderson, D. Ranasinghe, V. G. Zakrzewski, J. Gao, N. Rega, 
 G. Zheng, W. Liang, M. Hada, M. Ehara, K. Toyota, R. Fukuda, 
 J. Hasegawa, M. Ishida, T. Nakajima, Y. Honda, O. Kitao, H. Nakai, 
 T. Vreven, K. Throssell, J. A. Montgomery, Jr., J. E. Peralta, 
 F. Ogliaro, M. J. Bearpark, J. J. Heyd, E. N. Brothers, K. N. Kudin, 
 V. N. Staroverov, T. A. Keith, R. Kobayashi, J. Normand, 
 K. Raghavachari, A. P. Rendell, J. C. Burant, S. S. Iyengar, 
 J. Tomasi, M. Cossi, J. M. Millam, M. Klene, C. Adamo, R. Cammi, 
 J. W. Ochterski, R. L. Martin, K. Morokuma, O. Farkas, 
 J. B. Foresman, and D. J. Fox, Gaussian, Inc., Wallingford CT, 2016.
 
 ******************************************
 Gaussian 16:  ES64L-G16RevB.01 20-Dec-2017
                 6-Mar-2022 
 ******************************************
 %nproc=28
 Will use up to   28 processors via shared memory.
 %mem=120GB
 %chk=hoono_r1_0p977732.chk
 ---------------------------------------
 #p freq mp2/aug-cc-pvtz density=current
 ---------------------------------------
 1/10=4,30=1,38=1/1,3;
 2/12=2,17=6,18=5,40=1/2;
 3/5=16,6=1,7=10,11=9,25=1,30=1,71=2,140=1/1,2,3;
 4//1;
 5/5=2,38=5,98=1/2;
 8/6=3,8=1,10=1,19=11,30=-1/1;
 9/15=3,16=-3/6;
 11/6=1,8=1,15=11,17=12,24=-1,27=1,28=-2,29=300,32=6,42=3/1,2,10;
 10/6=2,21=1/2;
 8/6=4,8=1,10=1,19=11,30=-1/11,4;
 10/5=1,20=4/2;
 11/12=2,14=11,16=1,17=2,28=-2,42=3,76=2/2,10,12;
 6/7=2,8=2,9=2,10=2,22=-1/1;
 7/8=1,10=1,12=2,25=1,44=2/1,2,3,16;
 1/10=4,30=1/3;
 99//99;
 Leave Link    1 at Sun Mar  6 18:50:28 2022, MaxMem= 16106127360 cpu:               2.7 elap:               0.1
 (Enter /sw/contrib/gaussian/g16/B01/g16/l101.exe)
 -----
 title
 -----
 Symbolic Z-matrix:
 Charge =  0 Multiplicity = 1
 H
 O                    1    r1
 O                    2    r2       1    a1
 N                    3    r3       2    a2       1    d1       0
 O                    4    r4       3    a3       2    d2       0
       Variables:
  r1                    0.97773                  
  r2                    1.42674                  
  r3                    1.38111                  
  r4                    1.19479                  
  a1                  100.63551                  
  a2                  113.13777                  
  a3                  114.33392                  
  d1                    0.                       
  d2                    0.                       
 
 ITRead=  0  0  0  0  0
 MicOpt= -1 -1 -1 -1 -1
 NAtoms=      5 NQM=        5 NQMF=       0 NMMI=      0 NMMIF=      0
                NMic=       0 NMicF=      0.
                    Isotopes and Nuclear Properties:
 (Nuclear quadrupole moments (NQMom) in fm**2, nuclear magnetic moments (NMagM)
  in nuclear magnetons)

  Atom         1           2           3           4           5
 IAtWgt=           1          16          16          14          16
 AtmWgt=   1.0078250  15.9949146  15.9949146  14.0030740  15.9949146
 NucSpn=           1           0           0           2           0
 AtZEff=  -0.0000000  -0.0000000  -0.0000000  -0.0000000  -0.0000000
 NQMom=    0.0000000   0.0000000   0.0000000   2.0440000   0.0000000
 NMagM=    2.7928460   0.0000000   0.0000000   0.4037610   0.0000000
 AtZNuc=   1.0000000   8.0000000   8.0000000   7.0000000   8.0000000
 Leave Link  101 at Sun Mar  6 18:50:29 2022, MaxMem= 16106127360 cpu:               3.2 elap:               0.1
 (Enter /sw/contrib/gaussian/g16/B01/g16/l103.exe)

 GradGradGradGradGradGradGradGradGradGradGradGradGradGradGradGradGradGrad
 Berny optimization.
 Initialization pass.
                       ----------------------------
                       !    Initial Parameters    !
                       ! (Angstroms and Degrees)  !
 ----------------------                            ----------------------
 !      Name          Value   Derivative information (Atomic Units)     !
 ------------------------------------------------------------------------
 !       r1          0.9777   calculate D2E/DX2 analytically            !
 !       r2          1.4267   calculate D2E/DX2 analytically            !
 !       r3          1.3811   calculate D2E/DX2 analytically            !
 !       r4          1.1948   calculate D2E/DX2 analytically            !
 !       a1        100.6355   calculate D2E/DX2 analytically            !
 !       a2        113.1378   calculate D2E/DX2 analytically            !
 !       a3        114.3339   calculate D2E/DX2 analytically            !
 !       d1          0.0      calculate D2E/DX2 analytically            !
 !       d2          0.0      calculate D2E/DX2 analytically            !
 ------------------------------------------------------------------------
 Trust Radius=3.00D-01 FncErr=1.00D-07 GrdErr=1.00D-07 EigMax=2.50D+02 EigMin=1.00D-04
 Number of steps in this run=      2 maximum allowed number of steps=      2.
 GradGradGradGradGradGradGradGradGradGradGradGradGradGradGradGradGradGrad

 Leave Link  103 at Sun Mar  6 18:50:29 2022, MaxMem= 16106127360 cpu:               0.5 elap:               0.0
 (Enter /sw/contrib/gaussian/g16/B01/g16/l202.exe)
                          Input orientation:                          
 ---------------------------------------------------------------------
 Center     Atomic      Atomic             Coordinates (Angstroms)
 Number     Number       Type             X           Y           Z
 ---------------------------------------------------------------------
      1          1           0        0.000000    0.000000    0.000000
      2          8           0        0.000000    0.000000    0.977732
      3          8           0        1.402227    0.000000    1.241051
      4          7           0        2.169996    0.000000    0.093014
      5          8           0        1.538751    0.000000   -0.921407
 ---------------------------------------------------------------------
                    Distance matrix (angstroms):
                    1          2          3          4          5
     1  H    0.000000
     2  O    0.977732   0.000000
     3  O    1.872551   1.426737   0.000000
     4  N    2.171988   2.343418   1.381108   0.000000
     5  O    1.793529   2.444276   2.166763   1.194788   0.000000
 Stoichiometry    HNO3
 Framework group  CS[SG(HNO3)]
 Deg. of freedom     7
 Full point group                 CS      NOp   2
 Largest Abelian subgroup         CS      NOp   2
 Largest concise Abelian subgroup C1      NOp   1
                         Standard orientation:                         
 ---------------------------------------------------------------------
 Center     Atomic      Atomic             Coordinates (Angstroms)
 Number     Number       Type             X           Y           Z
 ---------------------------------------------------------------------
      1          1           0        1.110713   -0.590814    0.000000
      2          8           0        1.315799    0.365167   -0.000000
      3          8           0       -0.000000    0.916755   -0.000000
      4          7           0       -0.991498   -0.044698    0.000000
      5          8           0       -0.587078   -1.168959    0.000000
 ---------------------------------------------------------------------
 Rotational constants (GHZ):          21.3613661           8.1064343           5.8763976
 Leave Link  202 at Sun Mar  6 18:50:29 2022, MaxMem= 16106127360 cpu:               0.6 elap:               0.1
 (Enter /sw/contrib/gaussian/g16/B01/g16/l301.exe)
 Standard basis: Aug-CC-pVTZ (5D, 7F)
 Ernie: Thresh=  0.10000D-02 Tol=  0.10000D-05 Strict=F.
 Ernie:  12 primitive shells out of 131 were deleted.
 There are   166 symmetry adapted cartesian basis functions of A'  symmetry.
 There are    79 symmetry adapted cartesian basis functions of A"  symmetry.
 There are   136 symmetry adapted basis functions of A'  symmetry.
 There are    71 symmetry adapted basis functions of A"  symmetry.
   207 basis functions,   315 primitive gaussians,   245 cartesian basis functions
    16 alpha electrons       16 beta electrons
       nuclear repulsion energy       122.7851293020 Hartrees.
 IExCor=    0 DFT=F Ex=HF Corr=None ExCW=0 ScaHFX=  1.000000
 ScaDFX=  1.000000  1.000000  1.000000  1.000000 ScalE2=  1.000000  1.000000
 IRadAn=      5 IRanWt=     -1 IRanGd=            0 ICorTp=0 IEmpDi=  4
 NAtoms=    5 NActive=    5 NUniq=    5 SFac= 1.00D+00 NAtFMM=   60 NAOKFM=F Big=F
 Integral buffers will be    131072 words long.
 Raffenetti 1 integral format.
 Two-electron integral symmetry is turned on.
 Leave Link  301 at Sun Mar  6 18:50:29 2022, MaxMem= 16106127360 cpu:               1.4 elap:               0.1
 (Enter /sw/contrib/gaussian/g16/B01/g16/l302.exe)
 NPDir=0 NMtPBC=     1 NCelOv=     1 NCel=       1 NClECP=     1 NCelD=      1
         NCelK=      1 NCelE2=     1 NClLst=     1 CellRange=     0.0.
 One-electron integrals computed using PRISM.
 One-electron integral symmetry used in STVInt
 NBasis=   207 RedAO= T EigKep=  1.31D-04  NBF=   136    71
 NBsUse=   207 1.00D-06 EigRej= -1.00D+00 NBFU=   136    71
 Leave Link  302 at Sun Mar  6 18:50:29 2022, MaxMem= 16106127360 cpu:               4.7 elap:               0.2
 (Enter /sw/contrib/gaussian/g16/B01/g16/l303.exe)
 DipDrv:  MaxL=1.
 Leave Link  303 at Sun Mar  6 18:50:29 2022, MaxMem= 16106127360 cpu:               1.4 elap:               0.1
 (Enter /sw/contrib/gaussian/g16/B01/g16/l401.exe)
 ExpMin= 2.53D-02 ExpMax= 1.53D+04 ExpMxC= 5.22D+02 IAcc=3 IRadAn=         5 AccDes= 0.00D+00
 Harris functional with IExCor=  205 and IRadAn=       5 diagonalized for initial guess.
 HarFok:  IExCor=  205 AccDes= 0.00D+00 IRadAn=         5 IDoV= 1 UseB2=F ITyADJ=14
 ICtDFT=  3500011 ScaDFX=  1.000000  1.000000  1.000000  1.000000
 FoFCou: FMM=F IPFlag=           0 FMFlag=      100000 FMFlg1=           0
         NFxFlg=           0 DoJE=T BraDBF=F KetDBF=T FulRan=T
         wScrn=  0.000000 ICntrl=       500 IOpCl=  0 I1Cent=   200000004 NGrid=           0
         NMat0=    1 NMatS0=      1 NMatT0=    0 NMatD0=    1 NMtDS0=    0 NMtDT0=    0
 Petite list used in FoFCou.
 Harris En= -279.644989228893    
 JPrj=0 DoOrth=F DoCkMO=F.
 Initial guess orbital symmetries:
       Occupied  (A') (A') (A') (A') (A') (A') (A') (A') (A') (A')
                 (A") (A') (A") (A') (A") (A')
       Virtual   (A") (A') (A') (A') (A') (A") (A') (A') (A') (A')
                 (A") (A') (A") (A') (A') (A") (A') (A') (A") (A')
                 (A') (A') (A') (A') (A") (A') (A') (A') (A") (A')
                 (A') (A") (A") (A') (A') (A") (A') (A") (A') (A")
                 (A') (A") (A') (A") (A') (A') (A') (A") (A') (A')
                 (A') (A") (A') (A") (A') (A") (A') (A') (A') (A")
                 (A') (A') (A") (A') (A') (A') (A") (A") (A') (A')
                 (A") (A') (A") (A") (A') (A') (A") (A') (A') (A')
                 (A") (A') (A') (A") (A') (A") (A') (A") (A') (A')
                 (A') (A") (A') (A") (A') (A') (A") (A') (A") (A')
                 (A") (A') (A') (A") (A") (A') (A') (A') (A") (A')
                 (A") (A') (A') (A') (A") (A') (A') (A') (A") (A')
                 (A") (A') (A') (A") (A") (A") (A") (A') (A') (A')
                 (A') (A') (A') (A") (A') (A") (A') (A") (A') (A')
                 (A") (A") (A') (A') (A') (A") (A') (A') (A') (A")
                 (A') (A') (A') (A") (A') (A") (A") (A') (A') (A")
                 (A') (A") (A") (A') (A") (A') (A') (A") (A") (A')
                 (A") (A") (A") (A') (A") (A') (A') (A') (A') (A")
                 (A') (A') (A') (A') (A') (A') (A') (A') (A') (A')
                 (A')
 The electronic state of the initial guess is 1-A'.
 Leave Link  401 at Sun Mar  6 18:50:29 2022, MaxMem= 16106127360 cpu:               7.1 elap:               0.3
 (Enter /sw/contrib/gaussian/g16/B01/g16/l502.exe)
 Keep R1 ints in memory in symmetry-blocked form, NReq=348887737.
 FoFCou: FMM=F IPFlag=           0 FMFlag=           0 FMFlg1=           0
         NFxFlg=           0 DoJE=F BraDBF=F KetDBF=F FulRan=T
         wScrn=  0.000000 ICntrl=       600 IOpCl=  0 I1Cent=           0 NGrid=           0
         NMat0=    1 NMatS0=  21528 NMatT0=    0 NMatD0=    1 NMtDS0=    0 NMtDT0=    0
 Petite list used in FoFCou.
 Closed shell SCF:
 Using DIIS extrapolation, IDIIS=  1040.
 NGot= 16106127360 LenX= 15988850015 LenY= 15988789549
 Requested convergence on RMS density matrix=1.00D-08 within 128 cycles.
 Requested convergence on MAX density matrix=1.00D-06.
 Requested convergence on             energy=1.00D-06.
 No special actions if energy rises.

 Cycle   1  Pass 1  IDiag  1:
 E= -279.364035714401    
 DIIS: error= 2.78D-02 at cycle   1 NSaved=   1.
 NSaved= 1 IEnMin= 1 EnMin= -279.364035714401     IErMin= 1 ErrMin= 2.78D-02
 ErrMax= 2.78D-02  0.00D+00 EMaxC= 1.00D-01 BMatC= 4.52D-01 BMatP= 4.52D-01
 IDIUse=3 WtCom= 7.22D-01 WtEn= 2.78D-01
 Coeff-Com:  0.100D+01
 Coeff-En:   0.100D+01
 Coeff:      0.100D+01
 Gap=     0.498 Goal=   None    Shift=    0.000
 GapD=    0.498 DampG=2.000 DampE=0.500 DampFc=1.0000 IDamp=-1.
 RMSDP=1.68D-03 MaxDP=8.78D-02              OVMax= 1.24D-01

 Cycle   2  Pass 1  IDiag  1:
 E= -279.446084197100     Delta-E=       -0.082048482699 Rises=F Damp=F
 DIIS: error= 1.95D-02 at cycle   2 NSaved=   2.
 NSaved= 2 IEnMin= 2 EnMin= -279.446084197100     IErMin= 2 ErrMin= 1.95D-02
 ErrMax= 1.95D-02  0.00D+00 EMaxC= 1.00D-01 BMatC= 8.69D-02 BMatP= 4.52D-01
 IDIUse=3 WtCom= 8.05D-01 WtEn= 1.95D-01
 Coeff-Com:  0.220D+00 0.780D+00
 Coeff-En:   0.819D-01 0.918D+00
 Coeff:      0.193D+00 0.807D+00
 Gap=     0.562 Goal=   None    Shift=    0.000
 RMSDP=9.70D-04 MaxDP=3.70D-02 DE=-8.20D-02 OVMax= 9.15D-02

 Cycle   3  Pass 1  IDiag  1:
 E= -279.484448120233     Delta-E=       -0.038363923133 Rises=F Damp=F
 DIIS: error= 1.11D-02 at cycle   3 NSaved=   3.
 NSaved= 3 IEnMin= 3 EnMin= -279.484448120233     IErMin= 3 ErrMin= 1.11D-02
 ErrMax= 1.11D-02  0.00D+00 EMaxC= 1.00D-01 BMatC= 3.09D-02 BMatP= 8.69D-02
 IDIUse=3 WtCom= 8.89D-01 WtEn= 1.11D-01
 Coeff-Com: -0.347D-01 0.363D+00 0.672D+00
 Coeff-En:   0.000D+00 0.215D+00 0.785D+00
 Coeff:     -0.308D-01 0.347D+00 0.684D+00
 Gap=     0.542 Goal=   None    Shift=    0.000
 RMSDP=4.11D-04 MaxDP=1.58D-02 DE=-3.84D-02 OVMax= 3.91D-02

 Cycle   4  Pass 1  IDiag  1:
 E= -279.505567015523     Delta-E=       -0.021118895290 Rises=F Damp=F
 DIIS: error= 1.62D-03 at cycle   4 NSaved=   4.
 NSaved= 4 IEnMin= 4 EnMin= -279.505567015523     IErMin= 4 ErrMin= 1.62D-03
 ErrMax= 1.62D-03  0.00D+00 EMaxC= 1.00D-01 BMatC= 6.05D-04 BMatP= 3.09D-02
 IDIUse=3 WtCom= 9.84D-01 WtEn= 1.62D-02
 Coeff-Com: -0.120D-01 0.472D-01 0.155D+00 0.809D+00
 Coeff-En:   0.000D+00 0.000D+00 0.000D+00 0.100D+01
 Coeff:     -0.118D-01 0.464D-01 0.153D+00 0.812D+00
 Gap=     0.528 Goal=   None    Shift=    0.000
 RMSDP=9.88D-05 MaxDP=2.30D-03 DE=-2.11D-02 OVMax= 1.18D-02

 Cycle   5  Pass 1  IDiag  1:
 E= -279.506379404290     Delta-E=       -0.000812388767 Rises=F Damp=F
 DIIS: error= 1.10D-03 at cycle   5 NSaved=   5.
 NSaved= 5 IEnMin= 5 EnMin= -279.506379404290     IErMin= 5 ErrMin= 1.10D-03
 ErrMax= 1.10D-03  0.00D+00 EMaxC= 1.00D-01 BMatC= 1.02D-04 BMatP= 6.05D-04
 IDIUse=3 WtCom= 9.89D-01 WtEn= 1.10D-02
 Coeff-Com:  0.539D-02-0.657D-01-0.111D+00 0.571D-01 0.111D+01
 Coeff-En:   0.000D+00 0.000D+00 0.000D+00 0.000D+00 0.100D+01
 Coeff:      0.533D-02-0.649D-01-0.110D+00 0.565D-01 0.111D+01
 Gap=     0.532 Goal=   None    Shift=    0.000
 RMSDP=7.99D-05 MaxDP=2.11D-03 DE=-8.12D-04 OVMax= 1.29D-02

 Cycle   6  Pass 1  IDiag  1:
 E= -279.506741410963     Delta-E=       -0.000362006673 Rises=F Damp=F
 DIIS: error= 3.30D-04 at cycle   6 NSaved=   6.
 NSaved= 6 IEnMin= 6 EnMin= -279.506741410963     IErMin= 6 ErrMin= 3.30D-04
 ErrMax= 3.30D-04  0.00D+00 EMaxC= 1.00D-01 BMatC= 2.39D-05 BMatP= 1.02D-04
 IDIUse=3 WtCom= 9.97D-01 WtEn= 3.30D-03
 Coeff-Com:  0.187D-02-0.692D-02-0.176D-01-0.181D+00 0.958D-02 0.119D+01
 Coeff-En:   0.000D+00 0.000D+00 0.000D+00 0.000D+00 0.000D+00 0.100D+01
 Coeff:      0.186D-02-0.689D-02-0.176D-01-0.181D+00 0.955D-02 0.119D+01
 Gap=     0.532 Goal=   None    Shift=    0.000
 RMSDP=4.65D-05 MaxDP=1.07D-03 DE=-3.62D-04 OVMax= 6.07D-03

 Cycle   7  Pass 1  IDiag  1:
 E= -279.506826755956     Delta-E=       -0.000085344993 Rises=F Damp=F
 DIIS: error= 1.30D-04 at cycle   7 NSaved=   7.
 NSaved= 7 IEnMin= 7 EnMin= -279.506826755956     IErMin= 7 ErrMin= 1.30D-04
 ErrMax= 1.30D-04  0.00D+00 EMaxC= 1.00D-01 BMatC= 3.56D-06 BMatP= 2.39D-05
 IDIUse=3 WtCom= 9.99D-01 WtEn= 1.30D-03
 Coeff-Com: -0.108D-02 0.113D-01 0.249D-01 0.159D-01-0.181D+00-0.146D+00
 Coeff-Com:  0.128D+01
 Coeff-En:   0.000D+00 0.000D+00 0.000D+00 0.000D+00 0.000D+00 0.000D+00
 Coeff-En:   0.100D+01
 Coeff:     -0.108D-02 0.113D-01 0.248D-01 0.159D-01-0.181D+00-0.146D+00
 Coeff:      0.128D+01
 Gap=     0.533 Goal=   None    Shift=    0.000
 RMSDP=1.74D-05 MaxDP=5.08D-04 DE=-8.53D-05 OVMax= 2.31D-03

 Cycle   8  Pass 1  IDiag  1:
 E= -279.506838646042     Delta-E=       -0.000011890086 Rises=F Damp=F
 DIIS: error= 4.74D-05 at cycle   8 NSaved=   8.
 NSaved= 8 IEnMin= 8 EnMin= -279.506838646042     IErMin= 8 ErrMin= 4.74D-05
 ErrMax= 4.74D-05  0.00D+00 EMaxC= 1.00D-01 BMatC= 6.02D-07 BMatP= 3.56D-06
 IDIUse=1 WtCom= 1.00D+00 WtEn= 0.00D+00
 Coeff-Com: -0.560D-03 0.407D-02 0.973D-02 0.249D-01-0.569D-01-0.194D+00
 Coeff-Com:  0.355D+00 0.857D+00
 Coeff:     -0.560D-03 0.407D-02 0.973D-02 0.249D-01-0.569D-01-0.194D+00
 Coeff:      0.355D+00 0.857D+00
 Gap=     0.533 Goal=   None    Shift=    0.000
 RMSDP=5.46D-06 MaxDP=1.54D-04 DE=-1.19D-05 OVMax= 6.50D-04

 Cycle   9  Pass 1  IDiag  1:
 E= -279.506840026493     Delta-E=       -0.000001380451 Rises=F Damp=F
 DIIS: error= 2.45D-05 at cycle   9 NSaved=   9.
 NSaved= 9 IEnMin= 9 EnMin= -279.506840026493     IErMin= 9 ErrMin= 2.45D-05
 ErrMax= 2.45D-05  0.00D+00 EMaxC= 1.00D-01 BMatC= 1.15D-07 BMatP= 6.02D-07
 IDIUse=1 WtCom= 1.00D+00 WtEn= 0.00D+00
 Coeff-Com:  0.239D-03-0.252D-02-0.529D-02-0.560D-02 0.466D-01 0.487D-01
 Coeff-Com: -0.337D+00 0.269D-01 0.123D+01
 Coeff:      0.239D-03-0.252D-02-0.529D-02-0.560D-02 0.466D-01 0.487D-01
 Coeff:     -0.337D+00 0.269D-01 0.123D+01
 Gap=     0.533 Goal=   None    Shift=    0.000
 RMSDP=2.45D-06 MaxDP=6.60D-05 DE=-1.38D-06 OVMax= 2.57D-04

 Cycle  10  Pass 1  IDiag  1:
 E= -279.506840286856     Delta-E=       -0.000000260363 Rises=F Damp=F
 DIIS: error= 5.72D-06 at cycle  10 NSaved=  10.
 NSaved=10 IEnMin=10 EnMin= -279.506840286856     IErMin=10 ErrMin= 5.72D-06
 ErrMax= 5.72D-06  0.00D+00 EMaxC= 1.00D-01 BMatC= 8.19D-09 BMatP= 1.15D-07
 IDIUse=1 WtCom= 1.00D+00 WtEn= 0.00D+00
 Coeff-Com: -0.381D-04 0.489D-03 0.119D-02-0.182D-02-0.110D-01 0.526D-02
 Coeff-Com:  0.725D-01-0.517D-01-0.440D+00 0.142D+01
 Coeff:     -0.381D-04 0.489D-03 0.119D-02-0.182D-02-0.110D-01 0.526D-02
 Coeff:      0.725D-01-0.517D-01-0.440D+00 0.142D+01
 Gap=     0.533 Goal=   None    Shift=    0.000
 RMSDP=7.01D-07 MaxDP=2.54D-05 DE=-2.60D-07 OVMax= 7.52D-05

 Cycle  11  Pass 1  IDiag  1:
 E= -279.506840311496     Delta-E=       -0.000000024640 Rises=F Damp=F
 DIIS: error= 2.22D-06 at cycle  11 NSaved=  11.
 NSaved=11 IEnMin=11 EnMin= -279.506840311496     IErMin=11 ErrMin= 2.22D-06
 ErrMax= 2.22D-06  0.00D+00 EMaxC= 1.00D-01 BMatC= 8.26D-10 BMatP= 8.19D-09
 IDIUse=1 WtCom= 1.00D+00 WtEn= 0.00D+00
 Coeff-Com: -0.159D-04 0.159D-03 0.332D-03 0.892D-03-0.206D-02-0.718D-02
 Coeff-Com:  0.182D-01 0.197D-01-0.460D-01-0.332D+00 0.135D+01
 Coeff:     -0.159D-04 0.159D-03 0.332D-03 0.892D-03-0.206D-02-0.718D-02
 Coeff:      0.182D-01 0.197D-01-0.460D-01-0.332D+00 0.135D+01
 Gap=     0.533 Goal=   None    Shift=    0.000
 RMSDP=2.42D-07 MaxDP=8.99D-06 DE=-2.46D-08 OVMax= 2.84D-05

 Cycle  12  Pass 1  IDiag  1:
 E= -279.506840314459     Delta-E=       -0.000000002962 Rises=F Damp=F
 DIIS: error= 7.11D-07 at cycle  12 NSaved=  12.
 NSaved=12 IEnMin=12 EnMin= -279.506840314459     IErMin=12 ErrMin= 7.11D-07
 ErrMax= 7.11D-07  0.00D+00 EMaxC= 1.00D-01 BMatC= 8.57D-11 BMatP= 8.26D-10
 IDIUse=1 WtCom= 1.00D+00 WtEn= 0.00D+00
 Coeff-Com:  0.257D-05-0.446D-04-0.970D-04 0.127D-03 0.113D-02-0.733D-03
 Coeff-Com: -0.725D-02 0.621D-02 0.410D-01-0.113D+00-0.180D+00 0.125D+01
 Coeff:      0.257D-05-0.446D-04-0.970D-04 0.127D-03 0.113D-02-0.733D-03
 Coeff:     -0.725D-02 0.621D-02 0.410D-01-0.113D+00-0.180D+00 0.125D+01
 Gap=     0.533 Goal=   None    Shift=    0.000
 RMSDP=8.36D-08 MaxDP=2.73D-06 DE=-2.96D-09 OVMax= 9.73D-06

 Cycle  13  Pass 1  IDiag  1:
 E= -279.506840314757     Delta-E=       -0.000000000298 Rises=F Damp=F
 DIIS: error= 1.58D-07 at cycle  13 NSaved=  13.
 NSaved=13 IEnMin=13 EnMin= -279.506840314757     IErMin=13 ErrMin= 1.58D-07
 ErrMax= 1.58D-07  0.00D+00 EMaxC= 1.00D-01 BMatC= 7.11D-12 BMatP= 8.57D-11
 IDIUse=1 WtCom= 1.00D+00 WtEn= 0.00D+00
 Coeff-Com:  0.128D-05-0.120D-04-0.174D-04-0.120D-03 0.444D-04 0.923D-03
 Coeff-Com: -0.104D-02-0.247D-02-0.207D-02 0.545D-01-0.128D+00-0.147D+00
 Coeff-Com:  0.123D+01
 Coeff:      0.128D-05-0.120D-04-0.174D-04-0.120D-03 0.444D-04 0.923D-03
 Coeff:     -0.104D-02-0.247D-02-0.207D-02 0.545D-01-0.128D+00-0.147D+00
 Coeff:      0.123D+01
 Gap=     0.533 Goal=   None    Shift=    0.000
 RMSDP=2.21D-08 MaxDP=6.55D-07 DE=-2.98D-10 OVMax= 1.99D-06

 Cycle  14  Pass 1  IDiag  1:
 E= -279.506840314778     Delta-E=       -0.000000000021 Rises=F Damp=F
 DIIS: error= 4.05D-08 at cycle  14 NSaved=  14.
 NSaved=14 IEnMin=14 EnMin= -279.506840314778     IErMin=14 ErrMin= 4.05D-08
 ErrMax= 4.05D-08  0.00D+00 EMaxC= 1.00D-01 BMatC= 4.78D-13 BMatP= 7.11D-12
 IDIUse=1 WtCom= 1.00D+00 WtEn= 0.00D+00
 Coeff-Com: -0.295D-06 0.438D-05 0.881D-05-0.387D-05-0.112D-03 0.610D-04
 Coeff-Com:  0.634D-03-0.304D-03-0.358D-02 0.808D-02 0.163D-01-0.891D-01
 Coeff-Com: -0.204D-01 0.109D+01
 Coeff:     -0.295D-06 0.438D-05 0.881D-05-0.387D-05-0.112D-03 0.610D-04
 Coeff:      0.634D-03-0.304D-03-0.358D-02 0.808D-02 0.163D-01-0.891D-01
 Coeff:     -0.204D-01 0.109D+01
 Gap=     0.533 Goal=   None    Shift=    0.000
 RMSDP=4.32D-09 MaxDP=1.07D-07 DE=-2.11D-11 OVMax= 4.50D-07

 SCF Done:  E(RHF) =  -279.506840315     A.U. after   14 cycles
            NFock= 14  Conv=0.43D-08     -V/T= 2.0022
 KE= 2.788985709647D+02 PE=-9.064411929261D+02 EE= 2.252506523446D+02
 Leave Link  502 at Sun Mar  6 18:50:33 2022, MaxMem= 16106127360 cpu:              55.4 elap:               3.6
 (Enter /sw/contrib/gaussian/g16/B01/g16/l801.exe)
 ExpMin= 2.53D-02 ExpMax= 1.53D+04 ExpMxC= 5.22D+02 IAcc=3 IRadAn=         5 AccDes= 0.00D+00
 HarFok:  IExCor=  205 AccDes= 0.00D+00 IRadAn=         5 IDoV=-2 UseB2=F ITyADJ=14
 ICtDFT= 12500011 ScaDFX=  1.000000  1.000000  1.000000  1.000000
 DSYEVD-2 returned Info=          93 IAlg= 4 N=    46 NDim=    46 NE2=   350130240 trying  DSYEV.
 Largest valence mixing into a core orbital is  2.07D-04
 Largest core mixing into a valence orbital is  3.09D-05
 Range of M.O.s used for correlation:     5   207
 NBasis=   207 NAE=    16 NBE=    16 NFC=     4 NFV=     0
 NROrb=    203 NOA=    12 NOB=    12 NVA=   191 NVB=   191

 **** Warning!!: The largest alpha MO coefficient is  0.16264108D+02

 Leave Link  801 at Sun Mar  6 18:50:33 2022, MaxMem= 16106127360 cpu:               3.4 elap:               0.2
 (Enter /sw/contrib/gaussian/g16/B01/g16/l906.exe)
 Frozen-core derivative calculation, NFC=   4 NFV=   0.
 FulOut=F Deriv=T AODrv=T NAtomX=     5
   MMem=           0  MDisk=          12 MDiskD=          12
  W3Min=      811440 MinDsk=     2425030 NBas6D=         245
 NBas2D=       30762    NTT=       30135    LW2=     7400000
    MDV= 16105571560 MDiskM=      328644 NBas2p=       30759
 Disk-based method using ON**2 memory for 12 occupieds at a time.
 Permanent disk used for amplitudes=    11516536 words.
 Estimated scratch disk usage=   321863743 words.
 IMap=   1   2   3   4   5   6   7   8   9  10  11  12  13  14  15  16
 Actual    scratch disk usage=   310892607 words.
 JobTyp=1 Pass  1:  I=   5 to  16 NPSUse= 28 ParTrn=T ParDer=T DoDerP=T.
 (rs|ai) integrals will be sorted in core.
 Spin components of T(2) and E(2):
     alpha-alpha T2 =       0.3474688081D-01 E2=     -0.1244740759D+00
     alpha-beta  T2 =       0.1842718686D+00 E2=     -0.6994049619D+00
     beta-beta   T2 =       0.3474688081D-01 E2=     -0.1244740759D+00
 The integrals were generated   1 times.
 ANorm=    0.1119716763D+01
 E2 =    -0.9483531136D+00 EUMP2 =    -0.28045519342842D+03
 Leave Link  906 at Sun Mar  6 18:52:10 2022, MaxMem= 16106127360 cpu:            2709.1 elap:              96.9
 (Enter /sw/contrib/gaussian/g16/B01/g16/l1101.exe)
 Using compressed Sx but separate Hx and Fx, NAtomX=     5.
 Will process      6 centers per pass.
 Leave Link 1101 at Sun Mar  6 18:52:10 2022, MaxMem= 16106127360 cpu:               5.2 elap:               0.2
 (Enter /sw/contrib/gaussian/g16/B01/g16/l1102.exe)
 Leave Link 1102 at Sun Mar  6 18:52:10 2022, MaxMem= 16106127360 cpu:               0.5 elap:               0.0
 (Enter /sw/contrib/gaussian/g16/B01/g16/l1110.exe)
 Forming Gx(P) for the SCF density, NAtomX=     5.
 Integral derivatives from FoFJK, PRISM(SPDF).
 Do as many integral derivatives as possible in FoFJK.
 G2DrvN: MDV=   16106126844.
 G2DrvN: will do     6 centers at a time, making    1 passes.
 Calling FoFCou, ICntrl=  3107 FMM=F I1Cent=   0 AccDes= 0.00D+00.
 FoFJK:  IHMeth= 1 ICntrl=    3107 DoSepK=F KAlg= 0 I1Cent=           0 FoldK=F
 IRaf=         0 NMat=       1 IRICut=       1 DoRegI=T DoRafI=F ISym2E= 1 IDoP0=0 IntGTp=1.
 FoFCou: FMM=F IPFlag=           0 FMFlag=      100000 FMFlg1=           0
         NFxFlg=           0 DoJE=F BraDBF=F KetDBF=F FulRan=T
         wScrn=  0.000000 ICntrl=      3107 IOpCl=  0 I1Cent=           0 NGrid=           0
         NMat0=    1 NMatS0=      1 NMatT0=    0 NMatD0=    1 NMtDS0=    0 NMtDT0=    0
 Petite list used in FoFCou.
 End of G2Drv F.D. properties file   721 does not exist.
 End of G2Drv F.D. properties file   722 does not exist.
 End of G2Drv F.D. properties file   788 does not exist.
 Leave Link 1110 at Sun Mar  6 18:52:14 2022, MaxMem= 16106127360 cpu:              86.6 elap:               3.1
 (Enter /sw/contrib/gaussian/g16/B01/g16/l1002.exe)
 Minotr:  Closed shell wavefunction.
          IDoAtm=11111
          Frozen-core window.
          Direct CPHF calculation.
          Differentiating once with respect to electric field.
                with respect to dipole field.
          Differentiating once with respect to nuclear coordinates.
          Requested convergence is 1.0D-08 RMS, and 1.0D-07 maximum.
          Secondary convergence is 1.0D-12 RMS, and 1.0D-12 maximum.
          NewPWx=T KeepS1=T KeepF1=T KeepIn=T MapXYZ=F SortEE=F KeepMc=T.
 Keep R1 ints in memory in symmetry-blocked form, NReq=348888983.
 FoFCou: FMM=F IPFlag=           0 FMFlag=           0 FMFlg1=           0
         NFxFlg=           0 DoJE=F BraDBF=F KetDBF=F FulRan=T
         wScrn=  0.000000 ICntrl=       600 IOpCl=  0 I1Cent=           0 NGrid=           0
         NMat0=    1 NMatS0=  21528 NMatT0=    0 NMatD0=    1 NMtDS0=    0 NMtDT0=    0
 Petite list used in FoFCou.
          MDV=   16106127360 using IRadAn=       1.
          Solving linear equations simultaneously, MaxMat=       0.
          There are    18 degrees of freedom in the 1st order CPHF.  IDoFFX=6 NUNeed=    18.
     15 vectors produced by pass  0 Test12= 1.70D-14 5.56D-09 XBig12= 7.89D+00 1.23D+00.
 AX will form    15 AO Fock derivatives at one time.
     15 vectors produced by pass  1 Test12= 1.70D-14 5.56D-09 XBig12= 1.35D+00 2.24D-01.
     15 vectors produced by pass  2 Test12= 1.70D-14 5.56D-09 XBig12= 6.64D-02 5.82D-02.
     15 vectors produced by pass  3 Test12= 1.70D-14 5.56D-09 XBig12= 1.93D-03 1.05D-02.
     15 vectors produced by pass  4 Test12= 1.70D-14 5.56D-09 XBig12= 4.08D-05 1.21D-03.
     15 vectors produced by pass  5 Test12= 1.70D-14 5.56D-09 XBig12= 5.67D-07 1.18D-04.
     15 vectors produced by pass  6 Test12= 1.70D-14 5.56D-09 XBig12= 4.39D-09 1.19D-05.
     14 vectors produced by pass  7 Test12= 1.70D-14 5.56D-09 XBig12= 3.32D-11 7.59D-07.
      3 vectors produced by pass  8 Test12= 1.70D-14 5.56D-09 XBig12= 2.30D-13 6.01D-08.
      1 vectors produced by pass  9 Test12= 1.70D-14 5.56D-09 XBig12= 1.57D-15 6.74D-09.
 InvSVY:  IOpt=1 It=  1 EMax= 1.11D-15
 Solved reduced A of dimension   123 with    15 vectors.
 FullF1:  Do perturbations      1 to      18.
 Saving first derivative matrices.
 End of Minotr F.D. properties file   721 does not exist.
 End of Minotr F.D. properties file   722 does not exist.
 End of Minotr F.D. properties file   788 does not exist.
 Leave Link 1002 at Sun Mar  6 18:52:16 2022, MaxMem= 16106127360 cpu:              76.5 elap:               2.9
 (Enter /sw/contrib/gaussian/g16/B01/g16/l811.exe)
 MDV= 16106127360.
 Form MO integral derivatives with frozen-active canonical formalism.
 MOERI=1 MOERIx=1 NAtoms=     5 NAtomX=     5.
 Discarding MO integrals.
 MO basis two electron integral derivatives will not be stored on disk.
 IAlg= 3 DoFC=T DoPWx=T Debug=F.
 Frozen-core window:  NFC=   4 NFV=   0.
 Reordered first order wavefunction length =     18678272
 In DefCFB: NBatch=  1 ICI= 16 ICA=191 LFMax= 96
            Large arrays: LIAPS=   619940160 LIARS=   288257200 words.
 In StABat: MaxSiz= 55 MinSiz= 25 NAtomB=  5
 DoIAMN: NPSUse= 28.
 Leave Link  811 at Sun Mar  6 18:53:39 2022, MaxMem= 16106127360 cpu:            2295.8 elap:              82.1
 (Enter /sw/contrib/gaussian/g16/B01/g16/l804.exe)
 Frozen-core window:  NFC=   4 NFV=   0.
 Closed-shell transformation, MDV= 16106127360 ITran=4 ISComp=1.
 Semi-Direct transformation.
 ModeAB=           2 MOrb=            16 LenV=   16104919925
 LASXX=     67341636 LTotXX=    67341636 LenRXX=    67341636
 LTotAB=    68301760 MaxLAS=    99807120 LenRXY=    99807120
 NonZer=   134683272 LenScr=   202817536 LnRSAI=           0
 LnScr1=           0 LExtra=           0 Total=    369966292
 MaxDsk=          -1 SrtSym=           F ITran=            4
 DoSDTr:  NPSUse= 28
 JobTyp=0 Pass  1:  I=   1 to  16.
 (rs|ai) integrals will be sorted in core.
 Complete sort for first half transformation.
 First half transformation complete.
 Begin second half transformation for I=  10.
 Begin second half transformation for I=  10.
 Complete sort for second half transformation.
 Second half transformation complete.
 Spin components of T(2) and E(2):
     alpha-alpha T2 =       0.3474688081D-01 E2=     -0.1244740759D+00
     alpha-beta  T2 =       0.1842718686D+00 E2=     -0.6994049619D+00
     beta-beta   T2 =       0.3474688081D-01 E2=     -0.1244740759D+00
 ANorm=    0.1583518633D+01
 E2 =    -0.9483531136D+00 EUMP2 =    -0.28045519342842D+03
 Leave Link  804 at Sun Mar  6 18:53:55 2022, MaxMem= 16106127360 cpu:             441.3 elap:              15.8
 (Enter /sw/contrib/gaussian/g16/B01/g16/l1002.exe)
 Minotr:  Closed shell wavefunction.
          Computing MP2/KS-MP2 derivatives.
          Using Z-Vector for PSCF gradient.
          Skipping F1 and S1 gradient terms here.
          IDoAtm=11111
          Frozen-core window.
          Using MO integrals in the linear equations.
          Forming densities via direct SCF.
          Differentiating once with respect to electric field.
                with respect to dipole field.
          Differentiating once with respect to nuclear coordinates.
          Using symmetry in CPHF.
          Requested convergence is 1.0D-10 RMS, and 1.0D-09 maximum.
          NewPWx=F KeepS1=T KeepF1=T KeepIn=T MapXYZ=F SortEE=F KeepMc=T.
          MDV=   16106127360 using IRadAn=       5.
          Solving linear equations separately, MaxMat=       0.
          There are     1 degrees of freedom in the 1st order CPHF.  IDoFFX=0 NUNeed=     1.
 FoFJK:  IHMeth= 1 ICntrl=       0 DoSepK=F KAlg= 0 I1Cent=           0 FoldK=F
 IRaf=         0 NMat=       1 IRICut=       1 DoRegI=T DoRafI=F ISym2E= 0 IDoP0=0 IntGTp=1.
 FoFCou: FMM=F IPFlag=           0 FMFlag=      100000 FMFlg1=           0
         NFxFlg=           0 DoJE=F BraDBF=F KetDBF=F FulRan=T
         wScrn=  0.000000 ICntrl=         0 IOpCl=  0 I1Cent=           0 NGrid=           0
         NMat0=    1 NMatS0=      1 NMatT0=    0 NMatD0=    1 NMtDS0=    0 NMtDT0=    0
 Symmetry not used in FoFCou.
 LinEq1:  Iter=  0 NonCon=     1 RMS=6.58D-03 Max=1.69D-01 NDo=     1
 LinEq1:  Iter=  1 NonCon=     1 RMS=2.00D-03 Max=3.08D-02 NDo=     1
 LinEq1:  Iter=  2 NonCon=     1 RMS=8.86D-04 Max=1.43D-02 NDo=     1
 LinEq1:  Iter=  3 NonCon=     1 RMS=3.80D-04 Max=8.15D-03 NDo=     1
 LinEq1:  Iter=  4 NonCon=     1 RMS=1.37D-04 Max=1.67D-03 NDo=     1
 LinEq1:  Iter=  5 NonCon=     1 RMS=7.63D-05 Max=1.38D-03 NDo=     1
 LinEq1:  Iter=  6 NonCon=     1 RMS=2.43D-05 Max=3.13D-04 NDo=     1
 LinEq1:  Iter=  7 NonCon=     1 RMS=8.18D-06 Max=1.10D-04 NDo=     1
 LinEq1:  Iter=  8 NonCon=     1 RMS=3.97D-06 Max=6.15D-05 NDo=     1
 LinEq1:  Iter=  9 NonCon=     1 RMS=1.03D-06 Max=1.17D-05 NDo=     1
 LinEq1:  Iter= 10 NonCon=     1 RMS=2.30D-07 Max=2.85D-06 NDo=     1
 LinEq1:  Iter= 11 NonCon=     1 RMS=4.93D-08 Max=7.87D-07 NDo=     1
 LinEq1:  Iter= 12 NonCon=     1 RMS=1.16D-08 Max=1.69D-07 NDo=     1
 LinEq1:  Iter= 13 NonCon=     1 RMS=2.03D-09 Max=2.11D-08 NDo=     1
 LinEq1:  Iter= 14 NonCon=     1 RMS=4.23D-10 Max=5.62D-09 NDo=     1
 LinEq1:  Iter= 15 NonCon=     0 RMS=8.65D-11 Max=9.12D-10 NDo=     1
 Linear equations converged to 1.000D-10 1.000D-09 after    15 iterations.
 End of Minotr F.D. properties file   721 does not exist.
 End of Minotr F.D. properties file   722 does not exist.
 End of Minotr F.D. properties file   788 does not exist.
 Leave Link 1002 at Sun Mar  6 18:53:57 2022, MaxMem= 16106127360 cpu:              65.3 elap:               2.4
 (Enter /sw/contrib/gaussian/g16/B01/g16/l1102.exe)
 Use density number 2.
 Symmetrizing basis deriv contribution to polar:
 IMax=3 JMax=2 DiffMx= 0.00D+00
 Leave Link 1102 at Sun Mar  6 18:53:57 2022, MaxMem= 16106127360 cpu:               1.1 elap:               0.1
 (Enter /sw/contrib/gaussian/g16/B01/g16/l1110.exe)
 Forming Gx(P) for generalized density number  2 NAtomX=     5.
 Integral derivatives from FoFJK, PRISM(SPDF).
 Do as many integral derivatives as possible in FoFJK.
 G2DrvN: MDV=   16106126844.
 G2DrvN: will do     6 centers at a time, making    1 passes.
 Calling FoFCou, ICntrl=  3107 FMM=F I1Cent=   0 AccDes= 0.00D+00.
 FoFJK:  IHMeth= 1 ICntrl=    3107 DoSepK=F KAlg= 0 I1Cent=           0 FoldK=F
 IRaf=         0 NMat=       1 IRICut=       1 DoRegI=T DoRafI=F ISym2E= 1 IDoP0=0 IntGTp=1.
 FoFCou: FMM=F IPFlag=           0 FMFlag=      100000 FMFlg1=           0
         NFxFlg=           0 DoJE=F BraDBF=F KetDBF=F FulRan=T
         wScrn=  0.000000 ICntrl=      3107 IOpCl=  0 I1Cent=           0 NGrid=           0
         NMat0=    1 NMatS0=      1 NMatT0=    0 NMatD0=    1 NMtDS0=    0 NMtDT0=    0
 Petite list used in FoFCou.
 End of G2Drv F.D. properties file   721 does not exist.
 End of G2Drv F.D. properties file   722 does not exist.
 End of G2Drv F.D. properties file   788 does not exist.
 Leave Link 1110 at Sun Mar  6 18:54:00 2022, MaxMem= 16106127360 cpu:              87.4 elap:               3.2
 (Enter /sw/contrib/gaussian/g16/B01/g16/l1112.exe)
 MP22nd: MDV=   16106127360
 This link is doing NAtomX=     5 total of    18 degrees of freedom.
 Using ON3 I/O method in MakUI.
 Frozen-core window:  NFC=   4 NFV=   0.
 Using Ix for Sx.
 Use MO integrals over full window.
 Using OV2 memory method for fx*t*t/D, MaxI=    16 DoOO2=F NP=  28.
 R2 and R3 integrals will be kept in memory, NReq=   915591705.
 FoFCou: FMM=F IPFlag=           0 FMFlag=           0 FMFlg1=           0
         NFxFlg=           0 DoJE=F BraDBF=F KetDBF=F FulRan=T
         wScrn=  0.000000 ICntrl=       600 IOpCl=  0 I1Cent=           0 NGrid=           0
         NMat0=    1 NMatS0=      1 NMatT0=    0 NMatD0=    1 NMtDS0=    0 NMtDT0=    0
 Symmetry not used in FoFCou.
 DD1Dir will call FoFMem   1 times, MxPair=       272
 NAB=   136 NAA=     0 NBB=     0.
 Symmetry is being used.
 FoFJK:  IHMeth= 1 ICntrl=       0 DoSepK=F KAlg= 0 I1Cent=           0 FoldK=F
 IRaf=         0 NMat=      18 IRICut=      45 DoRegI=T DoRafI=T ISym2E= 2 IDoP0=3 IntGTp=3.
 Discarding MO integrals.
 Leave Link 1112 at Sun Mar  6 18:54:33 2022, MaxMem= 16106127360 cpu:             898.2 elap:              32.4
 (Enter /sw/contrib/gaussian/g16/B01/g16/l601.exe)
 Copying SCF densities to generalized density rwf, IOpCl= 0 IROHF=0.

 **********************************************************************

            Population analysis using the MP2 Density.

 **********************************************************************

 Orbital symmetries:
       Occupied  (A') (A') (A') (A') (A') (A') (A') (A') (A') (A')
                 (A") (A') (A') (A") (A') (A")
       Virtual   (A') (A") (A') (A') (A") (A') (A') (A') (A") (A')
                 (A") (A') (A') (A') (A") (A') (A') (A") (A') (A')
                 (A') (A') (A') (A') (A") (A') (A') (A") (A') (A')
                 (A') (A") (A") (A') (A') (A') (A") (A') (A") (A')
                 (A") (A") (A') (A') (A") (A') (A') (A") (A') (A')
                 (A') (A") (A') (A') (A") (A') (A") (A') (A") (A')
                 (A') (A') (A") (A') (A') (A") (A') (A") (A') (A')
                 (A") (A') (A") (A") (A') (A') (A") (A') (A') (A')
                 (A") (A') (A') (A") (A') (A") (A") (A') (A') (A')
                 (A') (A') (A") (A") (A') (A') (A") (A") (A') (A")
                 (A') (A') (A") (A') (A") (A') (A') (A') (A") (A")
                 (A') (A') (A') (A') (A") (A') (A') (A') (A") (A')
                 (A") (A') (A") (A') (A") (A") (A') (A") (A') (A')
                 (A') (A') (A") (A') (A') (A") (A") (A') (A') (A')
                 (A") (A") (A') (A') (A') (A") (A') (A') (A') (A")
                 (A') (A') (A') (A") (A") (A') (A") (A') (A') (A")
                 (A') (A") (A') (A") (A") (A') (A") (A') (A") (A")
                 (A') (A") (A") (A') (A') (A") (A') (A') (A") (A')
                 (A') (A') (A') (A') (A') (A') (A') (A') (A') (A')
                 (A')
 The electronic state is 1-A'.
 Alpha  occ. eigenvalues --  -20.71992 -20.68718 -20.66802 -15.82603  -1.64443
 Alpha  occ. eigenvalues --   -1.50581  -1.29518  -0.96082  -0.83506  -0.75902
 Alpha  occ. eigenvalues --   -0.74010  -0.63909  -0.61897  -0.61855  -0.50463
 Alpha  occ. eigenvalues --   -0.49784
 Alpha virt. eigenvalues --    0.03513   0.06029   0.09507   0.10040   0.11966
 Alpha virt. eigenvalues --    0.12258   0.14946   0.15210   0.17740   0.18031
 Alpha virt. eigenvalues --    0.18976   0.21111   0.21678   0.24228   0.24633
 Alpha virt. eigenvalues --    0.26902   0.31364   0.31698   0.33793   0.34381
 Alpha virt. eigenvalues --    0.34666   0.39259   0.45013   0.48929   0.50515
 Alpha virt. eigenvalues --    0.51845   0.54547   0.56108   0.59943   0.62077
 Alpha virt. eigenvalues --    0.63881   0.68957   0.71668   0.72444   0.74332
 Alpha virt. eigenvalues --    0.76351   0.76716   0.79582   0.80656   0.84042
 Alpha virt. eigenvalues --    0.84308   0.85152   0.88515   0.90738   0.93002
 Alpha virt. eigenvalues --    0.94798   0.95438   1.01849   1.03253   1.06291
 Alpha virt. eigenvalues --    1.06661   1.09574   1.14453   1.15674   1.16942
 Alpha virt. eigenvalues --    1.22207   1.22722   1.24581   1.35435   1.36248
 Alpha virt. eigenvalues --    1.37170   1.46822   1.48814   1.50468   1.54362
 Alpha virt. eigenvalues --    1.59733   1.59792   1.60561   1.62878   1.69547
 Alpha virt. eigenvalues --    1.74130   1.80143   1.82991   1.88821   1.89663
 Alpha virt. eigenvalues --    1.92836   1.97903   1.99317   2.05232   2.12446
 Alpha virt. eigenvalues --    2.13163   2.16671   2.18833   2.24346   2.25876
 Alpha virt. eigenvalues --    2.29438   2.35200   2.36529   2.38773   2.40257
 Alpha virt. eigenvalues --    2.43336   2.46822   2.48014   2.52925   2.53933
 Alpha virt. eigenvalues --    2.54926   2.55895   2.61623   2.62891   2.67292
 Alpha virt. eigenvalues --    2.67380   2.75452   2.80977   2.81580   2.84107
 Alpha virt. eigenvalues --    2.91883   2.98550   3.04663   3.05098   3.11577
 Alpha virt. eigenvalues --    3.11816   3.17503   3.21282   3.30796   3.33348
 Alpha virt. eigenvalues --    3.36203   3.47923   3.67839   3.87001   3.93821
 Alpha virt. eigenvalues --    4.19057   4.22555   4.22626   4.26846   4.37012
 Alpha virt. eigenvalues --    4.50063   4.53118   4.55667   4.60234   4.69364
 Alpha virt. eigenvalues --    4.81737   4.89924   4.91432   4.94804   5.00090
 Alpha virt. eigenvalues --    5.00593   5.10812   5.13827   5.18993   5.25508
 Alpha virt. eigenvalues --    5.27201   5.32396   5.34671   5.36420   5.54788
 Alpha virt. eigenvalues --    5.64487   5.70606   5.88953   5.99897   6.26502
 Alpha virt. eigenvalues --    6.29336   6.36065   6.37791   6.59924   6.65892
 Alpha virt. eigenvalues --    6.65992   6.69027   6.72626   6.79797   6.80481
 Alpha virt. eigenvalues --    6.85165   6.96789   7.02704   7.06614   7.08596
 Alpha virt. eigenvalues --    7.14054   7.17501   7.17647   7.21166   7.24851
 Alpha virt. eigenvalues --    7.25029   7.27064   7.34905   7.39463   7.43293
 Alpha virt. eigenvalues --    7.44238   7.46630   7.56042   7.66377   7.66822
 Alpha virt. eigenvalues --    7.80186   7.88707   7.95337   8.06548   8.31221
 Alpha virt. eigenvalues --    8.50825   8.65505  13.62173  14.79661  15.18366
 Alpha virt. eigenvalues --   15.76440
          Condensed to atoms (all electrons):
               1          2          3          4          5
     1  H    0.585939   0.121618   0.024624   0.000051  -0.005539
     2  O    0.121618   8.388322  -0.231864  -0.000535  -0.008571
     3  O    0.024624  -0.231864   8.372445  -0.168967  -0.034117
     4  N    0.000051  -0.000535  -0.168967   7.135291  -0.119456
     5  O   -0.005539  -0.008571  -0.034117  -0.119456   8.363512
 Mulliken charges:
               1
     1  H    0.273307
     2  O   -0.268970
     3  O    0.037878
     4  N    0.153615
     5  O   -0.195830
 Sum of Mulliken charges =  -0.00000
 Mulliken charges with hydrogens summed into heavy atoms:
               1
     2  O    0.004337
     3  O    0.037878
     4  N    0.153615
     5  O   -0.195830
 APT charges:
               1
     1  H    0.270457
     2  O   -0.302779
     3  O   -0.308876
     4  N    0.643910
     5  O   -0.302712
 Sum of APT charges =  -0.00000
 APT charges with hydrogens summed into heavy atoms:
               1
     2  O   -0.032322
     3  O   -0.308876
     4  N    0.643910
     5  O   -0.302712
 Electronic spatial extent (au):  <R**2>=            207.1796
 Charge=             -0.0000 electrons
 Dipole moment (field-independent basis, Debye):
    X=              0.0541    Y=             -1.0870    Z=              0.0000  Tot=              1.0884
 Quadrupole moment (field-independent basis, Debye-Ang):
   XX=            -23.3676   YY=            -22.9529   ZZ=            -21.9238
   XY=             -1.9672   XZ=              0.0000   YZ=              0.0000
 Traceless Quadrupole moment (field-independent basis, Debye-Ang):
   XX=             -0.6195   YY=             -0.2048   ZZ=              0.8243
   XY=             -1.9672   XZ=              0.0000   YZ=              0.0000
 Octapole moment (field-independent basis, Debye-Ang**2):
  XXX=              2.5880  YYY=              0.2897  ZZZ=              0.0000  XYY=              2.3547
  XXY=             -2.8107  XXZ=              0.0000  XZZ=             -0.5758  YZZ=             -0.7075
  YYZ=             -0.0000  XYZ=             -0.0000
 Hexadecapole moment (field-independent basis, Debye-Ang**3):
 XXXX=           -127.0041 YYYY=            -94.7614 ZZZZ=            -18.0264 XXXY=            -21.6125
 XXXZ=              0.0000 YYYX=            -19.8226 YYYZ=              0.0000 ZZZX=              0.0000
 ZZZY=              0.0000 XXYY=            -35.6384 XXZZ=            -24.3281 YYZZ=            -18.5690
 XXYZ=              0.0000 YYXZ=              0.0000 ZZXY=             -5.9272
 N-N= 1.227851293020D+02 E-N=-9.071298978830D+02  KE= 2.802150758819D+02
 Symmetry A'   KE= 2.663630776516D+02
 Symmetry A"   KE= 1.385199823026D+01
  Exact polarizability:  30.874   4.143  29.803  -0.000  -0.000  17.601
 Approx polarizability:  24.522   0.506  27.595  -0.000  -0.000  15.503
 No NMR shielding tensors so no spin-rotation constants.
 Leave Link  601 at Sun Mar  6 18:54:33 2022, MaxMem= 16106127360 cpu:               4.8 elap:               0.2
 (Enter /sw/contrib/gaussian/g16/B01/g16/l701.exe)
 ... and contract with generalized density number  2.
 Compute integral second derivatives.
 Leave Link  701 at Sun Mar  6 18:54:33 2022, MaxMem= 16106127360 cpu:               7.1 elap:               0.3
 (Enter /sw/contrib/gaussian/g16/B01/g16/l702.exe)
 L702 exits ... SP integral derivatives will be done elsewhere.
 Leave Link  702 at Sun Mar  6 18:54:33 2022, MaxMem= 16106127360 cpu:               1.5 elap:               0.1
 (Enter /sw/contrib/gaussian/g16/B01/g16/l703.exe)
 Integral derivatives from FoFJK, PRISM(SPDF).
 Compute integral second derivatives, UseDBF=F ICtDFT=           0.
 Calling FoFJK, ICntrl=  10100127 FMM=F ISym2X=1 I1Cent= 0 IOpClX= 0 NMat=1 NMatS=1 NMatT=0.
 FoFJK:  IHMeth= 1 ICntrl=10100127 DoSepK=F KAlg= 0 I1Cent=           0 FoldK=F
 IRaf=         0 NMat=       1 IRICut=       1 DoRegI=T DoRafI=F ISym2E= 1 IDoP0=0 IntGTp=1.
 FoFCou: FMM=F IPFlag=           0 FMFlag=      100000 FMFlg1=         800
         NFxFlg=           0 DoJE=F BraDBF=F KetDBF=F FulRan=T
         wScrn=  0.000000 ICntrl=  10100127 IOpCl=  0 I1Cent=           0 NGrid=           0
         NMat0=    1 NMatS0=      1 NMatT0=    0 NMatD0=    1 NMtDS0=    0 NMtDT0=    0
 Petite list used in FoFCou.
 Leave Link  703 at Sun Mar  6 18:54:49 2022, MaxMem= 16106127360 cpu:             444.8 elap:              15.9
 (Enter /sw/contrib/gaussian/g16/B01/g16/l716.exe)
 Dipole        = 2.12690874D-02-4.27669474D-01 1.60418732D-34
 Polarizability= 3.08744658D+01 4.14272464D+00 2.98029280D+01
                -2.41165315D-32-3.40232220D-32 1.76011285D+01
 Full mass-weighted force constant matrix:
 Low frequencies ---  -83.7879  -34.5965  -14.5072   -0.0013   -0.0012    0.0007
 Low frequencies ---  218.4102  394.9692  506.8482
 Diagonal vibrational polarizability:
        7.3353668       9.9923414      49.4455539
 Harmonic frequencies (cm**-1), IR intensities (KM/Mole), Raman scattering
 activities (A**4/AMU), depolarization ratios for plane and unpolarized
 incident light, reduced masses (AMU), force constants (mDyne/A),
 and normal coordinates:
                      1                      2                      3
                     A"                     A'                     A"
 Frequencies --    208.3053               394.9467               506.7570
 Red. masses --      1.2673                 6.9691                 5.0706
 Frc consts  --      0.0324                 0.6405                 0.7672
 IR Inten    --     77.8293                 7.8888                11.2196
  Atom  AN      X      Y      Z        X      Y      Z        X      Y      Z
     1   1     0.00   0.00   0.99    -0.73  -0.25   0.00     0.00   0.00   0.84
     2   8     0.00   0.00  -0.09    -0.32  -0.31   0.00     0.00   0.00   0.11
     3   8     0.00  -0.00   0.08    -0.07   0.09  -0.00     0.00  -0.00  -0.28
     4   7     0.00  -0.00  -0.06     0.05   0.09   0.00    -0.00  -0.00   0.39
     5   8    -0.00  -0.00   0.00     0.39   0.16  -0.00    -0.00  -0.00  -0.22
                      4                      5                      6
                     A'                     A'                     A'
 Frequencies --    710.6515               837.3198               968.0370
 Red. masses --     13.1418                12.4886                 9.2479
 Frc consts  --      3.9104                 5.1588                 5.1060
 IR Inten    --    218.1236                30.8157                14.0291
  Atom  AN      X      Y      Z        X      Y      Z        X      Y      Z
     1   1    -0.38   0.01  -0.00     0.43  -0.16  -0.00    -0.66   0.01   0.00
     2   8     0.00  -0.08  -0.00     0.53  -0.20  -0.00     0.20  -0.16  -0.00
     3   8     0.37   0.58   0.00    -0.39  -0.02   0.00    -0.35   0.39   0.00
     4   7    -0.41  -0.46  -0.00    -0.43  -0.06  -0.00     0.37   0.05   0.00
     5   8     0.01  -0.10   0.00     0.21   0.28   0.00    -0.13  -0.27  -0.00
                      7                      8                      9
                     A'                     A'                     A'
 Frequencies --   1420.1360              1568.3419              3585.4990
 Red. masses --      1.2877                 7.2579                 1.0640
 Frc consts  --      1.5301                10.5182                 8.0594
 IR Inten    --     78.0279               148.9036                41.8196
  Atom  AN      X      Y      Z        X      Y      Z        X      Y      Z
     1   1     0.97  -0.21   0.00    -0.72   0.17  -0.00     0.16   0.99  -0.00
     2   8    -0.06  -0.05   0.00     0.01   0.02  -0.00    -0.01  -0.06   0.00
     3   8    -0.03   0.06  -0.00    -0.04  -0.06   0.00     0.00  -0.00  -0.00
     4   7     0.06  -0.05   0.00     0.27  -0.43  -0.00    -0.00   0.00  -0.00
     5   8    -0.02   0.04  -0.00    -0.16   0.40   0.00     0.00  -0.00   0.00

 -------------------
 - Thermochemistry -
 -------------------
 Temperature   298.150 Kelvin.  Pressure   1.00000 Atm.
 Atom     1 has atomic number  1 and mass   1.00783
 Atom     2 has atomic number  8 and mass  15.99491
 Atom     3 has atomic number  8 and mass  15.99491
 Atom     4 has atomic number  7 and mass  14.00307
 Atom     5 has atomic number  8 and mass  15.99491
 Molecular mass:    62.99564 amu.
 Principal axes and moments of inertia in atomic units:
                           1         2         3
     Eigenvalues --    84.48623 222.63071 307.11693
           X            0.79641  -0.60475   0.00000
           Y            0.60475   0.79641   0.00000
           Z            0.00000  -0.00000   1.00000
 This molecule is an asymmetric top.
 Rotational symmetry number  1.
 Rotational temperatures (Kelvin)      1.02518     0.38905     0.28202
 Rotational constants (GHZ):          21.36137     8.10643     5.87640
 Zero-point vibrational energy      61009.5 (Joules/Mol)
                                   14.58162 (Kcal/Mol)
 Warning -- explicit consideration of   3 degrees of freedom as
           vibrations may cause significant error
 Vibrational temperatures:    299.70   568.24   729.11  1022.47  1204.72
          (Kelvin)           1392.79  2043.26  2256.49  5158.73
 
 Zero-point correction=                           0.023237 (Hartree/Particle)
 Thermal correction to Energy=                    0.027380
 Thermal correction to Enthalpy=                  0.028324
 Thermal correction to Gibbs Free Energy=        -0.002986
 Sum of electronic and zero-point Energies=           -280.431956
 Sum of electronic and thermal Energies=              -280.427813
 Sum of electronic and thermal Enthalpies=            -280.426869
 Sum of electronic and thermal Free Energies=         -280.458180
 
                     E (Thermal)             CV                S
                      KCal/Mol        Cal/Mol-Kelvin    Cal/Mol-Kelvin
 Total                   17.181             12.477             65.899
 Electronic               0.000              0.000              0.000
 Translational            0.889              2.981             38.341
 Rotational               0.889              2.981             23.273
 Vibrational             15.404              6.515              4.286
 Vibration     1          0.642              1.828              2.058
 Vibration     2          0.762              1.481              0.981
 Vibration     3          0.862              1.235              0.641
                       Q            Log10(Q)             Ln(Q)
 Total Bot       0.236406D+02          1.373658          3.162964
 Total V=0       0.115362D+13         12.062063         27.773926
 Vib (Bot)       0.442135D-10        -10.354445        -23.841990
 Vib (Bot)    1  0.954130D+00         -0.020392         -0.046955
 Vib (Bot)    2  0.452954D+00         -0.343945         -0.791964
 Vib (Bot)    3  0.322373D+00         -0.491642         -1.132047
 Vib (V=0)       0.215755D+01          0.333960          0.768972
 Vib (V=0)    1  0.157720D+01          0.197887          0.455652
 Vib (V=0)    2  0.117466D+01          0.069913          0.160980
 Vib (V=0)    3  0.109492D+01          0.039381          0.090677
 Electronic      0.100000D+01          0.000000          0.000000
 Translational   0.196526D+08          7.293420         16.793719
 Rotational      0.272071D+05          4.434683         10.211235
 
                                                                title
                                                             IR Spectrum
 
     3                                                                       1    1                                                  
     5                                                                       5    4               9    8   7       5   3     2       
     8                                                                       6    2               6    3   1       0   9     0       
     5                                                                       8    0               8    7   1       7   5     8       
 
     X                                                                       X    X               X    X   X       X   X     X       
     X                                                                       X    X                    X   X                 X       
     X                                                                       X    X                    X   X                 X       
     X                                                                       X    X                        X                 X       
                                                                             X    X                        X                 X       
                                                                             X    X                        X                 X       
                                                                             X    X                        X                 X       
                                                                             X                             X                         
                                                                             X                             X                         
                                                                             X                             X                         
                                                                             X                             X                         
                                                                             X                             X                         
                                                                             X                             X                         
                                                                             X                             X                         
                                                                                                           X                         
                                                                                                           X                         
                                                                                                           X                         
                                                                                                           X                         
                                                                                                           X                         
                                                                                                           X                         
 
 ***** Axes restored to original set *****
 -------------------------------------------------------------------
 Center     Atomic                   Forces (Hartrees/Bohr)
 Number     Number              X              Y              Z
 -------------------------------------------------------------------
      1        1          -0.000321953    0.000000000   -0.006512604
      2        8          -0.000099998    0.000000000    0.006365347
      3        8           0.000377926   -0.000000000   -0.000079512
      4        7           0.000111690   -0.000000000    0.000327053
      5        8          -0.000067665    0.000000000   -0.000100284
 -------------------------------------------------------------------
 Cartesian Forces:  Max     0.006512604 RMS     0.002356955
 -----------------------------------------------------------------------------------------------
                       Internal Coordinate Forces (Hartree/Bohr or radian)
  Cent   Atom   N1       Length/X         N2         Alpha/Y        N3         Beta/Z          J
 -----------------------------------------------------------------------------------------------
      1  H 
      2  O        1   0.006513(     1)
      3  O        2   0.000442(     2)      1   0.000595(     5)
      4  N        3  -0.000164(     3)      2   0.000414(     6)      1   0.000000(     8)     0
      5  O        4   0.000121(     4)      3  -0.000010(     7)      2   0.000000(     9)     0
 -----------------------------------------------------------------------------------------------
 Internal  Forces:  Max     0.006512604 RMS     0.002190289
 Force constants in Cartesian coordinates: 
                1             2             3             4             5 
      1  0.700501D-01
      2  0.000000D+00  0.248458D-02
      3  0.238447D-01  0.000000D+00  0.461634D+00
      4 -0.491099D-01  0.000000D+00 -0.519451D-02  0.278238D+00
      5  0.000000D+00  0.108323D-02  0.000000D+00  0.000000D+00  0.867783D-02
      6  0.329827D-01  0.000000D+00 -0.445509D+00 -0.121300D-01  0.000000D+00
      7 -0.255948D-01  0.000000D+00 -0.155308D-01 -0.170842D+00  0.000000D+00
      8  0.000000D+00 -0.419698D-02  0.000000D+00  0.000000D+00 -0.189219D-01
      9 -0.449072D-01  0.000000D+00 -0.198272D-01  0.110106D-01  0.000000D+00
     10 -0.557420D-02  0.000000D+00  0.657737D-02 -0.840394D-01  0.000000D+00
     11  0.000000D+00  0.805938D-02  0.000000D+00  0.000000D+00  0.197856D-01
     12 -0.187853D-01  0.000000D+00  0.118319D-01  0.105931D-01  0.000000D+00
     13  0.102288D-01  0.000000D+00 -0.969672D-02  0.257529D-01  0.000000D+00
     14  0.000000D+00 -0.743022D-02  0.000000D+00  0.000000D+00 -0.106248D-01
     15  0.686509D-02  0.000000D+00 -0.812969D-02 -0.427922D-02  0.000000D+00
                6             7             8             9            10 
      6  0.547439D+00
      7 -0.917464D-01  0.304398D+00
      8  0.000000D+00  0.000000D+00  0.408650D-01
      9 -0.968070D-01  0.818373D-01  0.000000D+00  0.316870D+00
     10  0.403254D-01 -0.144045D+00  0.000000D+00 -0.356654D-01  0.554339D+00
     11  0.000000D+00  0.000000D+00 -0.478347D-01  0.000000D+00  0.000000D+00
     12 -0.102258D-01  0.160779D-01  0.000000D+00 -0.254856D-01  0.243296D+00
     13  0.305683D-01  0.360828D-01  0.000000D+00 -0.122754D-01 -0.320680D+00
     14  0.000000D+00  0.000000D+00  0.300886D-01  0.000000D+00  0.000000D+00
     15  0.510253D-02  0.936207D-02  0.000000D+00 -0.174750D+00 -0.254533D+00
               11            12            13            14            15 
     11  0.574379D-01
     12  0.000000D+00  0.448818D+00
     13  0.000000D+00 -0.251182D+00  0.248616D+00
     14 -0.374481D-01  0.000000D+00  0.000000D+00  0.254146D-01
     15  0.000000D+00 -0.424938D+00  0.242585D+00  0.000000D+00  0.602716D+00
 Force constants in internal coordinates: 
                1             2             3             4             5 
      1  0.461634D+00
      2  0.213058D-01  0.259903D+00
      3  0.481154D-02  0.175505D-01  0.207606D+00
      4 -0.120255D-01  0.224023D-01  0.148498D+00  0.721509D+00
      5  0.437345D-01  0.574037D-01 -0.230883D-01  0.207543D-01  0.251169D+00
      6  0.102865D-01  0.227824D-01  0.923941D-01  0.889698D-02 -0.780204D-02
      7  0.889065D-02 -0.728102D-01  0.121104D+00  0.116694D+00 -0.210992D-01
      8  0.000000D+00  0.000000D+00  0.000000D+00  0.000000D+00  0.000000D+00
      9  0.000000D+00  0.000000D+00  0.000000D+00  0.000000D+00  0.000000D+00
                6             7             8             9 
      6  0.521097D+00
      7  0.617020D-01  0.662077D+00
      8  0.000000D+00  0.000000D+00  0.197082D-01
      9  0.000000D+00  0.000000D+00  0.277577D-01  0.107790D+00
 Leave Link  716 at Sun Mar  6 18:54:49 2022, MaxMem= 16106127360 cpu:               1.1 elap:               0.1
 (Enter /sw/contrib/gaussian/g16/B01/g16/l103.exe)

 GradGradGradGradGradGradGradGradGradGradGradGradGradGradGradGradGradGrad
 Berny optimization.
 Search for a local minimum.
 Step number   1 out of a maximum of    2
 All quantities printed in internal units (Hartrees-Bohrs-Radians)
 Second derivative matrix not updated -- analytic derivatives used.
 The second derivative matrix:
                          r1        r2        r3        r4        a1
           r1           0.46163
           r2           0.02131   0.25990
           r3           0.00481   0.01755   0.20761
           r4          -0.01203   0.02240   0.14850   0.72151
           a1           0.04373   0.05740  -0.02309   0.02075   0.25117
           a2           0.01029   0.02278   0.09239   0.00890  -0.00780
           a3           0.00889  -0.07281   0.12110   0.11669  -0.02110
           d1          -0.00000  -0.00000  -0.00000   0.00000   0.00000
           d2          -0.00000   0.00000   0.00000   0.00000   0.00000
                          a2        a3        d1        d2
           a2           0.52110
           a3           0.06170   0.66208
           d1          -0.00000   0.00000   0.01971
           d2           0.00000  -0.00000   0.02776   0.10779
 ITU=  0
     Eigenvalues ---    0.01169   0.11581   0.12475   0.20314   0.28003
     Eigenvalues ---    0.47103   0.51635   0.60749   0.88220
 Angle between quadratic step and forces=  10.67 degrees.
 Linear search not attempted -- first point.
 Variable       Old X    -DE/DX   Delta X   Delta X   Delta X     New X
                                 (Linear)    (Quad)   (Total)
    r1        1.84765   0.00651   0.00000   0.01415   0.01415   1.86180
    r2        2.69614   0.00044   0.00000   0.00066   0.00066   2.69680
    r3        2.60992  -0.00016   0.00000  -0.00223  -0.00223   2.60769
    r4        2.25782   0.00012   0.00000   0.00084   0.00084   2.25866
    a1        1.75642   0.00059   0.00000  -0.00049  -0.00049   1.75593
    a2        1.97463   0.00041   0.00000   0.00086   0.00086   1.97548
    a3        1.99550  -0.00001   0.00000   0.00003   0.00003   1.99553
    d1        0.00000   0.00000   0.00000   0.00000   0.00000   0.00000
    d2        0.00000   0.00000   0.00000  -0.00000  -0.00000  -0.00000
         Item               Value     Threshold  Converged?
 Maximum Force            0.006513     0.000450     NO 
 RMS     Force            0.002190     0.000300     NO 
 Maximum Displacement     0.014149     0.001800     NO 
 RMS     Displacement     0.004799     0.001200     NO 
 Predicted change in Energy=-4.648502D-05
                       ----------------------------
                       ! Non-Optimized Parameters !
                       ! (Angstroms and Degrees)  !
 ----------------------                            ----------------------
 !      Name          Value   Derivative information (Atomic Units)     !
 ------------------------------------------------------------------------
 !       r1          0.9852   -DE/DX =    0.0065                        !
 !       r2          1.4271   -DE/DX =    0.0004                        !
 !       r3          1.3799   -DE/DX =   -0.0002                        !
 !       r4          1.1952   -DE/DX =    0.0001                        !
 !       a1        100.6073   -DE/DX =    0.0006                        !
 !       a2        113.1869   -DE/DX =    0.0004                        !
 !       a3        114.3357   -DE/DX =    0.0                           !
 !       d1          0.0      -DE/DX =    0.0                           !
 !       d2          0.0      -DE/DX =    0.0                           !
 ------------------------------------------------------------------------
 GradGradGradGradGradGradGradGradGradGradGradGradGradGradGradGradGradGrad

 Leave Link  103 at Sun Mar  6 18:54:50 2022, MaxMem= 16106127360 cpu:               2.2 elap:               0.1
 (Enter /sw/contrib/gaussian/g16/B01/g16/l9999.exe)

 ----------------------------------------------------------------------

 Electric dipole moment (input orientation):
 (Debye = 10**-18 statcoulomb cm , SI units = C m)
                  (au)            (Debye)         (10**-30 SI)
   Tot        0.428198D+00      0.108837D+01      0.363041D+01
   x         -0.110503D+00     -0.280870D+00     -0.936881D+00
   y          0.000000D+00      0.000000D+00      0.000000D+00
   z         -0.413694D+00     -0.105151D+01     -0.350744D+01

 Dipole polarizability, Alpha (input orientation).
 (esu units = cm**3 , SI units = C**2 m**2 J**-1)
 Alpha(0;0):
               (au)            (10**-24 esu)      (10**-40 SI)
   iso        0.260928D+02      0.386656D+01      0.430213D+01
   aniso      0.146490D+02      0.217076D+01      0.241529D+01
   xx         0.291281D+02      0.431633D+01      0.480257D+01
   yx         0.000000D+00      0.000000D+00      0.000000D+00
   yy         0.176011D+02      0.260822D+01      0.290203D+01
   zx        -0.399794D+01     -0.592434D+00     -0.659172D+00
   zy         0.000000D+00      0.000000D+00      0.000000D+00
   zz         0.315493D+02      0.467513D+01      0.520178D+01

 ----------------------------------------------------------------------

 Dipole orientation:
     1          0.00000000         -0.00000000          0.00000000
     8         -0.47681158         -0.00000000         -1.78506189
     8          1.95484469         -0.00000000         -2.94963349
     7          3.91643743          0.00000000         -1.22806119
     8          3.25866717          0.00000000          0.93182372

 Electric dipole moment (dipole orientation):
 (Debye = 10**-18 statcoulomb cm , SI units = C m)
                  (au)            (Debye)         (10**-30 SI)
   Tot        0.428198D+00      0.108837D+01      0.363041D+01
   x          0.000000D+00      0.000000D+00      0.000000D+00
   y          0.000000D+00      0.000000D+00      0.000000D+00
   z          0.428198D+00      0.108837D+01      0.363041D+01

 Dipole polarizability, Alpha (dipole orientation).
 (esu units = cm**3 , SI units = C**2 m**2 J**-1)
 Alpha(0;0):
               (au)            (10**-24 esu)      (10**-40 SI)
   iso        0.260928D+02      0.386656D+01      0.430213D+01
   aniso      0.146490D+02      0.217076D+01      0.241529D+01
   xx         0.312829D+02      0.463564D+01      0.515785D+01
   yx         0.000000D+00      0.000000D+00      0.000000D+00
   yy         0.176011D+02      0.260822D+01      0.290203D+01
   zx         0.406912D+01      0.602982D+00      0.670908D+00
   zy         0.000000D+00      0.000000D+00      0.000000D+00
   zz         0.293945D+02      0.435582D+01      0.484650D+01

 ----------------------------------------------------------------------
 1\1\GINC-N2174\Freq\RMP2-FC\Aug-CC-pVTZ\H1N1O3\CGAVINH\06-Mar-2022\1\\
 #p freq mp2/aug-cc-pvtz density=current\\title\\0,1\H\O,1,r1\O,2,r2,1,
 a1\N,3,r3,2,a2,1,d1,0\O,4,r4,3,a3,2,d2,0\\r1=0.97773208\r2=1.42673666\
 r3=1.38110764\r4=1.19478846\a1=100.6355057\a2=113.13777052\a3=114.3339
 2022\d1=0.\d2=0.\\Version=ES64L-G16RevB.01\State=1-A'\HF=-279.5068403\
 MP2=-280.4551934\RMSD=4.317e-09\RMSF=2.357e-03\ZeroPoint=0.0232373\The
 rmal=0.0273801\Dipole=-0.1105027,0.,-0.413694\DipoleDeriv=0.3139739,0.
 ,0.0389607,0.,0.2992584,0.,-0.0206549,0.,0.19814,-0.527622,0.,0.281545
 8,0.,-0.2553008,0.,-0.1096775,0.,-0.1254149,0.0050728,0.,0.3373791,0.,
 -0.0102993,0.,0.4428685,0.,-0.921403,0.2001654,0.,-0.1404895,0.,0.0122
 901,0.,-0.6651577,0.,1.7192741,0.0084098,0.,-0.517396,0.,-0.0459484,0.
 ,0.3526216,0.,-0.8705962\Polar=29.1280508,0.,17.6011285,-3.9979434,0.,
 31.549343\Quadrupole=0.1529241,0.6128316,-0.7657558,0.,1.3971216,0.\PG
 =CS [SG(H1N1O3)]\NImag=0\\0.07005009,0.,0.00248458,0.02384467,0.,0.461
 63390,-0.04910991,0.,-0.00519451,0.27823836,0.,0.00108323,0.,0.,0.0086
 7783,0.03298271,0.,-0.44550894,-0.01212996,0.,0.54743923,-0.02559475,0
 .,-0.01553081,-0.17084190,0.,-0.09174642,0.30439849,0.,-0.00419698,0.,
 0.,-0.01892187,0.,0.,0.04086500,-0.04490716,0.,-0.01982721,0.01101064,
 0.,-0.09680700,0.08183729,0.,0.31687016,-0.00557420,0.,0.00657737,-0.0
 8403941,0.,0.04032542,-0.14404467,0.,-0.03566537,0.55433860,0.,0.00805
 938,0.,0.,0.01978560,0.,0.,-0.04783473,0.,0.,0.05743787,-0.01878531,0.
 ,0.01183194,0.01059306,0.,-0.01022583,0.01607787,0.,-0.02548556,0.2432
 9594,0.,0.44881760,0.01022878,0.,-0.00969672,0.02575287,0.,0.03056826,
 0.03608284,0.,-0.01227541,-0.32068031,0.,-0.25118156,0.24861583,0.,-0.
 00743022,0.,0.,-0.01062478,0.,0.,0.03008858,0.,0.,-0.03744813,0.,0.,0.
 02541456,0.00686509,0.,-0.00812969,-0.00427922,0.,0.00510253,0.0093620
 7,0.,-0.17475038,-0.25453336,0.,-0.42493814,0.24258543,0.,0.60271568\\
 0.00032195,0.,0.00651260,0.00010000,0.,-0.00636535,-0.00037793,0.,0.00
 007951,-0.00011169,0.,-0.00032705,0.00006767,0.,0.00010028\\\@


 THE MORE PROGRESS PHYSICAL SCIENCES MAKE, THE MORE THEY TEND TO ENTER
 THE DOMAIN OF MATHEMATICS, WHICH IS A KIND OF CENTRE TO WHICH THEY ALL
 CONVERGE.  WE MAY EVEN JUDGE THE DEGREE OF PERFECTION TO WHICH A 
 SCIENCE HAS ARRIVED BY THE FACILITY WITH WHICH IT MAY BE SUBMITTED
 TO CALCULATION.

                               -- ADOLPHE QUETELET, 1796-1874
 Job cpu time:       0 days  2 hours  0 minutes  9.9 seconds.
 Elapsed time:       0 days  0 hours  4 minutes 20.7 seconds.
 File lengths (MBytes):  RWF=   7239 Int=      0 D2E=      0 Chk=      8 Scr=      1
 Normal termination of Gaussian 16 at Sun Mar  6 18:54:51 2022.
