 Entering Gaussian System, Link 0=g16
 Input=hoono_r4_1p205088.gjf
 Output=hoono_r4_1p205088.log
 Initial command:
 /sw/contrib/gaussian/g16/B01/g16/l1.exe "/scr/Gau-15002.inp" -scrdir="/scr/"
 Entering Link 1 = /sw/contrib/gaussian/g16/B01/g16/l1.exe PID=     15003.
  
 Copyright (c) 1988-2017, Gaussian, Inc.  All Rights Reserved.
  
 This is part of the Gaussian(R) 16 program.  It is based on
 the Gaussian(R) 09 system (copyright 2009, Gaussian, Inc.),
 the Gaussian(R) 03 system (copyright 2003, Gaussian, Inc.),
 the Gaussian(R) 98 system (copyright 1998, Gaussian, Inc.),
 the Gaussian(R) 94 system (copyright 1995, Gaussian, Inc.),
 the Gaussian 92(TM) system (copyright 1992, Gaussian, Inc.),
 the Gaussian 90(TM) system (copyright 1990, Gaussian, Inc.),
 the Gaussian 88(TM) system (copyright 1988, Gaussian, Inc.),
 the Gaussian 86(TM) system (copyright 1986, Carnegie Mellon
 University), and the Gaussian 82(TM) system (copyright 1983,
 Carnegie Mellon University). Gaussian is a federally registered
 trademark of Gaussian, Inc.
  
 This software contains proprietary and confidential information,
 including trade secrets, belonging to Gaussian, Inc.
  
 This software is provided under written license and may be
 used, copied, transmitted, or stored only in accord with that
 written license.
  
 The following legend is applicable only to US Government
 contracts under FAR:
  
                    RESTRICTED RIGHTS LEGEND
  
 Use, reproduction and disclosure by the US Government is
 subject to restrictions as set forth in subparagraphs (a)
 and (c) of the Commercial Computer Software - Restricted
 Rights clause in FAR 52.227-19.
  
 Gaussian, Inc.
 340 Quinnipiac St., Bldg. 40, Wallingford CT 06492
  
  
 ---------------------------------------------------------------
 Warning -- This program may not be used in any manner that
 competes with the business of Gaussian, Inc. or will provide
 assistance to any competitor of Gaussian, Inc.  The licensee
 of this program is prohibited from giving any competitor of
 Gaussian, Inc. access to this program.  By using this program,
 the user acknowledges that Gaussian, Inc. is engaged in the
 business of creating and licensing software in the field of
 computational chemistry and represents and warrants to the
 licensee that it is not a competitor of Gaussian, Inc. and that
 it will not use this program in any manner prohibited above.
 ---------------------------------------------------------------
  

 Cite this work as:
 Gaussian 16, Revision B.01,
 M. J. Frisch, G. W. Trucks, H. B. Schlegel, G. E. Scuseria, 
 M. A. Robb, J. R. Cheeseman, G. Scalmani, V. Barone, 
 G. A. Petersson, H. Nakatsuji, X. Li, M. Caricato, A. V. Marenich, 
 J. Bloino, B. G. Janesko, R. Gomperts, B. Mennucci, H. P. Hratchian, 
 J. V. Ortiz, A. F. Izmaylov, J. L. Sonnenberg, D. Williams-Young, 
 F. Ding, F. Lipparini, F. Egidi, J. Goings, B. Peng, A. Petrone, 
 T. Henderson, D. Ranasinghe, V. G. Zakrzewski, J. Gao, N. Rega, 
 G. Zheng, W. Liang, M. Hada, M. Ehara, K. Toyota, R. Fukuda, 
 J. Hasegawa, M. Ishida, T. Nakajima, Y. Honda, O. Kitao, H. Nakai, 
 T. Vreven, K. Throssell, J. A. Montgomery, Jr., J. E. Peralta, 
 F. Ogliaro, M. J. Bearpark, J. J. Heyd, E. N. Brothers, K. N. Kudin, 
 V. N. Staroverov, T. A. Keith, R. Kobayashi, J. Normand, 
 K. Raghavachari, A. P. Rendell, J. C. Burant, S. S. Iyengar, 
 J. Tomasi, M. Cossi, J. M. Millam, M. Klene, C. Adamo, R. Cammi, 
 J. W. Ochterski, R. L. Martin, K. Morokuma, O. Farkas, 
 J. B. Foresman, and D. J. Fox, Gaussian, Inc., Wallingford CT, 2016.
 
 ******************************************
 Gaussian 16:  ES64L-G16RevB.01 20-Dec-2017
                 6-Mar-2022 
 ******************************************
 %nproc=28
 Will use up to   28 processors via shared memory.
 %mem=120GB
 %chk=hoono_r4_1p205088.chk
 ---------------------------------------
 #p freq mp2/aug-cc-pvtz density=current
 ---------------------------------------
 1/10=4,30=1,38=1/1,3;
 2/12=2,17=6,18=5,40=1/2;
 3/5=16,6=1,7=10,11=9,25=1,30=1,71=2,140=1/1,2,3;
 4//1;
 5/5=2,38=5,98=1/2;
 8/6=3,8=1,10=1,19=11,30=-1/1;
 9/15=3,16=-3/6;
 11/6=1,8=1,15=11,17=12,24=-1,27=1,28=-2,29=300,32=6,42=3/1,2,10;
 10/6=2,21=1/2;
 8/6=4,8=1,10=1,19=11,30=-1/11,4;
 10/5=1,20=4/2;
 11/12=2,14=11,16=1,17=2,28=-2,42=3,76=2/2,10,12;
 6/7=2,8=2,9=2,10=2,22=-1/1;
 7/8=1,10=1,12=2,25=1,44=2/1,2,3,16;
 1/10=4,30=1/3;
 99//99;
 Leave Link    1 at Sun Mar  6 19:12:30 2022, MaxMem= 16106127360 cpu:               2.5 elap:               0.1
 (Enter /sw/contrib/gaussian/g16/B01/g16/l101.exe)
 -----
 title
 -----
 Symbolic Z-matrix:
 Charge =  0 Multiplicity = 1
 H
 O                    1    r1
 O                    2    r2       1    a1
 N                    3    r3       2    a2       1    d1       0
 O                    4    r4       3    a3       2    d2       0
       Variables:
  r1                    0.98538                  
  r2                    1.42674                  
  r3                    1.38111                  
  r4                    1.20509                  
  a1                  100.63551                  
  a2                  113.13777                  
  a3                  114.33392                  
  d1                    0.                       
  d2                    0.                       
 
 ITRead=  0  0  0  0  0
 MicOpt= -1 -1 -1 -1 -1
 NAtoms=      5 NQM=        5 NQMF=       0 NMMI=      0 NMMIF=      0
                NMic=       0 NMicF=      0.
                    Isotopes and Nuclear Properties:
 (Nuclear quadrupole moments (NQMom) in fm**2, nuclear magnetic moments (NMagM)
  in nuclear magnetons)

  Atom         1           2           3           4           5
 IAtWgt=           1          16          16          14          16
 AtmWgt=   1.0078250  15.9949146  15.9949146  14.0030740  15.9949146
 NucSpn=           1           0           0           2           0
 AtZEff=  -0.0000000  -0.0000000  -0.0000000  -0.0000000  -0.0000000
 NQMom=    0.0000000   0.0000000   0.0000000   2.0440000   0.0000000
 NMagM=    2.7928460   0.0000000   0.0000000   0.4037610   0.0000000
 AtZNuc=   1.0000000   8.0000000   8.0000000   7.0000000   8.0000000
 Leave Link  101 at Sun Mar  6 19:12:30 2022, MaxMem= 16106127360 cpu:               3.3 elap:               0.1
 (Enter /sw/contrib/gaussian/g16/B01/g16/l103.exe)

 GradGradGradGradGradGradGradGradGradGradGradGradGradGradGradGradGradGrad
 Berny optimization.
 Initialization pass.
                       ----------------------------
                       !    Initial Parameters    !
                       ! (Angstroms and Degrees)  !
 ----------------------                            ----------------------
 !      Name          Value   Derivative information (Atomic Units)     !
 ------------------------------------------------------------------------
 !       r1          0.9854   calculate D2E/DX2 analytically            !
 !       r2          1.4267   calculate D2E/DX2 analytically            !
 !       r3          1.3811   calculate D2E/DX2 analytically            !
 !       r4          1.2051   calculate D2E/DX2 analytically            !
 !       a1        100.6355   calculate D2E/DX2 analytically            !
 !       a2        113.1378   calculate D2E/DX2 analytically            !
 !       a3        114.3339   calculate D2E/DX2 analytically            !
 !       d1          0.0      calculate D2E/DX2 analytically            !
 !       d2          0.0      calculate D2E/DX2 analytically            !
 ------------------------------------------------------------------------
 Trust Radius=3.00D-01 FncErr=1.00D-07 GrdErr=1.00D-07 EigMax=2.50D+02 EigMin=1.00D-04
 Number of steps in this run=      2 maximum allowed number of steps=      2.
 GradGradGradGradGradGradGradGradGradGradGradGradGradGradGradGradGradGrad

 Leave Link  103 at Sun Mar  6 19:12:30 2022, MaxMem= 16106127360 cpu:               0.7 elap:               0.0
 (Enter /sw/contrib/gaussian/g16/B01/g16/l202.exe)
                          Input orientation:                          
 ---------------------------------------------------------------------
 Center     Atomic      Atomic             Coordinates (Angstroms)
 Number     Number       Type             X           Y           Z
 ---------------------------------------------------------------------
      1          1           0        0.000000    0.000000    0.000000
      2          8           0        0.000000    0.000000    0.985377
      3          8           0        1.402227    0.000000    1.248696
      4          7           0        2.169996    0.000000    0.100659
      5          8           0        1.533309    0.000000   -0.922508
 ---------------------------------------------------------------------
                    Distance matrix (angstroms):
                    1          2          3          4          5
     1  H    0.000000
     2  O    0.985377   0.000000
     3  O    1.877627   1.426737   0.000000
     4  N    2.172329   2.343418   1.381108   0.000000
     5  O    1.789429   2.447664   2.175157   1.205089   0.000000
 Stoichiometry    HNO3
 Framework group  CS[SG(HNO3)]
 Deg. of freedom     7
 Full point group                 CS      NOp   2
 Largest Abelian subgroup         CS      NOp   2
 Largest concise Abelian subgroup C1      NOp   1
                         Standard orientation:                         
 ---------------------------------------------------------------------
 Center     Atomic      Atomic             Coordinates (Angstroms)
 Number     Number       Type             X           Y           Z
 ---------------------------------------------------------------------
      1          1           0        1.107755   -0.596622    0.000000
      2          8           0        1.315306    0.366648    0.000000
      3          8           0       -0.000000    0.919412    0.000000
      4          7           0       -0.992356   -0.041154    0.000000
      5          8           0       -0.585464   -1.175472    0.000000
 ---------------------------------------------------------------------
 Rotational constants (GHZ):          21.1837880           8.0921343           5.8553939
 Leave Link  202 at Sun Mar  6 19:12:31 2022, MaxMem= 16106127360 cpu:               0.3 elap:               0.0
 (Enter /sw/contrib/gaussian/g16/B01/g16/l301.exe)
 Standard basis: Aug-CC-pVTZ (5D, 7F)
 Ernie: Thresh=  0.10000D-02 Tol=  0.10000D-05 Strict=F.
 Ernie:  12 primitive shells out of 131 were deleted.
 There are   166 symmetry adapted cartesian basis functions of A'  symmetry.
 There are    79 symmetry adapted cartesian basis functions of A"  symmetry.
 There are   136 symmetry adapted basis functions of A'  symmetry.
 There are    71 symmetry adapted basis functions of A"  symmetry.
   207 basis functions,   315 primitive gaussians,   245 cartesian basis functions
    16 alpha electrons       16 beta electrons
       nuclear repulsion energy       122.4590756141 Hartrees.
 IExCor=    0 DFT=F Ex=HF Corr=None ExCW=0 ScaHFX=  1.000000
 ScaDFX=  1.000000  1.000000  1.000000  1.000000 ScalE2=  1.000000  1.000000
 IRadAn=      5 IRanWt=     -1 IRanGd=            0 ICorTp=0 IEmpDi=  4
 NAtoms=    5 NActive=    5 NUniq=    5 SFac= 1.00D+00 NAtFMM=   60 NAOKFM=F Big=F
 Integral buffers will be    131072 words long.
 Raffenetti 1 integral format.
 Two-electron integral symmetry is turned on.
 Leave Link  301 at Sun Mar  6 19:12:31 2022, MaxMem= 16106127360 cpu:               1.7 elap:               0.1
 (Enter /sw/contrib/gaussian/g16/B01/g16/l302.exe)
 NPDir=0 NMtPBC=     1 NCelOv=     1 NCel=       1 NClECP=     1 NCelD=      1
         NCelK=      1 NCelE2=     1 NClLst=     1 CellRange=     0.0.
 One-electron integrals computed using PRISM.
 One-electron integral symmetry used in STVInt
 NBasis=   207 RedAO= T EigKep=  1.33D-04  NBF=   136    71
 NBsUse=   207 1.00D-06 EigRej= -1.00D+00 NBFU=   136    71
 Leave Link  302 at Sun Mar  6 19:12:31 2022, MaxMem= 16106127360 cpu:               4.6 elap:               0.2
 (Enter /sw/contrib/gaussian/g16/B01/g16/l303.exe)
 DipDrv:  MaxL=1.
 Leave Link  303 at Sun Mar  6 19:12:31 2022, MaxMem= 16106127360 cpu:               1.2 elap:               0.1
 (Enter /sw/contrib/gaussian/g16/B01/g16/l401.exe)
 ExpMin= 2.53D-02 ExpMax= 1.53D+04 ExpMxC= 5.22D+02 IAcc=3 IRadAn=         5 AccDes= 0.00D+00
 Harris functional with IExCor=  205 and IRadAn=       5 diagonalized for initial guess.
 HarFok:  IExCor=  205 AccDes= 0.00D+00 IRadAn=         5 IDoV= 1 UseB2=F ITyADJ=14
 ICtDFT=  3500011 ScaDFX=  1.000000  1.000000  1.000000  1.000000
 FoFCou: FMM=F IPFlag=           0 FMFlag=      100000 FMFlg1=           0
         NFxFlg=           0 DoJE=T BraDBF=F KetDBF=T FulRan=T
         wScrn=  0.000000 ICntrl=       500 IOpCl=  0 I1Cent=   200000004 NGrid=           0
         NMat0=    1 NMatS0=      1 NMatT0=    0 NMatD0=    1 NMtDS0=    0 NMtDT0=    0
 Petite list used in FoFCou.
 Harris En= -279.644950120742    
 JPrj=0 DoOrth=F DoCkMO=F.
 Initial guess orbital symmetries:
       Occupied  (A') (A') (A') (A') (A') (A') (A') (A') (A') (A')
                 (A") (A') (A") (A') (A") (A')
       Virtual   (A") (A') (A') (A') (A') (A") (A') (A') (A') (A')
                 (A") (A') (A") (A') (A') (A") (A') (A') (A") (A')
                 (A') (A') (A') (A') (A") (A') (A') (A') (A") (A')
                 (A') (A") (A") (A') (A') (A") (A') (A") (A') (A")
                 (A') (A") (A') (A") (A') (A') (A') (A") (A') (A')
                 (A') (A") (A') (A") (A') (A") (A') (A') (A') (A")
                 (A') (A') (A") (A') (A') (A') (A") (A") (A') (A')
                 (A") (A') (A") (A") (A') (A') (A") (A') (A') (A')
                 (A") (A') (A') (A") (A') (A") (A') (A") (A') (A')
                 (A') (A") (A') (A") (A') (A') (A") (A') (A") (A')
                 (A") (A') (A') (A") (A") (A') (A') (A') (A") (A')
                 (A") (A') (A') (A') (A") (A') (A') (A') (A") (A')
                 (A") (A') (A') (A") (A") (A") (A") (A') (A') (A')
                 (A') (A') (A') (A") (A') (A") (A') (A") (A') (A')
                 (A") (A") (A') (A') (A') (A") (A') (A') (A') (A")
                 (A') (A') (A') (A") (A') (A") (A") (A') (A") (A')
                 (A') (A") (A") (A') (A") (A') (A') (A") (A") (A')
                 (A") (A") (A") (A') (A") (A') (A') (A') (A') (A")
                 (A') (A') (A') (A') (A') (A') (A') (A') (A') (A')
                 (A')
 The electronic state of the initial guess is 1-A'.
 Leave Link  401 at Sun Mar  6 19:12:31 2022, MaxMem= 16106127360 cpu:               6.9 elap:               0.3
 (Enter /sw/contrib/gaussian/g16/B01/g16/l502.exe)
 Keep R1 ints in memory in symmetry-blocked form, NReq=348887737.
 FoFCou: FMM=F IPFlag=           0 FMFlag=           0 FMFlg1=           0
         NFxFlg=           0 DoJE=F BraDBF=F KetDBF=F FulRan=T
         wScrn=  0.000000 ICntrl=       600 IOpCl=  0 I1Cent=           0 NGrid=           0
         NMat0=    1 NMatS0=  21528 NMatT0=    0 NMatD0=    1 NMtDS0=    0 NMtDT0=    0
 Petite list used in FoFCou.
 Closed shell SCF:
 Using DIIS extrapolation, IDIIS=  1040.
 NGot= 16106127360 LenX= 15988850015 LenY= 15988789549
 Requested convergence on RMS density matrix=1.00D-08 within 128 cycles.
 Requested convergence on MAX density matrix=1.00D-06.
 Requested convergence on             energy=1.00D-06.
 No special actions if energy rises.

 Cycle   1  Pass 1  IDiag  1:
 E= -279.360349309207    
 DIIS: error= 2.77D-02 at cycle   1 NSaved=   1.
 NSaved= 1 IEnMin= 1 EnMin= -279.360349309207     IErMin= 1 ErrMin= 2.77D-02
 ErrMax= 2.77D-02  0.00D+00 EMaxC= 1.00D-01 BMatC= 4.52D-01 BMatP= 4.52D-01
 IDIUse=3 WtCom= 7.23D-01 WtEn= 2.77D-01
 Coeff-Com:  0.100D+01
 Coeff-En:   0.100D+01
 Coeff:      0.100D+01
 Gap=     0.494 Goal=   None    Shift=    0.000
 GapD=    0.494 DampG=2.000 DampE=0.500 DampFc=1.0000 IDamp=-1.
 RMSDP=1.69D-03 MaxDP=8.81D-02              OVMax= 1.27D-01

 Cycle   2  Pass 1  IDiag  1:
 E= -279.441158419154     Delta-E=       -0.080809109947 Rises=F Damp=F
 DIIS: error= 2.01D-02 at cycle   2 NSaved=   2.
 NSaved= 2 IEnMin= 2 EnMin= -279.441158419154     IErMin= 2 ErrMin= 2.01D-02
 ErrMax= 2.01D-02  0.00D+00 EMaxC= 1.00D-01 BMatC= 9.03D-02 BMatP= 4.52D-01
 IDIUse=3 WtCom= 7.99D-01 WtEn= 2.01D-01
 Coeff-Com:  0.226D+00 0.774D+00
 Coeff-En:   0.105D+00 0.895D+00
 Coeff:      0.201D+00 0.799D+00
 Gap=     0.562 Goal=   None    Shift=    0.000
 RMSDP=9.81D-04 MaxDP=3.64D-02 DE=-8.08D-02 OVMax= 9.51D-02

 Cycle   3  Pass 1  IDiag  1:
 E= -279.481661851545     Delta-E=       -0.040503432391 Rises=F Damp=F
 DIIS: error= 1.13D-02 at cycle   3 NSaved=   3.
 NSaved= 3 IEnMin= 3 EnMin= -279.481661851545     IErMin= 3 ErrMin= 1.13D-02
 ErrMax= 1.13D-02  0.00D+00 EMaxC= 1.00D-01 BMatC= 3.14D-02 BMatP= 9.03D-02
 IDIUse=3 WtCom= 8.87D-01 WtEn= 1.13D-01
 Coeff-Com: -0.349D-01 0.360D+00 0.675D+00
 Coeff-En:   0.000D+00 0.212D+00 0.788D+00
 Coeff:     -0.310D-01 0.343D+00 0.688D+00
 Gap=     0.542 Goal=   None    Shift=    0.000
 RMSDP=4.15D-04 MaxDP=1.62D-02 DE=-4.05D-02 OVMax= 4.04D-02

 Cycle   4  Pass 1  IDiag  1:
 E= -279.503210516006     Delta-E=       -0.021548664462 Rises=F Damp=F
 DIIS: error= 1.64D-03 at cycle   4 NSaved=   4.
 NSaved= 4 IEnMin= 4 EnMin= -279.503210516006     IErMin= 4 ErrMin= 1.64D-03
 ErrMax= 1.64D-03  0.00D+00 EMaxC= 1.00D-01 BMatC= 6.22D-04 BMatP= 3.14D-02
 IDIUse=3 WtCom= 9.84D-01 WtEn= 1.64D-02
 Coeff-Com: -0.121D-01 0.458D-01 0.155D+00 0.811D+00
 Coeff-En:   0.000D+00 0.000D+00 0.000D+00 0.100D+01
 Coeff:     -0.119D-01 0.450D-01 0.153D+00 0.814D+00
 Gap=     0.529 Goal=   None    Shift=    0.000
 RMSDP=1.00D-04 MaxDP=2.29D-03 DE=-2.15D-02 OVMax= 1.19D-02

 Cycle   5  Pass 1  IDiag  1:
 E= -279.504050198384     Delta-E=       -0.000839682378 Rises=F Damp=F
 DIIS: error= 1.11D-03 at cycle   5 NSaved=   5.
 NSaved= 5 IEnMin= 5 EnMin= -279.504050198384     IErMin= 5 ErrMin= 1.11D-03
 ErrMax= 1.11D-03  0.00D+00 EMaxC= 1.00D-01 BMatC= 1.06D-04 BMatP= 6.22D-04
 IDIUse=3 WtCom= 9.89D-01 WtEn= 1.11D-02
 Coeff-Com:  0.548D-02-0.656D-01-0.112D+00 0.586D-01 0.111D+01
 Coeff-En:   0.000D+00 0.000D+00 0.000D+00 0.000D+00 0.100D+01
 Coeff:      0.542D-02-0.649D-01-0.111D+00 0.579D-01 0.111D+01
 Gap=     0.533 Goal=   None    Shift=    0.000
 RMSDP=8.11D-05 MaxDP=2.14D-03 DE=-8.40D-04 OVMax= 1.31D-02

 Cycle   6  Pass 1  IDiag  1:
 E= -279.504424752255     Delta-E=       -0.000374553871 Rises=F Damp=F
 DIIS: error= 3.32D-04 at cycle   6 NSaved=   6.
 NSaved= 6 IEnMin= 6 EnMin= -279.504424752255     IErMin= 6 ErrMin= 3.32D-04
 ErrMax= 3.32D-04  0.00D+00 EMaxC= 1.00D-01 BMatC= 2.48D-05 BMatP= 1.06D-04
 IDIUse=3 WtCom= 9.97D-01 WtEn= 3.32D-03
 Coeff-Com:  0.189D-02-0.672D-02-0.176D-01-0.183D+00 0.101D-01 0.120D+01
 Coeff-En:   0.000D+00 0.000D+00 0.000D+00 0.000D+00 0.000D+00 0.100D+01
 Coeff:      0.189D-02-0.670D-02-0.176D-01-0.182D+00 0.100D-01 0.119D+01
 Gap=     0.533 Goal=   None    Shift=    0.000
 RMSDP=4.73D-05 MaxDP=1.09D-03 DE=-3.75D-04 OVMax= 6.21D-03

 Cycle   7  Pass 1  IDiag  1:
 E= -279.504513402285     Delta-E=       -0.000088650030 Rises=F Damp=F
 DIIS: error= 1.29D-04 at cycle   7 NSaved=   7.
 NSaved= 7 IEnMin= 7 EnMin= -279.504513402285     IErMin= 7 ErrMin= 1.29D-04
 ErrMax= 1.29D-04  0.00D+00 EMaxC= 1.00D-01 BMatC= 3.68D-06 BMatP= 2.48D-05
 IDIUse=3 WtCom= 9.99D-01 WtEn= 1.29D-03
 Coeff-Com: -0.110D-02 0.112D-01 0.251D-01 0.152D-01-0.179D+00-0.146D+00
 Coeff-Com:  0.127D+01
 Coeff-En:   0.000D+00 0.000D+00 0.000D+00 0.000D+00 0.000D+00 0.000D+00
 Coeff-En:   0.100D+01
 Coeff:     -0.110D-02 0.112D-01 0.250D-01 0.152D-01-0.179D+00-0.146D+00
 Coeff:      0.127D+01
 Gap=     0.533 Goal=   None    Shift=    0.000
 RMSDP=1.77D-05 MaxDP=5.26D-04 DE=-8.87D-05 OVMax= 2.38D-03

 Cycle   8  Pass 1  IDiag  1:
 E= -279.504525835878     Delta-E=       -0.000012433594 Rises=F Damp=F
 DIIS: error= 4.95D-05 at cycle   8 NSaved=   8.
 NSaved= 8 IEnMin= 8 EnMin= -279.504525835878     IErMin= 8 ErrMin= 4.95D-05
 ErrMax= 4.95D-05  0.00D+00 EMaxC= 1.00D-01 BMatC= 6.50D-07 BMatP= 3.68D-06
 IDIUse=1 WtCom= 1.00D+00 WtEn= 0.00D+00
 Coeff-Com: -0.574D-03 0.407D-02 0.990D-02 0.250D-01-0.568D-01-0.198D+00
 Coeff-Com:  0.360D+00 0.856D+00
 Coeff:     -0.574D-03 0.407D-02 0.990D-02 0.250D-01-0.568D-01-0.198D+00
 Coeff:      0.360D+00 0.856D+00
 Gap=     0.533 Goal=   None    Shift=    0.000
 RMSDP=5.69D-06 MaxDP=1.62D-04 DE=-1.24D-05 OVMax= 6.87D-04

 Cycle   9  Pass 1  IDiag  1:
 E= -279.504527342925     Delta-E=       -0.000001507047 Rises=F Damp=F
 DIIS: error= 2.56D-05 at cycle   9 NSaved=   9.
 NSaved= 9 IEnMin= 9 EnMin= -279.504527342925     IErMin= 9 ErrMin= 2.56D-05
 ErrMax= 2.56D-05  0.00D+00 EMaxC= 1.00D-01 BMatC= 1.26D-07 BMatP= 6.50D-07
 IDIUse=1 WtCom= 1.00D+00 WtEn= 0.00D+00
 Coeff-Com:  0.249D-03-0.258D-02-0.544D-02-0.570D-02 0.478D-01 0.499D-01
 Coeff-Com: -0.346D+00 0.237D-01 0.124D+01
 Coeff:      0.249D-03-0.258D-02-0.544D-02-0.570D-02 0.478D-01 0.499D-01
 Coeff:     -0.346D+00 0.237D-01 0.124D+01
 Gap=     0.533 Goal=   None    Shift=    0.000
 RMSDP=2.62D-06 MaxDP=7.13D-05 DE=-1.51D-06 OVMax= 2.75D-04

 Cycle  10  Pass 1  IDiag  1:
 E= -279.504527639414     Delta-E=       -0.000000296489 Rises=F Damp=F
 DIIS: error= 6.12D-06 at cycle  10 NSaved=  10.
 NSaved=10 IEnMin=10 EnMin= -279.504527639414     IErMin=10 ErrMin= 6.12D-06
 ErrMax= 6.12D-06  0.00D+00 EMaxC= 1.00D-01 BMatC= 9.61D-09 BMatP= 1.26D-07
 IDIUse=1 WtCom= 1.00D+00 WtEn= 0.00D+00
 Coeff-Com: -0.386D-04 0.485D-03 0.120D-02-0.209D-02-0.109D-01 0.639D-02
 Coeff-Com:  0.718D-01-0.535D-01-0.435D+00 0.142D+01
 Coeff:     -0.386D-04 0.485D-03 0.120D-02-0.209D-02-0.109D-01 0.639D-02
 Coeff:      0.718D-01-0.535D-01-0.435D+00 0.142D+01
 Gap=     0.533 Goal=   None    Shift=    0.000
 RMSDP=7.61D-07 MaxDP=2.70D-05 DE=-2.96D-07 OVMax= 8.35D-05

 Cycle  11  Pass 1  IDiag  1:
 E= -279.504527668759     Delta-E=       -0.000000029344 Rises=F Damp=F
 DIIS: error= 2.30D-06 at cycle  11 NSaved=  11.
 NSaved=11 IEnMin=11 EnMin= -279.504527668759     IErMin=11 ErrMin= 2.30D-06
 ErrMax= 2.30D-06  0.00D+00 EMaxC= 1.00D-01 BMatC= 1.04D-09 BMatP= 9.61D-09
 IDIUse=1 WtCom= 1.00D+00 WtEn= 0.00D+00
 Coeff-Com: -0.202D-04 0.207D-03 0.456D-03 0.855D-03-0.314D-02-0.733D-02
 Coeff-Com:  0.253D-01 0.168D-01-0.819D-01-0.244D+00 0.129D+01
 Coeff:     -0.202D-04 0.207D-03 0.456D-03 0.855D-03-0.314D-02-0.733D-02
 Coeff:      0.253D-01 0.168D-01-0.819D-01-0.244D+00 0.129D+01
 Gap=     0.533 Goal=   None    Shift=    0.000
 RMSDP=2.67D-07 MaxDP=1.01D-05 DE=-2.93D-08 OVMax= 3.16D-05

 Cycle  12  Pass 1  IDiag  1:
 E= -279.504527672443     Delta-E=       -0.000000003684 Rises=F Damp=F
 DIIS: error= 9.04D-07 at cycle  12 NSaved=  12.
 NSaved=12 IEnMin=12 EnMin= -279.504527672443     IErMin=12 ErrMin= 9.04D-07
 ErrMax= 9.04D-07  0.00D+00 EMaxC= 1.00D-01 BMatC= 1.19D-10 BMatP= 1.04D-09
 IDIUse=1 WtCom= 1.00D+00 WtEn= 0.00D+00
 Coeff-Com:  0.242D-05-0.454D-04-0.102D-03 0.234D-03 0.125D-02-0.134D-02
 Coeff-Com: -0.764D-02 0.844D-02 0.465D-01-0.151D+00-0.133D+00 0.124D+01
 Coeff:      0.242D-05-0.454D-04-0.102D-03 0.234D-03 0.125D-02-0.134D-02
 Coeff:     -0.764D-02 0.844D-02 0.465D-01-0.151D+00-0.133D+00 0.124D+01
 Gap=     0.533 Goal=   None    Shift=    0.000
 RMSDP=9.86D-08 MaxDP=3.37D-06 DE=-3.68D-09 OVMax= 1.20D-05

 Cycle  13  Pass 1  IDiag  1:
 E= -279.504527672865     Delta-E=       -0.000000000422 Rises=F Damp=F
 DIIS: error= 1.89D-07 at cycle  13 NSaved=  13.
 NSaved=13 IEnMin=13 EnMin= -279.504527672865     IErMin=13 ErrMin= 1.89D-07
 ErrMax= 1.89D-07  0.00D+00 EMaxC= 1.00D-01 BMatC= 1.04D-11 BMatP= 1.19D-10
 IDIUse=1 WtCom= 1.00D+00 WtEn= 0.00D+00
 Coeff-Com:  0.151D-05-0.147D-04-0.226D-04-0.138D-03 0.900D-04 0.103D-02
 Coeff-Com: -0.143D-02-0.260D-02-0.895D-03 0.554D-01-0.128D+00-0.179D+00
 Coeff-Com:  0.126D+01
 Coeff:      0.151D-05-0.147D-04-0.226D-04-0.138D-03 0.900D-04 0.103D-02
 Coeff:     -0.143D-02-0.260D-02-0.895D-03 0.554D-01-0.128D+00-0.179D+00
 Coeff:      0.126D+01
 Gap=     0.533 Goal=   None    Shift=    0.000
 RMSDP=2.71D-08 MaxDP=8.39D-07 DE=-4.22D-10 OVMax= 2.59D-06

 Cycle  14  Pass 1  IDiag  1:
 E= -279.504527672893     Delta-E=       -0.000000000028 Rises=F Damp=F
 DIIS: error= 4.70D-08 at cycle  14 NSaved=  14.
 NSaved=14 IEnMin=14 EnMin= -279.504527672893     IErMin=14 ErrMin= 4.70D-08
 ErrMax= 4.70D-08  0.00D+00 EMaxC= 1.00D-01 BMatC= 6.07D-13 BMatP= 1.04D-11
 IDIUse=1 WtCom= 1.00D+00 WtEn= 0.00D+00
 Coeff-Com: -0.291D-06 0.447D-05 0.905D-05-0.648D-05-0.118D-03 0.833D-04
 Coeff-Com:  0.652D-03-0.337D-03-0.377D-02 0.854D-02 0.173D-01-0.799D-01
 Coeff-Com: -0.613D-01 0.112D+01
 Coeff:     -0.291D-06 0.447D-05 0.905D-05-0.648D-05-0.118D-03 0.833D-04
 Coeff:      0.652D-03-0.337D-03-0.377D-02 0.854D-02 0.173D-01-0.799D-01
 Coeff:     -0.613D-01 0.112D+01
 Gap=     0.533 Goal=   None    Shift=    0.000
 RMSDP=5.10D-09 MaxDP=1.24D-07 DE=-2.79D-11 OVMax= 5.27D-07

 SCF Done:  E(RHF) =  -279.504527673     A.U. after   14 cycles
            NFock= 14  Conv=0.51D-08     -V/T= 2.0024
 KE= 2.788404260301D+02 PE=-9.057512741905D+02 EE= 2.249472448734D+02
 Leave Link  502 at Sun Mar  6 19:12:35 2022, MaxMem= 16106127360 cpu:              55.3 elap:               3.5
 (Enter /sw/contrib/gaussian/g16/B01/g16/l801.exe)
 ExpMin= 2.53D-02 ExpMax= 1.53D+04 ExpMxC= 5.22D+02 IAcc=3 IRadAn=         5 AccDes= 0.00D+00
 HarFok:  IExCor=  205 AccDes= 0.00D+00 IRadAn=         5 IDoV=-2 UseB2=F ITyADJ=14
 ICtDFT= 12500011 ScaDFX=  1.000000  1.000000  1.000000  1.000000
 Largest valence mixing into a core orbital is  2.08D-04
 Largest core mixing into a valence orbital is  3.13D-05
 Range of M.O.s used for correlation:     5   207
 NBasis=   207 NAE=    16 NBE=    16 NFC=     4 NFV=     0
 NROrb=    203 NOA=    12 NOB=    12 NVA=   191 NVB=   191

 **** Warning!!: The largest alpha MO coefficient is  0.16165640D+02

 Leave Link  801 at Sun Mar  6 19:12:35 2022, MaxMem= 16106127360 cpu:               2.1 elap:               0.1
 (Enter /sw/contrib/gaussian/g16/B01/g16/l906.exe)
 Frozen-core derivative calculation, NFC=   4 NFV=   0.
 FulOut=F Deriv=T AODrv=T NAtomX=     5
   MMem=           0  MDisk=          12 MDiskD=          12
  W3Min=      811440 MinDsk=     2425030 NBas6D=         245
 NBas2D=       30762    NTT=       30135    LW2=     7400000
    MDV= 16105571560 MDiskM=      328644 NBas2p=       30759
 Disk-based method using ON**2 memory for 12 occupieds at a time.
 Permanent disk used for amplitudes=    11516536 words.
 Estimated scratch disk usage=   321863743 words.
 IMap=   1   2   3   4   5   6   7   8   9  10  11  12  13  14  15  16
 Actual    scratch disk usage=   310892607 words.
 JobTyp=1 Pass  1:  I=   5 to  16 NPSUse= 28 ParTrn=T ParDer=T DoDerP=T.
 (rs|ai) integrals will be sorted in core.
 Spin components of T(2) and E(2):
     alpha-alpha T2 =       0.3502673375D-01 E2=     -0.1247957226D+00
     alpha-beta  T2 =       0.1856699124D+00 E2=     -0.7009936029D+00
     beta-beta   T2 =       0.3502673375D-01 E2=     -0.1247957226D+00
 The integrals were generated   1 times.
 ANorm=    0.1120590639D+01
 E2 =    -0.9505850481D+00 EUMP2 =    -0.28045511272095D+03
 Leave Link  906 at Sun Mar  6 19:14:12 2022, MaxMem= 16106127360 cpu:            2702.3 elap:              96.6
 (Enter /sw/contrib/gaussian/g16/B01/g16/l1101.exe)
 Using compressed Sx but separate Hx and Fx, NAtomX=     5.
 Will process      6 centers per pass.
 Leave Link 1101 at Sun Mar  6 19:14:12 2022, MaxMem= 16106127360 cpu:               6.0 elap:               0.2
 (Enter /sw/contrib/gaussian/g16/B01/g16/l1102.exe)
 Leave Link 1102 at Sun Mar  6 19:14:12 2022, MaxMem= 16106127360 cpu:               1.0 elap:               0.1
 (Enter /sw/contrib/gaussian/g16/B01/g16/l1110.exe)
 Forming Gx(P) for the SCF density, NAtomX=     5.
 Integral derivatives from FoFJK, PRISM(SPDF).
 Do as many integral derivatives as possible in FoFJK.
 G2DrvN: MDV=   16106126844.
 G2DrvN: will do     6 centers at a time, making    1 passes.
 Calling FoFCou, ICntrl=  3107 FMM=F I1Cent=   0 AccDes= 0.00D+00.
 FoFJK:  IHMeth= 1 ICntrl=    3107 DoSepK=F KAlg= 0 I1Cent=           0 FoldK=F
 IRaf=         0 NMat=       1 IRICut=       1 DoRegI=T DoRafI=F ISym2E= 1 IDoP0=0 IntGTp=1.
 FoFCou: FMM=F IPFlag=           0 FMFlag=      100000 FMFlg1=           0
         NFxFlg=           0 DoJE=F BraDBF=F KetDBF=F FulRan=T
         wScrn=  0.000000 ICntrl=      3107 IOpCl=  0 I1Cent=           0 NGrid=           0
         NMat0=    1 NMatS0=      1 NMatT0=    0 NMatD0=    1 NMtDS0=    0 NMtDT0=    0
 Petite list used in FoFCou.
 End of G2Drv F.D. properties file   721 does not exist.
 End of G2Drv F.D. properties file   722 does not exist.
 End of G2Drv F.D. properties file   788 does not exist.
 Leave Link 1110 at Sun Mar  6 19:14:15 2022, MaxMem= 16106127360 cpu:              94.6 elap:               3.4
 (Enter /sw/contrib/gaussian/g16/B01/g16/l1002.exe)
 Minotr:  Closed shell wavefunction.
          IDoAtm=11111
          Frozen-core window.
          Direct CPHF calculation.
          Differentiating once with respect to electric field.
                with respect to dipole field.
          Differentiating once with respect to nuclear coordinates.
          Requested convergence is 1.0D-08 RMS, and 1.0D-07 maximum.
          Secondary convergence is 1.0D-12 RMS, and 1.0D-12 maximum.
          NewPWx=T KeepS1=T KeepF1=T KeepIn=T MapXYZ=F SortEE=F KeepMc=T.
 Keep R1 ints in memory in symmetry-blocked form, NReq=348888983.
 FoFCou: FMM=F IPFlag=           0 FMFlag=           0 FMFlg1=           0
         NFxFlg=           0 DoJE=F BraDBF=F KetDBF=F FulRan=T
         wScrn=  0.000000 ICntrl=       600 IOpCl=  0 I1Cent=           0 NGrid=           0
         NMat0=    1 NMatS0=  21528 NMatT0=    0 NMatD0=    1 NMtDS0=    0 NMtDT0=    0
 Petite list used in FoFCou.
          MDV=   16106127360 using IRadAn=       1.
          Solving linear equations simultaneously, MaxMat=       0.
          There are    18 degrees of freedom in the 1st order CPHF.  IDoFFX=6 NUNeed=    18.
     15 vectors produced by pass  0 Test12= 1.70D-14 5.56D-09 XBig12= 8.04D+00 1.26D+00.
 AX will form    15 AO Fock derivatives at one time.
     15 vectors produced by pass  1 Test12= 1.70D-14 5.56D-09 XBig12= 1.39D+00 2.31D-01.
     15 vectors produced by pass  2 Test12= 1.70D-14 5.56D-09 XBig12= 6.76D-02 5.82D-02.
     15 vectors produced by pass  3 Test12= 1.70D-14 5.56D-09 XBig12= 1.93D-03 1.02D-02.
     15 vectors produced by pass  4 Test12= 1.70D-14 5.56D-09 XBig12= 4.10D-05 1.25D-03.
     15 vectors produced by pass  5 Test12= 1.70D-14 5.56D-09 XBig12= 5.74D-07 1.12D-04.
     15 vectors produced by pass  6 Test12= 1.70D-14 5.56D-09 XBig12= 4.49D-09 1.09D-05.
     14 vectors produced by pass  7 Test12= 1.70D-14 5.56D-09 XBig12= 3.48D-11 7.61D-07.
      3 vectors produced by pass  8 Test12= 1.70D-14 5.56D-09 XBig12= 2.45D-13 6.18D-08.
      1 vectors produced by pass  9 Test12= 1.70D-14 5.56D-09 XBig12= 1.70D-15 6.45D-09.
 InvSVY:  IOpt=1 It=  1 EMax= 9.99D-16
 Solved reduced A of dimension   123 with    15 vectors.
 FullF1:  Do perturbations      1 to      18.
 Saving first derivative matrices.
 End of Minotr F.D. properties file   721 does not exist.
 End of Minotr F.D. properties file   722 does not exist.
 End of Minotr F.D. properties file   788 does not exist.
 Leave Link 1002 at Sun Mar  6 19:14:18 2022, MaxMem= 16106127360 cpu:              76.6 elap:               2.9
 (Enter /sw/contrib/gaussian/g16/B01/g16/l811.exe)
 MDV= 16106127360.
 Form MO integral derivatives with frozen-active canonical formalism.
 MOERI=1 MOERIx=1 NAtoms=     5 NAtomX=     5.
 Discarding MO integrals.
 MO basis two electron integral derivatives will not be stored on disk.
 IAlg= 3 DoFC=T DoPWx=T Debug=F.
 Frozen-core window:  NFC=   4 NFV=   0.
 Reordered first order wavefunction length =     18678272
 In DefCFB: NBatch=  1 ICI= 16 ICA=191 LFMax= 96
            Large arrays: LIAPS=   619940160 LIARS=   288257200 words.
 In StABat: MaxSiz= 55 MinSiz= 25 NAtomB=  5
 DoIAMN: NPSUse= 28.
 Leave Link  811 at Sun Mar  6 19:15:39 2022, MaxMem= 16106127360 cpu:            2270.5 elap:              81.3
 (Enter /sw/contrib/gaussian/g16/B01/g16/l804.exe)
 Frozen-core window:  NFC=   4 NFV=   0.
 Closed-shell transformation, MDV= 16106127360 ITran=4 ISComp=1.
 Semi-Direct transformation.
 ModeAB=           2 MOrb=            16 LenV=   16104919981
 LASXX=     67341636 LTotXX=    67341636 LenRXX=    67341636
 LTotAB=    68301760 MaxLAS=    99807120 LenRXY=    99807120
 NonZer=   134683272 LenScr=   202817536 LnRSAI=           0
 LnScr1=           0 LExtra=           0 Total=    369966292
 MaxDsk=          -1 SrtSym=           F ITran=            4
 DoSDTr:  NPSUse= 28
 JobTyp=0 Pass  1:  I=   1 to  16.
 (rs|ai) integrals will be sorted in core.
 Complete sort for first half transformation.
 First half transformation complete.
 Begin second half transformation for I=  10.
 Begin second half transformation for I=  10.
 Complete sort for second half transformation.
 Second half transformation complete.
 Spin components of T(2) and E(2):
     alpha-alpha T2 =       0.3502673375D-01 E2=     -0.1247957226D+00
     alpha-beta  T2 =       0.1856699124D+00 E2=     -0.7009936029D+00
     beta-beta   T2 =       0.3502673375D-01 E2=     -0.1247957226D+00
 ANorm=    0.1584754479D+01
 E2 =    -0.9505850481D+00 EUMP2 =    -0.28045511272095D+03
 Leave Link  804 at Sun Mar  6 19:15:55 2022, MaxMem= 16106127360 cpu:             444.0 elap:              15.9
 (Enter /sw/contrib/gaussian/g16/B01/g16/l1002.exe)
 Minotr:  Closed shell wavefunction.
          Computing MP2/KS-MP2 derivatives.
          Using Z-Vector for PSCF gradient.
          Skipping F1 and S1 gradient terms here.
          IDoAtm=11111
          Frozen-core window.
          Using MO integrals in the linear equations.
          Forming densities via direct SCF.
          Differentiating once with respect to electric field.
                with respect to dipole field.
          Differentiating once with respect to nuclear coordinates.
          Using symmetry in CPHF.
          Requested convergence is 1.0D-10 RMS, and 1.0D-09 maximum.
          NewPWx=F KeepS1=T KeepF1=T KeepIn=T MapXYZ=F SortEE=F KeepMc=T.
          MDV=   16106127360 using IRadAn=       5.
          Solving linear equations separately, MaxMat=       0.
          There are     1 degrees of freedom in the 1st order CPHF.  IDoFFX=0 NUNeed=     1.
 FoFJK:  IHMeth= 1 ICntrl=       0 DoSepK=F KAlg= 0 I1Cent=           0 FoldK=F
 IRaf=         0 NMat=       1 IRICut=       1 DoRegI=T DoRafI=F ISym2E= 0 IDoP0=0 IntGTp=1.
 FoFCou: FMM=F IPFlag=           0 FMFlag=      100000 FMFlg1=           0
         NFxFlg=           0 DoJE=F BraDBF=F KetDBF=F FulRan=T
         wScrn=  0.000000 ICntrl=         0 IOpCl=  0 I1Cent=           0 NGrid=           0
         NMat0=    1 NMatS0=      1 NMatT0=    0 NMatD0=    1 NMtDS0=    0 NMtDT0=    0
 Symmetry not used in FoFCou.
 LinEq1:  Iter=  0 NonCon=     1 RMS=6.66D-03 Max=1.68D-01 NDo=     1
 LinEq1:  Iter=  1 NonCon=     1 RMS=2.04D-03 Max=3.17D-02 NDo=     1
 LinEq1:  Iter=  2 NonCon=     1 RMS=9.12D-04 Max=1.49D-02 NDo=     1
 LinEq1:  Iter=  3 NonCon=     1 RMS=3.95D-04 Max=8.68D-03 NDo=     1
 LinEq1:  Iter=  4 NonCon=     1 RMS=1.43D-04 Max=1.72D-03 NDo=     1
 LinEq1:  Iter=  5 NonCon=     1 RMS=8.02D-05 Max=1.40D-03 NDo=     1
 LinEq1:  Iter=  6 NonCon=     1 RMS=2.50D-05 Max=3.01D-04 NDo=     1
 LinEq1:  Iter=  7 NonCon=     1 RMS=8.67D-06 Max=1.19D-04 NDo=     1
 LinEq1:  Iter=  8 NonCon=     1 RMS=4.20D-06 Max=6.73D-05 NDo=     1
 LinEq1:  Iter=  9 NonCon=     1 RMS=1.10D-06 Max=1.27D-05 NDo=     1
 LinEq1:  Iter= 10 NonCon=     1 RMS=2.44D-07 Max=3.05D-06 NDo=     1
 LinEq1:  Iter= 11 NonCon=     1 RMS=5.24D-08 Max=8.22D-07 NDo=     1
 LinEq1:  Iter= 12 NonCon=     1 RMS=1.23D-08 Max=1.76D-07 NDo=     1
 LinEq1:  Iter= 13 NonCon=     1 RMS=2.18D-09 Max=2.65D-08 NDo=     1
 LinEq1:  Iter= 14 NonCon=     1 RMS=4.50D-10 Max=5.99D-09 NDo=     1
 LinEq1:  Iter= 15 NonCon=     0 RMS=9.24D-11 Max=9.80D-10 NDo=     1
 Linear equations converged to 1.000D-10 1.000D-09 after    15 iterations.
 End of Minotr F.D. properties file   721 does not exist.
 End of Minotr F.D. properties file   722 does not exist.
 End of Minotr F.D. properties file   788 does not exist.
 Leave Link 1002 at Sun Mar  6 19:15:58 2022, MaxMem= 16106127360 cpu:              65.5 elap:               2.4
 (Enter /sw/contrib/gaussian/g16/B01/g16/l1102.exe)
 Use density number 2.
 Symmetrizing basis deriv contribution to polar:
 IMax=3 JMax=2 DiffMx= 0.00D+00
 Leave Link 1102 at Sun Mar  6 19:15:58 2022, MaxMem= 16106127360 cpu:               0.9 elap:               0.1
 (Enter /sw/contrib/gaussian/g16/B01/g16/l1110.exe)
 Forming Gx(P) for generalized density number  2 NAtomX=     5.
 Integral derivatives from FoFJK, PRISM(SPDF).
 Do as many integral derivatives as possible in FoFJK.
 G2DrvN: MDV=   16106126844.
 G2DrvN: will do     6 centers at a time, making    1 passes.
 Calling FoFCou, ICntrl=  3107 FMM=F I1Cent=   0 AccDes= 0.00D+00.
 FoFJK:  IHMeth= 1 ICntrl=    3107 DoSepK=F KAlg= 0 I1Cent=           0 FoldK=F
 IRaf=         0 NMat=       1 IRICut=       1 DoRegI=T DoRafI=F ISym2E= 1 IDoP0=0 IntGTp=1.
 FoFCou: FMM=F IPFlag=           0 FMFlag=      100000 FMFlg1=           0
         NFxFlg=           0 DoJE=F BraDBF=F KetDBF=F FulRan=T
         wScrn=  0.000000 ICntrl=      3107 IOpCl=  0 I1Cent=           0 NGrid=           0
         NMat0=    1 NMatS0=      1 NMatT0=    0 NMatD0=    1 NMtDS0=    0 NMtDT0=    0
 Petite list used in FoFCou.
 End of G2Drv F.D. properties file   721 does not exist.
 End of G2Drv F.D. properties file   722 does not exist.
 End of G2Drv F.D. properties file   788 does not exist.
 Leave Link 1110 at Sun Mar  6 19:16:01 2022, MaxMem= 16106127360 cpu:              90.1 elap:               3.3
 (Enter /sw/contrib/gaussian/g16/B01/g16/l1112.exe)
 MP22nd: MDV=   16106127360
 This link is doing NAtomX=     5 total of    18 degrees of freedom.
 Using ON3 I/O method in MakUI.
 Frozen-core window:  NFC=   4 NFV=   0.
 Using Ix for Sx.
 Use MO integrals over full window.
 Using OV2 memory method for fx*t*t/D, MaxI=    16 DoOO2=F NP=  28.
 R2 and R3 integrals will be kept in memory, NReq=   915591705.
 FoFCou: FMM=F IPFlag=           0 FMFlag=           0 FMFlg1=           0
         NFxFlg=           0 DoJE=F BraDBF=F KetDBF=F FulRan=T
         wScrn=  0.000000 ICntrl=       600 IOpCl=  0 I1Cent=           0 NGrid=           0
         NMat0=    1 NMatS0=      1 NMatT0=    0 NMatD0=    1 NMtDS0=    0 NMtDT0=    0
 Symmetry not used in FoFCou.
 DD1Dir will call FoFMem   1 times, MxPair=       272
 NAB=   136 NAA=     0 NBB=     0.
 Symmetry is being used.
 FoFJK:  IHMeth= 1 ICntrl=       0 DoSepK=F KAlg= 0 I1Cent=           0 FoldK=F
 IRaf=         0 NMat=      18 IRICut=      45 DoRegI=T DoRafI=T ISym2E= 2 IDoP0=3 IntGTp=3.
 Discarding MO integrals.
 Leave Link 1112 at Sun Mar  6 19:16:36 2022, MaxMem= 16106127360 cpu:             970.1 elap:              35.0
 (Enter /sw/contrib/gaussian/g16/B01/g16/l601.exe)
 Copying SCF densities to generalized density rwf, IOpCl= 0 IROHF=0.

 **********************************************************************

            Population analysis using the MP2 Density.

 **********************************************************************

 Orbital symmetries:
       Occupied  (A') (A') (A') (A') (A') (A') (A') (A') (A') (A')
                 (A") (A') (A') (A") (A') (A")
       Virtual   (A') (A") (A') (A') (A") (A') (A') (A') (A") (A')
                 (A") (A') (A') (A') (A") (A') (A') (A") (A') (A')
                 (A') (A') (A') (A') (A") (A') (A') (A") (A') (A')
                 (A') (A") (A") (A') (A') (A') (A") (A') (A") (A')
                 (A") (A") (A') (A') (A") (A') (A') (A") (A') (A')
                 (A') (A") (A') (A') (A") (A') (A") (A') (A") (A')
                 (A') (A') (A") (A') (A') (A") (A') (A") (A') (A')
                 (A") (A') (A") (A") (A') (A') (A") (A') (A') (A')
                 (A") (A') (A') (A") (A') (A") (A") (A') (A') (A')
                 (A') (A') (A") (A") (A') (A') (A") (A") (A') (A')
                 (A") (A') (A") (A') (A") (A') (A') (A') (A") (A")
                 (A') (A') (A') (A') (A") (A') (A') (A') (A") (A')
                 (A") (A') (A") (A') (A") (A") (A') (A") (A') (A')
                 (A') (A') (A") (A') (A') (A") (A") (A') (A') (A')
                 (A") (A") (A') (A') (A') (A") (A') (A') (A') (A")
                 (A') (A') (A') (A") (A') (A") (A") (A') (A') (A")
                 (A') (A") (A') (A") (A") (A') (A') (A") (A") (A")
                 (A') (A") (A") (A') (A') (A") (A') (A') (A") (A')
                 (A') (A') (A') (A') (A') (A') (A') (A') (A') (A')
                 (A')
 The electronic state is 1-A'.
 Alpha  occ. eigenvalues --  -20.72214 -20.68674 -20.66919 -15.82769  -1.63880
 Alpha  occ. eigenvalues --   -1.50257  -1.29479  -0.96191  -0.83256  -0.75678
 Alpha  occ. eigenvalues --   -0.73850  -0.63729  -0.61853  -0.61598  -0.50654
 Alpha  occ. eigenvalues --   -0.49816
 Alpha virt. eigenvalues --    0.03513   0.05707   0.09504   0.10032   0.11995
 Alpha virt. eigenvalues --    0.12250   0.14933   0.15202   0.17723   0.18042
 Alpha virt. eigenvalues --    0.18976   0.21101   0.21665   0.24155   0.24617
 Alpha virt. eigenvalues --    0.26876   0.31261   0.31690   0.33806   0.34264
 Alpha virt. eigenvalues --    0.34609   0.39217   0.44915   0.48800   0.50501
 Alpha virt. eigenvalues --    0.51773   0.54454   0.56157   0.59524   0.61850
 Alpha virt. eigenvalues --    0.63729   0.69113   0.71731   0.72388   0.74136
 Alpha virt. eigenvalues --    0.76427   0.76738   0.79543   0.80570   0.83852
 Alpha virt. eigenvalues --    0.84254   0.85143   0.88419   0.90722   0.92980
 Alpha virt. eigenvalues --    0.94570   0.95423   1.01800   1.03253   1.06332
 Alpha virt. eigenvalues --    1.06585   1.09498   1.14412   1.15639   1.16794
 Alpha virt. eigenvalues --    1.22135   1.22694   1.24531   1.35455   1.36090
 Alpha virt. eigenvalues --    1.37027   1.46821   1.48472   1.50460   1.54276
 Alpha virt. eigenvalues --    1.59616   1.59685   1.60430   1.62791   1.69358
 Alpha virt. eigenvalues --    1.74041   1.79922   1.82978   1.88516   1.89492
 Alpha virt. eigenvalues --    1.93081   1.97823   1.98929   2.05454   2.12163
 Alpha virt. eigenvalues --    2.12988   2.16509   2.18881   2.24330   2.25997
 Alpha virt. eigenvalues --    2.29353   2.35167   2.36538   2.38515   2.39879
 Alpha virt. eigenvalues --    2.43235   2.47045   2.47870   2.52997   2.53705
 Alpha virt. eigenvalues --    2.54691   2.55562   2.61240   2.62969   2.66912
 Alpha virt. eigenvalues --    2.66984   2.75152   2.80756   2.81441   2.83927
 Alpha virt. eigenvalues --    2.91783   2.98205   3.04281   3.04934   3.11425
 Alpha virt. eigenvalues --    3.11926   3.17226   3.21306   3.30633   3.33220
 Alpha virt. eigenvalues --    3.35973   3.47632   3.66950   3.86849   3.93114
 Alpha virt. eigenvalues --    4.18409   4.22100   4.22251   4.25101   4.36883
 Alpha virt. eigenvalues --    4.49607   4.52828   4.54629   4.59786   4.69084
 Alpha virt. eigenvalues --    4.80561   4.89679   4.91460   4.93733   5.00033
 Alpha virt. eigenvalues --    5.00625   5.10466   5.12590   5.17908   5.24112
 Alpha virt. eigenvalues --    5.25703   5.31540   5.34319   5.35722   5.55487
 Alpha virt. eigenvalues --    5.62980   5.70044   5.89274   5.98894   6.26337
 Alpha virt. eigenvalues --    6.29404   6.35904   6.37517   6.59680   6.65780
 Alpha virt. eigenvalues --    6.65818   6.68822   6.72212   6.80074   6.80382
 Alpha virt. eigenvalues --    6.84372   6.96454   7.02028   7.06516   7.07780
 Alpha virt. eigenvalues --    7.13355   7.16986   7.17082   7.20001   7.23427
 Alpha virt. eigenvalues --    7.24561   7.26103   7.34565   7.38658   7.42396
 Alpha virt. eigenvalues --    7.43894   7.45323   7.54306   7.66213   7.66317
 Alpha virt. eigenvalues --    7.79001   7.88034   7.94790   8.05359   8.30611
 Alpha virt. eigenvalues --    8.49942   8.64775  13.59607  14.68421  15.06726
 Alpha virt. eigenvalues --   15.53447
          Condensed to atoms (all electrons):
               1          2          3          4          5
     1  H    0.577312   0.124331   0.024329  -0.000573  -0.004155
     2  O    0.124331   8.389389  -0.229907  -0.000299  -0.010043
     3  O    0.024329  -0.229907   8.363809  -0.167714  -0.030665
     4  N   -0.000573  -0.000299  -0.167714   7.130820  -0.116515
     5  O   -0.004155  -0.010043  -0.030665  -0.116515   8.361093
 Mulliken charges:
               1
     1  H    0.278756
     2  O   -0.273471
     3  O    0.040148
     4  N    0.154282
     5  O   -0.199715
 Sum of Mulliken charges =  -0.00000
 Mulliken charges with hydrogens summed into heavy atoms:
               1
     2  O    0.005285
     3  O    0.040148
     4  N    0.154282
     5  O   -0.199715
 APT charges:
               1
     1  H    0.271969
     2  O   -0.301851
     3  O   -0.304830
     4  N    0.631437
     5  O   -0.296725
 Sum of APT charges =  -0.00000
 APT charges with hydrogens summed into heavy atoms:
               1
     2  O   -0.029882
     3  O   -0.304830
     4  N    0.631437
     5  O   -0.296725
 Electronic spatial extent (au):  <R**2>=            207.7774
 Charge=             -0.0000 electrons
 Dipole moment (field-independent basis, Debye):
    X=              0.0758    Y=             -1.0490    Z=              0.0000  Tot=              1.0517
 Quadrupole moment (field-independent basis, Debye-Ang):
   XX=            -23.3977   YY=            -22.9549   ZZ=            -21.9539
   XY=             -1.9970   XZ=              0.0000   YZ=              0.0000
 Traceless Quadrupole moment (field-independent basis, Debye-Ang):
   XX=             -0.6288   YY=             -0.1861   ZZ=              0.8149
   XY=             -1.9970   XZ=              0.0000   YZ=              0.0000
 Octapole moment (field-independent basis, Debye-Ang**2):
  XXX=              2.6526  YYY=              0.3796  ZZZ=              0.0000  XYY=              2.3914
  XXY=             -2.7655  XXZ=              0.0000  XZZ=             -0.5545  YZZ=             -0.6726
  YYZ=              0.0000  XYZ=              0.0000
 Hexadecapole moment (field-independent basis, Debye-Ang**3):
 XXXX=           -127.0394 YYYY=            -95.4685 ZZZZ=            -18.0732 XXXY=            -21.6797
 XXXZ=              0.0000 YYYX=            -19.8921 YYYZ=              0.0000 ZZZX=              0.0000
 ZZZY=              0.0000 XXYY=            -35.7949 XXZZ=            -24.3560 YYZZ=            -18.7018
 XXYZ=              0.0000 YYXZ=              0.0000 ZZXY=             -5.9463
 N-N= 1.224590756141D+02 E-N=-9.064498704719D+02  KE= 2.801633418888D+02
 Symmetry A'   KE= 2.663196332032D+02
 Symmetry A"   KE= 1.384370868566D+01
  Exact polarizability:  31.003   4.209  30.081   0.000   0.000  17.649
 Approx polarizability:  24.627   0.499  27.933  -0.000  -0.000  15.562
 No NMR shielding tensors so no spin-rotation constants.
 Leave Link  601 at Sun Mar  6 19:16:37 2022, MaxMem= 16106127360 cpu:               4.7 elap:               0.2
 (Enter /sw/contrib/gaussian/g16/B01/g16/l701.exe)
 ... and contract with generalized density number  2.
 Compute integral second derivatives.
 Leave Link  701 at Sun Mar  6 19:16:37 2022, MaxMem= 16106127360 cpu:               6.3 elap:               0.2
 (Enter /sw/contrib/gaussian/g16/B01/g16/l702.exe)
 L702 exits ... SP integral derivatives will be done elsewhere.
 Leave Link  702 at Sun Mar  6 19:16:37 2022, MaxMem= 16106127360 cpu:               0.4 elap:               0.0
 (Enter /sw/contrib/gaussian/g16/B01/g16/l703.exe)
 Integral derivatives from FoFJK, PRISM(SPDF).
 Compute integral second derivatives, UseDBF=F ICtDFT=           0.
 Calling FoFJK, ICntrl=  10100127 FMM=F ISym2X=1 I1Cent= 0 IOpClX= 0 NMat=1 NMatS=1 NMatT=0.
 FoFJK:  IHMeth= 1 ICntrl=10100127 DoSepK=F KAlg= 0 I1Cent=           0 FoldK=F
 IRaf=         0 NMat=       1 IRICut=       1 DoRegI=T DoRafI=F ISym2E= 1 IDoP0=0 IntGTp=1.
 FoFCou: FMM=F IPFlag=           0 FMFlag=      100000 FMFlg1=         800
         NFxFlg=           0 DoJE=F BraDBF=F KetDBF=F FulRan=T
         wScrn=  0.000000 ICntrl=  10100127 IOpCl=  0 I1Cent=           0 NGrid=           0
         NMat0=    1 NMatS0=      1 NMatT0=    0 NMatD0=    1 NMtDS0=    0 NMtDT0=    0
 Petite list used in FoFCou.
 Leave Link  703 at Sun Mar  6 19:16:53 2022, MaxMem= 16106127360 cpu:             447.3 elap:              16.0
 (Enter /sw/contrib/gaussian/g16/B01/g16/l716.exe)
 Dipole        = 2.98209849D-02-4.12696493D-01 0.00000000D+00
 Polarizability= 3.10027177D+01 4.20892490D+00 3.00806174D+01
                 0.00000000D+00 0.00000000D+00 1.76485214D+01
 Full mass-weighted force constant matrix:
 Low frequencies ---    0.0002    0.0005    0.0006   25.3316   56.6735   94.6788
 Low frequencies ---  359.1760  398.2043  532.9753
 Diagonal vibrational polarizability:
        7.1607853       9.8964282      15.7520668
 Harmonic frequencies (cm**-1), IR intensities (KM/Mole), Raman scattering
 activities (A**4/AMU), depolarization ratios for plane and unpolarized
 incident light, reduced masses (AMU), force constants (mDyne/A),
 and normal coordinates:
                      1                      2                      3
                     A"                     A'                     A"
 Frequencies --    359.0803               398.1466               532.7602
 Red. masses --      1.5157                 7.0224                 3.0613
 Frc consts  --      0.1151                 0.6559                 0.5119
 IR Inten    --     64.7294                 8.1823                23.6484
  Atom  AN      X      Y      Z        X      Y      Z        X      Y      Z
     1   1    -0.00  -0.00   0.98    -0.73  -0.25  -0.00    -0.00  -0.00   0.92
     2   8    -0.00  -0.00  -0.11    -0.33  -0.31   0.00    -0.00  -0.00   0.06
     3   8    -0.00   0.00   0.11    -0.07   0.08   0.00    -0.00   0.00  -0.19
     4   7     0.00   0.00  -0.10     0.06   0.10  -0.00    -0.00   0.00   0.28
     5   8     0.00   0.00   0.02     0.39   0.16   0.00     0.00   0.00  -0.17
                      4                      5                      6
                     A'                     A'                     A'
 Frequencies --    715.6242               836.8244               968.4489
 Red. masses --     13.1221                12.4623                 9.8735
 Frc consts  --      3.9594                 5.1418                 5.4560
 IR Inten    --    212.3211                35.1309                13.5823
  Atom  AN      X      Y      Z        X      Y      Z        X      Y      Z
     1   1    -0.38   0.01   0.00     0.43  -0.16  -0.00    -0.62  -0.01  -0.00
     2   8    -0.02  -0.08  -0.00     0.53  -0.21   0.00     0.20  -0.17   0.00
     3   8     0.37   0.58   0.00    -0.38  -0.01   0.00    -0.37   0.40  -0.00
     4   7    -0.39  -0.46  -0.00    -0.44  -0.07  -0.00     0.38   0.06   0.00
     5   8     0.01  -0.10   0.00     0.21   0.29   0.00    -0.13  -0.29  -0.00
                      7                      8                      9
                     A'                     A'                     A'
 Frequencies --   1425.0972              1520.9025              3486.2387
 Red. masses --      1.5140                 3.8260                 1.0638
 Frc consts  --      1.8116                 5.2143                 7.6176
 IR Inten    --     78.4619               140.6493                42.9666
  Atom  AN      X      Y      Z        X      Y      Z        X      Y      Z
     1   1     0.96  -0.20   0.00    -0.87   0.19  -0.00     0.15   0.99  -0.00
     2   8    -0.07  -0.05   0.00     0.03   0.03  -0.00    -0.01  -0.06   0.00
     3   8    -0.03   0.06  -0.00    -0.02  -0.06   0.00     0.00  -0.00  -0.00
     4   7     0.09  -0.09   0.00     0.17  -0.29  -0.00    -0.00   0.00  -0.00
     5   8    -0.04   0.08  -0.00    -0.11   0.27   0.00     0.00  -0.00   0.00

 -------------------
 - Thermochemistry -
 -------------------
 Temperature   298.150 Kelvin.  Pressure   1.00000 Atm.
 Atom     1 has atomic number  1 and mass   1.00783
 Atom     2 has atomic number  8 and mass  15.99491
 Atom     3 has atomic number  8 and mass  15.99491
 Atom     4 has atomic number  7 and mass  14.00307
 Atom     5 has atomic number  8 and mass  15.99491
 Molecular mass:    62.99564 amu.
 Principal axes and moments of inertia in atomic units:
                           1         2         3
     Eigenvalues --    85.19445 223.02413 308.21858
           X            0.79354  -0.60851   0.00000
           Y            0.60851   0.79354   0.00000
           Z            0.00000   0.00000   1.00000
 This molecule is an asymmetric top.
 Rotational symmetry number  1.
 Rotational temperatures (Kelvin)      1.01666     0.38836     0.28101
 Rotational constants (GHZ):          21.18379     8.09213     5.85539
 Zero-point vibrational energy      61267.5 (Joules/Mol)
                                   14.64328 (Kcal/Mol)
 Warning -- explicit consideration of   3 degrees of freedom as
           vibrations may cause significant error
 Vibrational temperatures:    516.64   572.84   766.52  1029.62  1204.00
          (Kelvin)           1393.38  2050.40  2188.24  5015.92
 
 Zero-point correction=                           0.023336 (Hartree/Particle)
 Thermal correction to Energy=                    0.027259
 Thermal correction to Enthalpy=                  0.028204
 Thermal correction to Gibbs Free Energy=        -0.002634
 Sum of electronic and zero-point Energies=           -280.431777
 Sum of electronic and thermal Energies=              -280.427853
 Sum of electronic and thermal Enthalpies=            -280.426909
 Sum of electronic and thermal Free Energies=         -280.457747
 
                     E (Thermal)             CV                S
                      KCal/Mol        Cal/Mol-Kelvin    Cal/Mol-Kelvin
 Total                   17.106             12.141             64.904
 Electronic               0.000              0.000              0.000
 Translational            0.889              2.981             38.341
 Rotational               0.889              2.981             23.286
 Vibrational             15.328              6.180              3.277
 Vibration     1          0.734              1.557              1.126
 Vibration     2          0.764              1.474              0.969
 Vibration     3          0.888              1.178              0.581
                       Q            Log10(Q)             Ln(Q)
 Total Bot       0.162838D+02          1.211756          2.790171
 Total V=0       0.881769D+12         11.945355         27.505196
 Vib (Bot)       0.302468D-10        -10.519320        -24.221630
 Vib (Bot)    1  0.510756D+00         -0.291786         -0.671863
 Vib (Bot)    2  0.448271D+00         -0.348459         -0.802357
 Vib (Bot)    3  0.299417D+00         -0.523724         -1.205920
 Vib (V=0)       0.163787D+01          0.214279          0.493395
 Vib (V=0)    1  0.121475D+01          0.084488          0.194541
 Vib (V=0)    2  0.117153D+01          0.068752          0.158307
 Vib (V=0)    3  0.108280D+01          0.034546          0.079546
 Electronic      0.100000D+01          0.000000          0.000000
 Translational   0.196526D+08          7.293420         16.793719
 Rotational      0.273941D+05          4.437657         10.218082
 
                                                                title
                                                             IR Spectrum
 
     3                                                                       1   1                                                   
     4                                                                       5   4               9    8   7      5    33             
     8                                                                       2   2               6    3   1      3    95             
     6                                                                       1   5               8    7   6      3    89             
 
     X                                                                       X   X               X    X   X      X    XX             
     X                                                                       X   X                    X   X      X     X             
     X                                                                       X   X                    X   X            X             
     X                                                                       X   X                        X            X             
                                                                             X   X                        X            X             
                                                                             X   X                        X            X             
                                                                             X   X                        X                          
                                                                             X                            X                          
                                                                             X                            X                          
                                                                             X                            X                          
                                                                             X                            X                          
                                                                             X                            X                          
                                                                             X                            X                          
                                                                                                          X                          
                                                                                                          X                          
                                                                                                          X                          
                                                                                                          X                          
                                                                                                          X                          
                                                                                                          X                          
                                                                                                          X                          
 
 ***** Axes restored to original set *****
 -------------------------------------------------------------------
 Center     Atomic                   Forces (Hartrees/Bohr)
 Number     Number              X              Y              Z
 -------------------------------------------------------------------
      1        1           0.000243985   -0.000000000   -0.000264273
      2        8           0.000023897   -0.000000000    0.000512036
      3        8           0.000653604   -0.000000000   -0.003332077
      4        7          -0.007010989   -0.000000000   -0.008702252
      5        8           0.006089503   -0.000000000    0.011786566
 -------------------------------------------------------------------
 Cartesian Forces:  Max     0.011786566 RMS     0.004566621
 -----------------------------------------------------------------------------------------------
                       Internal Coordinate Forces (Hartree/Bohr or radian)
  Cent   Atom   N1       Length/X         N2         Alpha/Y        N3         Beta/Z          J
 -----------------------------------------------------------------------------------------------
      1  H 
      2  O        1   0.000264(     1)
      3  O        2  -0.000309(     2)      1  -0.000455(     5)
      4  N        3  -0.003076(     3)      2   0.000069(     6)      1   0.000000(     8)     0
      5  O        4  -0.013225(     4)      3  -0.002407(     7)      2   0.000000(     9)     0
 -----------------------------------------------------------------------------------------------
 Internal  Forces:  Max     0.013224521 RMS     0.004600977
 Force constants in Cartesian coordinates: 
                1             2             3             4             5 
      1  0.720663D-01
      2  0.000000D+00  0.618069D-02
      3  0.244600D-01  0.000000D+00  0.436293D+00
      4 -0.519777D-01  0.000000D+00 -0.456780D-02  0.280466D+00
      5  0.000000D+00 -0.242629D-02  0.000000D+00  0.000000D+00  0.123630D-01
      6  0.320445D-01  0.000000D+00 -0.420183D+00 -0.130383D-01  0.000000D+00
      7 -0.250380D-01  0.000000D+00 -0.159037D-01 -0.170110D+00  0.000000D+00
      8  0.000000D+00 -0.418851D-02  0.000000D+00  0.000000D+00 -0.193481D-01
      9 -0.439272D-01  0.000000D+00 -0.201154D-01  0.110668D-01  0.000000D+00
     10 -0.566177D-02  0.000000D+00  0.625804D-02 -0.838427D-01  0.000000D+00
     11  0.000000D+00  0.797655D-02  0.000000D+00  0.000000D+00  0.199271D-01
     12 -0.190053D-01  0.000000D+00  0.120269D-01  0.105913D-01  0.000000D+00
     13  0.106112D-01  0.000000D+00 -0.102465D-01  0.254649D-01  0.000000D+00
     14  0.000000D+00 -0.754243D-02  0.000000D+00  0.000000D+00 -0.105158D-01
     15  0.642797D-02  0.000000D+00 -0.802096D-02 -0.405194D-02  0.000000D+00
                6             7             8             9            10 
      6  0.522583D+00
      7 -0.906935D-01  0.303940D+00
      8  0.000000D+00  0.000000D+00  0.424429D-01
      9 -0.963196D-01  0.802659D-01  0.000000D+00  0.315073D+00
     10  0.402071D-01 -0.142592D+00  0.000000D+00 -0.354281D-01  0.538855D+00
     11  0.000000D+00  0.000000D+00 -0.484879D-01  0.000000D+00  0.000000D+00
     12 -0.105501D-01  0.183495D-01  0.000000D+00 -0.297799D-01  0.217618D+00
     13  0.314802D-01  0.338004D-01  0.000000D+00 -0.119774D-01 -0.306759D+00
     14  0.000000D+00  0.000000D+00  0.295816D-01  0.000000D+00  0.000000D+00
     15  0.446953D-02  0.798187D-02  0.000000D+00 -0.168858D+00 -0.228655D+00
               11            12            13            14            15 
     11  0.630446D-01
     12  0.000000D+00  0.419743D+00
     13  0.000000D+00 -0.227553D+00  0.236882D+00
     14 -0.424605D-01  0.000000D+00  0.000000D+00  0.309371D-01
     15  0.000000D+00 -0.391440D+00  0.218297D+00  0.000000D+00  0.563849D+00
 Force constants in internal coordinates: 
                1             2             3             4             5 
      1  0.436293D+00
      2  0.225236D-01  0.258258D+00
      3  0.554715D-02  0.169941D-01  0.207572D+00
      4 -0.122237D-01  0.222294D-01  0.143026D+00  0.668426D+00
      5  0.457907D-01  0.561830D-01 -0.245911D-01  0.206017D-01  0.250373D+00
      6  0.130019D-01  0.218679D-01  0.919847D-01  0.935313D-02 -0.981860D-02
      7  0.101612D-01 -0.741113D-01  0.119129D+00  0.115468D+00 -0.238038D-01
      8  0.000000D+00  0.000000D+00  0.000000D+00  0.000000D+00  0.000000D+00
      9  0.000000D+00  0.000000D+00  0.000000D+00  0.000000D+00  0.000000D+00
                6             7             8             9 
      6  0.520250D+00
      7  0.630215D-01  0.656026D+00
      8  0.000000D+00  0.000000D+00  0.212585D-01
      9  0.000000D+00  0.000000D+00  0.286419D-01  0.109101D+00
 Leave Link  716 at Sun Mar  6 19:16:53 2022, MaxMem= 16106127360 cpu:               1.0 elap:               0.1
 (Enter /sw/contrib/gaussian/g16/B01/g16/l103.exe)

 GradGradGradGradGradGradGradGradGradGradGradGradGradGradGradGradGradGrad
 Berny optimization.
 Search for a local minimum.
 Step number   1 out of a maximum of    2
 All quantities printed in internal units (Hartrees-Bohrs-Radians)
 Second derivative matrix not updated -- analytic derivatives used.
 The second derivative matrix:
                          r1        r2        r3        r4        a1
           r1           0.43629
           r2           0.02252   0.25826
           r3           0.00555   0.01699   0.20757
           r4          -0.01222   0.02223   0.14303   0.66843
           a1           0.04579   0.05618  -0.02459   0.02060   0.25037
           a2           0.01300   0.02187   0.09198   0.00935  -0.00982
           a3           0.01016  -0.07411   0.11913   0.11547  -0.02380
           d1           0.00000   0.00000   0.00000   0.00000   0.00000
           d2           0.00000   0.00000   0.00000   0.00000   0.00000
                          a2        a3        d1        d2
           a2           0.52025
           a3           0.06302   0.65603
           d1           0.00000   0.00000   0.02126
           d2           0.00000   0.00000   0.02864   0.10910
 ITU=  0
     Eigenvalues ---    0.01274   0.11761   0.12484   0.20298   0.27295
     Eigenvalues ---    0.44899   0.51282   0.58310   0.85153
 Angle between quadratic step and forces=  13.18 degrees.
 Linear search not attempted -- first point.
 Variable       Old X    -DE/DX   Delta X   Delta X   Delta X     New X
                                 (Linear)    (Quad)   (Total)
    r1        1.86209   0.00026   0.00000   0.00008   0.00008   1.86218
    r2        2.69614  -0.00031   0.00000   0.00067   0.00067   2.69681
    r3        2.60992  -0.00308   0.00000  -0.00197  -0.00197   2.60794
    r4        2.27729  -0.01322   0.00000  -0.01939  -0.01939   2.25790
    a1        1.75642  -0.00045   0.00000  -0.00054  -0.00054   1.75588
    a2        1.97463   0.00007   0.00000   0.00078   0.00078   1.97541
    a3        1.99550  -0.00241   0.00000   0.00008   0.00008   1.99559
    d1        0.00000   0.00000   0.00000   0.00000   0.00000   0.00000
    d2        0.00000   0.00000   0.00000   0.00000   0.00000   0.00000
         Item               Value     Threshold  Converged?
 Maximum Force            0.013225     0.000450     NO 
 RMS     Force            0.004601     0.000300     NO 
 Maximum Displacement     0.019392     0.001800     NO 
 RMS     Displacement     0.006509     0.001200     NO 
 Predicted change in Energy=-1.312147D-04
                       ----------------------------
                       ! Non-Optimized Parameters !
                       ! (Angstroms and Degrees)  !
 ----------------------                            ----------------------
 !      Name          Value   Derivative information (Atomic Units)     !
 ------------------------------------------------------------------------
 !       r1          0.9854   -DE/DX =    0.0003                        !
 !       r2          1.4271   -DE/DX =   -0.0003                        !
 !       r3          1.3801   -DE/DX =   -0.0031                        !
 !       r4          1.1948   -DE/DX =   -0.0132                        !
 !       a1        100.6045   -DE/DX =   -0.0005                        !
 !       a2        113.1824   -DE/DX =    0.0001                        !
 !       a3        114.3386   -DE/DX =   -0.0024                        !
 !       d1          0.0      -DE/DX =    0.0                           !
 !       d2          0.0      -DE/DX =    0.0                           !
 ------------------------------------------------------------------------
 GradGradGradGradGradGradGradGradGradGradGradGradGradGradGradGradGradGrad

 Leave Link  103 at Sun Mar  6 19:16:53 2022, MaxMem= 16106127360 cpu:               0.6 elap:               0.0
 (Enter /sw/contrib/gaussian/g16/B01/g16/l9999.exe)

 ----------------------------------------------------------------------

 Electric dipole moment (input orientation):
 (Debye = 10**-18 statcoulomb cm , SI units = C m)
                  (au)            (Debye)         (10**-30 SI)
   Tot        0.413773D+00      0.105170D+01      0.350811D+01
   x         -0.116079D+00     -0.295042D+00     -0.984155D+00
   y          0.000000D+00      0.000000D+00      0.000000D+00
   z         -0.397157D+00     -0.100947D+01     -0.336723D+01

 Dipole polarizability, Alpha (input orientation).
 (esu units = cm**3 , SI units = C**2 m**2 J**-1)
 Alpha(0;0):
               (au)            (10**-24 esu)      (10**-40 SI)
   iso        0.262440D+02      0.388895D+01      0.432704D+01
   aniso      0.148329D+02      0.219801D+01      0.244562D+01
   xx         0.292285D+02      0.433122D+01      0.481913D+01
   yx         0.000000D+00      0.000000D+00      0.000000D+00
   yy         0.176485D+02      0.261524D+01      0.290985D+01
   zx        -0.402533D+01     -0.596492D+00     -0.663687D+00
   zy         0.000000D+00      0.000000D+00      0.000000D+00
   zz         0.318548D+02      0.472040D+01      0.525215D+01

 ----------------------------------------------------------------------

 Dipole orientation:
     1         -0.00000000          0.00000000          0.00000000
     8         -0.52238586          0.00000000         -1.78731630
     8          1.88143504         -0.00000000         -3.00830945
     7          3.88266373         -0.00000000         -1.33297635
     8          3.27023519          0.00000000          0.86041622

 Electric dipole moment (dipole orientation):
 (Debye = 10**-18 statcoulomb cm , SI units = C m)
                  (au)            (Debye)         (10**-30 SI)
   Tot        0.413773D+00      0.105170D+01      0.350811D+01
   x          0.000000D+00      0.000000D+00      0.000000D+00
   y          0.000000D+00      0.000000D+00      0.000000D+00
   z          0.413773D+00      0.105170D+01      0.350811D+01

 Dipole polarizability, Alpha (dipole orientation).
 (esu units = cm**3 , SI units = C**2 m**2 J**-1)
 Alpha(0;0):
               (au)            (10**-24 esu)      (10**-40 SI)
   iso        0.262440D+02      0.388895D+01      0.432704D+01
   aniso      0.148329D+02      0.219801D+01      0.244562D+01
   xx         0.316030D+02      0.468309D+01      0.521064D+01
   yx         0.000000D+00      0.000000D+00      0.000000D+00
   yy         0.176485D+02      0.261524D+01      0.290985D+01
   zx         0.409892D+01      0.607397D+00      0.675820D+00
   zy         0.000000D+00      0.000000D+00      0.000000D+00
   zz         0.294803D+02      0.436853D+01      0.486065D+01

 ----------------------------------------------------------------------
 1\1\GINC-N2219\Freq\RMP2-FC\Aug-CC-pVTZ\H1N1O3\CGAVINH\06-Mar-2022\1\\
 #p freq mp2/aug-cc-pvtz density=current\\title\\0,1\H\O,1,r1\O,2,r2,1,
 a1\N,3,r3,2,a2,1,d1,0\O,4,r4,3,a3,2,d2,0\\r1=0.98537664\r2=1.42673666\
 r3=1.38110764\r4=1.2050888\a1=100.6355057\a2=113.13777052\a3=114.33392
 022\d1=0.\d2=0.\\Version=ES64L-G16RevB.01\State=1-A'\HF=-279.5045277\M
 P2=-280.4551127\RMSD=5.100e-09\RMSF=4.567e-03\ZeroPoint=0.0233356\Ther
 mal=0.0272594\Dipole=-0.1160785,0.,-0.3971567\DipoleDeriv=0.3171601,0.
 ,0.0382113,0.,0.2980116,0.,-0.0239616,0.,0.2007357,-0.5290921,0.,0.285
 0678,0.,-0.2531102,0.,-0.1062161,0.,-0.123351,0.0115768,0.,0.3284009,0
 .,-0.0059222,0.,0.4416191,0.,-0.9201446,0.1956498,0.,-0.1504116,0.,0.0
 104372,0.,-0.664524,0.,1.6882245,0.0047053,0.,-0.5012684,0.,-0.0494164
 ,0.,0.3530826,0.,-0.8454645\Polar=29.228528,0.,17.6485214,-4.0253299,0
 .,31.8548071\Quadrupole=0.1584955,0.6058885,-0.764384,0.,1.4207604,0.\
 PG=CS [SG(H1N1O3)]\NImag=0\\0.07206626,0.,0.00618069,0.02446000,0.,0.4
 3629274,-0.05197773,0.,-0.00456780,0.28046600,0.,-0.00242629,0.,0.,0.0
 1236305,0.03204449,0.,-0.42018333,-0.01303832,0.,0.52258343,-0.0250380
 0,0.,-0.01590373,-0.17011046,0.,-0.09069346,0.30393971,0.,-0.00418851,
 0.,0.,-0.01934812,0.,0.,0.04244290,-0.04392716,0.,-0.02011537,0.011066
 81,0.,-0.09631955,0.08026585,0.,0.31507313,-0.00566177,0.,0.00625804,-
 0.08384271,0.,0.04020712,-0.14259163,0.,-0.03542812,0.53885502,0.,0.00
 797655,0.,0.,0.01992715,0.,0.,-0.04848787,0.,0.,0.06304462,-0.01900530
 ,0.,0.01202692,0.01059125,0.,-0.01055008,0.01834946,0.,-0.02977989,0.2
 1761764,0.,0.41974256,0.01061124,0.,-0.01024652,0.02546491,0.,0.031480
 17,0.03380038,0.,-0.01197738,-0.30675891,0.,-0.22755306,0.23688238,0.,
 -0.00754243,0.,0.,-0.01051579,0.,0.,0.02958160,0.,0.,-0.04246045,0.,0.
 ,0.03093707,0.00642797,0.,-0.00802096,-0.00405194,0.,0.00446953,0.0079
 8187,0.,-0.16885832,-0.22865468,0.,-0.39143951,0.21829678,0.,0.5638492
 7\\-0.00024398,0.,0.00026427,-0.00002390,0.,-0.00051204,-0.00065360,0.
 ,0.00333208,0.00701099,0.,0.00870225,-0.00608950,0.,-0.01178657\\\@


 IN THE WOODS WE RETURN TO REASON AND FAITH.

                                 -- EMERSON
 Job cpu time:       0 days  2 hours  1 minutes  1.8 seconds.
 Elapsed time:       0 days  0 hours  4 minutes 22.6 seconds.
 File lengths (MBytes):  RWF=   7239 Int=      0 D2E=      0 Chk=      8 Scr=      1
 Normal termination of Gaussian 16 at Sun Mar  6 19:16:54 2022.
