 Entering Gaussian System, Link 0=g16
 Input=hoono_a1_102p8223.gjf
 Output=hoono_a1_102p8223.log
 Initial command:
 /sw/contrib/gaussian/g16/B01/g16/l1.exe "/scr/Gau-27543.inp" -scrdir="/scr/"
 Entering Link 1 = /sw/contrib/gaussian/g16/B01/g16/l1.exe PID=     27544.
  
 Copyright (c) 1988-2017, Gaussian, Inc.  All Rights Reserved.
  
 This is part of the Gaussian(R) 16 program.  It is based on
 the Gaussian(R) 09 system (copyright 2009, Gaussian, Inc.),
 the Gaussian(R) 03 system (copyright 2003, Gaussian, Inc.),
 the Gaussian(R) 98 system (copyright 1998, Gaussian, Inc.),
 the Gaussian(R) 94 system (copyright 1995, Gaussian, Inc.),
 the Gaussian 92(TM) system (copyright 1992, Gaussian, Inc.),
 the Gaussian 90(TM) system (copyright 1990, Gaussian, Inc.),
 the Gaussian 88(TM) system (copyright 1988, Gaussian, Inc.),
 the Gaussian 86(TM) system (copyright 1986, Carnegie Mellon
 University), and the Gaussian 82(TM) system (copyright 1983,
 Carnegie Mellon University). Gaussian is a federally registered
 trademark of Gaussian, Inc.
  
 This software contains proprietary and confidential information,
 including trade secrets, belonging to Gaussian, Inc.
  
 This software is provided under written license and may be
 used, copied, transmitted, or stored only in accord with that
 written license.
  
 The following legend is applicable only to US Government
 contracts under FAR:
  
                    RESTRICTED RIGHTS LEGEND
  
 Use, reproduction and disclosure by the US Government is
 subject to restrictions as set forth in subparagraphs (a)
 and (c) of the Commercial Computer Software - Restricted
 Rights clause in FAR 52.227-19.
  
 Gaussian, Inc.
 340 Quinnipiac St., Bldg. 40, Wallingford CT 06492
  
  
 ---------------------------------------------------------------
 Warning -- This program may not be used in any manner that
 competes with the business of Gaussian, Inc. or will provide
 assistance to any competitor of Gaussian, Inc.  The licensee
 of this program is prohibited from giving any competitor of
 Gaussian, Inc. access to this program.  By using this program,
 the user acknowledges that Gaussian, Inc. is engaged in the
 business of creating and licensing software in the field of
 computational chemistry and represents and warrants to the
 licensee that it is not a competitor of Gaussian, Inc. and that
 it will not use this program in any manner prohibited above.
 ---------------------------------------------------------------
  

 Cite this work as:
 Gaussian 16, Revision B.01,
 M. J. Frisch, G. W. Trucks, H. B. Schlegel, G. E. Scuseria, 
 M. A. Robb, J. R. Cheeseman, G. Scalmani, V. Barone, 
 G. A. Petersson, H. Nakatsuji, X. Li, M. Caricato, A. V. Marenich, 
 J. Bloino, B. G. Janesko, R. Gomperts, B. Mennucci, H. P. Hratchian, 
 J. V. Ortiz, A. F. Izmaylov, J. L. Sonnenberg, D. Williams-Young, 
 F. Ding, F. Lipparini, F. Egidi, J. Goings, B. Peng, A. Petrone, 
 T. Henderson, D. Ranasinghe, V. G. Zakrzewski, J. Gao, N. Rega, 
 G. Zheng, W. Liang, M. Hada, M. Ehara, K. Toyota, R. Fukuda, 
 J. Hasegawa, M. Ishida, T. Nakajima, Y. Honda, O. Kitao, H. Nakai, 
 T. Vreven, K. Throssell, J. A. Montgomery, Jr., J. E. Peralta, 
 F. Ogliaro, M. J. Bearpark, J. J. Heyd, E. N. Brothers, K. N. Kudin, 
 V. N. Staroverov, T. A. Keith, R. Kobayashi, J. Normand, 
 K. Raghavachari, A. P. Rendell, J. C. Burant, S. S. Iyengar, 
 J. Tomasi, M. Cossi, J. M. Millam, M. Klene, C. Adamo, R. Cammi, 
 J. W. Ochterski, R. L. Martin, K. Morokuma, O. Farkas, 
 J. B. Foresman, and D. J. Fox, Gaussian, Inc., Wallingford CT, 2016.
 
 ******************************************
 Gaussian 16:  ES64L-G16RevB.01 20-Dec-2017
                 6-Mar-2022 
 ******************************************
 %nproc=28
 Will use up to   28 processors via shared memory.
 %mem=120GB
 %chk=hoono_a1_102p8223.chk
 ---------------------------------------
 #p freq mp2/aug-cc-pvtz density=current
 ---------------------------------------
 1/10=4,30=1,38=1/1,3;
 2/12=2,17=6,18=5,40=1/2;
 3/5=16,6=1,7=10,11=9,25=1,30=1,71=2,140=1/1,2,3;
 4//1;
 5/5=2,38=5,98=1/2;
 8/6=3,8=1,10=1,19=11,30=-1/1;
 9/15=3,16=-3/6;
 11/6=1,8=1,15=11,17=12,24=-1,27=1,28=-2,29=300,32=6,42=3/1,2,10;
 10/6=2,21=1/2;
 8/6=4,8=1,10=1,19=11,30=-1/11,4;
 10/5=1,20=4/2;
 11/12=2,14=11,16=1,17=2,28=-2,42=3,76=2/2,10,12;
 6/7=2,8=2,9=2,10=2,22=-1/1;
 7/8=1,10=1,12=2,25=1,44=2/1,2,3,16;
 1/10=4,30=1/3;
 99//99;
 Leave Link    1 at Sun Mar  6 19:21:56 2022, MaxMem= 16106127360 cpu:               2.2 elap:               0.1
 (Enter /sw/contrib/gaussian/g16/B01/g16/l101.exe)
 -----
 title
 -----
 Symbolic Z-matrix:
 Charge =  0 Multiplicity = 1
 H
 O                    1    r1
 O                    2    r2       1    a1
 N                    3    r3       2    a2       1    d1       0
 O                    4    r4       3    a3       2    d2       0
       Variables:
  r1                    0.98538                  
  r2                    1.42674                  
  r3                    1.38111                  
  r4                    1.19479                  
  a1                  102.82234                  
  a2                  113.13777                  
  a3                  114.33392                  
  d1                    0.                       
  d2                    0.                       
 
 ITRead=  0  0  0  0  0
 MicOpt= -1 -1 -1 -1 -1
 NAtoms=      5 NQM=        5 NQMF=       0 NMMI=      0 NMMIF=      0
                NMic=       0 NMicF=      0.
                    Isotopes and Nuclear Properties:
 (Nuclear quadrupole moments (NQMom) in fm**2, nuclear magnetic moments (NMagM)
  in nuclear magnetons)

  Atom         1           2           3           4           5
 IAtWgt=           1          16          16          14          16
 AtmWgt=   1.0078250  15.9949146  15.9949146  14.0030740  15.9949146
 NucSpn=           1           0           0           2           0
 AtZEff=  -0.0000000  -0.0000000  -0.0000000  -0.0000000  -0.0000000
 NQMom=    0.0000000   0.0000000   0.0000000   2.0440000   0.0000000
 NMagM=    2.7928460   0.0000000   0.0000000   0.4037610   0.0000000
 AtZNuc=   1.0000000   8.0000000   8.0000000   7.0000000   8.0000000
 Leave Link  101 at Sun Mar  6 19:21:57 2022, MaxMem= 16106127360 cpu:               2.4 elap:               0.1
 (Enter /sw/contrib/gaussian/g16/B01/g16/l103.exe)

 GradGradGradGradGradGradGradGradGradGradGradGradGradGradGradGradGradGrad
 Berny optimization.
 Initialization pass.
                       ----------------------------
                       !    Initial Parameters    !
                       ! (Angstroms and Degrees)  !
 ----------------------                            ----------------------
 !      Name          Value   Derivative information (Atomic Units)     !
 ------------------------------------------------------------------------
 !       r1          0.9854   calculate D2E/DX2 analytically            !
 !       r2          1.4267   calculate D2E/DX2 analytically            !
 !       r3          1.3811   calculate D2E/DX2 analytically            !
 !       r4          1.1948   calculate D2E/DX2 analytically            !
 !       a1        102.8223   calculate D2E/DX2 analytically            !
 !       a2        113.1378   calculate D2E/DX2 analytically            !
 !       a3        114.3339   calculate D2E/DX2 analytically            !
 !       d1          0.0      calculate D2E/DX2 analytically            !
 !       d2          0.0      calculate D2E/DX2 analytically            !
 ------------------------------------------------------------------------
 Trust Radius=3.00D-01 FncErr=1.00D-07 GrdErr=1.00D-07 EigMax=2.50D+02 EigMin=1.00D-04
 Number of steps in this run=      2 maximum allowed number of steps=      2.
 GradGradGradGradGradGradGradGradGradGradGradGradGradGradGradGradGradGrad

 Leave Link  103 at Sun Mar  6 19:21:57 2022, MaxMem= 16106127360 cpu:               1.1 elap:               0.1
 (Enter /sw/contrib/gaussian/g16/B01/g16/l202.exe)
                          Input orientation:                          
 ---------------------------------------------------------------------
 Center     Atomic      Atomic             Coordinates (Angstroms)
 Number     Number       Type             X           Y           Z
 ---------------------------------------------------------------------
      1          1           0        0.000000    0.000000    0.000000
      2          8           0        0.000000    0.000000    0.985377
      3          8           0        1.391158    0.000000    1.302010
      4          7           0        2.202175    0.000000    0.184106
      5          8           0        1.610098    0.000000   -0.853663
 ---------------------------------------------------------------------
                    Distance matrix (angstroms):
                    1          2          3          4          5
     1  H    0.000000
     2  O    0.985377   0.000000
     3  O    1.905401   1.426737   0.000000
     4  N    2.209857   2.343418   1.381108   0.000000
     5  O    1.822404   2.444276   2.166763   1.194788   0.000000
 Stoichiometry    HNO3
 Framework group  CS[SG(HNO3)]
 Deg. of freedom     7
 Full point group                 CS      NOp   2
 Largest Abelian subgroup         CS      NOp   2
 Largest concise Abelian subgroup C1      NOp   1
                         Standard orientation:                         
 ---------------------------------------------------------------------
 Center     Atomic      Atomic             Coordinates (Angstroms)
 Number     Number       Type             X           Y           Z
 ---------------------------------------------------------------------
      1          1           0        1.144192   -0.606393   -0.000000
      2          8           0        1.315135    0.364043   -0.000000
      3          8           0       -0.000000    0.917214    0.000000
      4          7           0       -0.992654   -0.043045    0.000000
      5          8           0       -0.589587   -1.167793   -0.000000
 ---------------------------------------------------------------------
 Rotational constants (GHZ):          21.2909151           8.1036782           5.8696075
 Leave Link  202 at Sun Mar  6 19:21:57 2022, MaxMem= 16106127360 cpu:               0.4 elap:               0.0
 (Enter /sw/contrib/gaussian/g16/B01/g16/l301.exe)
 Standard basis: Aug-CC-pVTZ (5D, 7F)
 Ernie: Thresh=  0.10000D-02 Tol=  0.10000D-05 Strict=F.
 Ernie:  12 primitive shells out of 131 were deleted.
 There are   166 symmetry adapted cartesian basis functions of A'  symmetry.
 There are    79 symmetry adapted cartesian basis functions of A"  symmetry.
 There are   136 symmetry adapted basis functions of A'  symmetry.
 There are    71 symmetry adapted basis functions of A"  symmetry.
   207 basis functions,   315 primitive gaussians,   245 cartesian basis functions
    16 alpha electrons       16 beta electrons
       nuclear repulsion energy       122.6459378403 Hartrees.
 IExCor=    0 DFT=F Ex=HF Corr=None ExCW=0 ScaHFX=  1.000000
 ScaDFX=  1.000000  1.000000  1.000000  1.000000 ScalE2=  1.000000  1.000000
 IRadAn=      5 IRanWt=     -1 IRanGd=            0 ICorTp=0 IEmpDi=  4
 NAtoms=    5 NActive=    5 NUniq=    5 SFac= 1.00D+00 NAtFMM=   60 NAOKFM=F Big=F
 Integral buffers will be    131072 words long.
 Raffenetti 1 integral format.
 Two-electron integral symmetry is turned on.
 Leave Link  301 at Sun Mar  6 19:21:57 2022, MaxMem= 16106127360 cpu:               2.2 elap:               0.1
 (Enter /sw/contrib/gaussian/g16/B01/g16/l302.exe)
 NPDir=0 NMtPBC=     1 NCelOv=     1 NCel=       1 NClECP=     1 NCelD=      1
         NCelK=      1 NCelE2=     1 NClLst=     1 CellRange=     0.0.
 One-electron integrals computed using PRISM.
 One-electron integral symmetry used in STVInt
 NBasis=   207 RedAO= T EigKep=  1.32D-04  NBF=   136    71
 NBsUse=   207 1.00D-06 EigRej= -1.00D+00 NBFU=   136    71
 Leave Link  302 at Sun Mar  6 19:21:57 2022, MaxMem= 16106127360 cpu:               4.4 elap:               0.2
 (Enter /sw/contrib/gaussian/g16/B01/g16/l303.exe)
 DipDrv:  MaxL=1.
 Leave Link  303 at Sun Mar  6 19:21:57 2022, MaxMem= 16106127360 cpu:               0.9 elap:               0.1
 (Enter /sw/contrib/gaussian/g16/B01/g16/l401.exe)
 ExpMin= 2.53D-02 ExpMax= 1.53D+04 ExpMxC= 5.22D+02 IAcc=3 IRadAn=         5 AccDes= 0.00D+00
 Harris functional with IExCor=  205 and IRadAn=       5 diagonalized for initial guess.
 HarFok:  IExCor=  205 AccDes= 0.00D+00 IRadAn=         5 IDoV= 1 UseB2=F ITyADJ=14
 ICtDFT=  3500011 ScaDFX=  1.000000  1.000000  1.000000  1.000000
 FoFCou: FMM=F IPFlag=           0 FMFlag=      100000 FMFlg1=           0
         NFxFlg=           0 DoJE=T BraDBF=F KetDBF=T FulRan=T
         wScrn=  0.000000 ICntrl=       500 IOpCl=  0 I1Cent=   200000004 NGrid=           0
         NMat0=    1 NMatS0=      1 NMatT0=    0 NMatD0=    1 NMtDS0=    0 NMtDT0=    0
 Petite list used in FoFCou.
 Harris En= -279.644906369064    
 JPrj=0 DoOrth=F DoCkMO=F.
 Initial guess orbital symmetries:
       Occupied  (A') (A') (A') (A') (A') (A') (A') (A') (A') (A')
                 (A") (A') (A") (A') (A") (A')
       Virtual   (A") (A') (A') (A') (A') (A") (A') (A') (A') (A')
                 (A") (A') (A") (A') (A') (A") (A') (A') (A") (A')
                 (A') (A') (A') (A') (A") (A') (A') (A') (A") (A')
                 (A') (A") (A") (A') (A') (A") (A') (A") (A') (A")
                 (A') (A") (A') (A") (A') (A') (A') (A') (A") (A')
                 (A') (A") (A') (A") (A') (A") (A') (A') (A') (A")
                 (A') (A') (A") (A') (A') (A") (A') (A") (A') (A')
                 (A") (A') (A") (A") (A') (A') (A") (A') (A') (A')
                 (A") (A') (A') (A") (A') (A") (A") (A') (A') (A')
                 (A') (A") (A') (A") (A') (A') (A") (A') (A") (A')
                 (A") (A') (A') (A") (A") (A') (A') (A') (A") (A')
                 (A") (A') (A') (A') (A") (A') (A') (A') (A") (A')
                 (A") (A') (A') (A") (A") (A") (A") (A') (A') (A')
                 (A') (A') (A') (A") (A') (A") (A') (A") (A') (A')
                 (A") (A') (A") (A') (A') (A") (A') (A') (A') (A")
                 (A') (A') (A') (A") (A') (A") (A") (A') (A") (A')
                 (A') (A") (A") (A') (A") (A') (A') (A") (A") (A')
                 (A") (A") (A") (A') (A') (A") (A') (A') (A') (A")
                 (A') (A') (A') (A') (A') (A') (A') (A') (A') (A')
                 (A')
 The electronic state of the initial guess is 1-A'.
 Leave Link  401 at Sun Mar  6 19:21:57 2022, MaxMem= 16106127360 cpu:               7.9 elap:               0.3
 (Enter /sw/contrib/gaussian/g16/B01/g16/l502.exe)
 Keep R1 ints in memory in symmetry-blocked form, NReq=348887737.
 FoFCou: FMM=F IPFlag=           0 FMFlag=           0 FMFlg1=           0
         NFxFlg=           0 DoJE=F BraDBF=F KetDBF=F FulRan=T
         wScrn=  0.000000 ICntrl=       600 IOpCl=  0 I1Cent=           0 NGrid=           0
         NMat0=    1 NMatS0=  21528 NMatT0=    0 NMatD0=    1 NMtDS0=    0 NMtDT0=    0
 Petite list used in FoFCou.
 Closed shell SCF:
 Using DIIS extrapolation, IDIIS=  1040.
 NGot= 16106127360 LenX= 15988850015 LenY= 15988789549
 Requested convergence on RMS density matrix=1.00D-08 within 128 cycles.
 Requested convergence on MAX density matrix=1.00D-06.
 Requested convergence on             energy=1.00D-06.
 No special actions if energy rises.

 Cycle   1  Pass 1  IDiag  1:
 E= -279.364251843828    
 DIIS: error= 2.75D-02 at cycle   1 NSaved=   1.
 NSaved= 1 IEnMin= 1 EnMin= -279.364251843828     IErMin= 1 ErrMin= 2.75D-02
 ErrMax= 2.75D-02  0.00D+00 EMaxC= 1.00D-01 BMatC= 4.51D-01 BMatP= 4.51D-01
 IDIUse=3 WtCom= 7.25D-01 WtEn= 2.75D-01
 Coeff-Com:  0.100D+01
 Coeff-En:   0.100D+01
 Coeff:      0.100D+01
 Gap=     0.500 Goal=   None    Shift=    0.000
 GapD=    0.500 DampG=2.000 DampE=0.500 DampFc=1.0000 IDamp=-1.
 RMSDP=1.68D-03 MaxDP=8.72D-02              OVMax= 1.24D-01

 Cycle   2  Pass 1  IDiag  1:
 E= -279.445994728304     Delta-E=       -0.081742884476 Rises=F Damp=F
 DIIS: error= 1.90D-02 at cycle   2 NSaved=   2.
 NSaved= 2 IEnMin= 2 EnMin= -279.445994728304     IErMin= 2 ErrMin= 1.90D-02
 ErrMax= 1.90D-02  0.00D+00 EMaxC= 1.00D-01 BMatC= 8.68D-02 BMatP= 4.51D-01
 IDIUse=3 WtCom= 8.10D-01 WtEn= 1.90D-01
 Coeff-Com:  0.220D+00 0.780D+00
 Coeff-En:   0.825D-01 0.917D+00
 Coeff:      0.194D+00 0.806D+00
 Gap=     0.560 Goal=   None    Shift=    0.000
 RMSDP=9.67D-04 MaxDP=3.61D-02 DE=-8.17D-02 OVMax= 9.12D-02

 Cycle   3  Pass 1  IDiag  1:
 E= -279.484306254296     Delta-E=       -0.038311525992 Rises=F Damp=F
 DIIS: error= 1.07D-02 at cycle   3 NSaved=   3.
 NSaved= 3 IEnMin= 3 EnMin= -279.484306254296     IErMin= 3 ErrMin= 1.07D-02
 ErrMax= 1.07D-02  0.00D+00 EMaxC= 1.00D-01 BMatC= 3.09D-02 BMatP= 8.68D-02
 IDIUse=3 WtCom= 8.93D-01 WtEn= 1.07D-01
 Coeff-Com: -0.347D-01 0.363D+00 0.672D+00
 Coeff-En:   0.000D+00 0.216D+00 0.784D+00
 Coeff:     -0.310D-01 0.347D+00 0.684D+00
 Gap=     0.540 Goal=   None    Shift=    0.000
 RMSDP=4.09D-04 MaxDP=1.57D-02 DE=-3.83D-02 OVMax= 3.93D-02

 Cycle   4  Pass 1  IDiag  1:
 E= -279.505423385221     Delta-E=       -0.021117130925 Rises=F Damp=F
 DIIS: error= 1.59D-03 at cycle   4 NSaved=   4.
 NSaved= 4 IEnMin= 4 EnMin= -279.505423385221     IErMin= 4 ErrMin= 1.59D-03
 ErrMax= 1.59D-03  0.00D+00 EMaxC= 1.00D-01 BMatC= 5.86D-04 BMatP= 3.09D-02
 IDIUse=3 WtCom= 9.84D-01 WtEn= 1.59D-02
 Coeff-Com: -0.118D-01 0.453D-01 0.150D+00 0.816D+00
 Coeff-En:   0.000D+00 0.000D+00 0.000D+00 0.100D+01
 Coeff:     -0.116D-01 0.446D-01 0.148D+00 0.819D+00
 Gap=     0.527 Goal=   None    Shift=    0.000
 RMSDP=9.87D-05 MaxDP=2.27D-03 DE=-2.11D-02 OVMax= 1.17D-02

 Cycle   5  Pass 1  IDiag  1:
 E= -279.506226367608     Delta-E=       -0.000802982386 Rises=F Damp=F
 DIIS: error= 1.06D-03 at cycle   5 NSaved=   5.
 NSaved= 5 IEnMin= 5 EnMin= -279.506226367608     IErMin= 5 ErrMin= 1.06D-03
 ErrMax= 1.06D-03  0.00D+00 EMaxC= 1.00D-01 BMatC= 1.01D-04 BMatP= 5.86D-04
 IDIUse=3 WtCom= 9.89D-01 WtEn= 1.06D-02
 Coeff-Com:  0.533D-02-0.651D-01-0.110D+00 0.595D-01 0.111D+01
 Coeff-En:   0.000D+00 0.000D+00 0.000D+00 0.000D+00 0.100D+01
 Coeff:      0.528D-02-0.644D-01-0.109D+00 0.589D-01 0.111D+01
 Gap=     0.531 Goal=   None    Shift=    0.000
 RMSDP=7.91D-05 MaxDP=2.11D-03 DE=-8.03D-04 OVMax= 1.28D-02

 Cycle   6  Pass 1  IDiag  1:
 E= -279.506583993515     Delta-E=       -0.000357625907 Rises=F Damp=F
 DIIS: error= 3.20D-04 at cycle   6 NSaved=   6.
 NSaved= 6 IEnMin= 6 EnMin= -279.506583993515     IErMin= 6 ErrMin= 3.20D-04
 ErrMax= 3.20D-04  0.00D+00 EMaxC= 1.00D-01 BMatC= 2.39D-05 BMatP= 1.01D-04
 IDIUse=3 WtCom= 9.97D-01 WtEn= 3.20D-03
 Coeff-Com:  0.187D-02-0.703D-02-0.176D-01-0.184D+00 0.165D-01 0.119D+01
 Coeff-En:   0.000D+00 0.000D+00 0.000D+00 0.000D+00 0.000D+00 0.100D+01
 Coeff:      0.187D-02-0.701D-02-0.176D-01-0.183D+00 0.164D-01 0.119D+01
 Gap=     0.531 Goal=   None    Shift=    0.000
 RMSDP=4.64D-05 MaxDP=1.07D-03 DE=-3.58D-04 OVMax= 6.06D-03

 Cycle   7  Pass 1  IDiag  1:
 E= -279.506669048618     Delta-E=       -0.000085055103 Rises=F Damp=F
 DIIS: error= 1.31D-04 at cycle   7 NSaved=   7.
 NSaved= 7 IEnMin= 7 EnMin= -279.506669048618     IErMin= 7 ErrMin= 1.31D-04
 ErrMax= 1.31D-04  0.00D+00 EMaxC= 1.00D-01 BMatC= 3.55D-06 BMatP= 2.39D-05
 IDIUse=3 WtCom= 9.99D-01 WtEn= 1.31D-03
 Coeff-Com: -0.109D-02 0.113D-01 0.250D-01 0.176D-01-0.183D+00-0.155D+00
 Coeff-Com:  0.128D+01
 Coeff-En:   0.000D+00 0.000D+00 0.000D+00 0.000D+00 0.000D+00 0.000D+00
 Coeff-En:   0.100D+01
 Coeff:     -0.109D-02 0.113D-01 0.250D-01 0.176D-01-0.183D+00-0.154D+00
 Coeff:      0.128D+01
 Gap=     0.532 Goal=   None    Shift=    0.000
 RMSDP=1.75D-05 MaxDP=5.12D-04 DE=-8.51D-05 OVMax= 2.33D-03

 Cycle   8  Pass 1  IDiag  1:
 E= -279.506680974491     Delta-E=       -0.000011925873 Rises=F Damp=F
 DIIS: error= 4.71D-05 at cycle   8 NSaved=   8.
 NSaved= 8 IEnMin= 8 EnMin= -279.506680974491     IErMin= 8 ErrMin= 4.71D-05
 ErrMax= 4.71D-05  0.00D+00 EMaxC= 1.00D-01 BMatC= 5.88D-07 BMatP= 3.55D-06
 IDIUse=1 WtCom= 1.00D+00 WtEn= 0.00D+00
 Coeff-Com: -0.554D-03 0.403D-02 0.963D-02 0.252D-01-0.577D-01-0.191D+00
 Coeff-Com:  0.354D+00 0.857D+00
 Coeff:     -0.554D-03 0.403D-02 0.963D-02 0.252D-01-0.577D-01-0.191D+00
 Coeff:      0.354D+00 0.857D+00
 Gap=     0.532 Goal=   None    Shift=    0.000
 RMSDP=5.35D-06 MaxDP=1.50D-04 DE=-1.19D-05 OVMax= 6.35D-04

 Cycle   9  Pass 1  IDiag  1:
 E= -279.506682317492     Delta-E=       -0.000001343001 Rises=F Damp=F
 DIIS: error= 2.48D-05 at cycle   9 NSaved=   9.
 NSaved= 9 IEnMin= 9 EnMin= -279.506682317492     IErMin= 9 ErrMin= 2.48D-05
 ErrMax= 2.48D-05  0.00D+00 EMaxC= 1.00D-01 BMatC= 1.15D-07 BMatP= 5.88D-07
 IDIUse=1 WtCom= 1.00D+00 WtEn= 0.00D+00
 Coeff-Com:  0.238D-03-0.252D-02-0.527D-02-0.564D-02 0.469D-01 0.485D-01
 Coeff-Com: -0.338D+00 0.358D-01 0.122D+01
 Coeff:      0.238D-03-0.252D-02-0.527D-02-0.564D-02 0.469D-01 0.485D-01
 Coeff:     -0.338D+00 0.358D-01 0.122D+01
 Gap=     0.532 Goal=   None    Shift=    0.000
 RMSDP=2.43D-06 MaxDP=6.52D-05 DE=-1.34D-06 OVMax= 2.57D-04

 Cycle  10  Pass 1  IDiag  1:
 E= -279.506682575477     Delta-E=       -0.000000257985 Rises=F Damp=F
 DIIS: error= 5.50D-06 at cycle  10 NSaved=  10.
 NSaved=10 IEnMin=10 EnMin= -279.506682575477     IErMin=10 ErrMin= 5.50D-06
 ErrMax= 5.50D-06  0.00D+00 EMaxC= 1.00D-01 BMatC= 8.16D-09 BMatP= 1.15D-07
 IDIUse=1 WtCom= 1.00D+00 WtEn= 0.00D+00
 Coeff-Com: -0.383D-04 0.490D-03 0.120D-02-0.182D-02-0.110D-01 0.504D-02
 Coeff-Com:  0.737D-01-0.545D-01-0.440D+00 0.143D+01
 Coeff:     -0.383D-04 0.490D-03 0.120D-02-0.182D-02-0.110D-01 0.504D-02
 Coeff:      0.737D-01-0.545D-01-0.440D+00 0.143D+01
 Gap=     0.532 Goal=   None    Shift=    0.000
 RMSDP=6.96D-07 MaxDP=2.55D-05 DE=-2.58D-07 OVMax= 7.50D-05

 Cycle  11  Pass 1  IDiag  1:
 E= -279.506682599821     Delta-E=       -0.000000024343 Rises=F Damp=F
 DIIS: error= 2.15D-06 at cycle  11 NSaved=  11.
 NSaved=11 IEnMin=11 EnMin= -279.506682599821     IErMin=11 ErrMin= 2.15D-06
 ErrMax= 2.15D-06  0.00D+00 EMaxC= 1.00D-01 BMatC= 8.06D-10 BMatP= 8.16D-09
 IDIUse=1 WtCom= 1.00D+00 WtEn= 0.00D+00
 Coeff-Com: -0.154D-04 0.154D-03 0.319D-03 0.913D-03-0.201D-02-0.707D-02
 Coeff-Com:  0.175D-01 0.195D-01-0.415D-01-0.340D+00 0.135D+01
 Coeff:     -0.154D-04 0.154D-03 0.319D-03 0.913D-03-0.201D-02-0.707D-02
 Coeff:      0.175D-01 0.195D-01-0.415D-01-0.340D+00 0.135D+01
 Gap=     0.532 Goal=   None    Shift=    0.000
 RMSDP=2.39D-07 MaxDP=8.90D-06 DE=-2.43D-08 OVMax= 2.82D-05

 Cycle  12  Pass 1  IDiag  1:
 E= -279.506682602717     Delta-E=       -0.000000002896 Rises=F Damp=F
 DIIS: error= 6.93D-07 at cycle  12 NSaved=  12.
 NSaved=12 IEnMin=12 EnMin= -279.506682602717     IErMin=12 ErrMin= 6.93D-07
 ErrMax= 6.93D-07  0.00D+00 EMaxC= 1.00D-01 BMatC= 8.31D-11 BMatP= 8.06D-10
 IDIUse=1 WtCom= 1.00D+00 WtEn= 0.00D+00
 Coeff-Com:  0.258D-05-0.443D-04-0.962D-04 0.123D-03 0.111D-02-0.676D-03
 Coeff-Com: -0.726D-02 0.631D-02 0.403D-01-0.110D+00-0.180D+00 0.125D+01
 Coeff:      0.258D-05-0.443D-04-0.962D-04 0.123D-03 0.111D-02-0.676D-03
 Coeff:     -0.726D-02 0.631D-02 0.403D-01-0.110D+00-0.180D+00 0.125D+01
 Gap=     0.532 Goal=   None    Shift=    0.000
 RMSDP=8.21D-08 MaxDP=2.67D-06 DE=-2.90D-09 OVMax= 9.55D-06

 Cycle  13  Pass 1  IDiag  1:
 E= -279.506682603006     Delta-E=       -0.000000000289 Rises=F Damp=F
 DIIS: error= 1.53D-07 at cycle  13 NSaved=  13.
 NSaved=13 IEnMin=13 EnMin= -279.506682603006     IErMin=13 ErrMin= 1.53D-07
 ErrMax= 1.53D-07  0.00D+00 EMaxC= 1.00D-01 BMatC= 7.00D-12 BMatP= 8.31D-11
 IDIUse=1 WtCom= 1.00D+00 WtEn= 0.00D+00
 Coeff-Com:  0.126D-05-0.117D-04-0.169D-04-0.122D-03 0.466D-04 0.915D-03
 Coeff-Com: -0.101D-02-0.247D-02-0.232D-02 0.551D-01-0.131D+00-0.144D+00
 Coeff-Com:  0.122D+01
 Coeff:      0.126D-05-0.117D-04-0.169D-04-0.122D-03 0.466D-04 0.915D-03
 Coeff:     -0.101D-02-0.247D-02-0.232D-02 0.551D-01-0.131D+00-0.144D+00
 Coeff:      0.122D+01
 Gap=     0.532 Goal=   None    Shift=    0.000
 RMSDP=2.20D-08 MaxDP=6.43D-07 DE=-2.89D-10 OVMax= 1.96D-06

 Cycle  14  Pass 1  IDiag  1:
 E= -279.506682603026     Delta-E=       -0.000000000020 Rises=F Damp=F
 DIIS: error= 4.10D-08 at cycle  14 NSaved=  14.
 NSaved=14 IEnMin=14 EnMin= -279.506682603026     IErMin=14 ErrMin= 4.10D-08
 ErrMax= 4.10D-08  0.00D+00 EMaxC= 1.00D-01 BMatC= 4.79D-13 BMatP= 7.00D-12
 IDIUse=1 WtCom= 1.00D+00 WtEn= 0.00D+00
 Coeff-Com: -0.300D-06 0.443D-05 0.882D-05-0.353D-05-0.112D-03 0.563D-04
 Coeff-Com:  0.645D-03-0.316D-03-0.356D-02 0.794D-02 0.166D-01-0.898D-01
 Coeff-Com: -0.217D-01 0.109D+01
 Coeff:     -0.300D-06 0.443D-05 0.882D-05-0.353D-05-0.112D-03 0.563D-04
 Coeff:      0.645D-03-0.316D-03-0.356D-02 0.794D-02 0.166D-01-0.898D-01
 Coeff:     -0.217D-01 0.109D+01
 Gap=     0.532 Goal=   None    Shift=    0.000
 RMSDP=4.34D-09 MaxDP=1.09D-07 DE=-1.96D-11 OVMax= 4.26D-07

 SCF Done:  E(RHF) =  -279.506682603     A.U. after   14 cycles
            NFock= 14  Conv=0.43D-08     -V/T= 2.0023
 KE= 2.788761898596D+02 PE=-9.061764168217D+02 EE= 2.251476065187D+02
 Leave Link  502 at Sun Mar  6 19:22:01 2022, MaxMem= 16106127360 cpu:              57.0 elap:               3.6
 (Enter /sw/contrib/gaussian/g16/B01/g16/l801.exe)
 ExpMin= 2.53D-02 ExpMax= 1.53D+04 ExpMxC= 5.22D+02 IAcc=3 IRadAn=         5 AccDes= 0.00D+00
 HarFok:  IExCor=  205 AccDes= 0.00D+00 IRadAn=         5 IDoV=-2 UseB2=F ITyADJ=14
 ICtDFT= 12500011 ScaDFX=  1.000000  1.000000  1.000000  1.000000
 Largest valence mixing into a core orbital is  2.07D-04
 Largest core mixing into a valence orbital is  3.08D-05
 Range of M.O.s used for correlation:     5   207
 NBasis=   207 NAE=    16 NBE=    16 NFC=     4 NFV=     0
 NROrb=    203 NOA=    12 NOB=    12 NVA=   191 NVB=   191

 **** Warning!!: The largest alpha MO coefficient is  0.16193405D+02

 Leave Link  801 at Sun Mar  6 19:22:01 2022, MaxMem= 16106127360 cpu:               2.3 elap:               0.1
 (Enter /sw/contrib/gaussian/g16/B01/g16/l906.exe)
 Frozen-core derivative calculation, NFC=   4 NFV=   0.
 FulOut=F Deriv=T AODrv=T NAtomX=     5
   MMem=           0  MDisk=          12 MDiskD=          12
  W3Min=      811440 MinDsk=     2425030 NBas6D=         245
 NBas2D=       30762    NTT=       30135    LW2=     7400000
    MDV= 16105571560 MDiskM=      328644 NBas2p=       30759
 Disk-based method using ON**2 memory for 12 occupieds at a time.
 Permanent disk used for amplitudes=    11516536 words.
 Estimated scratch disk usage=   321863743 words.
 IMap=   1   2   3   4   5   6   7   8   9  10  11  12  13  14  15  16
 Actual    scratch disk usage=   310892607 words.
 JobTyp=1 Pass  1:  I=   5 to  16 NPSUse= 28 ParTrn=T ParDer=T DoDerP=T.
 (rs|ai) integrals will be sorted in core.
 Spin components of T(2) and E(2):
     alpha-alpha T2 =       0.3476069224D-01 E2=     -0.1244469628D+00
     alpha-beta  T2 =       0.1844478043D+00 E2=     -0.6994837555D+00
     beta-beta   T2 =       0.3476069224D-01 E2=     -0.1244469628D+00
 The integrals were generated   1 times.
 ANorm=    0.1119807657D+01
 E2 =    -0.9483776812D+00 EUMP2 =    -0.28045506028423D+03
 Leave Link  906 at Sun Mar  6 19:23:39 2022, MaxMem= 16106127360 cpu:            2726.8 elap:              97.5
 (Enter /sw/contrib/gaussian/g16/B01/g16/l1101.exe)
 Using compressed Sx but separate Hx and Fx, NAtomX=     5.
 Will process      6 centers per pass.
 Leave Link 1101 at Sun Mar  6 19:23:39 2022, MaxMem= 16106127360 cpu:               6.4 elap:               0.3
 (Enter /sw/contrib/gaussian/g16/B01/g16/l1102.exe)
 Leave Link 1102 at Sun Mar  6 19:23:39 2022, MaxMem= 16106127360 cpu:               0.5 elap:               0.0
 (Enter /sw/contrib/gaussian/g16/B01/g16/l1110.exe)
 Forming Gx(P) for the SCF density, NAtomX=     5.
 Integral derivatives from FoFJK, PRISM(SPDF).
 Do as many integral derivatives as possible in FoFJK.
 G2DrvN: MDV=   16106126844.
 G2DrvN: will do     6 centers at a time, making    1 passes.
 Calling FoFCou, ICntrl=  3107 FMM=F I1Cent=   0 AccDes= 0.00D+00.
 FoFJK:  IHMeth= 1 ICntrl=    3107 DoSepK=F KAlg= 0 I1Cent=           0 FoldK=F
 IRaf=         0 NMat=       1 IRICut=       1 DoRegI=T DoRafI=F ISym2E= 1 IDoP0=0 IntGTp=1.
 FoFCou: FMM=F IPFlag=           0 FMFlag=      100000 FMFlg1=           0
         NFxFlg=           0 DoJE=F BraDBF=F KetDBF=F FulRan=T
         wScrn=  0.000000 ICntrl=      3107 IOpCl=  0 I1Cent=           0 NGrid=           0
         NMat0=    1 NMatS0=      1 NMatT0=    0 NMatD0=    1 NMtDS0=    0 NMtDT0=    0
 Petite list used in FoFCou.
 End of G2Drv F.D. properties file   721 does not exist.
 End of G2Drv F.D. properties file   722 does not exist.
 End of G2Drv F.D. properties file   788 does not exist.
 Leave Link 1110 at Sun Mar  6 19:23:42 2022, MaxMem= 16106127360 cpu:              87.3 elap:               3.1
 (Enter /sw/contrib/gaussian/g16/B01/g16/l1002.exe)
 Minotr:  Closed shell wavefunction.
          IDoAtm=11111
          Frozen-core window.
          Direct CPHF calculation.
          Differentiating once with respect to electric field.
                with respect to dipole field.
          Differentiating once with respect to nuclear coordinates.
          Requested convergence is 1.0D-08 RMS, and 1.0D-07 maximum.
          Secondary convergence is 1.0D-12 RMS, and 1.0D-12 maximum.
          NewPWx=T KeepS1=T KeepF1=T KeepIn=T MapXYZ=F SortEE=F KeepMc=T.
 Keep R1 ints in memory in symmetry-blocked form, NReq=348888983.
 FoFCou: FMM=F IPFlag=           0 FMFlag=           0 FMFlg1=           0
         NFxFlg=           0 DoJE=F BraDBF=F KetDBF=F FulRan=T
         wScrn=  0.000000 ICntrl=       600 IOpCl=  0 I1Cent=           0 NGrid=           0
         NMat0=    1 NMatS0=  21528 NMatT0=    0 NMatD0=    1 NMtDS0=    0 NMtDT0=    0
 Petite list used in FoFCou.
          MDV=   16106127360 using IRadAn=       1.
          Solving linear equations simultaneously, MaxMat=       0.
          There are    18 degrees of freedom in the 1st order CPHF.  IDoFFX=6 NUNeed=    18.
     15 vectors produced by pass  0 Test12= 1.70D-14 5.56D-09 XBig12= 7.93D+00 1.23D+00.
 AX will form    15 AO Fock derivatives at one time.
     15 vectors produced by pass  1 Test12= 1.70D-14 5.56D-09 XBig12= 1.35D+00 2.31D-01.
     15 vectors produced by pass  2 Test12= 1.70D-14 5.56D-09 XBig12= 6.36D-02 5.80D-02.
     15 vectors produced by pass  3 Test12= 1.70D-14 5.56D-09 XBig12= 1.98D-03 1.05D-02.
     15 vectors produced by pass  4 Test12= 1.70D-14 5.56D-09 XBig12= 4.01D-05 1.17D-03.
     15 vectors produced by pass  5 Test12= 1.70D-14 5.56D-09 XBig12= 5.74D-07 1.21D-04.
     15 vectors produced by pass  6 Test12= 1.70D-14 5.56D-09 XBig12= 4.61D-09 1.27D-05.
     14 vectors produced by pass  7 Test12= 1.70D-14 5.56D-09 XBig12= 3.45D-11 8.93D-07.
      3 vectors produced by pass  8 Test12= 1.70D-14 5.56D-09 XBig12= 2.31D-13 6.06D-08.
      2 vectors produced by pass  9 Test12= 1.70D-14 5.56D-09 XBig12= 1.57D-15 6.25D-09.
 InvSVY:  IOpt=1 It=  1 EMax= 6.66D-16
 Solved reduced A of dimension   124 with    15 vectors.
 FullF1:  Do perturbations      1 to      18.
 Saving first derivative matrices.
 End of Minotr F.D. properties file   721 does not exist.
 End of Minotr F.D. properties file   722 does not exist.
 End of Minotr F.D. properties file   788 does not exist.
 Leave Link 1002 at Sun Mar  6 19:23:45 2022, MaxMem= 16106127360 cpu:              83.0 elap:               3.0
 (Enter /sw/contrib/gaussian/g16/B01/g16/l811.exe)
 MDV= 16106127360.
 Form MO integral derivatives with frozen-active canonical formalism.
 MOERI=1 MOERIx=1 NAtoms=     5 NAtomX=     5.
 Discarding MO integrals.
 MO basis two electron integral derivatives will not be stored on disk.
 IAlg= 3 DoFC=T DoPWx=T Debug=F.
 Frozen-core window:  NFC=   4 NFV=   0.
 Reordered first order wavefunction length =     18678272
 In DefCFB: NBatch=  1 ICI= 16 ICA=191 LFMax= 96
            Large arrays: LIAPS=   619940160 LIARS=   288257200 words.
 In StABat: MaxSiz= 55 MinSiz= 25 NAtomB=  5
 DoIAMN: NPSUse= 28.
 Leave Link  811 at Sun Mar  6 19:25:04 2022, MaxMem= 16106127360 cpu:            2215.2 elap:              79.2
 (Enter /sw/contrib/gaussian/g16/B01/g16/l804.exe)
 Frozen-core window:  NFC=   4 NFV=   0.
 Closed-shell transformation, MDV= 16106127360 ITran=4 ISComp=1.
 Semi-Direct transformation.
 ModeAB=           2 MOrb=            16 LenV=   16104919939
 LASXX=     67341636 LTotXX=    67341636 LenRXX=    67341636
 LTotAB=    68301760 MaxLAS=    99807120 LenRXY=    99807120
 NonZer=   134683272 LenScr=   202817536 LnRSAI=           0
 LnScr1=           0 LExtra=           0 Total=    369966292
 MaxDsk=          -1 SrtSym=           F ITran=            4
 DoSDTr:  NPSUse= 28
 JobTyp=0 Pass  1:  I=   1 to  16.
 (rs|ai) integrals will be sorted in core.
 Complete sort for first half transformation.
 First half transformation complete.
 Begin second half transformation for I=  10.
 Begin second half transformation for I=  10.
 Complete sort for second half transformation.
 Second half transformation complete.
 Spin components of T(2) and E(2):
     alpha-alpha T2 =       0.3476069224D-01 E2=     -0.1244469628D+00
     alpha-beta  T2 =       0.1844478043D+00 E2=     -0.6994837555D+00
     beta-beta   T2 =       0.3476069224D-01 E2=     -0.1244469628D+00
 ANorm=    0.1583647176D+01
 E2 =    -0.9483776812D+00 EUMP2 =    -0.28045506028423D+03
 Leave Link  804 at Sun Mar  6 19:25:20 2022, MaxMem= 16106127360 cpu:             444.5 elap:              15.9
 (Enter /sw/contrib/gaussian/g16/B01/g16/l1002.exe)
 Minotr:  Closed shell wavefunction.
          Computing MP2/KS-MP2 derivatives.
          Using Z-Vector for PSCF gradient.
          Skipping F1 and S1 gradient terms here.
          IDoAtm=11111
          Frozen-core window.
          Using MO integrals in the linear equations.
          Forming densities via direct SCF.
          Differentiating once with respect to electric field.
                with respect to dipole field.
          Differentiating once with respect to nuclear coordinates.
          Using symmetry in CPHF.
          Requested convergence is 1.0D-10 RMS, and 1.0D-09 maximum.
          NewPWx=F KeepS1=T KeepF1=T KeepIn=T MapXYZ=F SortEE=F KeepMc=T.
          MDV=   16106127360 using IRadAn=       5.
          Solving linear equations separately, MaxMat=       0.
          There are     1 degrees of freedom in the 1st order CPHF.  IDoFFX=0 NUNeed=     1.
 FoFJK:  IHMeth= 1 ICntrl=       0 DoSepK=F KAlg= 0 I1Cent=           0 FoldK=F
 IRaf=         0 NMat=       1 IRICut=       1 DoRegI=T DoRafI=F ISym2E= 0 IDoP0=0 IntGTp=1.
 FoFCou: FMM=F IPFlag=           0 FMFlag=      100000 FMFlg1=           0
         NFxFlg=           0 DoJE=F BraDBF=F KetDBF=F FulRan=T
         wScrn=  0.000000 ICntrl=         0 IOpCl=  0 I1Cent=           0 NGrid=           0
         NMat0=    1 NMatS0=      1 NMatT0=    0 NMatD0=    1 NMtDS0=    0 NMtDT0=    0
 Symmetry not used in FoFCou.
 LinEq1:  Iter=  0 NonCon=     1 RMS=6.57D-03 Max=1.68D-01 NDo=     1
 LinEq1:  Iter=  1 NonCon=     1 RMS=1.99D-03 Max=3.09D-02 NDo=     1
 LinEq1:  Iter=  2 NonCon=     1 RMS=8.84D-04 Max=1.43D-02 NDo=     1
 LinEq1:  Iter=  3 NonCon=     1 RMS=3.81D-04 Max=8.26D-03 NDo=     1
 LinEq1:  Iter=  4 NonCon=     1 RMS=1.38D-04 Max=1.77D-03 NDo=     1
 LinEq1:  Iter=  5 NonCon=     1 RMS=7.64D-05 Max=1.36D-03 NDo=     1
 LinEq1:  Iter=  6 NonCon=     1 RMS=2.43D-05 Max=3.58D-04 NDo=     1
 LinEq1:  Iter=  7 NonCon=     1 RMS=8.10D-06 Max=1.08D-04 NDo=     1
 LinEq1:  Iter=  8 NonCon=     1 RMS=3.94D-06 Max=6.06D-05 NDo=     1
 LinEq1:  Iter=  9 NonCon=     1 RMS=1.04D-06 Max=1.14D-05 NDo=     1
 LinEq1:  Iter= 10 NonCon=     1 RMS=2.31D-07 Max=2.81D-06 NDo=     1
 LinEq1:  Iter= 11 NonCon=     1 RMS=4.99D-08 Max=7.33D-07 NDo=     1
 LinEq1:  Iter= 12 NonCon=     1 RMS=1.17D-08 Max=1.53D-07 NDo=     1
 LinEq1:  Iter= 13 NonCon=     1 RMS=2.05D-09 Max=2.37D-08 NDo=     1
 LinEq1:  Iter= 14 NonCon=     1 RMS=4.25D-10 Max=5.72D-09 NDo=     1
 LinEq1:  Iter= 15 NonCon=     0 RMS=8.72D-11 Max=7.97D-10 NDo=     1
 Linear equations converged to 1.000D-10 1.000D-09 after    15 iterations.
 End of Minotr F.D. properties file   721 does not exist.
 End of Minotr F.D. properties file   722 does not exist.
 End of Minotr F.D. properties file   788 does not exist.
 Leave Link 1002 at Sun Mar  6 19:25:23 2022, MaxMem= 16106127360 cpu:              66.1 elap:               2.4
 (Enter /sw/contrib/gaussian/g16/B01/g16/l1102.exe)
 Use density number 2.
 Symmetrizing basis deriv contribution to polar:
 IMax=3 JMax=2 DiffMx= 0.00D+00
 Leave Link 1102 at Sun Mar  6 19:25:23 2022, MaxMem= 16106127360 cpu:               0.6 elap:               0.0
 (Enter /sw/contrib/gaussian/g16/B01/g16/l1110.exe)
 Forming Gx(P) for generalized density number  2 NAtomX=     5.
 Integral derivatives from FoFJK, PRISM(SPDF).
 Do as many integral derivatives as possible in FoFJK.
 G2DrvN: MDV=   16106126844.
 G2DrvN: will do     6 centers at a time, making    1 passes.
 Calling FoFCou, ICntrl=  3107 FMM=F I1Cent=   0 AccDes= 0.00D+00.
 FoFJK:  IHMeth= 1 ICntrl=    3107 DoSepK=F KAlg= 0 I1Cent=           0 FoldK=F
 IRaf=         0 NMat=       1 IRICut=       1 DoRegI=T DoRafI=F ISym2E= 1 IDoP0=0 IntGTp=1.
 FoFCou: FMM=F IPFlag=           0 FMFlag=      100000 FMFlg1=           0
         NFxFlg=           0 DoJE=F BraDBF=F KetDBF=F FulRan=T
         wScrn=  0.000000 ICntrl=      3107 IOpCl=  0 I1Cent=           0 NGrid=           0
         NMat0=    1 NMatS0=      1 NMatT0=    0 NMatD0=    1 NMtDS0=    0 NMtDT0=    0
 Petite list used in FoFCou.
 End of G2Drv F.D. properties file   721 does not exist.
 End of G2Drv F.D. properties file   722 does not exist.
 End of G2Drv F.D. properties file   788 does not exist.
 Leave Link 1110 at Sun Mar  6 19:25:26 2022, MaxMem= 16106127360 cpu:              86.4 elap:               3.1
 (Enter /sw/contrib/gaussian/g16/B01/g16/l1112.exe)
 MP22nd: MDV=   16106127360
 This link is doing NAtomX=     5 total of    18 degrees of freedom.
 Using ON3 I/O method in MakUI.
 Frozen-core window:  NFC=   4 NFV=   0.
 Using Ix for Sx.
 Use MO integrals over full window.
 Using OV2 memory method for fx*t*t/D, MaxI=    16 DoOO2=F NP=  28.
 R2 and R3 integrals will be kept in memory, NReq=   915591705.
 FoFCou: FMM=F IPFlag=           0 FMFlag=           0 FMFlg1=           0
         NFxFlg=           0 DoJE=F BraDBF=F KetDBF=F FulRan=T
         wScrn=  0.000000 ICntrl=       600 IOpCl=  0 I1Cent=           0 NGrid=           0
         NMat0=    1 NMatS0=      1 NMatT0=    0 NMatD0=    1 NMtDS0=    0 NMtDT0=    0
 Symmetry not used in FoFCou.
 DD1Dir will call FoFMem   1 times, MxPair=       272
 NAB=   136 NAA=     0 NBB=     0.
 Symmetry is being used.
 FoFJK:  IHMeth= 1 ICntrl=       0 DoSepK=F KAlg= 0 I1Cent=           0 FoldK=F
 IRaf=         0 NMat=      18 IRICut=      45 DoRegI=T DoRafI=T ISym2E= 2 IDoP0=3 IntGTp=3.
 Discarding MO integrals.
 Leave Link 1112 at Sun Mar  6 19:26:11 2022, MaxMem= 16106127360 cpu:            1227.1 elap:              44.5
 (Enter /sw/contrib/gaussian/g16/B01/g16/l601.exe)
 Copying SCF densities to generalized density rwf, IOpCl= 0 IROHF=0.

 **********************************************************************

            Population analysis using the MP2 Density.

 **********************************************************************

 Orbital symmetries:
       Occupied  (A') (A') (A') (A') (A') (A') (A') (A') (A') (A')
                 (A") (A') (A') (A") (A') (A")
       Virtual   (A') (A") (A') (A') (A") (A') (A') (A') (A") (A')
                 (A") (A') (A') (A') (A") (A') (A') (A") (A') (A')
                 (A') (A') (A') (A') (A") (A') (A') (A") (A') (A')
                 (A') (A") (A") (A') (A') (A') (A") (A') (A") (A')
                 (A") (A") (A') (A') (A") (A') (A') (A") (A') (A')
                 (A') (A") (A') (A') (A") (A') (A") (A') (A") (A')
                 (A') (A') (A") (A') (A') (A') (A") (A") (A') (A')
                 (A") (A') (A") (A') (A") (A') (A") (A') (A') (A')
                 (A") (A') (A') (A") (A') (A") (A") (A') (A') (A')
                 (A') (A') (A") (A") (A') (A') (A") (A") (A') (A')
                 (A") (A') (A") (A') (A") (A') (A') (A') (A") (A')
                 (A") (A') (A') (A') (A") (A') (A') (A') (A") (A')
                 (A") (A") (A') (A') (A") (A") (A') (A") (A') (A')
                 (A') (A') (A") (A') (A') (A") (A") (A') (A') (A')
                 (A") (A") (A') (A') (A') (A") (A') (A') (A') (A")
                 (A') (A') (A') (A") (A") (A') (A") (A') (A") (A')
                 (A') (A") (A') (A") (A") (A') (A') (A") (A") (A")
                 (A') (A") (A") (A') (A') (A") (A') (A') (A') (A")
                 (A') (A') (A') (A') (A') (A') (A') (A') (A') (A')
                 (A')
 The electronic state is 1-A'.
 Alpha  occ. eigenvalues --  -20.72011 -20.68598 -20.66770 -15.82497  -1.64262
 Alpha  occ. eigenvalues --   -1.50393  -1.29360  -0.96042  -0.83283  -0.75814
 Alpha  occ. eigenvalues --   -0.73918  -0.63678  -0.61821  -0.61745  -0.50331
 Alpha  occ. eigenvalues --   -0.49727
 Alpha virt. eigenvalues --    0.03466   0.06116   0.09523   0.10045   0.12013
 Alpha virt. eigenvalues --    0.12259   0.14918   0.15102   0.17774   0.18102
 Alpha virt. eigenvalues --    0.18997   0.21130   0.21639   0.24276   0.24640
 Alpha virt. eigenvalues --    0.26961   0.31177   0.31544   0.33844   0.34324
 Alpha virt. eigenvalues --    0.34558   0.39233   0.44749   0.48523   0.50439
 Alpha virt. eigenvalues --    0.51908   0.54756   0.56187   0.60127   0.61988
 Alpha virt. eigenvalues --    0.63898   0.68767   0.71819   0.72443   0.74456
 Alpha virt. eigenvalues --    0.76222   0.76740   0.79618   0.80650   0.84182
 Alpha virt. eigenvalues --    0.84313   0.85015   0.88621   0.90697   0.93248
 Alpha virt. eigenvalues --    0.94607   0.95525   1.01706   1.02820   1.05648
 Alpha virt. eigenvalues --    1.06398   1.09314   1.14134   1.15615   1.16917
 Alpha virt. eigenvalues --    1.22306   1.22631   1.24415   1.34593   1.37149
 Alpha virt. eigenvalues --    1.37560   1.46887   1.48687   1.50785   1.53847
 Alpha virt. eigenvalues --    1.59594   1.59730   1.60805   1.62894   1.69759
 Alpha virt. eigenvalues --    1.73211   1.80174   1.83096   1.87862   1.88903
 Alpha virt. eigenvalues --    1.92543   1.97968   1.99066   2.05114   2.12256
 Alpha virt. eigenvalues --    2.12647   2.16137   2.18473   2.24499   2.25803
 Alpha virt. eigenvalues --    2.28972   2.34749   2.36205   2.38519   2.40031
 Alpha virt. eigenvalues --    2.43102   2.46927   2.47786   2.52746   2.53475
 Alpha virt. eigenvalues --    2.55252   2.55705   2.61496   2.62846   2.67196
 Alpha virt. eigenvalues --    2.67377   2.75867   2.81788   2.82236   2.82699
 Alpha virt. eigenvalues --    2.91882   2.98417   3.04600   3.05147   3.11151
 Alpha virt. eigenvalues --    3.11331   3.16867   3.20158   3.30475   3.33311
 Alpha virt. eigenvalues --    3.36513   3.47398   3.67966   3.86781   3.91471
 Alpha virt. eigenvalues --    4.17921   4.21999   4.22871   4.26729   4.37193
 Alpha virt. eigenvalues --    4.50348   4.51429   4.55725   4.58941   4.69892
 Alpha virt. eigenvalues --    4.80846   4.89958   4.91367   4.94422   5.00442
 Alpha virt. eigenvalues --    5.00648   5.10582   5.13432   5.18275   5.24775
 Alpha virt. eigenvalues --    5.26371   5.31881   5.32201   5.36194   5.54823
 Alpha virt. eigenvalues --    5.64536   5.70240   5.87982   5.99897   6.26505
 Alpha virt. eigenvalues --    6.29098   6.36361   6.38469   6.59222   6.65324
 Alpha virt. eigenvalues --    6.66480   6.68868   6.72761   6.80008   6.80012
 Alpha virt. eigenvalues --    6.85251   6.96680   7.00221   7.06650   7.08658
 Alpha virt. eigenvalues --    7.15201   7.17204   7.17543   7.19932   7.24495
 Alpha virt. eigenvalues --    7.24502   7.26873   7.34675   7.38485   7.41893
 Alpha virt. eigenvalues --    7.44346   7.46187   7.56113   7.65777   7.66421
 Alpha virt. eigenvalues --    7.79131   7.87522   7.95086   8.04830   8.29058
 Alpha virt. eigenvalues --    8.50578   8.65230  13.62196  14.73769  15.08819
 Alpha virt. eigenvalues --   15.71978
          Condensed to atoms (all electrons):
               1          2          3          4          5
     1  H    0.572656   0.126822   0.026533  -0.001858  -0.007492
     2  O    0.126822   8.388883  -0.232757  -0.000481  -0.008882
     3  O    0.026533  -0.232757   8.371977  -0.167827  -0.034986
     4  N   -0.001858  -0.000481  -0.167827   7.132052  -0.113405
     5  O   -0.007492  -0.008882  -0.034986  -0.113405   8.363096
 Mulliken charges:
               1
     1  H    0.283338
     2  O   -0.273585
     3  O    0.037059
     4  N    0.151519
     5  O   -0.198331
 Sum of Mulliken charges =  -0.00000
 Mulliken charges with hydrogens summed into heavy atoms:
               1
     2  O    0.009753
     3  O    0.037059
     4  N    0.151519
     5  O   -0.198331
 APT charges:
               1
     1  H    0.270212
     2  O   -0.301794
     3  O   -0.309790
     4  N    0.642553
     5  O   -0.301181
 Sum of APT charges =  -0.00000
 APT charges with hydrogens summed into heavy atoms:
               1
     2  O   -0.031582
     3  O   -0.309790
     4  N    0.642553
     5  O   -0.301181
 Electronic spatial extent (au):  <R**2>=            207.4688
 Charge=             -0.0000 electrons
 Dipole moment (field-independent basis, Debye):
    X=              0.1047    Y=             -1.1124    Z=             -0.0000  Tot=              1.1173
 Quadrupole moment (field-independent basis, Debye-Ang):
   XX=            -23.2908   YY=            -22.9341   ZZ=            -21.9417
   XY=             -2.0717   XZ=             -0.0000   YZ=             -0.0000
 Traceless Quadrupole moment (field-independent basis, Debye-Ang):
   XX=             -0.5686   YY=             -0.2119   ZZ=              0.7805
   XY=             -2.0717   XZ=             -0.0000   YZ=             -0.0000
 Octapole moment (field-independent basis, Debye-Ang**2):
  XXX=              2.7698  YYY=              0.2640  ZZZ=             -0.0000  XYY=              2.4196
  XXY=             -2.9684  XXZ=             -0.0000  XZZ=             -0.5891  YZZ=             -0.7063
  YYZ=             -0.0000  XYZ=              0.0000
 Hexadecapole moment (field-independent basis, Debye-Ang**3):
 XXXX=           -127.3054 YYYY=            -94.7660 ZZZZ=            -18.0640 XXXY=            -21.8400
 XXXZ=              0.0000 YYYX=            -19.8793 YYYZ=             -0.0000 ZZZX=              0.0000
 ZZZY=             -0.0000 XXYY=            -35.6476 XXZZ=            -24.4278 YYZZ=            -18.5841
 XXYZ=             -0.0000 YYXZ=             -0.0000 ZZXY=             -5.9082
 N-N= 1.226459378403D+02 E-N=-9.068652898124D+02  KE= 2.801946924324D+02
 Symmetry A'   KE= 2.663428669522D+02
 Symmetry A"   KE= 1.385182548023D+01
  Exact polarizability:  30.953   4.052  29.894  -0.000   0.000  17.656
 Approx polarizability:  24.503   0.417  27.711  -0.000   0.000  15.537
 No NMR shielding tensors so no spin-rotation constants.
 Leave Link  601 at Sun Mar  6 19:26:11 2022, MaxMem= 16106127360 cpu:               4.5 elap:               0.2
 (Enter /sw/contrib/gaussian/g16/B01/g16/l701.exe)
 ... and contract with generalized density number  2.
 Compute integral second derivatives.
 Leave Link  701 at Sun Mar  6 19:26:11 2022, MaxMem= 16106127360 cpu:               7.4 elap:               0.3
 (Enter /sw/contrib/gaussian/g16/B01/g16/l702.exe)
 L702 exits ... SP integral derivatives will be done elsewhere.
 Leave Link  702 at Sun Mar  6 19:26:11 2022, MaxMem= 16106127360 cpu:               0.8 elap:               0.0
 (Enter /sw/contrib/gaussian/g16/B01/g16/l703.exe)
 Integral derivatives from FoFJK, PRISM(SPDF).
 Compute integral second derivatives, UseDBF=F ICtDFT=           0.
 Calling FoFJK, ICntrl=  10100127 FMM=F ISym2X=1 I1Cent= 0 IOpClX= 0 NMat=1 NMatS=1 NMatT=0.
 FoFJK:  IHMeth= 1 ICntrl=10100127 DoSepK=F KAlg= 0 I1Cent=           0 FoldK=F
 IRaf=         0 NMat=       1 IRICut=       1 DoRegI=T DoRafI=F ISym2E= 1 IDoP0=0 IntGTp=1.
 FoFCou: FMM=F IPFlag=           0 FMFlag=      100000 FMFlg1=         800
         NFxFlg=           0 DoJE=F BraDBF=F KetDBF=F FulRan=T
         wScrn=  0.000000 ICntrl=  10100127 IOpCl=  0 I1Cent=           0 NGrid=           0
         NMat0=    1 NMatS0=      1 NMatT0=    0 NMatD0=    1 NMtDS0=    0 NMtDT0=    0
 Petite list used in FoFCou.
 Leave Link  703 at Sun Mar  6 19:26:27 2022, MaxMem= 16106127360 cpu:             443.5 elap:              15.9
 (Enter /sw/contrib/gaussian/g16/B01/g16/l716.exe)
 Dipole        = 4.11769969D-02-4.37656250D-01-7.73573962D-33
 Polarizability= 3.09532852D+01 4.05209474D+00 2.98940348D+01
                -2.94471323D-31 2.40875725D-31 1.76557747D+01
 Full mass-weighted force constant matrix:
 Low frequencies ---  -35.3152   -0.0011   -0.0005    0.0010   24.8128   60.1853
 Low frequencies ---  324.5641  396.2786  524.7314
 Diagonal vibrational polarizability:
        7.3548745       9.9581861      19.5618991
 Harmonic frequencies (cm**-1), IR intensities (KM/Mole), Raman scattering
 activities (A**4/AMU), depolarization ratios for plane and unpolarized
 incident light, reduced masses (AMU), force constants (mDyne/A),
 and normal coordinates:
                      1                      2                      3
                     A"                     A'                     A"
 Frequencies --    322.6637               396.2697               524.5090
 Red. masses --      1.5363                 6.8915                 3.0097
 Frc consts  --      0.0942                 0.6376                 0.4878
 IR Inten    --     66.1484                 7.5431                25.1853
  Atom  AN      X      Y      Z        X      Y      Z        X      Y      Z
     1   1     0.00   0.00   0.98    -0.74  -0.25   0.00     0.00   0.00   0.93
     2   8     0.00   0.00  -0.11    -0.32  -0.31  -0.00     0.00   0.00   0.06
     3   8     0.00  -0.00   0.11    -0.06   0.09  -0.00    -0.00  -0.00  -0.19
     4   7    -0.00  -0.00  -0.10     0.05   0.09   0.00    -0.00  -0.00   0.28
     5   8    -0.00  -0.00   0.03     0.38   0.16  -0.00    -0.00  -0.00  -0.17
                      4                      5                      6
                     A'                     A'                     A'
 Frequencies --    709.1445               831.9867               967.8642
 Red. masses --     13.2114                11.4453                 9.7543
 Frc consts  --      3.9144                 4.6678                 5.3836
 IR Inten    --    218.6220                30.0712                12.7387
  Atom  AN      X      Y      Z        X      Y      Z        X      Y      Z
     1   1    -0.37  -0.00  -0.00     0.50  -0.17   0.00    -0.63  -0.03   0.00
     2   8    -0.00  -0.07   0.00     0.50  -0.20  -0.00     0.20  -0.17  -0.00
     3   8     0.37   0.58  -0.00    -0.36  -0.01   0.00    -0.36   0.40   0.00
     4   7    -0.40  -0.46   0.00    -0.42  -0.06  -0.00     0.38   0.05   0.00
     5   8     0.01  -0.11  -0.00     0.20   0.27   0.00    -0.13  -0.28  -0.00
                      7                      8                      9
                     A'                     A'                     A'
 Frequencies --   1410.3779              1565.0728              3499.5298
 Red. masses --      1.2703                 8.1128                 1.0641
 Frc consts  --      1.4888                11.7083                 7.6779
 IR Inten    --     78.0505               149.3492                40.6264
  Atom  AN      X      Y      Z        X      Y      Z        X      Y      Z
     1   1     0.97  -0.18   0.00    -0.68   0.14  -0.00     0.13   0.99   0.00
     2   8    -0.07  -0.05  -0.00     0.01   0.02   0.00    -0.01  -0.06  -0.00
     3   8    -0.02   0.06   0.00    -0.05  -0.06  -0.00     0.00  -0.00   0.00
     4   7     0.06  -0.04   0.00     0.28  -0.46  -0.00    -0.00   0.00   0.00
     5   8    -0.02   0.03  -0.00    -0.17   0.43   0.00     0.00  -0.00  -0.00

 -------------------
 - Thermochemistry -
 -------------------
 Temperature   298.150 Kelvin.  Pressure   1.00000 Atm.
 Atom     1 has atomic number  1 and mass   1.00783
 Atom     2 has atomic number  8 and mass  15.99491
 Atom     3 has atomic number  8 and mass  15.99491
 Atom     4 has atomic number  7 and mass  14.00307
 Atom     5 has atomic number  8 and mass  15.99491
 Molecular mass:    62.99564 amu.
 Principal axes and moments of inertia in atomic units:
                           1         2         3
     Eigenvalues --    84.76579 222.70643 307.47221
           X            0.79778  -0.60295   0.00000
           Y            0.60295   0.79778   0.00000
           Z            0.00000  -0.00000   1.00000
 This molecule is an asymmetric top.
 Rotational symmetry number  1.
 Rotational temperatures (Kelvin)      1.02180     0.38892     0.28170
 Rotational constants (GHZ):          21.29092     8.10368     5.86961
 Zero-point vibrational energy      61173.5 (Joules/Mol)
                                   14.62083 (Kcal/Mol)
 Warning -- explicit consideration of   3 degrees of freedom as
           vibrations may cause significant error
 Vibrational temperatures:    464.24   570.14   754.65  1020.30  1197.04
          (Kelvin)           1392.54  2029.22  2251.79  5035.04
 
 Zero-point correction=                           0.023300 (Hartree/Particle)
 Thermal correction to Energy=                    0.027276
 Thermal correction to Enthalpy=                  0.028220
 Thermal correction to Gibbs Free Energy=        -0.002712
 Sum of electronic and zero-point Energies=           -280.431761
 Sum of electronic and thermal Energies=              -280.427785
 Sum of electronic and thermal Enthalpies=            -280.426840
 Sum of electronic and thermal Free Energies=         -280.457772
 
                     E (Thermal)             CV                S
                      KCal/Mol        Cal/Mol-Kelvin    Cal/Mol-Kelvin
 Total                   17.116             12.252             65.101
 Electronic               0.000              0.000              0.000
 Translational            0.889              2.981             38.341
 Rotational               0.889              2.981             23.277
 Vibrational             15.338              6.291              3.483
 Vibration     1          0.708              1.630              1.297
 Vibration     2          0.763              1.478              0.976
 Vibration     3          0.879              1.196              0.600
                       Q            Log10(Q)             Ln(Q)
 Total Bot       0.176745D+02          1.247347          2.872122
 Total V=0       0.921486D+12         11.964489         27.549254
 Vib (Bot)       0.329763D-10        -10.481798        -24.135232
 Vib (Bot)    1  0.581665D+00         -0.235327         -0.541861
 Vib (Bot)    2  0.451010D+00         -0.345814         -0.796267
 Vib (Bot)    3  0.306468D+00         -0.513615         -1.182642
 Vib (V=0)       0.171927D+01          0.235344          0.541900
 Vib (V=0)    1  0.126703D+01          0.102787          0.236675
 Vib (V=0)    2  0.117336D+01          0.069430          0.159869
 Vib (V=0)    3  0.108645D+01          0.036009          0.082915
 Electronic      0.100000D+01          0.000000          0.000000
 Translational   0.196526D+08          7.293420         16.793719
 Rotational      0.272725D+05          4.435725         10.213635
 
                                                                title
                                                             IR Spectrum
 
     3                                                                      1    1                                                   
     5                                                                      5    4               9    8    7     5    3  3           
     0                                                                      6    1               6    3    0     2    9  2           
     0                                                                      5    0               8    2    9     5    6  3           
 
     X                                                                      X    X               X    X    X     X    X  X           
     X                                                                      X    X                    X    X     X       X           
     X                                                                      X    X                    X    X             X           
     X                                                                      X    X                         X             X           
                                                                            X    X                         X             X           
                                                                            X    X                         X             X           
                                                                            X    X                         X                         
                                                                            X                              X                         
                                                                            X                              X                         
                                                                            X                              X                         
                                                                            X                              X                         
                                                                            X                              X                         
                                                                            X                              X                         
                                                                            X                              X                         
                                                                                                           X                         
                                                                                                           X                         
                                                                                                           X                         
                                                                                                           X                         
                                                                                                           X                         
                                                                                                           X                         
 
 ***** Axes restored to original set *****
 -------------------------------------------------------------------
 Center     Atomic                   Forces (Hartrees/Bohr)
 Number     Number              X              Y              Z
 -------------------------------------------------------------------
      1        1           0.004981781   -0.000000000    0.001643221
      2        8          -0.004018451    0.000000000    0.002384838
      3        8          -0.001381966    0.000000000   -0.003495004
      4        7          -0.000095456    0.000000000   -0.000836341
      5        8           0.000514092   -0.000000000    0.000303286
 -------------------------------------------------------------------
 Cartesian Forces:  Max     0.004981781 RMS     0.002074342
 -----------------------------------------------------------------------------------------------
                       Internal Coordinate Forces (Hartree/Bohr or radian)
  Cent   Atom   N1       Length/X         N2         Alpha/Y        N3         Beta/Z          J
 -----------------------------------------------------------------------------------------------
      1  H 
      2  O        1  -0.001643(     1)
      3  O        2  -0.001833(     2)      1  -0.009277(     5)
      4  N        3   0.000677(     3)      2   0.000736(     6)      1  -0.000000(     8)     0
      5  O        4  -0.000518(     4)      3   0.000669(     7)      2  -0.000000(     9)     0
 -----------------------------------------------------------------------------------------------
 Internal  Forces:  Max     0.009276712 RMS     0.003228950
 Force constants in Cartesian coordinates: 
                1             2             3             4             5 
      1  0.682767D-01
      2  0.000000D+00  0.578367D-02
      3  0.199956D-01  0.000000D+00  0.440139D+00
      4 -0.549174D-01  0.000000D+00 -0.391042D-02  0.284245D+00
      5  0.000000D+00 -0.435014D-03  0.000000D+00  0.000000D+00  0.866163D-02
      6  0.340386D-01  0.000000D+00 -0.423659D+00 -0.106888D-01  0.000000D+00
      7 -0.201382D-01  0.000000D+00 -0.138326D-01 -0.167458D+00  0.000000D+00
      8  0.000000D+00 -0.609617D-02  0.000000D+00  0.000000D+00 -0.172336D-01
      9 -0.433607D-01  0.000000D+00 -0.175334D-01  0.942545D-02  0.000000D+00
     10 -0.299840D-02  0.000000D+00  0.526666D-02 -0.863251D-01  0.000000D+00
     11  0.000000D+00  0.783845D-02  0.000000D+00  0.000000D+00  0.195904D-01
     12 -0.183361D-01  0.000000D+00  0.943123D-02  0.862204D-02  0.000000D+00
     13  0.977721D-02  0.000000D+00 -0.751925D-02  0.244560D-01  0.000000D+00
     14  0.000000D+00 -0.709093D-02  0.000000D+00  0.000000D+00 -0.105834D-01
     15  0.766255D-02  0.000000D+00 -0.837751D-02 -0.344828D-02  0.000000D+00
                6             7             8             9            10 
      6  0.525462D+00
      7 -0.916724D-01  0.294485D+00
      8  0.000000D+00  0.000000D+00  0.406803D-01
      9 -0.101505D+00  0.775138D-01  0.000000D+00  0.319496D+00
     10  0.386147D-01 -0.143231D+00  0.000000D+00 -0.399970D-01  0.534042D+00
     11  0.000000D+00  0.000000D+00 -0.471654D-01  0.000000D+00  0.000000D+00
     12 -0.730917D-02  0.105854D-01  0.000000D+00 -0.254630D-01  0.245901D+00
     13  0.297079D-01  0.363423D-01  0.000000D+00 -0.358156D-02 -0.301487D+00
     14  0.000000D+00  0.000000D+00  0.298148D-01  0.000000D+00  0.000000D+00
     15  0.701151D-02  0.174058D-01  0.000000D+00 -0.174995D+00 -0.249785D+00
               11            12            13            14            15 
     11  0.572352D-01
     12  0.000000D+00  0.466329D+00
     13  0.000000D+00 -0.246772D+00  0.230912D+00
     14 -0.374987D-01  0.000000D+00  0.000000D+00  0.253582D-01
     15  0.000000D+00 -0.442988D+00  0.228165D+00  0.000000D+00  0.619349D+00
 Force constants in internal coordinates: 
                1             2             3             4             5 
      1  0.440139D+00
      2  0.193414D-01  0.253626D+00
      3  0.217567D-02  0.187283D-01  0.208075D+00
      4 -0.110027D-01  0.222873D-01  0.148092D+00  0.720376D+00
      5  0.422155D-01  0.465857D-01 -0.234998D-01  0.214153D-01  0.233681D+00
      6  0.851645D-02  0.196043D-01  0.935803D-01  0.796883D-02 -0.159456D-01
      7  0.537271D-02 -0.708593D-01  0.122185D+00  0.115052D+00 -0.197401D-01
      8  0.000000D+00  0.000000D+00  0.000000D+00  0.000000D+00  0.000000D+00
      9  0.000000D+00  0.000000D+00  0.000000D+00  0.000000D+00  0.000000D+00
                6             7             8             9 
      6  0.509774D+00
      7  0.613240D-01  0.660951D+00
      8  0.000000D+00  0.000000D+00  0.181647D-01
      9  0.000000D+00  0.000000D+00  0.264864D-01  0.106099D+00
 Leave Link  716 at Sun Mar  6 19:26:27 2022, MaxMem= 16106127360 cpu:               2.3 elap:               0.1
 (Enter /sw/contrib/gaussian/g16/B01/g16/l103.exe)

 GradGradGradGradGradGradGradGradGradGradGradGradGradGradGradGradGradGrad
 Berny optimization.
 Search for a local minimum.
 Step number   1 out of a maximum of    2
 All quantities printed in internal units (Hartrees-Bohrs-Radians)
 Second derivative matrix not updated -- analytic derivatives used.
 The second derivative matrix:
                          r1        r2        r3        r4        a1
           r1           0.44014
           r2           0.01934   0.25363
           r3           0.00218   0.01873   0.20807
           r4          -0.01100   0.02229   0.14809   0.72038
           a1           0.04222   0.04659  -0.02350   0.02142   0.23368
           a2           0.00852   0.01960   0.09358   0.00797  -0.01595
           a3           0.00537  -0.07086   0.12219   0.11505  -0.01974
           d1          -0.00000  -0.00000  -0.00000   0.00000   0.00000
           d2          -0.00000   0.00000   0.00000   0.00000   0.00000
                          a2        a3        d1        d2
           a2           0.50977
           a3           0.06132   0.66095
           d1          -0.00000  -0.00000   0.01816
           d2           0.00000  -0.00000   0.02649   0.10610
 ITU=  0
     Eigenvalues ---    0.01080   0.11346   0.12361   0.20103   0.26218
     Eigenvalues ---    0.45040   0.50393   0.60609   0.87938
 Angle between quadratic step and forces=  18.07 degrees.
 Linear search not attempted -- first point.
 Variable       Old X    -DE/DX   Delta X   Delta X   Delta X     New X
                                 (Linear)    (Quad)   (Total)
    r1        1.86209  -0.00164   0.00000   0.00012   0.00012   1.86221
    r2        2.69614  -0.00183   0.00000   0.00016   0.00016   2.69630
    r3        2.60992   0.00068   0.00000  -0.00220  -0.00220   2.60772
    r4        2.25782  -0.00052   0.00000   0.00091   0.00091   2.25873
    a1        1.79459  -0.00928   0.00000  -0.04001  -0.04001   1.75457
    a2        1.97463   0.00074   0.00000   0.00057   0.00057   1.97520
    a3        1.99550   0.00067   0.00000   0.00003   0.00003   1.99553
    d1        0.00000  -0.00000   0.00000   0.00000   0.00000   0.00000
    d2        0.00000  -0.00000   0.00000  -0.00000  -0.00000  -0.00000
         Item               Value     Threshold  Converged?
 Maximum Force            0.009277     0.000450     NO 
 RMS     Force            0.003229     0.000300     NO 
 Maximum Displacement     0.040015     0.001800     NO 
 RMS     Displacement     0.013363     0.001200     NO 
 Predicted change in Energy=-1.845972D-04
                       ----------------------------
                       ! Non-Optimized Parameters !
                       ! (Angstroms and Degrees)  !
 ----------------------                            ----------------------
 !      Name          Value   Derivative information (Atomic Units)     !
 ------------------------------------------------------------------------
 !       r1          0.9854   -DE/DX =   -0.0016                        !
 !       r2          1.4268   -DE/DX =   -0.0018                        !
 !       r3          1.3799   -DE/DX =    0.0007                        !
 !       r4          1.1953   -DE/DX =   -0.0005                        !
 !       a1        100.5297   -DE/DX =   -0.0093                        !
 !       a2        113.1705   -DE/DX =    0.0007                        !
 !       a3        114.3356   -DE/DX =    0.0007                        !
 !       d1          0.0      -DE/DX =    0.0                           !
 !       d2          0.0      -DE/DX =    0.0                           !
 ------------------------------------------------------------------------
 GradGradGradGradGradGradGradGradGradGradGradGradGradGradGradGradGradGrad

 Leave Link  103 at Sun Mar  6 19:26:27 2022, MaxMem= 16106127360 cpu:               1.8 elap:               0.1
 (Enter /sw/contrib/gaussian/g16/B01/g16/l9999.exe)

 ----------------------------------------------------------------------

 Electric dipole moment (input orientation):
 (Debye = 10**-18 statcoulomb cm , SI units = C m)
                  (au)            (Debye)         (10**-30 SI)
   Tot        0.439589D+00      0.111732D+01      0.372699D+01
   x         -0.116477D+00     -0.296056D+00     -0.987536D+00
   y          0.000000D+00      0.000000D+00      0.000000D+00
   z         -0.423877D+00     -0.107739D+01     -0.359378D+01

 Dipole polarizability, Alpha (input orientation).
 (esu units = cm**3 , SI units = C**2 m**2 J**-1)
 Alpha(0;0):
               (au)            (10**-24 esu)      (10**-40 SI)
   iso        0.261677D+02      0.387765D+01      0.431447D+01
   aniso      0.145986D+02      0.216329D+01      0.240698D+01
   xx         0.295368D+02      0.437690D+01      0.486996D+01
   yx         0.000000D+00      0.000000D+00      0.000000D+00
   yy         0.176558D+02      0.261632D+01      0.291104D+01
   zx        -0.398917D+01     -0.591134D+00     -0.657725D+00
   zy         0.000000D+00      0.000000D+00      0.000000D+00
   zz         0.313105D+02      0.463974D+01      0.516241D+01

 ----------------------------------------------------------------------

 Dipole orientation:
     1         -0.00000000         -0.00000000          0.00000000
     8         -0.49339585         -0.00000000         -1.79553532
     8          1.88300261         -0.00000000         -3.06907743
     7          3.92057711          0.00000000         -1.43814290
     8          3.36133593          0.00000000          0.74932455

 Electric dipole moment (dipole orientation):
 (Debye = 10**-18 statcoulomb cm , SI units = C m)
                  (au)            (Debye)         (10**-30 SI)
   Tot        0.439589D+00      0.111732D+01      0.372699D+01
   x          0.000000D+00      0.000000D+00      0.000000D+00
   y          0.000000D+00      0.000000D+00      0.000000D+00
   z          0.439589D+00      0.111732D+01      0.372699D+01

 Dipole polarizability, Alpha (dipole orientation).
 (esu units = cm**3 , SI units = C**2 m**2 J**-1)
 Alpha(0;0):
               (au)            (10**-24 esu)      (10**-40 SI)
   iso        0.261677D+02      0.387765D+01      0.431447D+01
   aniso      0.145986D+02      0.216329D+01      0.240698D+01
   xx         0.316998D+02      0.469742D+01      0.522659D+01
   yx         0.000000D+00      0.000000D+00      0.000000D+00
   yy         0.176558D+02      0.261632D+01      0.291104D+01
   zx         0.388220D+01      0.575283D+00      0.640088D+00
   zy         0.000000D+00      0.000000D+00      0.000000D+00
   zz         0.291475D+02      0.431922D+01      0.480578D+01

 ----------------------------------------------------------------------
 1\1\GINC-N2109\Freq\RMP2-FC\Aug-CC-pVTZ\H1N1O3\CGAVINH\06-Mar-2022\1\\
 #p freq mp2/aug-cc-pvtz density=current\\title\\0,1\H\O,1,r1\O,2,r2,1,
 a1\N,3,r3,2,a2,1,d1,0\O,4,r4,3,a3,2,d2,0\\r1=0.98537664\r2=1.42673666\
 r3=1.38110764\r4=1.19478846\a1=102.82233719\a2=113.13777052\a3=114.333
 92022\d1=0.\d2=0.\\Version=ES64L-G16RevB.01\State=1-A'\HF=-279.5066826
 \MP2=-280.4550603\RMSD=4.341e-09\RMSF=2.074e-03\ZeroPoint=0.0232998\Th
 ermal=0.0272758\Dipole=-0.1164773,0.,-0.4238768\DipoleDeriv=0.3114575,
 0.,0.0458434,0.,0.3032013,0.,-0.0053135,0.,0.1959771,-0.5308029,0.,0.2
 60851,0.,-0.2593626,0.,-0.1346689,0.,-0.1152166,-0.0314323,0.,0.375638
 ,0.,-0.0086012,0.,0.4821349,0.,-0.8893358,0.2336321,0.,-0.1988473,0.,0
 .0119311,0.,-0.7281322,0.,1.6820961,0.0171456,0.,-0.4834851,0.,-0.0471
 686,0.,0.3859797,0.,-0.8735208\Polar=29.5368086,0.,17.6557747,-3.98916
 9,0.,31.3105113\Quadrupole=0.1115701,0.5802828,-0.6918529,0.,1.4928643
 ,0.\PG=CS [SG(H1N1O3)]\NImag=0\\0.06827675,0.,0.00578367,0.01999561,0.
 ,0.44013910,-0.05491740,0.,-0.00391042,0.28424469,0.,-0.00043501,0.,0.
 ,0.00866163,0.03403858,0.,-0.42365940,-0.01068881,0.,0.52546163,-0.020
 13816,0.,-0.01383261,-0.16745825,0.,-0.09167238,0.29448491,0.,-0.00609
 617,0.,0.,-0.01723360,0.,0.,0.04068033,-0.04336068,0.,-0.01753342,0.00
 942545,0.,-0.10150456,0.07751380,0.,0.31949561,-0.00299840,0.,0.005266
 66,-0.08632507,0.,0.03861466,-0.14323076,0.,-0.03999701,0.53404157,0.,
 0.00783845,0.,0.,0.01959037,0.,0.,-0.04716535,0.,0.,0.05723521,-0.0183
 3606,0.,0.00943123,0.00862204,0.,-0.00730917,0.01058537,0.,-0.02546297
 ,0.24590079,0.,0.46632937,0.00977721,0.,-0.00751925,0.02445603,0.,0.02
 970794,0.03634226,0.,-0.00358156,-0.30148735,0.,-0.24677214,0.23091185
 ,0.,-0.00709093,0.,0.,-0.01058339,0.,0.,0.02981478,0.,0.,-0.03749868,0
 .,0.,0.02535822,0.00766255,0.,-0.00837751,-0.00344828,0.,0.00701151,0.
 01740582,0.,-0.17499467,-0.24978510,0.,-0.44298846,0.22816500,0.,0.619
 34913\\-0.00498178,0.,-0.00164322,0.00401845,0.,-0.00238484,0.00138197
 ,0.,0.00349500,0.00009546,0.,0.00083634,-0.00051409,0.,-0.00030329\\\@


 CONTRAIWISE...CONTINUED TWEEDLEDEE, IF IT WAS SO, IT MIGHT BE,
 AND IF IT WERE SO, IT WOULD BE.....
 BUT AS IT ISN'T, IT AIN'T....
 THAT'S LOGIC.....
 ALICE THROUGH THE LOOKING GLASS
 Job cpu time:       0 days  2 hours  4 minutes 48.2 seconds.
 Elapsed time:       0 days  0 hours  4 minutes 30.9 seconds.
 File lengths (MBytes):  RWF=   7239 Int=      0 D2E=      0 Chk=      8 Scr=      1
 Normal termination of Gaussian 16 at Sun Mar  6 19:26:29 2022.
