title                                                                   
Freq      RMP2-FC                                                     Aug-CC-pVTZ         
Number of atoms                            I                5
Info1-9                                    I   N=           9
          33          24           0           0           0         100
           6           2           1
Full Title                                 C   N=           1
title       
Route                                      C   N=           4
#p freq mp2/aug-cc-pvtz density=current         
Charge                                     I                0
Multiplicity                               I                1
Number of electrons                        I               32
Number of alpha electrons                  I               16
Number of beta electrons                   I               16
Number of basis functions                  I              207
Number of independent functions            I              207
Number of point charges in /Mol/           I                0
Number of translation vectors              I                0
Atomic numbers                             I   N=           5
           1           8           8           7           8
Nuclear charges                            R   N=           5
  1.00000000E+00  8.00000000E+00  8.00000000E+00  7.00000000E+00  8.00000000E+00
Current cartesian coordinates              R   N=          15
  2.08780330E+00 -1.14090676E+00  0.00000000E+00  2.48354080E+00  6.78647679E-01
  0.00000000E+00  1.79447224E-17  1.72803049E+00  0.00000000E+00 -1.86812992E+00
 -7.32608791E-02  0.00000000E+00 -1.10990253E+00 -2.19996155E+00  0.00000000E+00
Number of symbols in /Mol/                 I                0
Force Field                                I                0
Atom Types                                 C   N=           5
                                                            
Int Atom Types                             I   N=           5
           0           0           0           0           0
MM charges                                 R   N=           5
  0.00000000E+00  0.00000000E+00  0.00000000E+00  0.00000000E+00  0.00000000E+00
Integer atomic weights                     I   N=           5
           1          16          16          14          16
Real atomic weights                        R   N=           5
  1.00782504E+00  1.59949146E+01  1.59949146E+01  1.40030740E+01  1.59949146E+01
Atom fragment info                         I   N=           5
           0           0           0           0           0
Atom residue num                           I   N=           5
           0           0           0           0           0
Nuclear spins                              I   N=           5
           1           0           0           2           0
Nuclear ZEff                               R   N=           5
 -1.00000000E+00 -5.60000000E+00 -5.60000000E+00 -4.55000000E+00 -5.60000000E+00
Nuclear ZNuc                               R   N=           5
  1.00000000E+00  8.00000000E+00  8.00000000E+00  7.00000000E+00  8.00000000E+00
Nuclear QMom                               R   N=           5
  0.00000000E+00  0.00000000E+00  0.00000000E+00  2.04400000E+00  0.00000000E+00
Nuclear GFac                               R   N=           5
  2.79284600E+00  0.00000000E+00  0.00000000E+00  4.03761000E-01  0.00000000E+00
MicOpt                                     I   N=           5
          -1          -1          -1          -1          -1
Number of residues                         I                0
Number of secondary structures             I                0
SymInf integers                            I   N=          26
           1           2           1           1           1           1
           1          -1           0           0           0           0
           0           0           0           0           0           0
           0           0           0           0           0           0
           0           0
RotTr to input orientation                 R   N=          12
 -9.77156049E-01  0.00000000E+00  2.12523070E-01  2.12523070E-01  0.00000000E+00
  9.77156049E-01  0.00000000E+00  1.00000000E+00  0.00000000E+00  2.28257863E+00
  0.00000000E+00  6.71137578E-01
Number of contracted shells                I               65
Number of primitive shells                 I              119
Pure/Cartesian d shells                    I                0
Pure/Cartesian f shells                    I                0
Highest angular momentum                   I                3
Largest degree of contraction              I                7
Shell types                                I   N=          65
           0           0           0           0           1           1
           1          -2          -2           0           0           0
           0           0           1           1           1           1
          -2          -2          -2          -3          -3           0
           0           0           0           0           1           1
           1           1          -2          -2          -2          -3
          -3           0           0           0           0           0
           1           1           1           1          -2          -2
          -2          -3          -3           0           0           0
           0           0           1           1           1           1
          -2          -2          -2          -3          -3
Number of primitives per shell             I   N=          65
           3           1           1           1           1           1
           1           1           1           7           6           1
           1           1           3           1           1           1
           1           1           1           1           1           7
           6           1           1           1           3           1
           1           1           1           1           1           1
           1           7           6           1           1           1
           3           1           1           1           1           1
           1           1           1           7           6           1
           1           1           3           1           1           1
           1           1           1           1           1
Shell to atom map                          I   N=          65
           1           1           1           1           1           1
           1           1           1           2           2           2
           2           2           2           2           2           2
           2           2           2           2           2           3
           3           3           3           3           3           3
           3           3           3           3           3           3
           3           4           4           4           4           4
           4           4           4           4           4           4
           4           4           4           5           5           5
           5           5           5           5           5           5
           5           5           5           5           5
Primitive exponents                        R   N=         119
  3.38700000E+01  5.09500000E+00  1.15900000E+00  3.25800000E-01  1.02700000E-01
  2.52600000E-02  1.40700000E+00  3.88000000E-01  1.02000000E-01  1.05700000E+00
  2.47000000E-01  1.53300000E+04  2.29900000E+03  5.22400000E+02  1.47300000E+02
  4.75500000E+01  1.67600000E+01  6.20700000E+00  5.22400000E+02  1.47300000E+02
  4.75500000E+01  1.67600000E+01  6.20700000E+00  6.88200000E-01  1.75200000E+00
  2.38400000E-01  7.37600000E-02  3.44600000E+01  7.74900000E+00  2.28000000E+00
  7.15600000E-01  2.14000000E-01  5.97400000E-02  2.31400000E+00  6.45000000E-01
  2.14000000E-01  1.42800000E+00  5.00000000E-01  1.53300000E+04  2.29900000E+03
  5.22400000E+02  1.47300000E+02  4.75500000E+01  1.67600000E+01  6.20700000E+00
  5.22400000E+02  1.47300000E+02  4.75500000E+01  1.67600000E+01  6.20700000E+00
  6.88200000E-01  1.75200000E+00  2.38400000E-01  7.37600000E-02  3.44600000E+01
  7.74900000E+00  2.28000000E+00  7.15600000E-01  2.14000000E-01  5.97400000E-02
  2.31400000E+00  6.45000000E-01  2.14000000E-01  1.42800000E+00  5.00000000E-01
  1.14200000E+04  1.71200000E+03  3.89300000E+02  1.10000000E+02  3.55700000E+01
  1.25400000E+01  4.64400000E+00  3.89300000E+02  1.10000000E+02  3.55700000E+01
  1.25400000E+01  4.64400000E+00  5.11800000E-01  1.29300000E+00  1.78700000E-01
  5.76000000E-02  2.66300000E+01  5.94800000E+00  1.74200000E+00  5.55000000E-01
  1.72500000E-01  4.91000000E-02  1.65400000E+00  4.69000000E-01  1.51000000E-01
  1.09300000E+00  3.64000000E-01  1.53300000E+04  2.29900000E+03  5.22400000E+02
  1.47300000E+02  4.75500000E+01  1.67600000E+01  6.20700000E+00  5.22400000E+02
  1.47300000E+02  4.75500000E+01  1.67600000E+01  6.20700000E+00  6.88200000E-01
  1.75200000E+00  2.38400000E-01  7.37600000E-02  3.44600000E+01  7.74900000E+00
  2.28000000E+00  7.15600000E-01  2.14000000E-01  5.97400000E-02  2.31400000E+00
  6.45000000E-01  2.14000000E-01  1.42800000E+00  5.00000000E-01
Contraction coefficients                   R   N=         119
  2.54948632E-02  1.90362766E-01  8.52162022E-01  1.00000000E+00  1.00000000E+00
  1.00000000E+00  1.00000000E+00  1.00000000E+00  1.00000000E+00  1.00000000E+00
  1.00000000E+00  5.19808943E-04  4.02025621E-03  2.07128267E-02  8.10105536E-02
  2.35962985E-01  4.42653446E-01  3.57064423E-01 -4.42115008E-05 -1.22591041E-03
 -1.05517725E-02 -6.74452633E-02 -1.71198607E-01  1.07329856E+00  1.00000000E+00
  1.00000000E+00  1.00000000E+00  4.11634896E-02  2.57762836E-01  8.02419274E-01
  1.00000000E+00  1.00000000E+00  1.00000000E+00  1.00000000E+00  1.00000000E+00
  1.00000000E+00  1.00000000E+00  1.00000000E+00  5.19808943E-04  4.02025621E-03
  2.07128267E-02  8.10105536E-02  2.35962985E-01  4.42653446E-01  3.57064423E-01
 -4.42115008E-05 -1.22591041E-03 -1.05517725E-02 -6.74452633E-02 -1.71198607E-01
  1.07329856E+00  1.00000000E+00  1.00000000E+00  1.00000000E+00  4.11634896E-02
  2.57762836E-01  8.02419274E-01  1.00000000E+00  1.00000000E+00  1.00000000E+00
  1.00000000E+00  1.00000000E+00  1.00000000E+00  1.00000000E+00  1.00000000E+00
  5.34563860E-04  4.13435660E-03  2.12335358E-02  8.25006224E-02  2.38138871E-01
  4.42551547E-01  3.53757422E-01 -4.89867350E-05 -1.19527323E-03 -1.03490714E-02
 -6.48680190E-02 -1.71552477E-01  1.07289568E+00  1.00000000E+00  1.00000000E+00
  1.00000000E+00  3.98072123E-02  2.49002660E-01  8.10479727E-01  1.00000000E+00
  1.00000000E+00  1.00000000E+00  1.00000000E+00  1.00000000E+00  1.00000000E+00
  1.00000000E+00  1.00000000E+00  5.19808943E-04  4.02025621E-03  2.07128267E-02
  8.10105536E-02  2.35962985E-01  4.42653446E-01  3.57064423E-01 -4.42115008E-05
 -1.22591041E-03 -1.05517725E-02 -6.74452633E-02 -1.71198607E-01  1.07329856E+00
  1.00000000E+00  1.00000000E+00  1.00000000E+00  4.11634896E-02  2.57762836E-01
  8.02419274E-01  1.00000000E+00  1.00000000E+00  1.00000000E+00  1.00000000E+00
  1.00000000E+00  1.00000000E+00  1.00000000E+00  1.00000000E+00
Coordinates of each shell                  R   N=         195
  2.08780330E+00 -1.14090676E+00  0.00000000E+00  2.08780330E+00 -1.14090676E+00
  0.00000000E+00  2.08780330E+00 -1.14090676E+00  0.00000000E+00  2.08780330E+00
 -1.14090676E+00  0.00000000E+00  2.08780330E+00 -1.14090676E+00  0.00000000E+00
  2.08780330E+00 -1.14090676E+00  0.00000000E+00  2.08780330E+00 -1.14090676E+00
  0.00000000E+00  2.08780330E+00 -1.14090676E+00  0.00000000E+00  2.08780330E+00
 -1.14090676E+00  0.00000000E+00  2.48354080E+00  6.78647679E-01  0.00000000E+00
  2.48354080E+00  6.78647679E-01  0.00000000E+00  2.48354080E+00  6.78647679E-01
  0.00000000E+00  2.48354080E+00  6.78647679E-01  0.00000000E+00  2.48354080E+00
  6.78647679E-01  0.00000000E+00  2.48354080E+00  6.78647679E-01  0.00000000E+00
  2.48354080E+00  6.78647679E-01  0.00000000E+00  2.48354080E+00  6.78647679E-01
  0.00000000E+00  2.48354080E+00  6.78647679E-01  0.00000000E+00  2.48354080E+00
  6.78647679E-01  0.00000000E+00  2.48354080E+00  6.78647679E-01  0.00000000E+00
  2.48354080E+00  6.78647679E-01  0.00000000E+00  2.48354080E+00  6.78647679E-01
  0.00000000E+00  2.48354080E+00  6.78647679E-01  0.00000000E+00  7.99129516E-18
  1.72803049E+00  0.00000000E+00  7.99129516E-18  1.72803049E+00  0.00000000E+00
  7.99129516E-18  1.72803049E+00  0.00000000E+00  7.99129516E-18  1.72803049E+00
  0.00000000E+00  7.99129516E-18  1.72803049E+00  0.00000000E+00  7.99129516E-18
  1.72803049E+00  0.00000000E+00  7.99129516E-18  1.72803049E+00  0.00000000E+00
  7.99129516E-18  1.72803049E+00  0.00000000E+00  7.99129516E-18  1.72803049E+00
  0.00000000E+00  7.99129516E-18  1.72803049E+00  0.00000000E+00  7.99129516E-18
  1.72803049E+00  0.00000000E+00  7.99129516E-18  1.72803049E+00  0.00000000E+00
  7.99129516E-18  1.72803049E+00  0.00000000E+00  7.99129516E-18  1.72803049E+00
  0.00000000E+00 -1.86812992E+00 -7.32608791E-02  0.00000000E+00 -1.86812992E+00
 -7.32608791E-02  0.00000000E+00 -1.86812992E+00 -7.32608791E-02  0.00000000E+00
 -1.86812992E+00 -7.32608791E-02  0.00000000E+00 -1.86812992E+00 -7.32608791E-02
  0.00000000E+00 -1.86812992E+00 -7.32608791E-02  0.00000000E+00 -1.86812992E+00
 -7.32608791E-02  0.00000000E+00 -1.86812992E+00 -7.32608791E-02  0.00000000E+00
 -1.86812992E+00 -7.32608791E-02  0.00000000E+00 -1.86812992E+00 -7.32608791E-02
  0.00000000E+00 -1.86812992E+00 -7.32608791E-02  0.00000000E+00 -1.86812992E+00
 -7.32608791E-02  0.00000000E+00 -1.86812992E+00 -7.32608791E-02  0.00000000E+00
 -1.86812992E+00 -7.32608791E-02  0.00000000E+00 -1.10990253E+00 -2.19996155E+00
  0.00000000E+00 -1.10990253E+00 -2.19996155E+00  0.00000000E+00 -1.10990253E+00
 -2.19996155E+00  0.00000000E+00 -1.10990253E+00 -2.19996155E+00  0.00000000E+00
 -1.10990253E+00 -2.19996155E+00  0.00000000E+00 -1.10990253E+00 -2.19996155E+00
  0.00000000E+00 -1.10990253E+00 -2.19996155E+00  0.00000000E+00 -1.10990253E+00
 -2.19996155E+00  0.00000000E+00 -1.10990253E+00 -2.19996155E+00  0.00000000E+00
 -1.10990253E+00 -2.19996155E+00  0.00000000E+00 -1.10990253E+00 -2.19996155E+00
  0.00000000E+00 -1.10990253E+00 -2.19996155E+00  0.00000000E+00 -1.10990253E+00
 -2.19996155E+00  0.00000000E+00 -1.10990253E+00 -2.19996155E+00  0.00000000E+00
Num ILSW                                   I              100
ILSW                                       I   N=         100
           0           0           0           0           2           0
           0           0           0           0           0          -1
           5           0           0           0           2           0
           0           0           0           0           1           0
           1           0           0           0           0           0
           0           0      100000           0          -1           0
           0           0           0           0           0           0
           0           0           0           1           1           0
           0 -2000000000           1           0           0           0
           0           0           4          52           0           0
           0           0           0           0           0           0
           0           0           0           5           4           1
           0           0           0           0           0           0
           0           0           0           0           0           0
           0           0           0           0           0           0
           0           0           0           0           0           0
           0           0           0           0
Num RLSW                                   I               52
RLSW                                       R   N=          52
  1.00000000E+00  1.00000000E+00  1.00000000E+00  1.00000000E+00  1.00000000E+00
  0.00000000E+00  0.00000000E+00  1.00000000E+00  0.00000000E+00  0.00000000E+00
  0.00000000E+00  0.00000000E+00  1.00000000E+00  0.00000000E+00  0.00000000E+00
  0.00000000E+00  0.00000000E+00  1.00000000E+00  0.00000000E+00  0.00000000E+00
  0.00000000E+00  0.00000000E+00  1.00000000E+00  0.00000000E+00  0.00000000E+00
  0.00000000E+00  0.00000000E+00  1.00000000E+00  0.00000000E+00  0.00000000E+00
  0.00000000E+00  0.00000000E+00  1.00000000E+00  0.00000000E+00  0.00000000E+00
  0.00000000E+00  0.00000000E+00  0.00000000E+00  1.00000000E+00  1.00000000E+00
  0.00000000E+00  1.00000000E+00  0.00000000E+00  0.00000000E+00  0.00000000E+00
  0.00000000E+00  0.00000000E+00  0.00000000E+00  0.00000000E+00  0.00000000E+00
  0.00000000E+00  0.00000000E+00
MxBond                                     I                2
NBond                                      I   N=           5
           1           2           2           2           1
IBond                                      I   N=          10
           2           0           1           3           2           4
           3           5           4           0
RBond                                      R   N=          10
  1.00000000E+00  0.00000000E+00  1.00000000E+00  1.00000000E+00  1.00000000E+00
  1.00000000E+00  1.00000000E+00  2.00000000E+00  2.00000000E+00  0.00000000E+00
Virial Ratio                               R      2.002169390715140E+00
SCF Energy                                 R     -2.795070705420048E+02
MP2 Energy                                 R     -2.804552203938898E+02
Total Energy                               R     -2.804552203938898E+02
Post-SCF wavefunction norm                 R      1.583282016145456E+00
RMS Force                                  R      1.087740790326145E-03
RMS Density                                R      4.225736847714830E-09
NImag                                      I                0
Job Status                                 I                1
Nuclear derivative order                   I                2
External E-field                           R   N=          35
  0.00000000E+00  0.00000000E+00  0.00000000E+00  0.00000000E+00  0.00000000E+00
  0.00000000E+00  0.00000000E+00  0.00000000E+00  0.00000000E+00  0.00000000E+00
  0.00000000E+00  0.00000000E+00  0.00000000E+00  0.00000000E+00  0.00000000E+00
  0.00000000E+00  0.00000000E+00  0.00000000E+00  0.00000000E+00  0.00000000E+00
  0.00000000E+00  0.00000000E+00  0.00000000E+00  0.00000000E+00  0.00000000E+00
  0.00000000E+00  0.00000000E+00  0.00000000E+00  0.00000000E+00  0.00000000E+00
  0.00000000E+00  0.00000000E+00  0.00000000E+00  0.00000000E+00  0.00000000E+00
IOpCl                                      I                0
IROHF                                      I                0
Alpha Orbital Energies                     R   N=         207
 -2.07211119E+01 -2.06854269E+01 -2.06687282E+01 -1.58250603E+01 -1.64627537E+00
 -1.50517245E+00 -1.29659849E+00 -9.59939541E-01 -8.35555811E-01 -7.59909379E-01
 -7.41777092E-01 -6.37642427E-01 -6.18501851E-01 -6.17652841E-01 -5.04790184E-01
 -4.98282576E-01  3.50323558E-02  6.14191737E-02  9.51379903E-02  1.00411614E-01
  1.19713917E-01  1.22767331E-01  1.49106960E-01  1.51872930E-01  1.77481715E-01
  1.80465727E-01  1.89725831E-01  2.11083249E-01  2.16675577E-01  2.42642007E-01
  2.46387215E-01  2.69258253E-01  3.13131719E-01  3.17059047E-01  3.38286268E-01
  3.44595664E-01  3.49380886E-01  3.94467593E-01  4.49246582E-01  4.88804392E-01
  5.05155789E-01  5.18603745E-01  5.45407106E-01  5.61354194E-01  5.99488201E-01
  6.20340337E-01  6.39263775E-01  6.89834244E-01  7.16076974E-01  7.24432428E-01
  7.43521988E-01  7.64018145E-01  7.67542008E-01  7.95714391E-01  8.07135791E-01
  8.39713171E-01  8.42888242E-01  8.51708663E-01  8.85800480E-01  9.08061321E-01
  9.31548943E-01  9.48489091E-01  9.53365659E-01  1.01867078E+00  1.03256368E+00
  1.06428531E+00  1.06642903E+00  1.09608135E+00  1.14477710E+00  1.15706262E+00
  1.17047336E+00  1.22295866E+00  1.22706649E+00  1.24615935E+00  1.35430786E+00
  1.35905724E+00  1.37211307E+00  1.46894012E+00  1.48552444E+00  1.50462270E+00
  1.54213283E+00  1.59701488E+00  1.59822800E+00  1.60757864E+00  1.63149258E+00
  1.69626323E+00  1.74062536E+00  1.80110118E+00  1.83100990E+00  1.88878562E+00
  1.89614542E+00  1.93202543E+00  1.98030986E+00  1.99090478E+00  2.05245447E+00
  2.12599966E+00  2.13146190E+00  2.16731717E+00  2.18866982E+00  2.24471642E+00
  2.25970773E+00  2.29384941E+00  2.35314168E+00  2.36793621E+00  2.38623973E+00
  2.40225860E+00  2.43646142E+00  2.47031079E+00  2.48063190E+00  2.52938547E+00
  2.54147611E+00  2.55055261E+00  2.56037573E+00  2.61813519E+00  2.63090554E+00
  2.67528649E+00  2.67684460E+00  2.75660636E+00  2.81160417E+00  2.82066355E+00
  2.84029325E+00  2.92139353E+00  2.98989273E+00  3.04998459E+00  3.05278766E+00
  3.11633890E+00  3.11913158E+00  3.17440673E+00  3.21356307E+00  3.30995618E+00
  3.33360191E+00  3.36600117E+00  3.47673572E+00  3.68482050E+00  3.87334541E+00
  3.93299277E+00  4.18571978E+00  4.22641133E+00  4.22676723E+00  4.27242974E+00
  4.37096942E+00  4.50143888E+00  4.53494225E+00  4.55754074E+00  4.60081919E+00
  4.69483934E+00  4.81118620E+00  4.90442537E+00  4.91550030E+00  4.94220397E+00
  5.00404680E+00  5.00682283E+00  5.11063420E+00  5.13452077E+00  5.18032472E+00
  5.25154842E+00  5.25922751E+00  5.32296419E+00  5.34695129E+00  5.36140938E+00
  5.54804074E+00  5.64680524E+00  5.70901800E+00  5.89038251E+00  5.99609433E+00
  6.26461837E+00  6.29920211E+00  6.36691405E+00  6.37759686E+00  6.59890782E+00
  6.66088942E+00  6.66339559E+00  6.69361754E+00  6.72847821E+00  6.79370599E+00
  6.80313946E+00  6.85717554E+00  6.97480500E+00  7.02064004E+00  7.06549097E+00
  7.08018911E+00  7.13781318E+00  7.17765758E+00  7.18290259E+00  7.20297999E+00
  7.24724645E+00  7.24878363E+00  7.27310148E+00  7.35195437E+00  7.40083356E+00
  7.43345502E+00  7.44384207E+00  7.46307865E+00  7.56906903E+00  7.66567141E+00
  7.67409339E+00  7.79709810E+00  7.88696985E+00  7.96411074E+00  8.07322118E+00
  8.30866371E+00  8.50334337E+00  8.65787686E+00  1.36667374E+01  1.48095234E+01
  1.51366619E+01  1.57869388E+01
Alpha MO coefficients                      R   N=       42849
  6.29784808E-05 -1.12724182E-05 -1.09030122E-03  1.47202192E-05 -5.11955523E-05
  4.14686331E-05  0.00000000E+00 -8.91237198E-05 -2.82292929E-04  0.00000000E+00
 -3.49483269E-06 -3.45100848E-04  0.00000000E+00  4.17106613E-05  0.00000000E+00
  0.00000000E+00 -2.50123422E-05  1.18257055E-05  2.27825744E-04  0.00000000E+00
  0.00000000E+00 -3.90996139E-05 -2.10835362E-04  3.02044882E-03 -9.70650636E-05
 -1.00774392E-04  3.56488996E-03  2.47935849E-03  1.02011337E-04 -5.36424373E-05
  0.00000000E+00 -7.27870394E-04  2.89853230E-04  0.00000000E+00 -1.99276679E-03
  1.13579904E-03  0.00000000E+00 -5.37812505E-04  4.45034999E-05  0.00000000E+00
  2.03379506E-05  0.00000000E+00  0.00000000E+00 -8.22893306E-06  4.40723905E-05
 -4.42333538E-04  0.00000000E+00  0.00000000E+00  4.22007672E-04 -6.65438683E-04
 -3.64543806E-04  0.00000000E+00  0.00000000E+00  5.43938721E-04 -7.47538185E-04
  0.00000000E+00  7.35806130E-05 -5.25154629E-05  0.00000000E+00  0.00000000E+00
 -2.67518294E-05  1.08644447E-04  0.00000000E+00  2.06835682E-04 -5.11094055E-05
  0.00000000E+00  0.00000000E+00 -1.64338531E-04  3.00090548E-04  9.76897019E-01
 -9.18401283E-03  4.34191093E-02  4.67428405E-04 -2.21476919E-03  4.28073387E-04
 -2.16014413E-03  0.00000000E+00 -2.89434565E-04  2.27370946E-03  0.00000000E+00
 -2.35880522E-03 -4.57331320E-04  0.00000000E+00 -2.29616796E-04  9.70389001E-05
  0.00000000E+00  4.21804377E-06  0.00000000E+00  0.00000000E+00 -5.55355837E-06
  4.07210546E-05  8.32164484E-04  0.00000000E+00  0.00000000E+00 -4.71893713E-04
 -1.83203237E-04 -1.31486840E-04  0.00000000E+00  0.00000000E+00 -5.49314394E-04
  3.63566514E-04  0.00000000E+00 -7.79856341E-06 -7.93668151E-05  0.00000000E+00
  0.00000000E+00 -8.35192324E-06  4.79752499E-05  0.00000000E+00  9.25749006E-05
 -2.81941325E-06  0.00000000E+00  0.00000000E+00 -3.41064627E-04  3.85412385E-04
  1.07876600E-04  4.84485774E-04 -3.22798875E-04 -8.90251174E-04  3.34688325E-04
 -4.30125868E-05 -9.85309173E-05  0.00000000E+00  7.31414137E-04  1.14873671E-03
  0.00000000E+00 -7.70561710E-04 -6.53063665E-04  0.00000000E+00  1.95446006E-04
  2.12911074E-04  0.00000000E+00 -5.62757117E-05  0.00000000E+00  0.00000000E+00
  1.85017610E-05  1.00780037E-04 -4.16551490E-04  0.00000000E+00  0.00000000E+00
  6.91277024E-05  1.09066256E-03  2.92282478E-05  0.00000000E+00  0.00000000E+00
 -3.07085197E-04  2.45592898E-05  0.00000000E+00 -7.83522004E-05 -1.13178932E-04
  0.00000000E+00  0.00000000E+00 -9.36701392E-05  1.04843516E-04  0.00000000E+00
 -1.25770592E-04  4.85367810E-05  0.00000000E+00  0.00000000E+00  2.58699750E-05
  5.20533120E-04 -6.49018677E-04  5.17067417E-05 -6.80837440E-05  2.46389347E-04
 -1.60140456E-04 -2.78278932E-05 -4.13444227E-05  0.00000000E+00  1.63016926E-04
  2.60734394E-04  0.00000000E+00  5.13227677E-04  3.38191246E-04  0.00000000E+00
 -2.22195655E-04 -5.79675205E-05  0.00000000E+00 -1.35223326E-05  0.00000000E+00
  0.00000000E+00  2.91629249E-06  1.59794690E-05 -2.14667888E-06  0.00000000E+00
  0.00000000E+00 -1.64090366E-04  1.04233348E-06 -2.45707592E-05  0.00000000E+00
  0.00000000E+00 -1.73341770E-04 -4.82899792E-05  0.00000000E+00 -5.10736998E-06
 -8.47999605E-06  0.00000000E+00  0.00000000E+00 -1.96639100E-05  1.03778674E-05
  0.00000000E+00  3.95944096E-05  6.04587121E-05  0.00000000E+00  0.00000000E+00
  1.60038888E-04 -1.04521682E-04  3.94656980E-05  7.48599498E-05 -9.84045303E-05
 -2.93927679E-05  2.09377406E-05  1.28832519E-05  0.00000000E+00  2.36217906E-04
  5.61904175E-05  0.00000000E+00  1.19991585E-04  2.19445763E-05  0.00000000E+00
  1.22670873E-05  0.00000000E+00  0.00000000E+00 -1.09585261E-05  1.80872647E-05
  2.04119495E-05  0.00000000E+00  0.00000000E+00 -9.08179870E-05  6.72475832E-05
 -3.05242882E-04  2.94459846E-05 -1.68357849E-05 -5.55807255E-04  1.50797197E-04
  7.45029122E-06  1.36382300E-05  0.00000000E+00 -7.42625771E-07 -4.29034632E-05
  0.00000000E+00  1.83698138E-04  1.47350010E-04  0.00000000E+00 -4.28259528E-05
  5.17166966E-05  0.00000000E+00 -1.83738459E-06  0.00000000E+00  0.00000000E+00
 -8.40589021E-06 -1.13000530E-05  2.35921890E-05  0.00000000E+00  0.00000000E+00
  5.17210161E-05  1.08852435E-04  6.46363604E-05  0.00000000E+00  0.00000000E+00
 -2.81332648E-05 -8.25154995E-05  0.00000000E+00  7.74143158E-06  1.01255697E-05
  0.00000000E+00  0.00000000E+00 -1.21369705E-06 -2.58092907E-05  0.00000000E+00
 -1.46467507E-05 -3.77216549E-05  0.00000000E+00  0.00000000E+00 -2.86111049E-06
 -1.90080920E-05  6.78477433E-04  2.45691046E-05 -2.18397429E-05  3.20562963E-04
 -3.79436596E-04  1.69134744E-05  2.70825302E-05  0.00000000E+00 -7.04033950E-05
 -1.56662643E-04  0.00000000E+00  1.29324069E-04 -2.23518894E-04  0.00000000E+00
 -1.61361199E-04  1.40650684E-04  0.00000000E+00 -4.18736355E-06  0.00000000E+00
  0.00000000E+00 -3.03465805E-05 -9.79499288E-06 -5.25650373E-05  0.00000000E+00
  0.00000000E+00  8.54748813E-05  1.25498662E-04 -6.80984520E-05  0.00000000E+00
  0.00000000E+00  3.75939496E-05  3.54805764E-05  0.00000000E+00  3.05011172E-06
  2.61418716E-06  0.00000000E+00  0.00000000E+00 -8.52478150E-06 -3.62194577E-06
  0.00000000E+00  4.15730537E-06 -2.44154997E-05  0.00000000E+00  0.00000000E+00
  9.57861090E-05 -1.58386584E-04  2.36011810E-04  1.35306761E-03 -1.45544443E-04
 -7.39999526E-04  8.96495188E-04  6.31184218E-05 -7.04713646E-05  0.00000000E+00
  5.60394918E-04 -2.09603350E-03  0.00000000E+00  9.88301523E-05  5.02133891E-04
  0.00000000E+00  1.85005341E-04 -3.09490731E-04  0.00000000E+00 -1.27582458E-04
  0.00000000E+00  0.00000000E+00 -2.05745907E-04 -1.57709952E-04 -4.58167721E-04
  0.00000000E+00  0.00000000E+00 -6.02328371E-04 -9.24458349E-04 -3.94226910E-05
  0.00000000E+00  0.00000000E+00  6.23376813E-05  1.17185115E-04  0.00000000E+00
  8.55923337E-06  3.74579974E-05  0.00000000E+00  0.00000000E+00 -2.33042360E-05
 -4.25032377E-06  0.00000000E+00 -1.35648259E-04  1.57294984E-04  0.00000000E+00
  0.00000000E+00 -3.13453025E-04 -3.50985367E-05  9.76643702E-01 -9.88386091E-03
  4.35804831E-02  3.70027619E-03 -8.96781001E-04 -4.40398044E-04  2.13488329E-03
  0.00000000E+00  5.03793006E-04 -2.50894961E-03  0.00000000E+00 -7.69550943E-05
  8.18168605E-04  0.00000000E+00  1.03559555E-04 -6.50529031E-05  0.00000000E+00
 -1.93569075E-04  0.00000000E+00  0.00000000E+00 -7.48344041E-05 -4.22497239E-05
  4.10695391E-04  0.00000000E+00  0.00000000E+00  8.64550132E-04  4.78205998E-04
 -2.04123565E-04  0.00000000E+00  0.00000000E+00 -1.41334111E-04 -3.61996573E-05
  0.00000000E+00 -4.72705752E-06  7.04166217E-05  0.00000000E+00  0.00000000E+00
 -2.84059501E-05  1.08367113E-05  0.00000000E+00 -8.87135123E-05  9.27554147E-05
  0.00000000E+00  0.00000000E+00 -1.65362749E-04  2.07561176E-04  3.73345220E-04
  2.00061722E-03  1.41120772E-03 -1.85490337E-05  5.22589453E-05  2.67956606E-04
  0.00000000E+00  3.77357035E-04  1.02409424E-03  0.00000000E+00 -1.34532539E-04
  2.43118852E-04  0.00000000E+00 -2.40268863E-05  0.00000000E+00  0.00000000E+00
  3.32783618E-05 -2.95572092E-05 -2.18471089E-04  0.00000000E+00  0.00000000E+00
 -3.42651461E-04  4.07906554E-04  9.76833761E-01 -9.18847051E-03  4.34670269E-02
  1.46350934E-04 -1.92643600E-03 -2.04847316E-03 -8.26773513E-04  0.00000000E+00
  2.08724997E-03  7.62753954E-04  0.00000000E+00 -4.09806653E-04  6.53874769E-04
  0.00000000E+00  2.27530334E-04 -3.00070228E-04  0.00000000E+00  3.02884058E-05
  0.00000000E+00  0.00000000E+00 -7.43740595E-05  6.42893215E-05  7.66441097E-04
  0.00000000E+00  0.00000000E+00 -2.10143651E-04  3.54085776E-04 -2.38886903E-04
  0.00000000E+00  0.00000000E+00  3.36327338E-04  1.14240569E-06  0.00000000E+00
 -8.09076172E-05  2.02040126E-06  0.00000000E+00  0.00000000E+00  1.55670689E-05