title                                                                   
Freq      RMP2-FC                                                     Aug-CC-pVTZ         
Number of atoms                            I                5
Info1-9                                    I   N=           9
          33          24           0           0           0         100
           6           2           1
Full Title                                 C   N=           1
title       
Route                                      C   N=           4
#p freq mp2/aug-cc-pvtz density=current         
Charge                                     I                0
Multiplicity                               I                1
Number of electrons                        I               32
Number of alpha electrons                  I               16
Number of beta electrons                   I               16
Number of basis functions                  I              207
Number of independent functions            I              207
Number of point charges in /Mol/           I                0
Number of translation vectors              I                0
Atomic numbers                             I   N=           5
           1           8           8           7           8
Nuclear charges                            R   N=           5
  1.00000000E+00  8.00000000E+00  8.00000000E+00  7.00000000E+00  8.00000000E+00
Current cartesian coordinates              R   N=          15
  2.02646774E+00 -1.11061042E+00  0.00000000E+00  2.48793443E+00  6.93394856E-01
  0.00000000E+00 -1.14610859E-16  1.73231807E+00  0.00000000E+00 -1.87115326E+00
 -8.71441426E-02  0.00000000E+00 -1.10398380E+00 -2.21063550E+00  0.00000000E+00
Number of symbols in /Mol/                 I                0
Force Field                                I                0
Atom Types                                 C   N=           5
                                                            
Int Atom Types                             I   N=           5
           0           0           0           0           0
MM charges                                 R   N=           5
  0.00000000E+00  0.00000000E+00  0.00000000E+00  0.00000000E+00  0.00000000E+00
Integer atomic weights                     I   N=           5
           1          16          16          14          16
Real atomic weights                        R   N=           5
  1.00782504E+00  1.59949146E+01  1.59949146E+01  1.40030740E+01  1.59949146E+01
Atom fragment info                         I   N=           5
           0           0           0           0           0
Atom residue num                           I   N=           5
           0           0           0           0           0
Nuclear spins                              I   N=           5
           1           0           0           2           0
Nuclear ZEff                               R   N=           5
 -1.00000000E+00 -5.60000000E+00 -5.60000000E+00 -4.55000000E+00 -5.60000000E+00
Nuclear ZNuc                               R   N=           5
  1.00000000E+00  8.00000000E+00  8.00000000E+00  7.00000000E+00  8.00000000E+00
Nuclear QMom                               R   N=           5
  0.00000000E+00  0.00000000E+00  0.00000000E+00  2.04400000E+00  0.00000000E+00
Nuclear GFac                               R   N=           5
  2.79284600E+00  0.00000000E+00  0.00000000E+00  4.03761000E-01  0.00000000E+00
MicOpt                                     I   N=           5
          -1          -1          -1          -1          -1
Number of residues                         I                0
Number of secondary structures             I                0
SymInf integers                            I   N=          26
           1           2           1           1           1           1
           1          -1           0           0           0           0
           0           0           0           0           0           0
           0           0           0           0           0           0
           0           0
RotTr to input orientation                 R   N=          12
 -9.68805674E-01  0.00000000E+00  2.47821641E-01  2.47821641E-01  0.00000000E+00
  9.68805674E-01  0.00000000E+00  1.00000000E+00  0.00000000E+00  2.23848674E+00
  0.00000000E+00  5.73763114E-01
Number of contracted shells                I               65
Number of primitive shells                 I              119
Pure/Cartesian d shells                    I                0
Pure/Cartesian f shells                    I                0
Highest angular momentum                   I                3
Largest degree of contraction              I                7
Shell types                                I   N=          65
           0           0           0           0           1           1
           1          -2          -2           0           0           0
           0           0           1           1           1           1
          -2          -2          -2          -3          -3           0
           0           0           0           0           1           1
           1           1          -2          -2          -2          -3
          -3           0           0           0           0           0
           1           1           1           1          -2          -2
          -2          -3          -3           0           0           0
           0           0           1           1           1           1
          -2          -2          -2          -3          -3
Number of primitives per shell             I   N=          65
           3           1           1           1           1           1
           1           1           1           7           6           1
           1           1           3           1           1           1
           1           1           1           1           1           7
           6           1           1           1           3           1
           1           1           1           1           1           1
           1           7           6           1           1           1
           3           1           1           1           1           1
           1           1           1           7           6           1
           1           1           3           1           1           1
           1           1           1           1           1
Shell to atom map                          I   N=          65
           1           1           1           1           1           1
           1           1           1           2           2           2
           2           2           2           2           2           2
           2           2           2           2           2           3
           3           3           3           3           3           3
           3           3           3           3           3           3
           3           4           4           4           4           4
           4           4           4           4           4           4
           4           4           4           5           5           5
           5           5           5           5           5           5
           5           5           5           5           5
Primitive exponents                        R   N=         119
  3.38700000E+01  5.09500000E+00  1.15900000E+00  3.25800000E-01  1.02700000E-01
  2.52600000E-02  1.40700000E+00  3.88000000E-01  1.02000000E-01  1.05700000E+00
  2.47000000E-01  1.53300000E+04  2.29900000E+03  5.22400000E+02  1.47300000E+02
  4.75500000E+01  1.67600000E+01  6.20700000E+00  5.22400000E+02  1.47300000E+02
  4.75500000E+01  1.67600000E+01  6.20700000E+00  6.88200000E-01  1.75200000E+00
  2.38400000E-01  7.37600000E-02  3.44600000E+01  7.74900000E+00  2.28000000E+00
  7.15600000E-01  2.14000000E-01  5.97400000E-02  2.31400000E+00  6.45000000E-01
  2.14000000E-01  1.42800000E+00  5.00000000E-01  1.53300000E+04  2.29900000E+03
  5.22400000E+02  1.47300000E+02  4.75500000E+01  1.67600000E+01  6.20700000E+00
  5.22400000E+02  1.47300000E+02  4.75500000E+01  1.67600000E+01  6.20700000E+00
  6.88200000E-01  1.75200000E+00  2.38400000E-01  7.37600000E-02  3.44600000E+01
  7.74900000E+00  2.28000000E+00  7.15600000E-01  2.14000000E-01  5.97400000E-02
  2.31400000E+00  6.45000000E-01  2.14000000E-01  1.42800000E+00  5.00000000E-01
  1.14200000E+04  1.71200000E+03  3.89300000E+02  1.10000000E+02  3.55700000E+01
  1.25400000E+01  4.64400000E+00  3.89300000E+02  1.10000000E+02  3.55700000E+01
  1.25400000E+01  4.64400000E+00  5.11800000E-01  1.29300000E+00  1.78700000E-01
  5.76000000E-02  2.66300000E+01  5.94800000E+00  1.74200000E+00  5.55000000E-01
  1.72500000E-01  4.91000000E-02  1.65400000E+00  4.69000000E-01  1.51000000E-01
  1.09300000E+00  3.64000000E-01  1.53300000E+04  2.29900000E+03  5.22400000E+02
  1.47300000E+02  4.75500000E+01  1.67600000E+01  6.20700000E+00  5.22400000E+02
  1.47300000E+02  4.75500000E+01  1.67600000E+01  6.20700000E+00  6.88200000E-01
  1.75200000E+00  2.38400000E-01  7.37600000E-02  3.44600000E+01  7.74900000E+00
  2.28000000E+00  7.15600000E-01  2.14000000E-01  5.97400000E-02  2.31400000E+00
  6.45000000E-01  2.14000000E-01  1.42800000E+00  5.00000000E-01
Contraction coefficients                   R   N=         119
  2.54948632E-02  1.90362766E-01  8.52162022E-01  1.00000000E+00  1.00000000E+00
  1.00000000E+00  1.00000000E+00  1.00000000E+00  1.00000000E+00  1.00000000E+00
  1.00000000E+00  5.19808943E-04  4.02025621E-03  2.07128267E-02  8.10105536E-02
  2.35962985E-01  4.42653446E-01  3.57064423E-01 -4.42115008E-05 -1.22591041E-03
 -1.05517725E-02 -6.74452633E-02 -1.71198607E-01  1.07329856E+00  1.00000000E+00
  1.00000000E+00  1.00000000E+00  4.11634896E-02  2.57762836E-01  8.02419274E-01
  1.00000000E+00  1.00000000E+00  1.00000000E+00  1.00000000E+00  1.00000000E+00
  1.00000000E+00  1.00000000E+00  1.00000000E+00  5.19808943E-04  4.02025621E-03
  2.07128267E-02  8.10105536E-02  2.35962985E-01  4.42653446E-01  3.57064423E-01
 -4.42115008E-05 -1.22591041E-03 -1.05517725E-02 -6.74452633E-02 -1.71198607E-01
  1.07329856E+00  1.00000000E+00  1.00000000E+00  1.00000000E+00  4.11634896E-02
  2.57762836E-01  8.02419274E-01  1.00000000E+00  1.00000000E+00  1.00000000E+00
  1.00000000E+00  1.00000000E+00  1.00000000E+00  1.00000000E+00  1.00000000E+00
  5.34563860E-04  4.13435660E-03  2.12335358E-02  8.25006224E-02  2.38138871E-01
  4.42551547E-01  3.53757422E-01 -4.89867350E-05 -1.19527323E-03 -1.03490714E-02
 -6.48680190E-02 -1.71552477E-01  1.07289568E+00  1.00000000E+00  1.00000000E+00
  1.00000000E+00  3.98072123E-02  2.49002660E-01  8.10479727E-01  1.00000000E+00
  1.00000000E+00  1.00000000E+00  1.00000000E+00  1.00000000E+00  1.00000000E+00
  1.00000000E+00  1.00000000E+00  5.19808943E-04  4.02025621E-03  2.07128267E-02
  8.10105536E-02  2.35962985E-01  4.42653446E-01  3.57064423E-01 -4.42115008E-05
 -1.22591041E-03 -1.05517725E-02 -6.74452633E-02 -1.71198607E-01  1.07329856E+00
  1.00000000E+00  1.00000000E+00  1.00000000E+00  4.11634896E-02  2.57762836E-01
  8.02419274E-01  1.00000000E+00  1.00000000E+00  1.00000000E+00  1.00000000E+00
  1.00000000E+00  1.00000000E+00  1.00000000E+00  1.00000000E+00
Coordinates of each shell                  R   N=         195
  2.02646774E+00 -1.11061042E+00  0.00000000E+00  2.02646774E+00 -1.11061042E+00
  0.00000000E+00  2.02646774E+00 -1.11061042E+00  0.00000000E+00  2.02646774E+00
 -1.11061042E+00  0.00000000E+00  2.02646774E+00 -1.11061042E+00  0.00000000E+00
  2.02646774E+00 -1.11061042E+00  0.00000000E+00  2.02646774E+00 -1.11061042E+00
  0.00000000E+00  2.02646774E+00 -1.11061042E+00  0.00000000E+00  2.02646774E+00
 -1.11061042E+00  0.00000000E+00  2.48793443E+00  6.93394856E-01  0.00000000E+00
  2.48793443E+00  6.93394856E-01  0.00000000E+00  2.48793443E+00  6.93394856E-01
  0.00000000E+00  2.48793443E+00  6.93394856E-01  0.00000000E+00  2.48793443E+00
  6.93394856E-01  0.00000000E+00  2.48793443E+00  6.93394856E-01  0.00000000E+00
  2.48793443E+00  6.93394856E-01  0.00000000E+00  2.48793443E+00  6.93394856E-01
  0.00000000E+00  2.48793443E+00  6.93394856E-01  0.00000000E+00  2.48793443E+00
  6.93394856E-01  0.00000000E+00  2.48793443E+00  6.93394856E-01  0.00000000E+00
  2.48793443E+00  6.93394856E-01  0.00000000E+00  2.48793443E+00  6.93394856E-01
  0.00000000E+00  2.48793443E+00  6.93394856E-01  0.00000000E+00 -2.48269052E-17
  1.73231807E+00  0.00000000E+00 -2.48269052E-17  1.73231807E+00  0.00000000E+00
 -2.48269052E-17  1.73231807E+00  0.00000000E+00 -2.48269052E-17  1.73231807E+00
  0.00000000E+00 -2.48269052E-17  1.73231807E+00  0.00000000E+00 -2.48269052E-17
  1.73231807E+00  0.00000000E+00 -2.48269052E-17  1.73231807E+00  0.00000000E+00
 -2.48269052E-17  1.73231807E+00  0.00000000E+00 -2.48269052E-17  1.73231807E+00
  0.00000000E+00 -2.48269052E-17  1.73231807E+00  0.00000000E+00 -2.48269052E-17
  1.73231807E+00  0.00000000E+00 -2.48269052E-17  1.73231807E+00  0.00000000E+00
 -2.48269052E-17  1.73231807E+00  0.00000000E+00 -2.48269052E-17  1.73231807E+00
  0.00000000E+00 -1.87115326E+00 -8.71441426E-02  0.00000000E+00 -1.87115326E+00
 -8.71441426E-02  0.00000000E+00 -1.87115326E+00 -8.71441426E-02  0.00000000E+00
 -1.87115326E+00 -8.71441426E-02  0.00000000E+00 -1.87115326E+00 -8.71441426E-02
  0.00000000E+00 -1.87115326E+00 -8.71441426E-02  0.00000000E+00 -1.87115326E+00
 -8.71441426E-02  0.00000000E+00 -1.87115326E+00 -8.71441426E-02  0.00000000E+00
 -1.87115326E+00 -8.71441426E-02  0.00000000E+00 -1.87115326E+00 -8.71441426E-02
  0.00000000E+00 -1.87115326E+00 -8.71441426E-02  0.00000000E+00 -1.87115326E+00
 -8.71441426E-02  0.00000000E+00 -1.87115326E+00 -8.71441426E-02  0.00000000E+00
 -1.87115326E+00 -8.71441426E-02  0.00000000E+00 -1.10398380E+00 -2.21063550E+00
  0.00000000E+00 -1.10398380E+00 -2.21063550E+00  0.00000000E+00 -1.10398380E+00
 -2.21063550E+00  0.00000000E+00 -1.10398380E+00 -2.21063550E+00  0.00000000E+00
 -1.10398380E+00 -2.21063550E+00  0.00000000E+00 -1.10398380E+00 -2.21063550E+00
  0.00000000E+00 -1.10398380E+00 -2.21063550E+00  0.00000000E+00 -1.10398380E+00
 -2.21063550E+00  0.00000000E+00 -1.10398380E+00 -2.21063550E+00  0.00000000E+00
 -1.10398380E+00 -2.21063550E+00  0.00000000E+00 -1.10398380E+00 -2.21063550E+00
  0.00000000E+00 -1.10398380E+00 -2.21063550E+00  0.00000000E+00 -1.10398380E+00
 -2.21063550E+00  0.00000000E+00 -1.10398380E+00 -2.21063550E+00  0.00000000E+00
Num ILSW                                   I              100
ILSW                                       I   N=         100
           0           0           0           0           2           0
           0           0           0           0           0          -1
           5           0           0           0           2           0
           0           0           0           0           1           0
           1           0           0           0           0           0
           0           0      100000           0          -1           0
           0           0           0           0           0           0
           0           0           0           1           1           0
           0 -2000000000           1           0           0           0
           0           0           4          52           0           0
           0           0           0           0           0           0
           0           0           0           5           4           1
           0           0           0           0           0           0
           0           0           0           0           0           0
           0           0           0           0           0           0
           0           0           0           0           0           0
           0           0           0           0
Num RLSW                                   I               52
RLSW                                       R   N=          52
  1.00000000E+00  1.00000000E+00  1.00000000E+00  1.00000000E+00  1.00000000E+00
  0.00000000E+00  0.00000000E+00  1.00000000E+00  0.00000000E+00  0.00000000E+00
  0.00000000E+00  0.00000000E+00  1.00000000E+00  0.00000000E+00  0.00000000E+00
  0.00000000E+00  0.00000000E+00  1.00000000E+00  0.00000000E+00  0.00000000E+00
  0.00000000E+00  0.00000000E+00  1.00000000E+00  0.00000000E+00  0.00000000E+00
  0.00000000E+00  0.00000000E+00  1.00000000E+00  0.00000000E+00  0.00000000E+00
  0.00000000E+00  0.00000000E+00  1.00000000E+00  0.00000000E+00  0.00000000E+00
  0.00000000E+00  0.00000000E+00  0.00000000E+00  1.00000000E+00  1.00000000E+00
  0.00000000E+00  1.00000000E+00  0.00000000E+00  0.00000000E+00  0.00000000E+00
  0.00000000E+00  0.00000000E+00  0.00000000E+00  0.00000000E+00  0.00000000E+00
  0.00000000E+00  0.00000000E+00
MxBond                                     I                2
NBond                                      I   N=           5
           1           2           2           2           1
IBond                                      I   N=          10
           2           0           1           3           2           4
           3           5           4           0
RBond                                      R   N=          10
  1.00000000E+00  0.00000000E+00  1.00000000E+00  1.00000000E+00  1.00000000E+00
  1.00000000E+00  1.00000000E+00  2.00000000E+00  2.00000000E+00  0.00000000E+00
Virial Ratio                               R      2.002187896928753E+00
SCF Energy                                 R     -2.795057067092595E+02
MP2 Energy                                 R     -2.804550319313119E+02
Total Energy                               R     -2.804550319313119E+02
Post-SCF wavefunction norm                 R      1.583836958811015E+00
RMS Force                                  R      2.206389684945518E-03
RMS Density                                R      4.509205640673534E-09
NImag                                      I                0
Job Status                                 I                1
Nuclear derivative order                   I                2
External E-field                           R   N=          35
  0.00000000E+00  0.00000000E+00  0.00000000E+00  0.00000000E+00  0.00000000E+00
  0.00000000E+00  0.00000000E+00  0.00000000E+00  0.00000000E+00  0.00000000E+00
  0.00000000E+00  0.00000000E+00  0.00000000E+00  0.00000000E+00  0.00000000E+00
  0.00000000E+00  0.00000000E+00  0.00000000E+00  0.00000000E+00  0.00000000E+00
  0.00000000E+00  0.00000000E+00  0.00000000E+00  0.00000000E+00  0.00000000E+00
  0.00000000E+00  0.00000000E+00  0.00000000E+00  0.00000000E+00  0.00000000E+00
  0.00000000E+00  0.00000000E+00  0.00000000E+00  0.00000000E+00  0.00000000E+00
IOpCl                                      I                0
IROHF                                      I                0
Alpha Orbital Energies                     R   N=         207
 -2.07195718E+01 -2.06886954E+01 -2.06687456E+01 -1.58271862E+01 -1.64619826E+00
 -1.50650024E+00 -1.29392518E+00 -9.60331906E-01 -8.36765590E-01 -7.59854392E-01
 -7.40882083E-01 -6.38296341E-01 -6.19372194E-01 -6.18798057E-01 -5.06225381E-01
 -4.97746687E-01  3.54950199E-02  5.92489894E-02  9.49774833E-02  1.00269859E-01
  1.19265121E-01  1.22609741E-01  1.49296417E-01  1.53239373E-01  1.77317972E-01
  1.79583810E-01  1.89573706E-01  2.10758301E-01  2.17044404E-01  2.42169705E-01
  2.46295552E-01  2.68398613E-01  3.13864592E-01  3.18244748E-01  3.37579202E-01
  3.44000309E-01  3.48607162E-01  3.92849049E-01  4.50279685E-01  4.92318969E-01
  5.05822101E-01  5.18010920E-01  5.42268848E-01  5.60305856E-01  5.96615666E-01
  6.20907021E-01  6.38590736E-01  6.91717087E-01  7.15831682E-01  7.23766616E-01
  7.41653906E-01  7.65212416E-01  7.66952077E-01  7.95589268E-01  8.06301051E-01
  8.36965493E-01  8.43240609E-01  8.53413312E-01  8.84942034E-01  9.08397434E-01
  9.28553032E-01  9.49615874E-01  9.52857044E-01  1.01986827E+00  1.03668147E+00
  1.06799754E+00  1.07088988E+00  1.09747441E+00  1.14647026E+00  1.15605188E+00
  1.16971204E+00  1.22123072E+00  1.22848250E+00  1.24978999E+00  1.34634325E+00
  1.36219502E+00  1.36951930E+00  1.46836816E+00  1.48415500E+00  1.50179669E+00
  1.54766265E+00  1.59719568E+00  1.59820204E+00  1.60273349E+00  1.62977485E+00
  1.69389771E+00  1.75047626E+00  1.80032386E+00  1.82865437E+00  1.88747273E+00
  1.91220745E+00  1.93526191E+00  1.97886490E+00  1.98782568E+00  2.05322901E+00
  2.12586497E+00  2.13500708E+00  2.17024368E+00  2.19217950E+00  2.24201533E+00
  2.26087258E+00  2.29839862E+00  2.35740556E+00  2.36791451E+00  2.39098313E+00
  2.40436416E+00  2.43660269E+00  2.46964755E+00  2.48072996E+00  2.53158434E+00
  2.54236551E+00  2.54753142E+00  2.56157158E+00  2.61709546E+00  2.63277790E+00
  2.67194609E+00  2.67549253E+00  2.75180275E+00  2.80155229E+00  2.81107654E+00
  2.85439690E+00  2.91666036E+00  2.98639215E+00  3.04793717E+00  3.05013707E+00
  3.11820834E+00  3.12589629E+00  3.18090057E+00  3.22596475E+00  3.31414158E+00
  3.33146206E+00  3.35659086E+00  3.48541747E+00  3.67719156E+00  3.87137428E+00
  3.94675815E+00  4.19041248E+00  4.22060290E+00  4.22757100E+00  4.26887763E+00
  4.36761196E+00  4.49695194E+00  4.53110325E+00  4.55464618E+00  4.61576005E+00
  4.68914990E+00  4.81342168E+00  4.89770611E+00  4.91567721E+00  4.93602352E+00
  4.99910941E+00  5.00462282E+00  5.10853478E+00  5.13366177E+00  5.17596605E+00
  5.25332380E+00  5.25473497E+00  5.31826625E+00  5.34229021E+00  5.38589958E+00
  5.54540959E+00  5.64421746E+00  5.71126998E+00  5.89796631E+00  5.99538271E+00
  6.26514882E+00  6.30077945E+00  6.35276977E+00  6.37397750E+00  6.60353565E+00
  6.65234580E+00  6.66506783E+00  6.69311111E+00  6.72386667E+00  6.79325392E+00
  6.80888173E+00  6.84979182E+00  6.96914433E+00  7.03997823E+00  7.06646650E+00
  7.07359287E+00  7.12455076E+00  7.17522159E+00  7.18148488E+00  7.20779985E+00
  7.24755603E+00  7.25155391E+00  7.27363297E+00  7.35199718E+00  7.40439385E+00
  7.43870505E+00  7.44107498E+00  7.46557888E+00  7.55952436E+00  7.66303674E+00
  7.68003119E+00  7.79766407E+00  7.89176349E+00  7.95211879E+00  8.08610111E+00
  8.32543341E+00  8.49402615E+00  8.65196784E+00  1.36263310E+01  1.47942449E+01
  1.51243343E+01  1.58214133E+01
Alpha MO coefficients                      R   N=       42849
  7.16674901E-05 -2.30878412E-06 -1.06318866E-03  1.33060234E-05 -3.72898407E-05
  3.93684426E-05  0.00000000E+00 -5.08554211E-05 -2.48994306E-04  0.00000000E+00
  1.45867797E-05 -3.15872392E-04  0.00000000E+00  4.15325372E-05  0.00000000E+00
  0.00000000E+00 -2.90150943E-05  3.22124421E-05  2.19639847E-04  0.00000000E+00
  0.00000000E+00 -6.36278610E-05 -2.09281963E-04  3.11269697E-03 -1.03497435E-04
 -9.48514824E-05  3.41140048E-03  2.38207572E-03  1.03818831E-04 -5.45790800E-05
  0.00000000E+00 -7.29627753E-04  3.11394288E-04  0.00000000E+00 -1.94683314E-03
  1.09451705E-03  0.00000000E+00 -5.31579170E-04  4.29759028E-05  0.00000000E+00
  2.08177027E-05  0.00000000E+00  0.00000000E+00 -8.87477794E-06  4.07230192E-05
 -4.37265344E-04  0.00000000E+00  0.00000000E+00  4.39628801E-04 -6.45486059E-04
 -3.56536551E-04  0.00000000E+00  0.00000000E+00  5.21144902E-04 -7.14564278E-04
  0.00000000E+00  7.35450690E-05 -5.33318476E-05  0.00000000E+00  0.00000000E+00
 -2.77894210E-05  1.05151578E-04  0.00000000E+00  2.12544650E-04 -4.89295158E-05
  0.00000000E+00  0.00000000E+00 -1.60242832E-04  2.93034172E-04  9.76900564E-01
 -9.17877090E-03  4.34099145E-02  5.60229169E-04 -2.17998562E-03  4.51909958E-04
 -2.14915376E-03  0.00000000E+00 -3.19969335E-04  2.25129175E-03  0.00000000E+00
 -2.25014851E-03 -5.14748506E-04  0.00000000E+00 -2.07669402E-04  9.31372298E-05
  0.00000000E+00  5.99946166E-06  0.00000000E+00  0.00000000E+00 -5.87853226E-06
  3.52996531E-05  8.23124392E-04  0.00000000E+00  0.00000000E+00 -4.67981027E-04
 -1.76241592E-04 -1.43414552E-04  0.00000000E+00  0.00000000E+00 -5.52996587E-04
  3.40022945E-04  0.00000000E+00 -6.61378065E-06 -8.00010790E-05  0.00000000E+00
  0.00000000E+00 -8.41740535E-06  4.79030949E-05  0.00000000E+00  9.19203517E-05
  2.41009324E-06  0.00000000E+00  0.00000000E+00 -3.36081997E-04  3.76192401E-04
  1.04023134E-04  4.56066206E-04 -3.22144330E-04 -8.55281925E-04  3.75382762E-04
 -4.37958016E-05 -1.00434429E-04  0.00000000E+00  6.92847179E-04  1.11176653E-03
  0.00000000E+00 -7.84468802E-04 -6.16688229E-04  0.00000000E+00  1.94145528E-04
  2.14020239E-04  0.00000000E+00 -5.24481203E-05  0.00000000E+00  0.00000000E+00
  1.86558741E-05  9.35561501E-05 -4.13233020E-04  0.00000000E+00  0.00000000E+00
  3.86087235E-05  1.07977843E-03  2.51923358E-05  0.00000000E+00  0.00000000E+00
 -3.24943119E-04  4.60283864E-05  0.00000000E+00 -7.79896834E-05 -1.13848341E-04
  0.00000000E+00  0.00000000E+00 -9.67405372E-05  1.06523377E-04  0.00000000E+00
 -1.25765968E-04  4.63408892E-05  0.00000000E+00  0.00000000E+00  1.28026245E-05
  5.17309975E-04 -7.46431281E-04  4.26399470E-05 -7.28519861E-05  2.80153635E-04
 -1.67250611E-04 -2.98633924E-05 -4.16067234E-05  0.00000000E+00  1.72015402E-04
  2.53833699E-04  0.00000000E+00  5.36781399E-04  3.56867339E-04  0.00000000E+00
 -2.05946097E-04 -6.24038856E-05  0.00000000E+00 -1.24940704E-05  0.00000000E+00
  0.00000000E+00  2.80339224E-06  1.50377104E-05 -5.01769263E-06  0.00000000E+00
  0.00000000E+00 -1.60842431E-04  9.81915017E-06 -1.74342453E-05  0.00000000E+00
  0.00000000E+00 -1.84541247E-04 -3.56983407E-05  0.00000000E+00 -6.61939027E-06
 -9.03068414E-06  0.00000000E+00  0.00000000E+00 -1.97455801E-05  9.34262292E-06
  0.00000000E+00  4.14623471E-05  6.03248524E-05  0.00000000E+00  0.00000000E+00
  1.52768337E-04 -1.02576092E-04  3.28003847E-05 -7.44613218E-07 -2.63399085E-05
 -3.03128594E-05  2.68125982E-05  1.21910116E-05  0.00000000E+00  2.49812084E-04
  4.28697591E-05  0.00000000E+00  1.25745261E-04  3.96514203E-05  0.00000000E+00
  9.10047732E-06  0.00000000E+00  0.00000000E+00 -4.20595180E-06  2.10104188E-05
  3.38900111E-07  0.00000000E+00  0.00000000E+00 -8.96000671E-05  9.09239761E-05
 -2.56860101E-04  2.24746554E-05 -1.42135721E-05 -5.90830953E-04  9.61612609E-05
  7.76671453E-06  1.29057564E-05  0.00000000E+00 -9.58795826E-07 -3.69814279E-05
  0.00000000E+00  1.88108003E-04  7.45545679E-05  0.00000000E+00 -3.54083578E-05
  5.68952781E-05  0.00000000E+00 -1.44267864E-06  0.00000000E+00  0.00000000E+00
 -8.41094031E-06 -1.28207876E-05  2.20791748E-05  0.00000000E+00  0.00000000E+00
  5.21063286E-05  1.15126681E-04  6.01081792E-05  0.00000000E+00  0.00000000E+00
 -4.68629888E-05 -4.33049196E-05  0.00000000E+00  7.47867527E-06  9.41145275E-06
  0.00000000E+00  0.00000000E+00 -1.24013710E-06 -2.61209719E-05  0.00000000E+00
 -1.22645783E-05 -3.46958181E-05  0.00000000E+00  0.00000000E+00  8.89617378E-07
 -2.35333158E-05  7.73388621E-04  1.91184344E-05 -1.77823308E-05  3.39094641E-04
 -3.71781946E-04  1.64679849E-05  2.77113592E-05  0.00000000E+00 -6.61400501E-05
 -1.56292047E-04  0.00000000E+00  2.06286909E-04 -2.15296030E-04  0.00000000E+00
 -1.54381180E-04  1.38490460E-04  0.00000000E+00 -3.93644013E-06  0.00000000E+00
  0.00000000E+00 -2.96943266E-05 -1.00270792E-05 -5.29909755E-05  0.00000000E+00
  0.00000000E+00  8.09901875E-05  1.22819940E-04 -6.92197193E-05  0.00000000E+00
  0.00000000E+00  4.38366539E-05  2.43290691E-05  0.00000000E+00  3.01788389E-06
  3.09457514E-06  0.00000000E+00  0.00000000E+00 -7.98505566E-06 -2.78500890E-06
  0.00000000E+00  3.19045738E-06 -2.42260998E-05  0.00000000E+00  0.00000000E+00
  1.00075680E-04 -1.53798742E-04  2.36722560E-04  1.35593699E-03 -1.45889669E-04
 -7.33069197E-04  9.11644161E-04  6.32244850E-05 -7.12608348E-05  0.00000000E+00
  5.72420387E-04 -2.08261116E-03  0.00000000E+00  9.57140831E-05  5.40166246E-04
  0.00000000E+00  1.86581414E-04 -3.06240082E-04  0.00000000E+00 -1.27803043E-04
  0.00000000E+00  0.00000000E+00 -2.03934043E-04 -1.58361441E-04 -4.58367702E-04
  0.00000000E+00  0.00000000E+00 -6.00349727E-04 -9.26601887E-04 -4.34411407E-05
  0.00000000E+00  0.00000000E+00  5.45230415E-05  1.32420314E-04  0.00000000E+00
  8.63801511E-06  3.68925738E-05  0.00000000E+00  0.00000000E+00 -2.45167946E-05
 -4.50057863E-06  0.00000000E+00 -1.36707329E-04  1.56888758E-04  0.00000000E+00
  0.00000000E+00 -3.18070448E-04 -3.98084524E-05  9.76645521E-01 -9.88453402E-03
  4.35757397E-02  3.71326463E-03 -8.96912135E-04 -4.41750486E-04  2.13459324E-03
  0.00000000E+00  5.12737629E-04 -2.50879525E-03  0.00000000E+00 -1.03229391E-04
  8.43196249E-04  0.00000000E+00  1.06187978E-04 -6.49501333E-05  0.00000000E+00
 -1.92939442E-04  0.00000000E+00  0.00000000E+00 -7.48166968E-05 -4.35965686E-05
  4.08844481E-04  0.00000000E+00  0.00000000E+00  8.58976550E-04  4.84894248E-04
 -2.00270484E-04  0.00000000E+00  0.00000000E+00 -1.60011283E-04 -3.72506504E-05
  0.00000000E+00 -5.82152716E-06  7.02984621E-05  0.00000000E+00  0.00000000E+00
 -2.70407525E-05  1.09288524E-05  0.00000000E+00 -8.66662274E-05  9.07972864E-05
  0.00000000E+00  0.00000000E+00 -1.72601074E-04  2.05630775E-04  3.66531477E-04
  1.82102402E-03  1.58988314E-03 -1.87156954E-05  5.19709561E-05  2.65944862E-04
  0.00000000E+00  4.34044486E-04  9.80994953E-04  0.00000000E+00 -1.57119665E-04
  2.19850746E-04  0.00000000E+00 -2.35142253E-05  0.00000000E+00  0.00000000E+00
  2.66197661E-05 -3.77879372E-05 -2.62877255E-04  0.00000000E+00  0.00000000E+00
 -3.22743372E-04  4.87626762E-04  9.76834484E-01 -9.20444273E-03  4.34586734E-02
  1.47376243E-04 -1.95976799E-03 -2.05679558E-03 -7.97793729E-04  0.00000000E+00
  2.09972616E-03  7.44444254E-04  0.00000000E+00 -3.84119439E-04  5.17896948E-04
  0.00000000E+00  2.40783550E-04 -2.78975138E-04  0.00000000E+00  3.29509585E-05
  0.00000000E+00  0.00000000E+00 -6.83367168E-05  7.10384462E-05  7.56929961E-04
  0.00000000E+00  0.00000000E+00 -2.34634912E-04  3.28170596E-04 -2.43025619E-04
  0.00000000E+00  0.00000000E+00  3.01738079E-04  5.17669209E-05  0.00000000E+00
 -8.12395765E-05  2.04269370E-06  0.00000000E+00  0.00000000E+00  1.45050452E-05