 Entering Gaussian System, Link 0=g16
 Input=hoono_r4_1p206682.gjf
 Output=hoono_r4_1p206682.log
 Initial command:
 /sw/contrib/gaussian/g16/B01/g16/l1.exe "/scr/Gau-24150.inp" -scrdir="/scr/"
 Entering Link 1 = /sw/contrib/gaussian/g16/B01/g16/l1.exe PID=     24151.
  
 Copyright (c) 1988-2017, Gaussian, Inc.  All Rights Reserved.
  
 This is part of the Gaussian(R) 16 program.  It is based on
 the Gaussian(R) 09 system (copyright 2009, Gaussian, Inc.),
 the Gaussian(R) 03 system (copyright 2003, Gaussian, Inc.),
 the Gaussian(R) 98 system (copyright 1998, Gaussian, Inc.),
 the Gaussian(R) 94 system (copyright 1995, Gaussian, Inc.),
 the Gaussian 92(TM) system (copyright 1992, Gaussian, Inc.),
 the Gaussian 90(TM) system (copyright 1990, Gaussian, Inc.),
 the Gaussian 88(TM) system (copyright 1988, Gaussian, Inc.),
 the Gaussian 86(TM) system (copyright 1986, Carnegie Mellon
 University), and the Gaussian 82(TM) system (copyright 1983,
 Carnegie Mellon University). Gaussian is a federally registered
 trademark of Gaussian, Inc.
  
 This software contains proprietary and confidential information,
 including trade secrets, belonging to Gaussian, Inc.
  
 This software is provided under written license and may be
 used, copied, transmitted, or stored only in accord with that
 written license.
  
 The following legend is applicable only to US Government
 contracts under FAR:
  
                    RESTRICTED RIGHTS LEGEND
  
 Use, reproduction and disclosure by the US Government is
 subject to restrictions as set forth in subparagraphs (a)
 and (c) of the Commercial Computer Software - Restricted
 Rights clause in FAR 52.227-19.
  
 Gaussian, Inc.
 340 Quinnipiac St., Bldg. 40, Wallingford CT 06492
  
  
 ---------------------------------------------------------------
 Warning -- This program may not be used in any manner that
 competes with the business of Gaussian, Inc. or will provide
 assistance to any competitor of Gaussian, Inc.  The licensee
 of this program is prohibited from giving any competitor of
 Gaussian, Inc. access to this program.  By using this program,
 the user acknowledges that Gaussian, Inc. is engaged in the
 business of creating and licensing software in the field of
 computational chemistry and represents and warrants to the
 licensee that it is not a competitor of Gaussian, Inc. and that
 it will not use this program in any manner prohibited above.
 ---------------------------------------------------------------
  

 Cite this work as:
 Gaussian 16, Revision B.01,
 M. J. Frisch, G. W. Trucks, H. B. Schlegel, G. E. Scuseria, 
 M. A. Robb, J. R. Cheeseman, G. Scalmani, V. Barone, 
 G. A. Petersson, H. Nakatsuji, X. Li, M. Caricato, A. V. Marenich, 
 J. Bloino, B. G. Janesko, R. Gomperts, B. Mennucci, H. P. Hratchian, 
 J. V. Ortiz, A. F. Izmaylov, J. L. Sonnenberg, D. Williams-Young, 
 F. Ding, F. Lipparini, F. Egidi, J. Goings, B. Peng, A. Petrone, 
 T. Henderson, D. Ranasinghe, V. G. Zakrzewski, J. Gao, N. Rega, 
 G. Zheng, W. Liang, M. Hada, M. Ehara, K. Toyota, R. Fukuda, 
 J. Hasegawa, M. Ishida, T. Nakajima, Y. Honda, O. Kitao, H. Nakai, 
 T. Vreven, K. Throssell, J. A. Montgomery, Jr., J. E. Peralta, 
 F. Ogliaro, M. J. Bearpark, J. J. Heyd, E. N. Brothers, K. N. Kudin, 
 V. N. Staroverov, T. A. Keith, R. Kobayashi, J. Normand, 
 K. Raghavachari, A. P. Rendell, J. C. Burant, S. S. Iyengar, 
 J. Tomasi, M. Cossi, J. M. Millam, M. Klene, C. Adamo, R. Cammi, 
 J. W. Ochterski, R. L. Martin, K. Morokuma, O. Farkas, 
 J. B. Foresman, and D. J. Fox, Gaussian, Inc., Wallingford CT, 2016.
 
 ******************************************
 Gaussian 16:  ES64L-G16RevB.01 20-Dec-2017
                 6-Mar-2022 
 ******************************************
 %nproc=28
 Will use up to   28 processors via shared memory.
 %mem=120GB
 %chk=hoono_r4_1p206682.chk
 ---------------------------------------
 #p freq mp2/aug-cc-pvtz density=current
 ---------------------------------------
 1/10=4,30=1,38=1/1,3;
 2/12=2,17=6,18=5,40=1/2;
 3/5=16,6=1,7=10,11=9,25=1,30=1,71=2,140=1/1,2,3;
 4//1;
 5/5=2,38=5,98=1/2;
 8/6=3,8=1,10=1,19=11,30=-1/1;
 9/15=3,16=-3/6;
 11/6=1,8=1,15=11,17=12,24=-1,27=1,28=-2,29=300,32=6,42=3/1,2,10;
 10/6=2,21=1/2;
 8/6=4,8=1,10=1,19=11,30=-1/11,4;
 10/5=1,20=4/2;
 11/12=2,14=11,16=1,17=2,28=-2,42=3,76=2/2,10,12;
 6/7=2,8=2,9=2,10=2,22=-1/1;
 7/8=1,10=1,12=2,25=1,44=2/1,2,3,16;
 1/10=4,30=1/3;
 99//99;
 Leave Link    1 at Sun Mar  6 19:13:09 2022, MaxMem= 16106127360 cpu:               1.9 elap:               0.1
 (Enter /sw/contrib/gaussian/g16/B01/g16/l101.exe)
 -----
 title
 -----
 Symbolic Z-matrix:
 Charge =  0 Multiplicity = 1
 H
 O                    1    r1
 O                    2    r2       1    a1
 N                    3    r3       2    a2       1    d1       0
 O                    4    r4       3    a3       2    d2       0
       Variables:
  r1                    0.98538                  
  r2                    1.42674                  
  r3                    1.38111                  
  r4                    1.20668                  
  a1                  100.63551                  
  a2                  113.13777                  
  a3                  114.33392                  
  d1                    0.                       
  d2                    0.                       
 
 ITRead=  0  0  0  0  0
 MicOpt= -1 -1 -1 -1 -1
 NAtoms=      5 NQM=        5 NQMF=       0 NMMI=      0 NMMIF=      0
                NMic=       0 NMicF=      0.
                    Isotopes and Nuclear Properties:
 (Nuclear quadrupole moments (NQMom) in fm**2, nuclear magnetic moments (NMagM)
  in nuclear magnetons)

  Atom         1           2           3           4           5
 IAtWgt=           1          16          16          14          16
 AtmWgt=   1.0078250  15.9949146  15.9949146  14.0030740  15.9949146
 NucSpn=           1           0           0           2           0
 AtZEff=  -0.0000000  -0.0000000  -0.0000000  -0.0000000  -0.0000000
 NQMom=    0.0000000   0.0000000   0.0000000   2.0440000   0.0000000
 NMagM=    2.7928460   0.0000000   0.0000000   0.4037610   0.0000000
 AtZNuc=   1.0000000   8.0000000   8.0000000   7.0000000   8.0000000
 Leave Link  101 at Sun Mar  6 19:13:10 2022, MaxMem= 16106127360 cpu:               2.2 elap:               0.1
 (Enter /sw/contrib/gaussian/g16/B01/g16/l103.exe)

 GradGradGradGradGradGradGradGradGradGradGradGradGradGradGradGradGradGrad
 Berny optimization.
 Initialization pass.
                       ----------------------------
                       !    Initial Parameters    !
                       ! (Angstroms and Degrees)  !
 ----------------------                            ----------------------
 !      Name          Value   Derivative information (Atomic Units)     !
 ------------------------------------------------------------------------
 !       r1          0.9854   calculate D2E/DX2 analytically            !
 !       r2          1.4267   calculate D2E/DX2 analytically            !
 !       r3          1.3811   calculate D2E/DX2 analytically            !
 !       r4          1.2067   calculate D2E/DX2 analytically            !
 !       a1        100.6355   calculate D2E/DX2 analytically            !
 !       a2        113.1378   calculate D2E/DX2 analytically            !
 !       a3        114.3339   calculate D2E/DX2 analytically            !
 !       d1          0.0      calculate D2E/DX2 analytically            !
 !       d2          0.0      calculate D2E/DX2 analytically            !
 ------------------------------------------------------------------------
 Trust Radius=3.00D-01 FncErr=1.00D-07 GrdErr=1.00D-07 EigMax=2.50D+02 EigMin=1.00D-04
 Number of steps in this run=      2 maximum allowed number of steps=      2.
 GradGradGradGradGradGradGradGradGradGradGradGradGradGradGradGradGradGrad

 Leave Link  103 at Sun Mar  6 19:13:10 2022, MaxMem= 16106127360 cpu:               0.6 elap:               0.0
 (Enter /sw/contrib/gaussian/g16/B01/g16/l202.exe)
                          Input orientation:                          
 ---------------------------------------------------------------------
 Center     Atomic      Atomic             Coordinates (Angstroms)
 Number     Number       Type             X           Y           Z
 ---------------------------------------------------------------------
      1          1           0        0.000000    0.000000    0.000000
      2          8           0        0.000000    0.000000    0.985377
      3          8           0        1.402227    0.000000    1.248696
      4          7           0        2.169996    0.000000    0.100659
      5          8           0        1.532467    0.000000   -0.923861
 ---------------------------------------------------------------------
                    Distance matrix (angstroms):
                    1          2          3          4          5
     1  H    0.000000
     2  O    0.985377   0.000000
     3  O    1.877627   1.426737   0.000000
     4  N    2.172329   2.343418   1.381108   0.000000
     5  O    1.789406   2.448192   2.176457   1.206682   0.000000
 Stoichiometry    HNO3
 Framework group  CS[SG(HNO3)]
 Deg. of freedom     7
 Full point group                 CS      NOp   2
 Largest Abelian subgroup         CS      NOp   2
 Largest concise Abelian subgroup C1      NOp   1
                         Standard orientation:                         
 ---------------------------------------------------------------------
 Center     Atomic      Atomic             Coordinates (Angstroms)
 Number     Number       Type             X           Y           Z
 ---------------------------------------------------------------------
      1          1           0        1.107534   -0.596409    0.000000
      2          8           0        1.315225    0.366831    0.000000
      3          8           0        0.000000    0.919787    0.000000
      4          7           0       -0.992497   -0.040634    0.000000
      5          8           0       -0.585232   -1.176512    0.000000
 ---------------------------------------------------------------------
 Rotational constants (GHZ):          21.1581849           8.0897719           5.8521999
 Leave Link  202 at Sun Mar  6 19:13:10 2022, MaxMem= 16106127360 cpu:               0.7 elap:               0.1
 (Enter /sw/contrib/gaussian/g16/B01/g16/l301.exe)
 Standard basis: Aug-CC-pVTZ (5D, 7F)
 Ernie: Thresh=  0.10000D-02 Tol=  0.10000D-05 Strict=F.
 Ernie:  12 primitive shells out of 131 were deleted.
 There are   166 symmetry adapted cartesian basis functions of A'  symmetry.
 There are    79 symmetry adapted cartesian basis functions of A"  symmetry.
 There are   136 symmetry adapted basis functions of A'  symmetry.
 There are    71 symmetry adapted basis functions of A"  symmetry.
   207 basis functions,   315 primitive gaussians,   245 cartesian basis functions
    16 alpha electrons       16 beta electrons
       nuclear repulsion energy       122.4143519207 Hartrees.
 IExCor=    0 DFT=F Ex=HF Corr=None ExCW=0 ScaHFX=  1.000000
 ScaDFX=  1.000000  1.000000  1.000000  1.000000 ScalE2=  1.000000  1.000000
 IRadAn=      5 IRanWt=     -1 IRanGd=            0 ICorTp=0 IEmpDi=  4
 NAtoms=    5 NActive=    5 NUniq=    5 SFac= 1.00D+00 NAtFMM=   60 NAOKFM=F Big=F
 Integral buffers will be    131072 words long.
 Raffenetti 1 integral format.
 Two-electron integral symmetry is turned on.
 Leave Link  301 at Sun Mar  6 19:13:10 2022, MaxMem= 16106127360 cpu:               2.2 elap:               0.1
 (Enter /sw/contrib/gaussian/g16/B01/g16/l302.exe)
 NPDir=0 NMtPBC=     1 NCelOv=     1 NCel=       1 NClECP=     1 NCelD=      1
         NCelK=      1 NCelE2=     1 NClLst=     1 CellRange=     0.0.
 One-electron integrals computed using PRISM.
 One-electron integral symmetry used in STVInt
 NBasis=   207 RedAO= T EigKep=  1.33D-04  NBF=   136    71
 NBsUse=   207 1.00D-06 EigRej= -1.00D+00 NBFU=   136    71
 Leave Link  302 at Sun Mar  6 19:13:10 2022, MaxMem= 16106127360 cpu:               4.4 elap:               0.2
 (Enter /sw/contrib/gaussian/g16/B01/g16/l303.exe)
 DipDrv:  MaxL=1.
 Leave Link  303 at Sun Mar  6 19:13:10 2022, MaxMem= 16106127360 cpu:               2.1 elap:               0.1
 (Enter /sw/contrib/gaussian/g16/B01/g16/l401.exe)
 ExpMin= 2.53D-02 ExpMax= 1.53D+04 ExpMxC= 5.22D+02 IAcc=3 IRadAn=         5 AccDes= 0.00D+00
 Harris functional with IExCor=  205 and IRadAn=       5 diagonalized for initial guess.
 HarFok:  IExCor=  205 AccDes= 0.00D+00 IRadAn=         5 IDoV= 1 UseB2=F ITyADJ=14
 ICtDFT=  3500011 ScaDFX=  1.000000  1.000000  1.000000  1.000000
 FoFCou: FMM=F IPFlag=           0 FMFlag=      100000 FMFlg1=           0
         NFxFlg=           0 DoJE=T BraDBF=F KetDBF=T FulRan=T
         wScrn=  0.000000 ICntrl=       500 IOpCl=  0 I1Cent=   200000004 NGrid=           0
         NMat0=    1 NMatS0=      1 NMatT0=    0 NMatD0=    1 NMtDS0=    0 NMtDT0=    0
 Petite list used in FoFCou.
 Harris En= -279.644924160164    
 JPrj=0 DoOrth=F DoCkMO=F.
 Initial guess orbital symmetries:
       Occupied  (A') (A') (A') (A') (A') (A') (A') (A') (A') (A')
                 (A") (A') (A") (A') (A") (A')
       Virtual   (A") (A') (A') (A') (A') (A") (A') (A') (A') (A')
                 (A") (A') (A") (A') (A') (A") (A') (A') (A") (A')
                 (A') (A') (A') (A') (A") (A') (A') (A') (A") (A')
                 (A') (A") (A") (A') (A') (A") (A') (A") (A') (A")
                 (A') (A") (A') (A") (A') (A') (A') (A") (A') (A')
                 (A') (A") (A') (A") (A') (A") (A') (A') (A') (A")
                 (A') (A') (A") (A') (A') (A') (A") (A") (A') (A')
                 (A") (A') (A") (A") (A') (A') (A") (A') (A') (A')
                 (A") (A') (A') (A") (A') (A") (A') (A") (A') (A')
                 (A') (A") (A') (A") (A') (A') (A") (A') (A") (A')
                 (A") (A') (A') (A") (A") (A') (A') (A') (A") (A')
                 (A") (A') (A') (A') (A") (A') (A') (A') (A") (A')
                 (A") (A') (A') (A") (A") (A") (A") (A') (A') (A')
                 (A') (A') (A') (A") (A') (A") (A') (A") (A') (A')
                 (A") (A") (A') (A') (A') (A") (A') (A') (A') (A")
                 (A') (A') (A') (A") (A') (A") (A") (A') (A") (A')
                 (A') (A") (A") (A') (A") (A') (A') (A") (A") (A')
                 (A") (A") (A") (A') (A") (A') (A') (A') (A') (A")
                 (A') (A') (A') (A') (A') (A') (A') (A') (A') (A')
                 (A')
 The electronic state of the initial guess is 1-A'.
 Leave Link  401 at Sun Mar  6 19:13:10 2022, MaxMem= 16106127360 cpu:               6.1 elap:               0.3
 (Enter /sw/contrib/gaussian/g16/B01/g16/l502.exe)
 Keep R1 ints in memory in symmetry-blocked form, NReq=348887737.
 FoFCou: FMM=F IPFlag=           0 FMFlag=           0 FMFlg1=           0
         NFxFlg=           0 DoJE=F BraDBF=F KetDBF=F FulRan=T
         wScrn=  0.000000 ICntrl=       600 IOpCl=  0 I1Cent=           0 NGrid=           0
         NMat0=    1 NMatS0=  21528 NMatT0=    0 NMatD0=    1 NMtDS0=    0 NMtDT0=    0
 Petite list used in FoFCou.
 Closed shell SCF:
 Using DIIS extrapolation, IDIIS=  1040.
 NGot= 16106127360 LenX= 15988850015 LenY= 15988789549
 Requested convergence on RMS density matrix=1.00D-08 within 128 cycles.
 Requested convergence on MAX density matrix=1.00D-06.
 Requested convergence on             energy=1.00D-06.
 No special actions if energy rises.

 Cycle   1  Pass 1  IDiag  1:
 E= -279.359725777191    
 DIIS: error= 2.77D-02 at cycle   1 NSaved=   1.
 NSaved= 1 IEnMin= 1 EnMin= -279.359725777191     IErMin= 1 ErrMin= 2.77D-02
 ErrMax= 2.77D-02  0.00D+00 EMaxC= 1.00D-01 BMatC= 4.53D-01 BMatP= 4.53D-01
 IDIUse=3 WtCom= 7.23D-01 WtEn= 2.77D-01
 Coeff-Com:  0.100D+01
 Coeff-En:   0.100D+01
 Coeff:      0.100D+01
 Gap=     0.493 Goal=   None    Shift=    0.000
 GapD=    0.493 DampG=2.000 DampE=0.500 DampFc=1.0000 IDamp=-1.
 RMSDP=1.69D-03 MaxDP=8.81D-02              OVMax= 1.27D-01

 Cycle   2  Pass 1  IDiag  1:
 E= -279.440333145209     Delta-E=       -0.080607368018 Rises=F Damp=F
 DIIS: error= 2.02D-02 at cycle   2 NSaved=   2.
 NSaved= 2 IEnMin= 2 EnMin= -279.440333145209     IErMin= 2 ErrMin= 2.02D-02
 ErrMax= 2.02D-02  0.00D+00 EMaxC= 1.00D-01 BMatC= 9.10D-02 BMatP= 4.53D-01
 IDIUse=3 WtCom= 7.98D-01 WtEn= 2.02D-01
 Coeff-Com:  0.227D+00 0.773D+00
 Coeff-En:   0.109D+00 0.891D+00
 Coeff:      0.203D+00 0.797D+00
 Gap=     0.562 Goal=   None    Shift=    0.000
 RMSDP=9.83D-04 MaxDP=3.64D-02 DE=-8.06D-02 OVMax= 9.56D-02

 Cycle   3  Pass 1  IDiag  1:
 E= -279.481274805451     Delta-E=       -0.040941660242 Rises=F Damp=F
 DIIS: error= 1.13D-02 at cycle   3 NSaved=   3.
 NSaved= 3 IEnMin= 3 EnMin= -279.481274805451     IErMin= 3 ErrMin= 1.13D-02
 ErrMax= 1.13D-02  0.00D+00 EMaxC= 1.00D-01 BMatC= 3.14D-02 BMatP= 9.10D-02
 IDIUse=3 WtCom= 8.87D-01 WtEn= 1.13D-01
 Coeff-Com: -0.350D-01 0.359D+00 0.676D+00
 Coeff-En:   0.000D+00 0.211D+00 0.789D+00
 Coeff:     -0.310D-01 0.342D+00 0.689D+00
 Gap=     0.542 Goal=   None    Shift=    0.000
 RMSDP=4.16D-04 MaxDP=1.63D-02 DE=-4.09D-02 OVMax= 4.06D-02

 Cycle   4  Pass 1  IDiag  1:
 E= -279.502885223162     Delta-E=       -0.021610417711 Rises=F Damp=F
 DIIS: error= 1.65D-03 at cycle   4 NSaved=   4.
 NSaved= 4 IEnMin= 4 EnMin= -279.502885223162     IErMin= 4 ErrMin= 1.65D-03
 ErrMax= 1.65D-03  0.00D+00 EMaxC= 1.00D-01 BMatC= 6.25D-04 BMatP= 3.14D-02
 IDIUse=3 WtCom= 9.84D-01 WtEn= 1.65D-02
 Coeff-Com: -0.121D-01 0.456D-01 0.155D+00 0.811D+00
 Coeff-En:   0.000D+00 0.000D+00 0.000D+00 0.100D+01
 Coeff:     -0.119D-01 0.449D-01 0.153D+00 0.814D+00
 Gap=     0.529 Goal=   None    Shift=    0.000
 RMSDP=1.00D-04 MaxDP=2.28D-03 DE=-2.16D-02 OVMax= 1.20D-02

 Cycle   5  Pass 1  IDiag  1:
 E= -279.503729450505     Delta-E=       -0.000844227343 Rises=F Damp=F
 DIIS: error= 1.11D-03 at cycle   5 NSaved=   5.
 NSaved= 5 IEnMin= 5 EnMin= -279.503729450505     IErMin= 5 ErrMin= 1.11D-03
 ErrMax= 1.11D-03  0.00D+00 EMaxC= 1.00D-01 BMatC= 1.06D-04 BMatP= 6.25D-04
 IDIUse=3 WtCom= 9.89D-01 WtEn= 1.11D-02
 Coeff-Com:  0.550D-02-0.655D-01-0.113D+00 0.584D-01 0.111D+01
 Coeff-En:   0.000D+00 0.000D+00 0.000D+00 0.000D+00 0.100D+01
 Coeff:      0.544D-02-0.648D-01-0.111D+00 0.577D-01 0.111D+01
 Gap=     0.533 Goal=   None    Shift=    0.000
 RMSDP=8.13D-05 MaxDP=2.15D-03 DE=-8.44D-04 OVMax= 1.32D-02

 Cycle   6  Pass 1  IDiag  1:
 E= -279.504105939799     Delta-E=       -0.000376489293 Rises=F Damp=F
 DIIS: error= 3.33D-04 at cycle   6 NSaved=   6.
 NSaved= 6 IEnMin= 6 EnMin= -279.504105939799     IErMin= 6 ErrMin= 3.33D-04
 ErrMax= 3.33D-04  0.00D+00 EMaxC= 1.00D-01 BMatC= 2.49D-05 BMatP= 1.06D-04
 IDIUse=3 WtCom= 9.97D-01 WtEn= 3.33D-03
 Coeff-Com:  0.189D-02-0.667D-02-0.176D-01-0.183D+00 0.951D-02 0.120D+01
 Coeff-En:   0.000D+00 0.000D+00 0.000D+00 0.000D+00 0.000D+00 0.100D+01
 Coeff:      0.189D-02-0.665D-02-0.176D-01-0.182D+00 0.948D-02 0.120D+01
 Gap=     0.533 Goal=   None    Shift=    0.000
 RMSDP=4.74D-05 MaxDP=1.09D-03 DE=-3.76D-04 OVMax= 6.23D-03

 Cycle   7  Pass 1  IDiag  1:
 E= -279.504195045941     Delta-E=       -0.000089106143 Rises=F Damp=F
 DIIS: error= 1.29D-04 at cycle   7 NSaved=   7.
 NSaved= 7 IEnMin= 7 EnMin= -279.504195045941     IErMin= 7 ErrMin= 1.29D-04
 ErrMax= 1.29D-04  0.00D+00 EMaxC= 1.00D-01 BMatC= 3.70D-06 BMatP= 2.49D-05
 IDIUse=3 WtCom= 9.99D-01 WtEn= 1.29D-03
 Coeff-Com: -0.110D-02 0.112D-01 0.251D-01 0.151D-01-0.178D+00-0.146D+00
 Coeff-Com:  0.127D+01
 Coeff-En:   0.000D+00 0.000D+00 0.000D+00 0.000D+00 0.000D+00 0.000D+00
 Coeff-En:   0.100D+01
 Coeff:     -0.110D-02 0.112D-01 0.250D-01 0.151D-01-0.178D+00-0.145D+00
 Coeff:      0.127D+01
 Gap=     0.533 Goal=   None    Shift=    0.000
 RMSDP=1.77D-05 MaxDP=5.28D-04 DE=-8.91D-05 OVMax= 2.39D-03

 Cycle   8  Pass 1  IDiag  1:
 E= -279.504207552732     Delta-E=       -0.000012506791 Rises=F Damp=F
 DIIS: error= 4.98D-05 at cycle   8 NSaved=   8.
 NSaved= 8 IEnMin= 8 EnMin= -279.504207552732     IErMin= 8 ErrMin= 4.98D-05
 ErrMax= 4.98D-05  0.00D+00 EMaxC= 1.00D-01 BMatC= 6.59D-07 BMatP= 3.70D-06
 IDIUse=1 WtCom= 1.00D+00 WtEn= 0.00D+00
 Coeff-Com: -0.576D-03 0.407D-02 0.992D-02 0.251D-01-0.567D-01-0.198D+00
 Coeff-Com:  0.360D+00 0.856D+00
 Coeff:     -0.576D-03 0.407D-02 0.992D-02 0.251D-01-0.567D-01-0.198D+00
 Coeff:      0.360D+00 0.856D+00
 Gap=     0.533 Goal=   None    Shift=    0.000
 RMSDP=5.73D-06 MaxDP=1.63D-04 DE=-1.25D-05 OVMax= 6.93D-04

 Cycle   9  Pass 1  IDiag  1:
 E= -279.504209080853     Delta-E=       -0.000001528121 Rises=F Damp=F
 DIIS: error= 2.58D-05 at cycle   9 NSaved=   9.
 NSaved= 9 IEnMin= 9 EnMin= -279.504209080853     IErMin= 9 ErrMin= 2.58D-05
 ErrMax= 2.58D-05  0.00D+00 EMaxC= 1.00D-01 BMatC= 1.28D-07 BMatP= 6.59D-07
 IDIUse=1 WtCom= 1.00D+00 WtEn= 0.00D+00
 Coeff-Com:  0.251D-03-0.258D-02-0.546D-02-0.571D-02 0.479D-01 0.500D-01
 Coeff-Com: -0.346D+00 0.226D-01 0.124D+01
 Coeff:      0.251D-03-0.258D-02-0.546D-02-0.571D-02 0.479D-01 0.500D-01
 Coeff:     -0.346D+00 0.226D-01 0.124D+01
 Gap=     0.533 Goal=   None    Shift=    0.000
 RMSDP=2.64D-06 MaxDP=7.20D-05 DE=-1.53D-06 OVMax= 2.78D-04

 Cycle  10  Pass 1  IDiag  1:
 E= -279.504209382885     Delta-E=       -0.000000302032 Rises=F Damp=F
 DIIS: error= 6.19D-06 at cycle  10 NSaved=  10.
 NSaved=10 IEnMin=10 EnMin= -279.504209382885     IErMin=10 ErrMin= 6.19D-06
 ErrMax= 6.19D-06  0.00D+00 EMaxC= 1.00D-01 BMatC= 9.85D-09 BMatP= 1.28D-07
 IDIUse=1 WtCom= 1.00D+00 WtEn= 0.00D+00
 Coeff-Com: -0.385D-04 0.482D-03 0.119D-02-0.213D-02-0.109D-01 0.660D-02
 Coeff-Com:  0.716D-01-0.537D-01-0.434D+00 0.142D+01
 Coeff:     -0.385D-04 0.482D-03 0.119D-02-0.213D-02-0.109D-01 0.660D-02
 Coeff:      0.716D-01-0.537D-01-0.434D+00 0.142D+01
 Gap=     0.533 Goal=   None    Shift=    0.000
 RMSDP=7.70D-07 MaxDP=2.74D-05 DE=-3.02D-07 OVMax= 8.48D-05

 Cycle  11  Pass 1  IDiag  1:
 E= -279.504209413015     Delta-E=       -0.000000030130 Rises=F Damp=F
 DIIS: error= 2.32D-06 at cycle  11 NSaved=  11.
 NSaved=11 IEnMin=11 EnMin= -279.504209413015     IErMin=11 ErrMin= 2.32D-06
 ErrMax= 2.32D-06  0.00D+00 EMaxC= 1.00D-01 BMatC= 1.08D-09 BMatP= 9.85D-09
 IDIUse=1 WtCom= 1.00D+00 WtEn= 0.00D+00
 Coeff-Com: -0.209D-04 0.215D-03 0.475D-03 0.850D-03-0.330D-02-0.737D-02
 Coeff-Com:  0.264D-01 0.164D-01-0.871D-01-0.233D+00 0.129D+01
 Coeff:     -0.209D-04 0.215D-03 0.475D-03 0.850D-03-0.330D-02-0.737D-02
 Coeff:      0.264D-01 0.164D-01-0.871D-01-0.233D+00 0.129D+01
 Gap=     0.533 Goal=   None    Shift=    0.000
 RMSDP=2.71D-07 MaxDP=1.03D-05 DE=-3.01D-08 OVMax= 3.22D-05

 Cycle  12  Pass 1  IDiag  1:
 E= -279.504209416822     Delta-E=       -0.000000003807 Rises=F Damp=F
 DIIS: error= 9.31D-07 at cycle  12 NSaved=  12.
 NSaved=12 IEnMin=12 EnMin= -279.504209416822     IErMin=12 ErrMin= 9.31D-07
 ErrMax= 9.31D-07  0.00D+00 EMaxC= 1.00D-01 BMatC= 1.24D-10 BMatP= 1.08D-09
 IDIUse=1 WtCom= 1.00D+00 WtEn= 0.00D+00
 Coeff-Com:  0.244D-05-0.457D-04-0.104D-03 0.246D-03 0.127D-02-0.141D-02
 Coeff-Com: -0.772D-02 0.866D-02 0.473D-01-0.155D+00-0.131D+00 0.124D+01
 Coeff:      0.244D-05-0.457D-04-0.104D-03 0.246D-03 0.127D-02-0.141D-02
 Coeff:     -0.772D-02 0.866D-02 0.473D-01-0.155D+00-0.131D+00 0.124D+01
 Gap=     0.533 Goal=   None    Shift=    0.000
 RMSDP=1.01D-07 MaxDP=3.47D-06 DE=-3.81D-09 OVMax= 1.23D-05

 Cycle  13  Pass 1  IDiag  1:
 E= -279.504209417267     Delta-E=       -0.000000000445 Rises=F Damp=F
 DIIS: error= 1.93D-07 at cycle  13 NSaved=  13.
 NSaved=13 IEnMin=13 EnMin= -279.504209417267     IErMin=13 ErrMin= 1.93D-07
 ErrMax= 1.93D-07  0.00D+00 EMaxC= 1.00D-01 BMatC= 1.08D-11 BMatP= 1.24D-10
 IDIUse=1 WtCom= 1.00D+00 WtEn= 0.00D+00
 Coeff-Com:  0.153D-05-0.149D-04-0.230D-04-0.141D-03 0.926D-04 0.104D-02
 Coeff-Com: -0.146D-02-0.261D-02-0.842D-03 0.554D-01-0.126D+00-0.186D+00
 Coeff-Com:  0.126D+01
 Coeff:      0.153D-05-0.149D-04-0.230D-04-0.141D-03 0.926D-04 0.104D-02
 Coeff:     -0.146D-02-0.261D-02-0.842D-03 0.554D-01-0.126D+00-0.186D+00
 Coeff:      0.126D+01
 Gap=     0.533 Goal=   None    Shift=    0.000
 RMSDP=2.77D-08 MaxDP=8.64D-07 DE=-4.45D-10 OVMax= 2.67D-06

 Cycle  14  Pass 1  IDiag  1:
 E= -279.504209417298     Delta-E=       -0.000000000031 Rises=F Damp=F
 DIIS: error= 4.77D-08 at cycle  14 NSaved=  14.
 NSaved=14 IEnMin=14 EnMin= -279.504209417298     IErMin=14 ErrMin= 4.77D-08
 ErrMax= 4.77D-08  0.00D+00 EMaxC= 1.00D-01 BMatC= 6.23D-13 BMatP= 1.08D-11
 IDIUse=1 WtCom= 1.00D+00 WtEn= 0.00D+00
 Coeff-Com: -0.291D-06 0.447D-05 0.907D-05-0.664D-05-0.119D-03 0.851D-04
 Coeff-Com:  0.653D-03-0.334D-03-0.378D-02 0.849D-02 0.175D-01-0.783D-01
 Coeff-Com: -0.660D-01 0.112D+01
 Coeff:     -0.291D-06 0.447D-05 0.907D-05-0.664D-05-0.119D-03 0.851D-04
 Coeff:      0.653D-03-0.334D-03-0.378D-02 0.849D-02 0.175D-01-0.783D-01
 Coeff:     -0.660D-01 0.112D+01
 Gap=     0.533 Goal=   None    Shift=    0.000
 RMSDP=5.19D-09 MaxDP=1.26D-07 DE=-3.06D-11 OVMax= 5.36D-07

 SCF Done:  E(RHF) =  -279.504209417     A.U. after   14 cycles
            NFock= 14  Conv=0.52D-08     -V/T= 2.0024
 KE= 2.788336852860D+02 PE=-9.056566094459D+02 EE= 2.249043628218D+02
 Leave Link  502 at Sun Mar  6 19:13:14 2022, MaxMem= 16106127360 cpu:              59.5 elap:               3.8
 (Enter /sw/contrib/gaussian/g16/B01/g16/l801.exe)
 ExpMin= 2.53D-02 ExpMax= 1.53D+04 ExpMxC= 5.22D+02 IAcc=3 IRadAn=         5 AccDes= 0.00D+00
 HarFok:  IExCor=  205 AccDes= 0.00D+00 IRadAn=         5 IDoV=-2 UseB2=F ITyADJ=14
 ICtDFT= 12500011 ScaDFX=  1.000000  1.000000  1.000000  1.000000
 Largest valence mixing into a core orbital is  2.08D-04
 Largest core mixing into a valence orbital is  3.13D-05
 Range of M.O.s used for correlation:     5   207
 NBasis=   207 NAE=    16 NBE=    16 NFC=     4 NFV=     0
 NROrb=    203 NOA=    12 NOB=    12 NVA=   191 NVB=   191

 **** Warning!!: The largest alpha MO coefficient is  0.16065377D+02

 Leave Link  801 at Sun Mar  6 19:13:14 2022, MaxMem= 16106127360 cpu:               2.1 elap:               0.1
 (Enter /sw/contrib/gaussian/g16/B01/g16/l906.exe)
 Frozen-core derivative calculation, NFC=   4 NFV=   0.
 FulOut=F Deriv=T AODrv=T NAtomX=     5
   MMem=           0  MDisk=          12 MDiskD=          12
  W3Min=      811440 MinDsk=     2425030 NBas6D=         245
 NBas2D=       30762    NTT=       30135    LW2=     7400000
    MDV= 16105571588 MDiskM=      328644 NBas2p=       30759
 Disk-based method using ON**2 memory for 12 occupieds at a time.
 Permanent disk used for amplitudes=    11516536 words.
 Estimated scratch disk usage=   321863743 words.
 IMap=   1   2   3   4   5   6   7   8   9  10  11  12  13  14  15  16
 Actual    scratch disk usage=   310892607 words.
 JobTyp=1 Pass  1:  I=   5 to  16 NPSUse= 28 ParTrn=T ParDer=T DoDerP=T.
 (rs|ai) integrals will be sorted in core.
 Spin components of T(2) and E(2):
     alpha-alpha T2 =       0.3506222857D-01 E2=     -0.1248335464D+00
     alpha-beta  T2 =       0.1858516244D+00 E2=     -0.7011933702D+00
     beta-beta   T2 =       0.3506222857D-01 E2=     -0.1248335464D+00
 The integrals were generated   1 times.
 ANorm=    0.1120703387D+01
 E2 =    -0.9508604631D+00 EUMP2 =    -0.28045506988035D+03
 Leave Link  906 at Sun Mar  6 19:14:51 2022, MaxMem= 16106127360 cpu:            2712.5 elap:              97.0
 (Enter /sw/contrib/gaussian/g16/B01/g16/l1101.exe)
 Using compressed Sx but separate Hx and Fx, NAtomX=     5.
 Will process      6 centers per pass.
 Leave Link 1101 at Sun Mar  6 19:14:52 2022, MaxMem= 16106127360 cpu:               5.3 elap:               0.2
 (Enter /sw/contrib/gaussian/g16/B01/g16/l1102.exe)
 Leave Link 1102 at Sun Mar  6 19:14:52 2022, MaxMem= 16106127360 cpu:               1.6 elap:               0.1
 (Enter /sw/contrib/gaussian/g16/B01/g16/l1110.exe)
 Forming Gx(P) for the SCF density, NAtomX=     5.
 Integral derivatives from FoFJK, PRISM(SPDF).
 Do as many integral derivatives as possible in FoFJK.
 G2DrvN: MDV=   16106126844.
 G2DrvN: will do     6 centers at a time, making    1 passes.
 Calling FoFCou, ICntrl=  3107 FMM=F I1Cent=   0 AccDes= 0.00D+00.
 FoFJK:  IHMeth= 1 ICntrl=    3107 DoSepK=F KAlg= 0 I1Cent=           0 FoldK=F
 IRaf=         0 NMat=       1 IRICut=       1 DoRegI=T DoRafI=F ISym2E= 1 IDoP0=0 IntGTp=1.
 FoFCou: FMM=F IPFlag=           0 FMFlag=      100000 FMFlg1=           0
         NFxFlg=           0 DoJE=F BraDBF=F KetDBF=F FulRan=T
         wScrn=  0.000000 ICntrl=      3107 IOpCl=  0 I1Cent=           0 NGrid=           0
         NMat0=    1 NMatS0=      1 NMatT0=    0 NMatD0=    1 NMtDS0=    0 NMtDT0=    0
 Petite list used in FoFCou.
 End of G2Drv F.D. properties file   721 does not exist.
 End of G2Drv F.D. properties file   722 does not exist.
 End of G2Drv F.D. properties file   788 does not exist.
 Leave Link 1110 at Sun Mar  6 19:14:55 2022, MaxMem= 16106127360 cpu:              86.6 elap:               3.1
 (Enter /sw/contrib/gaussian/g16/B01/g16/l1002.exe)
 Minotr:  Closed shell wavefunction.
          IDoAtm=11111
          Frozen-core window.
          Direct CPHF calculation.
          Differentiating once with respect to electric field.
                with respect to dipole field.
          Differentiating once with respect to nuclear coordinates.
          Requested convergence is 1.0D-08 RMS, and 1.0D-07 maximum.
          Secondary convergence is 1.0D-12 RMS, and 1.0D-12 maximum.
          NewPWx=T KeepS1=T KeepF1=T KeepIn=T MapXYZ=F SortEE=F KeepMc=T.
 Keep R1 ints in memory in symmetry-blocked form, NReq=348888983.
 FoFCou: FMM=F IPFlag=           0 FMFlag=           0 FMFlg1=           0
         NFxFlg=           0 DoJE=F BraDBF=F KetDBF=F FulRan=T
         wScrn=  0.000000 ICntrl=       600 IOpCl=  0 I1Cent=           0 NGrid=           0
         NMat0=    1 NMatS0=  21528 NMatT0=    0 NMatD0=    1 NMtDS0=    0 NMtDT0=    0
 Petite list used in FoFCou.
          MDV=   16106127360 using IRadAn=       1.
          Solving linear equations simultaneously, MaxMat=       0.
          There are    18 degrees of freedom in the 1st order CPHF.  IDoFFX=6 NUNeed=    18.
     15 vectors produced by pass  0 Test12= 1.70D-14 5.56D-09 XBig12= 8.06D+00 1.27D+00.
 AX will form    15 AO Fock derivatives at one time.
     15 vectors produced by pass  1 Test12= 1.70D-14 5.56D-09 XBig12= 1.39D+00 2.32D-01.
     15 vectors produced by pass  2 Test12= 1.70D-14 5.56D-09 XBig12= 6.78D-02 5.83D-02.
     15 vectors produced by pass  3 Test12= 1.70D-14 5.56D-09 XBig12= 1.93D-03 1.01D-02.
     15 vectors produced by pass  4 Test12= 1.70D-14 5.56D-09 XBig12= 4.08D-05 1.26D-03.
     15 vectors produced by pass  5 Test12= 1.70D-14 5.56D-09 XBig12= 5.73D-07 1.11D-04.
     15 vectors produced by pass  6 Test12= 1.70D-14 5.56D-09 XBig12= 4.50D-09 1.09D-05.
     14 vectors produced by pass  7 Test12= 1.70D-14 5.56D-09 XBig12= 3.49D-11 7.83D-07.
      3 vectors produced by pass  8 Test12= 1.70D-14 5.56D-09 XBig12= 2.46D-13 6.20D-08.
      1 vectors produced by pass  9 Test12= 1.70D-14 5.56D-09 XBig12= 1.71D-15 6.40D-09.
 InvSVY:  IOpt=1 It=  1 EMax= 1.11D-15
 Solved reduced A of dimension   123 with    15 vectors.
 FullF1:  Do perturbations      1 to      18.
 Saving first derivative matrices.
 End of Minotr F.D. properties file   721 does not exist.
 End of Minotr F.D. properties file   722 does not exist.
 End of Minotr F.D. properties file   788 does not exist.
 Leave Link 1002 at Sun Mar  6 19:14:58 2022, MaxMem= 16106127360 cpu:              93.6 elap:               3.5
 (Enter /sw/contrib/gaussian/g16/B01/g16/l811.exe)
 MDV= 16106127360.
 Form MO integral derivatives with frozen-active canonical formalism.
 MOERI=1 MOERIx=1 NAtoms=     5 NAtomX=     5.
 Discarding MO integrals.
 MO basis two electron integral derivatives will not be stored on disk.
 IAlg= 3 DoFC=T DoPWx=T Debug=F.
 Frozen-core window:  NFC=   4 NFV=   0.
 Reordered first order wavefunction length =     18678272
 In DefCFB: NBatch=  1 ICI= 16 ICA=191 LFMax= 96
            Large arrays: LIAPS=   619940160 LIARS=   288257200 words.
 In StABat: MaxSiz= 55 MinSiz= 25 NAtomB=  5
 DoIAMN: NPSUse= 28.
 Leave Link  811 at Sun Mar  6 19:16:20 2022, MaxMem= 16106127360 cpu:            2270.9 elap:              81.2
 (Enter /sw/contrib/gaussian/g16/B01/g16/l804.exe)
 Frozen-core window:  NFC=   4 NFV=   0.
 Closed-shell transformation, MDV= 16106127360 ITran=4 ISComp=1.
 Semi-Direct transformation.
 ModeAB=           2 MOrb=            16 LenV=   16104919981
 LASXX=     67341636 LTotXX=    67341636 LenRXX=    67341636
 LTotAB=    68301760 MaxLAS=    99807120 LenRXY=    99807120
 NonZer=   134683272 LenScr=   202817536 LnRSAI=           0
 LnScr1=           0 LExtra=           0 Total=    369966292
 MaxDsk=          -1 SrtSym=           F ITran=            4
 DoSDTr:  NPSUse= 28
 JobTyp=0 Pass  1:  I=   1 to  16.
 (rs|ai) integrals will be sorted in core.
 Complete sort for first half transformation.
 First half transformation complete.
 Begin second half transformation for I=  10.
 Begin second half transformation for I=  10.
 Complete sort for second half transformation.
 Second half transformation complete.
 Spin components of T(2) and E(2):
     alpha-alpha T2 =       0.3506222857D-01 E2=     -0.1248335464D+00
     alpha-beta  T2 =       0.1858516244D+00 E2=     -0.7011933702D+00
     beta-beta   T2 =       0.3506222857D-01 E2=     -0.1248335464D+00
 ANorm=    0.1584913929D+01
 E2 =    -0.9508604631D+00 EUMP2 =    -0.28045506988035D+03
 Leave Link  804 at Sun Mar  6 19:16:35 2022, MaxMem= 16106127360 cpu:             426.9 elap:              15.3
 (Enter /sw/contrib/gaussian/g16/B01/g16/l1002.exe)
 Minotr:  Closed shell wavefunction.
          Computing MP2/KS-MP2 derivatives.
          Using Z-Vector for PSCF gradient.
          Skipping F1 and S1 gradient terms here.
          IDoAtm=11111
          Frozen-core window.
          Using MO integrals in the linear equations.
          Forming densities via direct SCF.
          Differentiating once with respect to electric field.
                with respect to dipole field.
          Differentiating once with respect to nuclear coordinates.
          Using symmetry in CPHF.
          Requested convergence is 1.0D-10 RMS, and 1.0D-09 maximum.
          NewPWx=F KeepS1=T KeepF1=T KeepIn=T MapXYZ=F SortEE=F KeepMc=T.
          MDV=   16106127360 using IRadAn=       5.
          Solving linear equations separately, MaxMat=       0.
          There are     1 degrees of freedom in the 1st order CPHF.  IDoFFX=0 NUNeed=     1.
 FoFJK:  IHMeth= 1 ICntrl=       0 DoSepK=F KAlg= 0 I1Cent=           0 FoldK=F
 IRaf=         0 NMat=       1 IRICut=       1 DoRegI=T DoRafI=F ISym2E= 0 IDoP0=0 IntGTp=1.
 FoFCou: FMM=F IPFlag=           0 FMFlag=      100000 FMFlg1=           0
         NFxFlg=           0 DoJE=F BraDBF=F KetDBF=F FulRan=T
         wScrn=  0.000000 ICntrl=         0 IOpCl=  0 I1Cent=           0 NGrid=           0
         NMat0=    1 NMatS0=      1 NMatT0=    0 NMatD0=    1 NMtDS0=    0 NMtDT0=    0
 Symmetry not used in FoFCou.
 LinEq1:  Iter=  0 NonCon=     1 RMS=6.67D-03 Max=1.68D-01 NDo=     1
 LinEq1:  Iter=  1 NonCon=     1 RMS=2.05D-03 Max=3.19D-02 NDo=     1
 LinEq1:  Iter=  2 NonCon=     1 RMS=9.16D-04 Max=1.50D-02 NDo=     1
 LinEq1:  Iter=  3 NonCon=     1 RMS=3.98D-04 Max=8.77D-03 NDo=     1
 LinEq1:  Iter=  4 NonCon=     1 RMS=1.44D-04 Max=1.72D-03 NDo=     1
 LinEq1:  Iter=  5 NonCon=     1 RMS=8.07D-05 Max=1.40D-03 NDo=     1
 LinEq1:  Iter=  6 NonCon=     1 RMS=2.51D-05 Max=3.02D-04 NDo=     1
 LinEq1:  Iter=  7 NonCon=     1 RMS=8.74D-06 Max=1.21D-04 NDo=     1
 LinEq1:  Iter=  8 NonCon=     1 RMS=4.23D-06 Max=6.82D-05 NDo=     1
 LinEq1:  Iter=  9 NonCon=     1 RMS=1.10D-06 Max=1.29D-05 NDo=     1
 LinEq1:  Iter= 10 NonCon=     1 RMS=2.46D-07 Max=3.08D-06 NDo=     1
 LinEq1:  Iter= 11 NonCon=     1 RMS=5.28D-08 Max=8.26D-07 NDo=     1
 LinEq1:  Iter= 12 NonCon=     1 RMS=1.24D-08 Max=1.77D-07 NDo=     1
 LinEq1:  Iter= 13 NonCon=     1 RMS=2.20D-09 Max=2.70D-08 NDo=     1
 LinEq1:  Iter= 14 NonCon=     1 RMS=4.53D-10 Max=6.04D-09 NDo=     1
 LinEq1:  Iter= 15 NonCon=     0 RMS=9.32D-11 Max=9.91D-10 NDo=     1
 Linear equations converged to 1.000D-10 1.000D-09 after    15 iterations.
 End of Minotr F.D. properties file   721 does not exist.
 End of Minotr F.D. properties file   722 does not exist.
 End of Minotr F.D. properties file   788 does not exist.
 Leave Link 1002 at Sun Mar  6 19:16:37 2022, MaxMem= 16106127360 cpu:              65.6 elap:               2.4
 (Enter /sw/contrib/gaussian/g16/B01/g16/l1102.exe)
 Use density number 2.
 Symmetrizing basis deriv contribution to polar:
 IMax=3 JMax=2 DiffMx= 0.00D+00
 Leave Link 1102 at Sun Mar  6 19:16:37 2022, MaxMem= 16106127360 cpu:               0.6 elap:               0.0
 (Enter /sw/contrib/gaussian/g16/B01/g16/l1110.exe)
 Forming Gx(P) for generalized density number  2 NAtomX=     5.
 Integral derivatives from FoFJK, PRISM(SPDF).
 Do as many integral derivatives as possible in FoFJK.
 G2DrvN: MDV=   16106126844.
 G2DrvN: will do     6 centers at a time, making    1 passes.
 Calling FoFCou, ICntrl=  3107 FMM=F I1Cent=   0 AccDes= 0.00D+00.
 FoFJK:  IHMeth= 1 ICntrl=    3107 DoSepK=F KAlg= 0 I1Cent=           0 FoldK=F
 IRaf=         0 NMat=       1 IRICut=       1 DoRegI=T DoRafI=F ISym2E= 1 IDoP0=0 IntGTp=1.
 FoFCou: FMM=F IPFlag=           0 FMFlag=      100000 FMFlg1=           0
         NFxFlg=           0 DoJE=F BraDBF=F KetDBF=F FulRan=T
         wScrn=  0.000000 ICntrl=      3107 IOpCl=  0 I1Cent=           0 NGrid=           0
         NMat0=    1 NMatS0=      1 NMatT0=    0 NMatD0=    1 NMtDS0=    0 NMtDT0=    0
 Petite list used in FoFCou.
 End of G2Drv F.D. properties file   721 does not exist.
 End of G2Drv F.D. properties file   722 does not exist.
 End of G2Drv F.D. properties file   788 does not exist.
 Leave Link 1110 at Sun Mar  6 19:16:41 2022, MaxMem= 16106127360 cpu:              88.5 elap:               3.2
 (Enter /sw/contrib/gaussian/g16/B01/g16/l1112.exe)
 MP22nd: MDV=   16106127360
 This link is doing NAtomX=     5 total of    18 degrees of freedom.
 Using ON3 I/O method in MakUI.
 Frozen-core window:  NFC=   4 NFV=   0.
 Using Ix for Sx.
 Use MO integrals over full window.
 Using OV2 memory method for fx*t*t/D, MaxI=    16 DoOO2=F NP=  28.
 R2 and R3 integrals will be kept in memory, NReq=   915591705.
 FoFCou: FMM=F IPFlag=           0 FMFlag=           0 FMFlg1=           0
         NFxFlg=           0 DoJE=F BraDBF=F KetDBF=F FulRan=T
         wScrn=  0.000000 ICntrl=       600 IOpCl=  0 I1Cent=           0 NGrid=           0
         NMat0=    1 NMatS0=      1 NMatT0=    0 NMatD0=    1 NMtDS0=    0 NMtDT0=    0
 Symmetry not used in FoFCou.
 DD1Dir will call FoFMem   1 times, MxPair=       272
 NAB=   136 NAA=     0 NBB=     0.
 Symmetry is being used.
 FoFJK:  IHMeth= 1 ICntrl=       0 DoSepK=F KAlg= 0 I1Cent=           0 FoldK=F
 IRaf=         0 NMat=      18 IRICut=      45 DoRegI=T DoRafI=T ISym2E= 2 IDoP0=3 IntGTp=3.
 Discarding MO integrals.
 Leave Link 1112 at Sun Mar  6 19:17:16 2022, MaxMem= 16106127360 cpu:             972.0 elap:              35.1
 (Enter /sw/contrib/gaussian/g16/B01/g16/l601.exe)
 Copying SCF densities to generalized density rwf, IOpCl= 0 IROHF=0.

 **********************************************************************

            Population analysis using the MP2 Density.

 **********************************************************************

 Orbital symmetries:
       Occupied  (A') (A') (A') (A') (A') (A') (A') (A') (A') (A')
                 (A") (A') (A') (A") (A') (A")
       Virtual   (A') (A") (A') (A') (A") (A') (A') (A') (A") (A')
                 (A") (A') (A') (A') (A") (A') (A') (A") (A') (A')
                 (A') (A') (A') (A') (A") (A') (A') (A") (A') (A')
                 (A') (A") (A") (A') (A') (A') (A") (A') (A") (A')
                 (A") (A") (A') (A') (A") (A') (A') (A") (A') (A')
                 (A') (A") (A') (A') (A") (A') (A") (A') (A") (A')
                 (A') (A') (A") (A') (A') (A") (A') (A") (A') (A')
                 (A") (A') (A") (A") (A') (A') (A") (A') (A') (A')
                 (A") (A') (A') (A") (A') (A") (A") (A') (A') (A')
                 (A') (A') (A") (A") (A') (A') (A") (A") (A') (A')
                 (A") (A') (A") (A') (A") (A') (A') (A') (A") (A")
                 (A') (A') (A') (A') (A") (A') (A') (A') (A") (A')
                 (A") (A') (A") (A') (A") (A") (A') (A") (A') (A')
                 (A') (A') (A") (A') (A') (A") (A") (A') (A') (A')
                 (A") (A") (A') (A') (A') (A") (A') (A') (A') (A")
                 (A') (A') (A') (A") (A') (A") (A") (A') (A') (A")
                 (A') (A") (A') (A") (A") (A') (A') (A") (A") (A")
                 (A') (A") (A") (A') (A') (A") (A') (A') (A") (A')
                 (A') (A') (A') (A') (A') (A') (A') (A') (A') (A')
                 (A')
 The electronic state is 1-A'.
 Alpha  occ. eigenvalues --  -20.72250 -20.68666 -20.66933 -15.82795  -1.63800
 Alpha  occ. eigenvalues --   -1.50214  -1.29494  -0.96215  -0.83224  -0.75646
 Alpha  occ. eigenvalues --   -0.73829  -0.63728  -0.61849  -0.61561  -0.50681
 Alpha  occ. eigenvalues --   -0.49826
 Alpha virt. eigenvalues --    0.03514   0.05658   0.09503   0.10031   0.11999
 Alpha virt. eigenvalues --    0.12249   0.14932   0.15201   0.17718   0.18043
 Alpha virt. eigenvalues --    0.18976   0.21101   0.21664   0.24140   0.24614
 Alpha virt. eigenvalues --    0.26872   0.31259   0.31692   0.33806   0.34242
 Alpha virt. eigenvalues --    0.34601   0.39210   0.44917   0.48788   0.50500
 Alpha virt. eigenvalues --    0.51762   0.54446   0.56164   0.59457   0.61826
 Alpha virt. eigenvalues --    0.63713   0.69136   0.71735   0.72383   0.74109
 Alpha virt. eigenvalues --    0.76436   0.76740   0.79538   0.80558   0.83833
 Alpha virt. eigenvalues --    0.84244   0.85140   0.88402   0.90713   0.92965
 Alpha virt. eigenvalues --    0.94538   0.95425   1.01794   1.03257   1.06334
 Alpha virt. eigenvalues --    1.06585   1.09493   1.14406   1.15643   1.16770
 Alpha virt. eigenvalues --    1.22117   1.22688   1.24522   1.35470   1.36088
 Alpha virt. eigenvalues --    1.37006   1.46816   1.48464   1.50457   1.54286
 Alpha virt. eigenvalues --    1.59597   1.59686   1.60410   1.62776   1.69324
 Alpha virt. eigenvalues --    1.74036   1.79893   1.82978   1.88468   1.89473
 Alpha virt. eigenvalues --    1.93102   1.97807   1.98922   2.05495   2.12126
 Alpha virt. eigenvalues --    2.12980   2.16500   2.18897   2.24325   2.26004
 Alpha virt. eigenvalues --    2.29342   2.35159   2.36521   2.38493   2.39824
 Alpha virt. eigenvalues --    2.43216   2.47062   2.47859   2.53005   2.53686
 Alpha virt. eigenvalues --    2.54648   2.55516   2.61184   2.62965   2.66835
 Alpha virt. eigenvalues --    2.66937   2.75102   2.80722   2.81394   2.83912
 Alpha virt. eigenvalues --    2.91767   2.98150   3.04212   3.04906   3.11405
 Alpha virt. eigenvalues --    3.11944   3.17204   3.21301   3.30596   3.33219
 Alpha virt. eigenvalues --    3.35955   3.47606   3.66809   3.86831   3.93120
 Alpha virt. eigenvalues --    4.18401   4.22037   4.22234   4.24840   4.36869
 Alpha virt. eigenvalues --    4.49537   4.52822   4.54489   4.59771   4.69034
 Alpha virt. eigenvalues --    4.80487   4.89651   4.91467   4.93678   5.00046
 Alpha virt. eigenvalues --    5.00634   5.10426   5.12471   5.17898   5.23972
 Alpha virt. eigenvalues --    5.25679   5.31494   5.34255   5.35735   5.55607
 Alpha virt. eigenvalues --    5.62751   5.69965   5.89341   5.98765   6.26315
 Alpha virt. eigenvalues --    6.29371   6.35869   6.37493   6.59658   6.65756
 Alpha virt. eigenvalues --    6.65792   6.68801   6.72145   6.80124   6.80372
 Alpha virt. eigenvalues --    6.84260   6.96399   7.02022   7.06498   7.07747
 Alpha virt. eigenvalues --    7.13274   7.16888   7.17014   7.19924   7.23207
 Alpha virt. eigenvalues --    7.24532   7.26011   7.34517   7.38539   7.42317
 Alpha virt. eigenvalues --    7.43842   7.45185   7.54058   7.66191   7.66243
 Alpha virt. eigenvalues --    7.78930   7.87984   7.94713   8.05176   8.30598
 Alpha virt. eigenvalues --    8.49923   8.64706  13.59215  14.67088  15.06129
 Alpha virt. eigenvalues --   15.50144
          Condensed to atoms (all electrons):
               1          2          3          4          5
     1  H    0.577119   0.124345   0.024357  -0.000645  -0.004058
     2  O    0.124345   8.389255  -0.229807  -0.000228  -0.010206
     3  O    0.024357  -0.229807   8.362643  -0.167511  -0.030171
     4  N   -0.000645  -0.000228  -0.167511   7.130041  -0.115957
     5  O   -0.004058  -0.010206  -0.030171  -0.115957   8.360704
 Mulliken charges:
               1
     1  H    0.278882
     2  O   -0.273359
     3  O    0.040489
     4  N    0.154300
     5  O   -0.200312
 Sum of Mulliken charges =  -0.00000
 Mulliken charges with hydrogens summed into heavy atoms:
               1
     2  O    0.005523
     3  O    0.040489
     4  N    0.154300
     5  O   -0.200312
 APT charges:
               1
     1  H    0.272014
     2  O   -0.301715
     3  O   -0.304191
     4  N    0.629623
     5  O   -0.295731
 Sum of APT charges =  -0.00000
 APT charges with hydrogens summed into heavy atoms:
               1
     2  O   -0.029700
     3  O   -0.304191
     4  N    0.629623
     5  O   -0.295731
 Electronic spatial extent (au):  <R**2>=            207.8662
 Charge=             -0.0000 electrons
 Dipole moment (field-independent basis, Debye):
    X=              0.0795    Y=             -1.0421    Z=              0.0000  Tot=              1.0452
 Quadrupole moment (field-independent basis, Debye-Ang):
   XX=            -23.4007   YY=            -22.9568   ZZ=            -21.9571
   XY=             -2.0004   XZ=              0.0000   YZ=              0.0000
 Traceless Quadrupole moment (field-independent basis, Debye-Ang):
   XX=             -0.6292   YY=             -0.1853   ZZ=              0.8144
   XY=             -2.0004   XZ=              0.0000   YZ=              0.0000
 Octapole moment (field-independent basis, Debye-Ang**2):
  XXX=              2.6667  YYY=              0.3950  ZZZ=              0.0000  XYY=              2.3956
  XXY=             -2.7579  XXZ=              0.0000  XZZ=             -0.5495  YZZ=             -0.6676
  YYZ=              0.0000  XYZ=              0.0000
 Hexadecapole moment (field-independent basis, Debye-Ang**3):
 XXXX=           -127.0375 YYYY=            -95.5731 ZZZZ=            -18.0779 XXXY=            -21.6932
 XXXZ=              0.0000 YYYX=            -19.9022 YYYZ=              0.0000 ZZZX=              0.0000
 ZZZY=              0.0000 XXYY=            -35.8198 XXZZ=            -24.3578 YYZZ=            -18.7206
 XXYZ=              0.0000 YYXZ=              0.0000 ZZXY=             -5.9500
 N-N= 1.224143519207D+02 E-N=-9.063568191707D+02  KE= 2.801574486425D+02
 Symmetry A'   KE= 2.663147963505D+02
 Symmetry A"   KE= 1.384265229195D+01
  Exact polarizability:  31.015   4.219  30.116   0.000   0.000  17.653
 Approx polarizability:  24.638   0.495  27.976  -0.000  -0.000  15.569
 No NMR shielding tensors so no spin-rotation constants.
 Leave Link  601 at Sun Mar  6 19:17:16 2022, MaxMem= 16106127360 cpu:               4.1 elap:               0.2
 (Enter /sw/contrib/gaussian/g16/B01/g16/l701.exe)
 ... and contract with generalized density number  2.
 Compute integral second derivatives.
 Leave Link  701 at Sun Mar  6 19:17:16 2022, MaxMem= 16106127360 cpu:               5.9 elap:               0.2
 (Enter /sw/contrib/gaussian/g16/B01/g16/l702.exe)
 L702 exits ... SP integral derivatives will be done elsewhere.
 Leave Link  702 at Sun Mar  6 19:17:16 2022, MaxMem= 16106127360 cpu:               0.5 elap:               0.0
 (Enter /sw/contrib/gaussian/g16/B01/g16/l703.exe)
 Integral derivatives from FoFJK, PRISM(SPDF).
 Compute integral second derivatives, UseDBF=F ICtDFT=           0.
 Calling FoFJK, ICntrl=  10100127 FMM=F ISym2X=1 I1Cent= 0 IOpClX= 0 NMat=1 NMatS=1 NMatT=0.
 FoFJK:  IHMeth= 1 ICntrl=10100127 DoSepK=F KAlg= 0 I1Cent=           0 FoldK=F
 IRaf=         0 NMat=       1 IRICut=       1 DoRegI=T DoRafI=F ISym2E= 1 IDoP0=0 IntGTp=1.
 FoFCou: FMM=F IPFlag=           0 FMFlag=      100000 FMFlg1=         800
         NFxFlg=           0 DoJE=F BraDBF=F KetDBF=F FulRan=T
         wScrn=  0.000000 ICntrl=  10100127 IOpCl=  0 I1Cent=           0 NGrid=           0
         NMat0=    1 NMatS0=      1 NMatT0=    0 NMatD0=    1 NMtDS0=    0 NMtDT0=    0
 Petite list used in FoFCou.
 Leave Link  703 at Sun Mar  6 19:17:32 2022, MaxMem= 16106127360 cpu:             445.0 elap:              15.9
 (Enter /sw/contrib/gaussian/g16/B01/g16/l716.exe)
 Dipole        = 3.12722244D-02-4.10006775D-01 0.00000000D+00
 Polarizability= 3.10154576D+01 4.21923719D+00 3.01161646D+01
                 0.00000000D+00 0.00000000D+00 1.76531505D+01
 Full mass-weighted force constant matrix:
 Low frequencies ---   -0.0013   -0.0011   -0.0010   27.1866   60.6792  101.3119
 Low frequencies ---  359.9805  398.3343  534.3818
 Diagonal vibrational polarizability:
        7.1515102       9.8822749      15.7132932
 Harmonic frequencies (cm**-1), IR intensities (KM/Mole), Raman scattering
 activities (A**4/AMU), depolarization ratios for plane and unpolarized
 incident light, reduced masses (AMU), force constants (mDyne/A),
 and normal coordinates:
                      1                      2                      3
                     A"                     A'                     A"
 Frequencies --    359.8555               398.2584               534.0964
 Red. masses --      1.5103                 7.0167                 3.0828
 Frc consts  --      0.1152                 0.6557                 0.5181
 IR Inten    --     64.9911                 8.2434                23.3959
  Atom  AN      X      Y      Z        X      Y      Z        X      Y      Z
     1   1     0.00   0.00   0.98    -0.73  -0.25   0.00     0.00   0.00   0.92
     2   8     0.00   0.00  -0.11    -0.33  -0.31  -0.00     0.00   0.00   0.06
     3   8     0.00  -0.00   0.11    -0.07   0.08   0.00     0.00  -0.00  -0.19
     4   7    -0.00  -0.00  -0.10     0.06   0.10  -0.00    -0.00  -0.00   0.28
     5   8    -0.00  -0.00   0.02     0.39   0.16  -0.00    -0.00   0.00  -0.17
                      4                      5                      6
                     A'                     A'                     A'
 Frequencies --    716.2824               836.7884               968.0304
 Red. masses --     13.0894                12.4740                 9.8919
 Frc consts  --      3.9567                 5.1462                 5.4615
 IR Inten    --    211.5352                35.8285                13.7186
  Atom  AN      X      Y      Z        X      Y      Z        X      Y      Z
     1   1    -0.38   0.01  -0.00     0.43  -0.16   0.00    -0.62  -0.01   0.00
     2   8    -0.02  -0.08  -0.00     0.53  -0.21  -0.00     0.20  -0.17   0.00
     3   8     0.37   0.58   0.00    -0.38  -0.01   0.00    -0.37   0.40  -0.00
     4   7    -0.39  -0.45  -0.00    -0.44  -0.07  -0.00     0.38   0.06   0.00
     5   8     0.01  -0.11   0.00     0.21   0.29   0.00    -0.13  -0.29  -0.00
                      7                      8                      9
                     A'                     A'                     A'
 Frequencies --   1423.0379              1514.1921              3486.0345
 Red. masses --      1.5784                 3.4686                 1.0638
 Frc consts  --      1.8832                 4.6856                 7.6167
 IR Inten    --     78.4399               138.9611                42.9943
  Atom  AN      X      Y      Z        X      Y      Z        X      Y      Z
     1   1     0.96  -0.20   0.00    -0.89   0.19  -0.00     0.15   0.99  -0.00
     2   8    -0.07  -0.05   0.00     0.04   0.03  -0.00    -0.01  -0.06   0.00
     3   8    -0.03   0.06  -0.00    -0.02  -0.06   0.00     0.00  -0.00  -0.00
     4   7     0.10  -0.10   0.00     0.16  -0.27  -0.00    -0.00   0.00  -0.00
     5   8    -0.04   0.09  -0.00    -0.10   0.25   0.00     0.00  -0.00   0.00

 -------------------
 - Thermochemistry -
 -------------------
 Temperature   298.150 Kelvin.  Pressure   1.00000 Atm.
 Atom     1 has atomic number  1 and mass   1.00783
 Atom     2 has atomic number  8 and mass  15.99491
 Atom     3 has atomic number  8 and mass  15.99491
 Atom     4 has atomic number  7 and mass  14.00307
 Atom     5 has atomic number  8 and mass  15.99491
 Molecular mass:    62.99564 amu.
 Principal axes and moments of inertia in atomic units:
                           1         2         3
     Eigenvalues --    85.29754 223.08926 308.38680
           X            0.79311  -0.60908   0.00000
           Y            0.60908   0.79311   0.00000
           Z            0.00000   0.00000   1.00000
 This molecule is an asymmetric top.
 Rotational symmetry number  1.
 Rotational temperatures (Kelvin)      1.01543     0.38825     0.28086
 Rotational constants (GHZ):          21.15818     8.08977     5.85220
 Zero-point vibrational energy      61228.3 (Joules/Mol)
                                   14.63392 (Kcal/Mol)
 Warning -- explicit consideration of   3 degrees of freedom as
           vibrations may cause significant error
 Vibrational temperatures:    517.75   573.00   768.45  1030.57  1203.95
          (Kelvin)           1392.78  2047.43  2178.58  5015.63
 
 Zero-point correction=                           0.023321 (Hartree/Particle)
 Thermal correction to Energy=                    0.027243
 Thermal correction to Enthalpy=                  0.028187
 Thermal correction to Gibbs Free Energy=        -0.002649
 Sum of electronic and zero-point Energies=           -280.431749
 Sum of electronic and thermal Energies=              -280.427827
 Sum of electronic and thermal Enthalpies=            -280.426883
 Sum of electronic and thermal Free Energies=         -280.457719
 
                     E (Thermal)             CV                S
                      KCal/Mol        Cal/Mol-Kelvin    Cal/Mol-Kelvin
 Total                   17.095             12.138             64.899
 Electronic               0.000              0.000              0.000
 Translational            0.889              2.981             38.341
 Rotational               0.889              2.981             23.288
 Vibrational             15.318              6.176              3.270
 Vibration     1          0.734              1.555              1.123
 Vibration     2          0.765              1.474              0.969
 Vibration     3          0.889              1.175              0.578
                       Q            Log10(Q)             Ln(Q)
 Total Bot       0.165356D+02          1.218420          2.805516
 Total V=0       0.881370D+12         11.945158         27.504744
 Vib (Bot)       0.306831D-10        -10.513101        -24.207309
 Vib (Bot)    1  0.509393D+00         -0.292947         -0.674535
 Vib (Bot)    2  0.448109D+00         -0.348617         -0.802720
 Vib (Bot)    3  0.298294D+00         -0.525356         -1.209676
 Vib (V=0)       0.163545D+01          0.213638          0.491919
 Vib (V=0)    1  0.121378D+01          0.084140          0.193739
 Vib (V=0)    2  0.117142D+01          0.068712          0.158214
 Vib (V=0)    3  0.108222D+01          0.034315          0.079014
 Electronic      0.100000D+01          0.000000          0.000000
 Translational   0.196526D+08          7.293420         16.793719
 Rotational      0.274221D+05          4.438101         10.219105
 
                                                                title
                                                             IR Spectrum
 
     3                                                                       1   1                                                   
     4                                                                       5   4               9    8   7      5    33             
     8                                                                       1   2               6    3   1      3    96             
     6                                                                       4   3               8    7   6      4    80             
 
     X                                                                       X   X               X    X   X      X    XX             
     X                                                                       X   X                    X   X      X     X             
     X                                                                       X   X                    X   X            X             
     X                                                                       X   X                        X            X             
                                                                             X   X                        X            X             
                                                                             X   X                        X            X             
                                                                             X   X                        X                          
                                                                             X                            X                          
                                                                             X                            X                          
                                                                             X                            X                          
                                                                             X                            X                          
                                                                             X                            X                          
                                                                             X                            X                          
                                                                                                          X                          
                                                                                                          X                          
                                                                                                          X                          
                                                                                                          X                          
                                                                                                          X                          
                                                                                                          X                          
                                                                                                          X                          
 
 ***** Axes restored to original set *****
 -------------------------------------------------------------------
 Center     Atomic                   Forces (Hartrees/Bohr)
 Number     Number              X              Y              Z
 -------------------------------------------------------------------
      1        1           0.000277218   -0.000000000   -0.000301060
      2        8           0.000054039   -0.000000000    0.000573488
      3        8           0.000727225   -0.000000000   -0.003781603
      4        7          -0.008077024   -0.000000000   -0.010055985
      5        8           0.007018543   -0.000000000    0.013565160
 -------------------------------------------------------------------
 Cartesian Forces:  Max     0.013565160 RMS     0.005259679
 -----------------------------------------------------------------------------------------------
                       Internal Coordinate Forces (Hartree/Bohr or radian)
  Cent   Atom   N1       Length/X         N2         Alpha/Y        N3         Beta/Z          J
 -----------------------------------------------------------------------------------------------
      1  H 
      2  O        1   0.000301(     1)
      3  O        2  -0.000376(     2)      1  -0.000516(     5)
      4  N        3  -0.003505(     3)      2   0.000041(     6)      1   0.000000(     8)     0
      5  O        4  -0.015225(     4)      3  -0.002754(     7)      2   0.000000(     9)     0
 -----------------------------------------------------------------------------------------------
 Internal  Forces:  Max     0.015225456 RMS     0.005293487
 Force constants in Cartesian coordinates: 
                1             2             3             4             5 
      1  0.720541D-01
      2  0.000000D+00  0.619341D-02
      3  0.244956D-01  0.000000D+00  0.436235D+00
      4 -0.519846D-01  0.000000D+00 -0.454455D-02  0.280406D+00
      5  0.000000D+00 -0.242794D-02  0.000000D+00  0.000000D+00  0.123835D-01
      6  0.320365D-01  0.000000D+00 -0.420147D+00 -0.131185D-01  0.000000D+00
      7 -0.250278D-01  0.000000D+00 -0.159025D-01 -0.170047D+00  0.000000D+00
      8  0.000000D+00 -0.418354D-02  0.000000D+00  0.000000D+00 -0.193863D-01
      9 -0.439246D-01  0.000000D+00 -0.201468D-01  0.111387D-01  0.000000D+00
     10 -0.565226D-02  0.000000D+00  0.623397D-02 -0.837981D-01  0.000000D+00
     11  0.000000D+00  0.796664D-02  0.000000D+00  0.000000D+00  0.199258D-01
     12 -0.189712D-01  0.000000D+00  0.120404D-01  0.105591D-01  0.000000D+00
     13  0.106106D-01  0.000000D+00 -0.102824D-01  0.254237D-01  0.000000D+00
     14  0.000000D+00 -0.754857D-02  0.000000D+00  0.000000D+00 -0.104951D-01
     15  0.636377D-02  0.000000D+00 -0.798211D-02 -0.403470D-02  0.000000D+00
                6             7             8             9            10 
      6  0.522601D+00
      7 -0.906320D-01  0.303992D+00
      8  0.000000D+00  0.000000D+00  0.426321D-01
      9 -0.962841D-01  0.800681D-01  0.000000D+00  0.314858D+00
     10  0.401905D-01 -0.142397D+00  0.000000D+00 -0.353988D-01  0.536511D+00
     11  0.000000D+00  0.000000D+00 -0.485511D-01  0.000000D+00  0.000000D+00
     12 -0.105671D-01  0.187230D-01  0.000000D+00 -0.304806D-01  0.213794D+00
     13  0.315235D-01  0.334794D-01  0.000000D+00 -0.118834D-01 -0.304663D+00
     14  0.000000D+00  0.000000D+00  0.294889D-01  0.000000D+00  0.000000D+00
     15  0.439670D-02  0.774337D-02  0.000000D+00 -0.167946D+00 -0.224820D+00
               11            12            13            14            15 
     11  0.638333D-01
     12  0.000000D+00  0.415524D+00
     13  0.000000D+00 -0.224105D+00  0.235150D+00
     14 -0.431747D-01  0.000000D+00  0.000000D+00  0.317294D-01
     15  0.000000D+00 -0.386516D+00  0.214748D+00  0.000000D+00  0.558048D+00
 Force constants in internal coordinates: 
                1             2             3             4             5 
      1  0.436235D+00
      2  0.225776D-01  0.258165D+00
      3  0.562399D-02  0.169482D-01  0.207571D+00
      4 -0.122096D-01  0.221639D-01  0.142121D+00  0.660576D+00
      5  0.458901D-01  0.561576D-01 -0.246469D-01  0.204996D-01  0.250399D+00
      6  0.131860D-01  0.218451D-01  0.919404D-01  0.928626D-02 -0.994623D-02
      7  0.102909D-01 -0.741954D-01  0.118770D+00  0.115184D+00 -0.239770D-01
      8  0.000000D+00  0.000000D+00  0.000000D+00  0.000000D+00  0.000000D+00
      9  0.000000D+00  0.000000D+00  0.000000D+00  0.000000D+00  0.000000D+00
                6             7             8             9 
      6  0.520079D+00
      7  0.631215D-01  0.654883D+00
      8  0.000000D+00  0.000000D+00  0.213785D-01
      9  0.000000D+00  0.000000D+00  0.287031D-01  0.109183D+00
 Leave Link  716 at Sun Mar  6 19:17:32 2022, MaxMem= 16106127360 cpu:               1.2 elap:               0.1
 (Enter /sw/contrib/gaussian/g16/B01/g16/l103.exe)

 GradGradGradGradGradGradGradGradGradGradGradGradGradGradGradGradGradGrad
 Berny optimization.
 Search for a local minimum.
 Step number   1 out of a maximum of    2
 All quantities printed in internal units (Hartrees-Bohrs-Radians)
 Second derivative matrix not updated -- analytic derivatives used.
 The second derivative matrix:
                          r1        r2        r3        r4        a1
           r1           0.43624
           r2           0.02258   0.25817
           r3           0.00562   0.01695   0.20757
           r4          -0.01221   0.02216   0.14212   0.66058
           a1           0.04589   0.05616  -0.02465   0.02050   0.25040
           a2           0.01319   0.02185   0.09194   0.00929  -0.00995
           a3           0.01029  -0.07420   0.11877   0.11518  -0.02398
           d1           0.00000   0.00000   0.00000   0.00000   0.00000
           d2           0.00000   0.00000   0.00000   0.00000   0.00000
                          a2        a3        d1        d2
           a2           0.52008
           a3           0.06312   0.65488
           d1           0.00000   0.00000   0.02138
           d2           0.00000   0.00000   0.02870   0.10918
 ITU=  0
     Eigenvalues ---    0.01283   0.11773   0.12492   0.20290   0.27261
     Eigenvalues ---    0.44891   0.51237   0.57917   0.84703
 Angle between quadratic step and forces=  13.64 degrees.
 Linear search not attempted -- first point.
 Variable       Old X    -DE/DX   Delta X   Delta X   Delta X     New X
                                 (Linear)    (Quad)   (Total)
    r1        1.86209   0.00030   0.00000   0.00007   0.00007   1.86216
    r2        2.69614  -0.00038   0.00000   0.00069   0.00069   2.69683
    r3        2.60992  -0.00351   0.00000  -0.00188  -0.00188   2.60804
    r4        2.28030  -0.01523   0.00000  -0.02268  -0.02268   2.25762
    a1        1.75642  -0.00052   0.00000  -0.00052  -0.00052   1.75590
    a2        1.97463   0.00004   0.00000   0.00076   0.00076   1.97539
    a3        1.99550  -0.00275   0.00000   0.00011   0.00011   1.99561
    d1        0.00000   0.00000   0.00000   0.00000   0.00000   0.00000
    d2        0.00000   0.00000   0.00000   0.00000   0.00000   0.00000
         Item               Value     Threshold  Converged?
 Maximum Force            0.015225     0.000450     NO 
 RMS     Force            0.005293     0.000300     NO 
 Maximum Displacement     0.022680     0.001800     NO 
 RMS     Displacement     0.007596     0.001200     NO 
 Predicted change in Energy=-1.758295D-04
                       ----------------------------
                       ! Non-Optimized Parameters !
                       ! (Angstroms and Degrees)  !
 ----------------------                            ----------------------
 !      Name          Value   Derivative information (Atomic Units)     !
 ------------------------------------------------------------------------
 !       r1          0.9854   -DE/DX =    0.0003                        !
 !       r2          1.4271   -DE/DX =   -0.0004                        !
 !       r3          1.3801   -DE/DX =   -0.0035                        !
 !       r4          1.1947   -DE/DX =   -0.0152                        !
 !       a1        100.6059   -DE/DX =   -0.0005                        !
 !       a2        113.1814   -DE/DX =    0.0                           !
 !       a3        114.3401   -DE/DX =   -0.0028                        !
 !       d1          0.0      -DE/DX =    0.0                           !
 !       d2          0.0      -DE/DX =    0.0                           !
 ------------------------------------------------------------------------
 GradGradGradGradGradGradGradGradGradGradGradGradGradGradGradGradGradGrad

 Leave Link  103 at Sun Mar  6 19:17:32 2022, MaxMem= 16106127360 cpu:               0.5 elap:               0.0
 (Enter /sw/contrib/gaussian/g16/B01/g16/l9999.exe)

 ----------------------------------------------------------------------

 Electric dipole moment (input orientation):
 (Debye = 10**-18 statcoulomb cm , SI units = C m)
                  (au)            (Debye)         (10**-30 SI)
   Tot        0.411198D+00      0.104516D+01      0.348628D+01
   x         -0.116988D+00     -0.297355D+00     -0.991868D+00
   y          0.000000D+00      0.000000D+00      0.000000D+00
   z         -0.394205D+00     -0.100197D+01     -0.334221D+01

 Dipole polarizability, Alpha (input orientation).
 (esu units = cm**3 , SI units = C**2 m**2 J**-1)
 Alpha(0;0):
               (au)            (10**-24 esu)      (10**-40 SI)
   iso        0.262616D+02      0.389157D+01      0.432995D+01
   aniso      0.148576D+02      0.220167D+01      0.244969D+01
   xx         0.292369D+02      0.433245D+01      0.482051D+01
   yx         0.000000D+00      0.000000D+00      0.000000D+00
   yy         0.176532D+02      0.261593D+01      0.291061D+01
   zx        -0.402964D+01     -0.597131D+00     -0.664398D+00
   zy         0.000000D+00      0.000000D+00      0.000000D+00
   zz         0.318948D+02      0.472632D+01      0.525874D+01

 ----------------------------------------------------------------------

 Dipole orientation:
     1         -0.00000000         -0.00000000         -0.00000000
     8         -0.52977692         -0.00000000         -1.78513948
     8          1.86897119         -0.00000000         -3.01606868
     7          3.87711492         -0.00000000         -1.34903057
     8          3.27296961          0.00000000          0.84978094

 Electric dipole moment (dipole orientation):
 (Debye = 10**-18 statcoulomb cm , SI units = C m)
                  (au)            (Debye)         (10**-30 SI)
   Tot        0.411198D+00      0.104516D+01      0.348628D+01
   x          0.000000D+00      0.000000D+00      0.000000D+00
   y          0.000000D+00      0.000000D+00      0.000000D+00
   z          0.411198D+00      0.104516D+01      0.348628D+01

 Dipole polarizability, Alpha (dipole orientation).
 (esu units = cm**3 , SI units = C**2 m**2 J**-1)
 Alpha(0;0):
               (au)            (10**-24 esu)      (10**-40 SI)
   iso        0.262616D+02      0.389157D+01      0.432995D+01
   aniso      0.148576D+02      0.220167D+01      0.244969D+01
   xx         0.316502D+02      0.469007D+01      0.521841D+01
   yx         0.000000D+00      0.000000D+00      0.000000D+00
   yy         0.176532D+02      0.261593D+01      0.291061D+01
   zx         0.410224D+01      0.607889D+00      0.676367D+00
   zy         0.000000D+00      0.000000D+00      0.000000D+00
   zz         0.294815D+02      0.436870D+01      0.486084D+01

 ----------------------------------------------------------------------
 1\1\GINC-N2109\Freq\RMP2-FC\Aug-CC-pVTZ\H1N1O3\CGAVINH\06-Mar-2022\1\\
 #p freq mp2/aug-cc-pvtz density=current\\title\\0,1\H\O,1,r1\O,2,r2,1,
 a1\N,3,r3,2,a2,1,d1,0\O,4,r4,3,a3,2,d2,0\\r1=0.98537664\r2=1.42673666\
 r3=1.38110764\r4=1.20668227\a1=100.6355057\a2=113.13777052\a3=114.3339
 2022\d1=0.\d2=0.\\Version=ES64L-G16RevB.01\State=1-A'\HF=-279.5042094\
 MP2=-280.4550699\RMSD=5.186e-09\RMSF=5.260e-03\ZeroPoint=0.0233206\The
 rmal=0.0272426\Dipole=-0.1169883,0.,-0.3942046\DipoleDeriv=0.3171951,0
 .,0.0382707,0.,0.2980015,0.,-0.0238873,0.,0.2008464,-0.5292314,0.,0.28
 56443,0.,-0.2529411,0.,-0.1064307,0.,-0.1229715,0.0127049,0.,0.3272434
 ,0.,-0.0052376,0.,0.4415969,0.,-0.9200414,0.1950618,0.,-0.1521634,0.,0
 .0101388,0.,-0.6643272,0.,1.6836685,0.0042696,0.,-0.4989949,0.,-0.0499
 618,0.,0.3530482,0.,-0.8415019\Polar=29.2368543,0.,17.6531505,-4.02964
 25,0.,31.8947678\Quadrupole=0.1597702,0.605513,-0.7652832,0.,1.4231244
 ,0.\PG=CS [SG(H1N1O3)]\NImag=0\\0.07205407,0.,0.00619341,0.02449556,0.
 ,0.43623525,-0.05198458,0.,-0.00454455,0.28040556,0.,-0.00242794,0.,0.
 ,0.01238355,0.03203653,0.,-0.42014672,-0.01311853,0.,0.52260117,-0.025
 02783,0.,-0.01590254,-0.17004659,0.,-0.09063199,0.30399232,0.,-0.00418
 354,0.,0.,-0.01938629,0.,0.,0.04263206,-0.04392463,0.,-0.02014680,0.01
 113870,0.,-0.09628409,0.08006812,0.,0.31485799,-0.00565226,0.,0.006233
 97,-0.08379809,0.,0.04019052,-0.14239725,0.,-0.03539881,0.53651106,0.,
 0.00796664,0.,0.,0.01992576,0.,0.,-0.04855108,0.,0.,0.06383333,-0.0189
 7124,0.,0.01204038,0.01055909,0.,-0.01056706,0.01872303,0.,-0.03048060
 ,0.21379428,0.,0.41552367,0.01061060,0.,-0.01028243,0.02542370,0.,0.03
 152347,0.03347935,0.,-0.01188338,-0.30466347,0.,-0.22410517,0.23514981
 ,0.,-0.00754857,0.,0.,-0.01049508,0.,0.,0.02948885,0.,0.,-0.04317465,0
 .,0.,0.03172945,0.00636377,0.,-0.00798211,-0.00403470,0.,0.00439670,0.
 00774337,0.,-0.16794649,-0.22481996,0.,-0.38651639,0.21474752,0.,0.558
 04828\\-0.00027722,0.,0.00030106,-0.00005404,0.,-0.00057349,-0.0007272
 3,0.,0.00378160,0.00807702,0.,0.01005599,-0.00701854,0.,-0.01356516\\\
 @


 EVERYTHING'S GOT A MORAL, IF ONLY YOU CAN FIND IT.

                                    -- LEWIS CARROL, ALICE IN WONDERLAND
 Job cpu time:       0 days  2 hours  1 minutes  4.5 seconds.
 Elapsed time:       0 days  0 hours  4 minutes 22.7 seconds.
 File lengths (MBytes):  RWF=   7239 Int=      0 D2E=      0 Chk=      8 Scr=      1
 Normal termination of Gaussian 16 at Sun Mar  6 19:17:33 2022.
