title                                                                   
Freq      RMP2-FC                                                     Aug-CC-pVTZ         
Number of atoms                            I                5
Info1-9                                    I   N=           9
          33          24           0           0           0         100
           6           2           1
Full Title                                 C   N=           1
title       
Route                                      C   N=           4
#p freq mp2/aug-cc-pvtz density=current         
Charge                                     I                0
Multiplicity                               I                1
Number of electrons                        I               32
Number of alpha electrons                  I               16
Number of beta electrons                   I               16
Number of basis functions                  I              207
Number of independent functions            I              207
Number of point charges in /Mol/           I                0
Number of translation vectors              I                0
Atomic numbers                             I   N=           5
           1           8           8           7           8
Nuclear charges                            R   N=           5
  1.00000000E+00  8.00000000E+00  8.00000000E+00  7.00000000E+00  8.00000000E+00
Current cartesian coordinates              R   N=          15
  2.92996122E+00  3.21225293E+00  1.59513033E-30  2.74778687E+00  1.36516662E+00
  6.22487777E-31  1.62057778E-16  1.27102675E+00  9.75731829E-31 -4.94576566E-01
 -1.44094705E+00 -4.64459183E-31 -2.68127753E+00 -1.77689631E+00 -1.29918348E-30
Number of symbols in /Mol/                 I                0
Force Field                                I                0
Atom Types                                 C   N=           5
                                                            
Int Atom Types                             I   N=           5
           0           0           0           0           0
MM charges                                 R   N=           5
  0.00000000E+00  0.00000000E+00  0.00000000E+00  0.00000000E+00  0.00000000E+00
Integer atomic weights                     I   N=           5
           1          16          16          14          16
Real atomic weights                        R   N=           5
  1.00782504E+00  1.59949146E+01  1.59949146E+01  1.40030740E+01  1.59949146E+01
Atom fragment info                         I   N=           5
           0           0           0           0           0
Atom residue num                           I   N=           5
           0           0           0           0           0
Nuclear spins                              I   N=           5
           1           0           0           2           0
Nuclear ZEff                               R   N=           5
 -1.00000000E+00 -5.60000000E+00 -5.60000000E+00 -4.55000000E+00 -5.60000000E+00
Nuclear ZNuc                               R   N=           5
  1.00000000E+00  8.00000000E+00  8.00000000E+00  7.00000000E+00  8.00000000E+00
Nuclear QMom                               R   N=           5
  0.00000000E+00  0.00000000E+00  0.00000000E+00  2.04400000E+00  0.00000000E+00
Nuclear GFac                               R   N=           5
  2.79284600E+00  0.00000000E+00  0.00000000E+00  4.03761000E-01  0.00000000E+00
MicOpt                                     I   N=           5
          -1          -1          -1          -1          -1
Number of residues                         I                0
Number of secondary structures             I                0
SymInf integers                            I   N=          26
           1           2           1           1           1           1
           1          -1           0           0           0           0
           0           0           0           0           0           0
           0           0           0           0           0           0
           0           0
RotTr to input orientation                 R   N=          12
 -9.95171462E-01  6.66475240E-16 -9.81517265E-02  9.81517265E-02 -9.18505672E-16
 -9.95171462E-01 -7.53410056E-16 -1.00000000E+00  8.48654937E-16  2.60052562E+00
  0.00000000E+00  3.48432319E+00
Number of contracted shells                I               65
Number of primitive shells                 I              119
Pure/Cartesian d shells                    I                0
Pure/Cartesian f shells                    I                0
Highest angular momentum                   I                3
Largest degree of contraction              I                7
Shell types                                I   N=          65
           0           0           0           0           1           1
           1          -2          -2           0           0           0
           0           0           1           1           1           1
          -2          -2          -2          -3          -3           0
           0           0           0           0           1           1
           1           1          -2          -2          -2          -3
          -3           0           0           0           0           0
           1           1           1           1          -2          -2
          -2          -3          -3           0           0           0
           0           0           1           1           1           1
          -2          -2          -2          -3          -3
Number of primitives per shell             I   N=          65
           3           1           1           1           1           1
           1           1           1           7           6           1
           1           1           3           1           1           1
           1           1           1           1           1           7
           6           1           1           1           3           1
           1           1           1           1           1           1
           1           7           6           1           1           1
           3           1           1           1           1           1
           1           1           1           7           6           1
           1           1           3           1           1           1
           1           1           1           1           1
Shell to atom map                          I   N=          65
           1           1           1           1           1           1
           1           1           1           2           2           2
           2           2           2           2           2           2
           2           2           2           2           2           3
           3           3           3           3           3           3
           3           3           3           3           3           3
           3           4           4           4           4           4
           4           4           4           4           4           4
           4           4           4           5           5           5
           5           5           5           5           5           5
           5           5           5           5           5
Primitive exponents                        R   N=         119
  3.38700000E+01  5.09500000E+00  1.15900000E+00  3.25800000E-01  1.02700000E-01
  2.52600000E-02  1.40700000E+00  3.88000000E-01  1.02000000E-01  1.05700000E+00
  2.47000000E-01  1.53300000E+04  2.29900000E+03  5.22400000E+02  1.47300000E+02
  4.75500000E+01  1.67600000E+01  6.20700000E+00  5.22400000E+02  1.47300000E+02
  4.75500000E+01  1.67600000E+01  6.20700000E+00  6.88200000E-01  1.75200000E+00
  2.38400000E-01  7.37600000E-02  3.44600000E+01  7.74900000E+00  2.28000000E+00
  7.15600000E-01  2.14000000E-01  5.97400000E-02  2.31400000E+00  6.45000000E-01
  2.14000000E-01  1.42800000E+00  5.00000000E-01  1.53300000E+04  2.29900000E+03
  5.22400000E+02  1.47300000E+02  4.75500000E+01  1.67600000E+01  6.20700000E+00
  5.22400000E+02  1.47300000E+02  4.75500000E+01  1.67600000E+01  6.20700000E+00
  6.88200000E-01  1.75200000E+00  2.38400000E-01  7.37600000E-02  3.44600000E+01
  7.74900000E+00  2.28000000E+00  7.15600000E-01  2.14000000E-01  5.97400000E-02
  2.31400000E+00  6.45000000E-01  2.14000000E-01  1.42800000E+00  5.00000000E-01
  1.14200000E+04  1.71200000E+03  3.89300000E+02  1.10000000E+02  3.55700000E+01
  1.25400000E+01  4.64400000E+00  3.89300000E+02  1.10000000E+02  3.55700000E+01
  1.25400000E+01  4.64400000E+00  5.11800000E-01  1.29300000E+00  1.78700000E-01
  5.76000000E-02  2.66300000E+01  5.94800000E+00  1.74200000E+00  5.55000000E-01
  1.72500000E-01  4.91000000E-02  1.65400000E+00  4.69000000E-01  1.51000000E-01
  1.09300000E+00  3.64000000E-01  1.53300000E+04  2.29900000E+03  5.22400000E+02
  1.47300000E+02  4.75500000E+01  1.67600000E+01  6.20700000E+00  5.22400000E+02
  1.47300000E+02  4.75500000E+01  1.67600000E+01  6.20700000E+00  6.88200000E-01
  1.75200000E+00  2.38400000E-01  7.37600000E-02  3.44600000E+01  7.74900000E+00
  2.28000000E+00  7.15600000E-01  2.14000000E-01  5.97400000E-02  2.31400000E+00
  6.45000000E-01  2.14000000E-01  1.42800000E+00  5.00000000E-01
Contraction coefficients                   R   N=         119
  2.54948632E-02  1.90362766E-01  8.52162022E-01  1.00000000E+00  1.00000000E+00
  1.00000000E+00  1.00000000E+00  1.00000000E+00  1.00000000E+00  1.00000000E+00
  1.00000000E+00  5.19808943E-04  4.02025621E-03  2.07128267E-02  8.10105536E-02
  2.35962985E-01  4.42653446E-01  3.57064423E-01 -4.42115008E-05 -1.22591041E-03
 -1.05517725E-02 -6.74452633E-02 -1.71198607E-01  1.07329856E+00  1.00000000E+00
  1.00000000E+00  1.00000000E+00  4.11634896E-02  2.57762836E-01  8.02419274E-01
  1.00000000E+00  1.00000000E+00  1.00000000E+00  1.00000000E+00  1.00000000E+00
  1.00000000E+00  1.00000000E+00  1.00000000E+00  5.19808943E-04  4.02025621E-03
  2.07128267E-02  8.10105536E-02  2.35962985E-01  4.42653446E-01  3.57064423E-01
 -4.42115008E-05 -1.22591041E-03 -1.05517725E-02 -6.74452633E-02 -1.71198607E-01
  1.07329856E+00  1.00000000E+00  1.00000000E+00  1.00000000E+00  4.11634896E-02
  2.57762836E-01  8.02419274E-01  1.00000000E+00  1.00000000E+00  1.00000000E+00
  1.00000000E+00  1.00000000E+00  1.00000000E+00  1.00000000E+00  1.00000000E+00
  5.34563860E-04  4.13435660E-03  2.12335358E-02  8.25006224E-02  2.38138871E-01
  4.42551547E-01  3.53757422E-01 -4.89867350E-05 -1.19527323E-03 -1.03490714E-02
 -6.48680190E-02 -1.71552477E-01  1.07289568E+00  1.00000000E+00  1.00000000E+00
  1.00000000E+00  3.98072123E-02  2.49002660E-01  8.10479727E-01  1.00000000E+00
  1.00000000E+00  1.00000000E+00  1.00000000E+00  1.00000000E+00  1.00000000E+00
  1.00000000E+00  1.00000000E+00  5.19808943E-04  4.02025621E-03  2.07128267E-02
  8.10105536E-02  2.35962985E-01  4.42653446E-01  3.57064423E-01 -4.42115008E-05
 -1.22591041E-03 -1.05517725E-02 -6.74452633E-02 -1.71198607E-01  1.07329856E+00
  1.00000000E+00  1.00000000E+00  1.00000000E+00  4.11634896E-02  2.57762836E-01
  8.02419274E-01  1.00000000E+00  1.00000000E+00  1.00000000E+00  1.00000000E+00
  1.00000000E+00  1.00000000E+00  1.00000000E+00  1.00000000E+00
Coordinates of each shell                  R   N=         195
  2.92996122E+00  3.21225293E+00  1.00341023E-30  2.92996122E+00  3.21225293E+00
  1.00341023E-30  2.92996122E+00  3.21225293E+00  1.00341023E-30  2.92996122E+00
  3.21225293E+00  1.00341023E-30  2.92996122E+00  3.21225293E+00  1.00341023E-30
  2.92996122E+00  3.21225293E+00  1.00341023E-30  2.92996122E+00  3.21225293E+00
  1.00341023E-30  2.92996122E+00  3.21225293E+00  1.00341023E-30  2.92996122E+00
  3.21225293E+00  1.00341023E-30  2.74778687E+00  1.36516662E+00  5.36877103E-31
  2.74778687E+00  1.36516662E+00  5.36877103E-31  2.74778687E+00  1.36516662E+00
  5.36877103E-31  2.74778687E+00  1.36516662E+00  5.36877103E-31  2.74778687E+00
  1.36516662E+00  5.36877103E-31  2.74778687E+00  1.36516662E+00  5.36877103E-31
  2.74778687E+00  1.36516662E+00  5.36877103E-31  2.74778687E+00  1.36516662E+00
  5.36877103E-31  2.74778687E+00  1.36516662E+00  5.36877103E-31  2.74778687E+00
  1.36516662E+00  5.36877103E-31  2.74778687E+00  1.36516662E+00  5.36877103E-31
  2.74778687E+00  1.36516662E+00  5.36877103E-31  2.74778687E+00  1.36516662E+00
  5.36877103E-31  2.74778687E+00  1.36516662E+00  5.36877103E-31 -4.26962097E-18
  1.27102675E+00  3.11819347E-31 -4.26962097E-18  1.27102675E+00  3.11819347E-31
 -4.26962097E-18  1.27102675E+00  3.11819347E-31 -4.26962097E-18  1.27102675E+00
  3.11819347E-31 -4.26962097E-18  1.27102675E+00  3.11819347E-31 -4.26962097E-18
  1.27102675E+00  3.11819347E-31 -4.26962097E-18  1.27102675E+00  3.11819347E-31
 -4.26962097E-18  1.27102675E+00  3.11819347E-31 -4.26962097E-18  1.27102675E+00
  3.11819347E-31 -4.26962097E-18  1.27102675E+00  3.11819347E-31 -4.26962097E-18
  1.27102675E+00  3.11819347E-31 -4.26962097E-18  1.27102675E+00  3.11819347E-31
 -4.26962097E-18  1.27102675E+00  3.11819347E-31 -4.26962097E-18  1.27102675E+00
  3.11819347E-31 -4.94576566E-01 -1.44094705E+00 -3.89857090E-31 -4.94576566E-01
 -1.44094705E+00 -3.89857090E-31 -4.94576566E-01 -1.44094705E+00 -3.89857090E-31
 -4.94576566E-01 -1.44094705E+00 -3.89857090E-31 -4.94576566E-01 -1.44094705E+00
 -3.89857090E-31 -4.94576566E-01 -1.44094705E+00 -3.89857090E-31 -4.94576566E-01
 -1.44094705E+00 -3.89857090E-31 -4.94576566E-01 -1.44094705E+00 -3.89857090E-31
 -4.94576566E-01 -1.44094705E+00 -3.89857090E-31 -4.94576566E-01 -1.44094705E+00
 -3.89857090E-31 -4.94576566E-01 -1.44094705E+00 -3.89857090E-31 -4.94576566E-01
 -1.44094705E+00 -3.89857090E-31 -4.94576566E-01 -1.44094705E+00 -3.89857090E-31
 -4.94576566E-01 -1.44094705E+00 -3.89857090E-31 -2.68127753E+00 -1.77689631E+00
 -6.32997774E-31 -2.68127753E+00 -1.77689631E+00 -6.32997774E-31 -2.68127753E+00
 -1.77689631E+00 -6.32997774E-31 -2.68127753E+00 -1.77689631E+00 -6.32997774E-31
 -2.68127753E+00 -1.77689631E+00 -6.32997774E-31 -2.68127753E+00 -1.77689631E+00
 -6.32997774E-31 -2.68127753E+00 -1.77689631E+00 -6.32997774E-31 -2.68127753E+00
 -1.77689631E+00 -6.32997774E-31 -2.68127753E+00 -1.77689631E+00 -6.32997774E-31
 -2.68127753E+00 -1.77689631E+00 -6.32997774E-31 -2.68127753E+00 -1.77689631E+00
 -6.32997774E-31 -2.68127753E+00 -1.77689631E+00 -6.32997774E-31 -2.68127753E+00
 -1.77689631E+00 -6.32997774E-31 -2.68127753E+00 -1.77689631E+00 -6.32997774E-31
Num ILSW                                   I              100
ILSW                                       I   N=         100
           0           0           0           0           2           0
           0           0           0           0           0          -1
           5           0           0           0           2           0
           0           0           0           0           1           0
           1           0           0           0           0           0
           0           0      100000           0          -1           0
           0           0           0           0           0           0
           0           0           0           1           1           0
           0 -2000000000           1           0           0           0
           0           0           4          52           0           0
           0           0           0           0           0           0
           0           0           0           5           4           1
           0           0           0           0           0           0
           0           0           0           0           0           0
           0           0           0           0           0           0
           0           0           0           0           0           0
           0           0           0           0
Num RLSW                                   I               52
RLSW                                       R   N=          52
  1.00000000E+00  1.00000000E+00  1.00000000E+00  1.00000000E+00  1.00000000E+00
  0.00000000E+00  0.00000000E+00  1.00000000E+00  0.00000000E+00  0.00000000E+00
  0.00000000E+00  0.00000000E+00  1.00000000E+00  0.00000000E+00  0.00000000E+00
  0.00000000E+00  0.00000000E+00  1.00000000E+00  0.00000000E+00  0.00000000E+00
  0.00000000E+00  0.00000000E+00  1.00000000E+00  0.00000000E+00  0.00000000E+00
  0.00000000E+00  0.00000000E+00  1.00000000E+00  0.00000000E+00  0.00000000E+00
  0.00000000E+00  0.00000000E+00  1.00000000E+00  0.00000000E+00  0.00000000E+00
  0.00000000E+00  0.00000000E+00  0.00000000E+00  1.00000000E+00  1.00000000E+00
  0.00000000E+00  1.00000000E+00  0.00000000E+00  0.00000000E+00  0.00000000E+00
  0.00000000E+00  0.00000000E+00  0.00000000E+00  0.00000000E+00  0.00000000E+00
  0.00000000E+00  0.00000000E+00
MxBond                                     I                2
NBond                                      I   N=           5
           1           2           2           2           1
IBond                                      I   N=          10
           2           0           1           3           2           4
           3           5           4           0
RBond                                      R   N=          10
  1.00000000E+00  0.00000000E+00  1.00000000E+00  1.00000000E+00  1.00000000E+00
  1.00000000E+00  1.00000000E+00  2.00000000E+00  2.00000000E+00  0.00000000E+00
Virial Ratio                               R      2.002437893037955E+00
SCF Energy                                 R     -2.795009007206475E+02
MP2 Energy                                 R     -2.804465799467541E+02
Total Energy                               R     -2.804465799467541E+02
Post-SCF wavefunction norm                 R      1.584560438978275E+00
RMS Force                                  R      4.433146573837736E-03
RMS Density                                R      3.792951821021167E-09
NImag                                      I                0
Job Status                                 I                1
Nuclear derivative order                   I                2
External E-field                           R   N=          35
  0.00000000E+00  0.00000000E+00  0.00000000E+00  0.00000000E+00  0.00000000E+00
  0.00000000E+00  0.00000000E+00  0.00000000E+00  0.00000000E+00  0.00000000E+00
  0.00000000E+00  0.00000000E+00  0.00000000E+00  0.00000000E+00  0.00000000E+00
  0.00000000E+00  0.00000000E+00  0.00000000E+00  0.00000000E+00  0.00000000E+00
  0.00000000E+00  0.00000000E+00  0.00000000E+00  0.00000000E+00  0.00000000E+00
  0.00000000E+00  0.00000000E+00  0.00000000E+00  0.00000000E+00  0.00000000E+00
  0.00000000E+00  0.00000000E+00  0.00000000E+00  0.00000000E+00  0.00000000E+00
IOpCl                                      I                0
IROHF                                      I                0
Alpha Orbital Energies                     R   N=         207
 -2.06905318E+01 -2.06840442E+01 -2.06609917E+01 -1.58125629E+01 -1.62372817E+00
 -1.49415703E+00 -1.25186817E+00 -9.47763669E-01 -7.71752661E-01 -7.58098284E-01
 -7.11485106E-01 -6.77321040E-01 -6.20066804E-01 -5.88793736E-01 -4.84776377E-01
 -4.72141331E-01  2.93725613E-02  7.18748514E-02  8.60014691E-02  1.01752435E-01
  1.33959973E-01  1.34054368E-01  1.43496032E-01  1.54052010E-01  1.78440116E-01
  1.94209771E-01  1.99850388E-01  2.06358319E-01  2.20859555E-01  2.35786081E-01
  2.37502635E-01  2.65707705E-01  2.93168700E-01  3.03307167E-01  3.09966750E-01
  3.43545713E-01  3.50450728E-01  3.86998114E-01  4.20161577E-01  4.30152966E-01
  5.27440276E-01  5.29419688E-01  5.58552713E-01  5.81852355E-01  6.26107918E-01
  6.38319116E-01  6.74636885E-01  6.83229714E-01  7.06441775E-01  7.10582427E-01
  7.23078398E-01  7.29417850E-01  7.44424116E-01  7.91896984E-01  7.91905787E-01
  8.10135921E-01  8.12872364E-01  8.30415992E-01  8.68422689E-01  9.08303041E-01
  9.21565573E-01  9.26107410E-01  9.55454615E-01  9.79031594E-01  9.82819779E-01
  1.01411172E+00  1.05258799E+00  1.05483409E+00  1.08117516E+00  1.11568656E+00
  1.13962842E+00  1.18991928E+00  1.21994532E+00  1.23011960E+00  1.33922707E+00
  1.35121543E+00  1.38642102E+00  1.44985512E+00  1.48407424E+00  1.50681308E+00
  1.53840903E+00  1.56687799E+00  1.58055488E+00  1.61185204E+00  1.66513235E+00
  1.67063483E+00  1.70318038E+00  1.79256654E+00  1.83091109E+00  1.83502583E+00
  1.87873212E+00  1.90833047E+00  1.94881738E+00  1.99170393E+00  2.00366850E+00
  2.07759592E+00  2.11931570E+00  2.13218274E+00  2.15032515E+00  2.22372862E+00
  2.26377723E+00  2.26598735E+00  2.28955788E+00  2.31308912E+00  2.34310506E+00
  2.38389546E+00  2.42438737E+00  2.42769495E+00  2.45424944E+00  2.46259310E+00
  2.47605133E+00  2.50041470E+00  2.59388675E+00  2.59607932E+00  2.62144548E+00
  2.62343371E+00  2.63501707E+00  2.67012461E+00  2.75736375E+00  2.82963615E+00
  2.85522150E+00  2.88359878E+00  2.89462047E+00  2.92286685E+00  2.95817788E+00
  3.02277028E+00  3.06731803E+00  3.12379345E+00  3.20495730E+00  3.22567517E+00
  3.31490352E+00  3.34039052E+00  3.51759275E+00  3.63771122E+00  3.83029741E+00
  3.83827036E+00  4.13701874E+00  4.15836125E+00  4.18104985E+00  4.25633832E+00
  4.34034640E+00  4.39022717E+00  4.45934517E+00  4.51411290E+00  4.66054246E+00
  4.70528791E+00  4.79901759E+00  4.80902078E+00  4.82583706E+00  4.89553972E+00
  5.02331806E+00  5.07744225E+00  5.08924428E+00  5.13416988E+00  5.17225481E+00
  5.22744398E+00  5.26173019E+00  5.30389015E+00  5.30617183E+00  5.35248548E+00
  5.59980904E+00  5.67369796E+00  5.76598910E+00  5.82245624E+00  5.95606555E+00
  6.17163251E+00  6.30846388E+00  6.34077378E+00  6.39148665E+00  6.49364237E+00
  6.50540473E+00  6.61173289E+00  6.66928643E+00  6.69929290E+00  6.75837888E+00
  6.76375384E+00  6.83234608E+00  6.89840532E+00  7.00477909E+00  7.05458514E+00
  7.05545616E+00  7.08805708E+00  7.12088818E+00  7.14690558E+00  7.17879967E+00
  7.22177100E+00  7.22376477E+00  7.29444742E+00  7.32516797E+00  7.34463302E+00
  7.39996042E+00  7.42906606E+00  7.48458892E+00  7.60700220E+00  7.61565753E+00
  7.62449913E+00  7.66218865E+00  7.77640230E+00  7.88680694E+00  8.08654876E+00
  8.30964348E+00  8.39312600E+00  8.54011009E+00  1.33872313E+01  1.43743588E+01
  1.49817348E+01  1.61526161E+01
Alpha MO coefficients                      R   N=       42849
  9.04725582E-05 -6.34630227E-04 -7.19072663E-04 -4.27929654E-06 -2.26063363E-05
 -2.80482832E-05  0.00000000E+00 -1.68666542E-05  7.39562417E-05  0.00000000E+00
  1.05790535E-04  4.14828744E-05  0.00000000E+00  3.15368653E-05  0.00000000E+00
  0.00000000E+00 -4.83168415E-05  1.81969258E-05 -2.59673625E-06  0.00000000E+00
  0.00000000E+00 -1.36119740E-04  1.02406384E-04  4.79975283E-03 -2.79045804E-04
  2.42800093E-05  1.56074635E-03  1.80992537E-03  1.05914792E-04  7.63882620E-06
  0.00000000E+00 -6.16670660E-04 -2.97278369E-05  0.00000000E+00 -1.13884002E-03
  7.82380549E-04  0.00000000E+00 -4.08938945E-04  5.18803802E-05  0.00000000E+00
  2.84195800E-05  0.00000000E+00  0.00000000E+00 -5.41372288E-05  6.57383867E-06
 -3.77413815E-04  0.00000000E+00  0.00000000E+00  7.35838128E-04 -3.77346003E-05
 -4.46930783E-04  0.00000000E+00  0.00000000E+00  2.44735357E-04 -2.64405098E-05
  0.00000000E+00  7.96285499E-05  1.25144738E-05  0.00000000E+00  0.00000000E+00
 -1.09885687E-04 -3.67731023E-06  0.00000000E+00  2.57029090E-04 -2.63160554E-05
  0.00000000E+00  0.00000000E+00 -3.47139730E-04  4.71163192E-05  9.76910326E-01
 -9.21474774E-03  4.33178593E-02  2.03123083E-03 -9.15449071E-04  1.49294545E-03
 -1.35554000E-03  0.00000000E+00 -1.43356553E-03  1.38430116E-03  0.00000000E+00
  7.93842904E-05 -1.16011339E-03  0.00000000E+00 -1.23874118E-04 -3.97295284E-07
  0.00000000E+00  4.61897274E-05  0.00000000E+00  0.00000000E+00 -3.52109859E-05
  2.11558313E-05  7.46748378E-04  0.00000000E+00  0.00000000E+00 -2.30461015E-04
 -3.89445252E-04 -3.59982869E-04  0.00000000E+00  0.00000000E+00 -3.12097021E-04
 -3.73803223E-04  0.00000000E+00  4.74246075E-05 -4.88224645E-05  0.00000000E+00
  0.00000000E+00 -3.88366100E-05 -1.58309453E-05  0.00000000E+00  2.27937931E-05
  2.12913544E-05  0.00000000E+00  0.00000000E+00 -3.04443366E-04 -1.38825320E-04
  3.90983569E-05  4.58263113E-05 -2.64694326E-04 -7.06314256E-04 -1.45285877E-04
 -2.72854677E-05 -9.75763673E-05  0.00000000E+00  2.73404773E-04  7.10752678E-04
  0.00000000E+00 -8.39833746E-04 -4.82216297E-04  0.00000000E+00 -1.30941898E-04
 -2.88161173E-05  0.00000000E+00 -1.81049702E-05  0.00000000E+00  0.00000000E+00
 -2.96845946E-05  1.52165916E-05 -3.28676684E-04  0.00000000E+00  0.00000000E+00
 -8.29589382E-04  1.28053524E-04 -3.51385756E-05  0.00000000E+00  0.00000000E+00
  9.58220729E-05 -1.18104647E-04  0.00000000E+00 -2.10318500E-05 -1.20303996E-04
  0.00000000E+00  0.00000000E+00 -6.25670467E-05 -1.37436259E-04  0.00000000E+00
  4.46558054E-06 -1.51809963E-04  0.00000000E+00  0.00000000E+00  4.47121324E-05
 -4.20637370E-04 -2.61487066E-03  1.21586406E-04 -1.25386927E-04 -2.42475239E-04
  1.41989908E-04 -8.17377625E-06 -2.79552222E-05  0.00000000E+00  7.00756750E-05
  1.64851290E-04  0.00000000E+00  2.36107008E-04  2.02700225E-04  0.00000000E+00
  1.28963574E-04  2.69119696E-05  0.00000000E+00 -3.38863318E-06  0.00000000E+00
  0.00000000E+00 -1.79219513E-05  1.14135218E-06  4.95997792E-07  0.00000000E+00
  0.00000000E+00  8.11659666E-05  8.86216501E-05 -1.00741970E-04  0.00000000E+00
  0.00000000E+00  1.67301172E-04  1.62886018E-04  0.00000000E+00  1.57620202E-05
 -3.52719812E-06  0.00000000E+00  0.00000000E+00 -4.23452941E-06 -1.19405287E-05
  0.00000000E+00 -3.35380673E-05  4.53493019E-05  0.00000000E+00  0.00000000E+00
  8.39971005E-05  9.02413788E-05  3.96504159E-05 -9.61528577E-04 -4.66610509E-04
 -1.03475852E-05 -2.17654528E-05  1.45477130E-05  0.00000000E+00  3.19711652E-06
  2.74835474E-04  0.00000000E+00 -4.03400859E-05  1.31230637E-04  0.00000000E+00
  2.56861818E-05  0.00000000E+00  0.00000000E+00  1.30167536E-05  1.10375938E-05
 -2.60351281E-05  0.00000000E+00  0.00000000E+00  1.21756288E-05  3.28390029E-05
  1.17299521E-04  8.20292347E-05 -2.82106438E-05  7.24337605E-04  6.32756756E-04
  1.02552024E-05  2.49843777E-06  0.00000000E+00 -7.36431153E-05  1.32328302E-05
  0.00000000E+00  3.28897401E-04  8.85254979E-04  0.00000000E+00  4.47912584E-06
  7.93198497E-05  0.00000000E+00 -2.21687196E-06  0.00000000E+00  0.00000000E+00
  1.44562009E-07 -6.02963094E-06 -3.54492793E-05  0.00000000E+00  0.00000000E+00
 -2.04678824E-05  8.22411045E-05 -2.24626141E-05  0.00000000E+00  0.00000000E+00
 -2.65483083E-04 -1.62106748E-04  0.00000000E+00  9.21151741E-06  6.05006638E-06
  0.00000000E+00  0.00000000E+00  2.79631328E-06 -1.88263507E-05  0.00000000E+00
 -4.01978330E-05 -3.83142243E-05  0.00000000E+00  0.00000000E+00 -7.60055779E-05
  1.88010508E-05  2.65371568E-03  3.92104163E-05  9.28009433E-05 -6.90891361E-05
 -4.66997164E-04  7.25971733E-06  1.56986360E-05  0.00000000E+00 -6.17029228E-05
 -5.51914941E-05  0.00000000E+00  2.35977940E-04 -1.86607735E-04  0.00000000E+00
 -1.86700239E-04 -6.33112981E-05  0.00000000E+00 -8.72000882E-06  0.00000000E+00
  0.00000000E+00  2.23900737E-05  1.97585732E-05  4.33867820E-06  0.00000000E+00
  0.00000000E+00 -1.17209785E-04 -4.63255093E-05 -4.38449462E-06  0.00000000E+00
  0.00000000E+00 -2.21282558E-04 -2.05733572E-04  0.00000000E+00  3.21789122E-06
 -5.59977947E-07  0.00000000E+00  0.00000000E+00  1.71876354E-06 -1.35343527E-05
  0.00000000E+00 -4.63331152E-05  3.59307800E-06  0.00000000E+00  0.00000000E+00
 -7.61258031E-05  1.87858683E-04  2.58676681E-04  1.46507395E-03 -7.80975387E-05
 -1.53915076E-03  4.02016281E-04 -1.44544161E-04  1.30278903E-07  0.00000000E+00
 -2.08864465E-03 -4.03537546E-04  0.00000000E+00  1.03564550E-03  7.62521742E-04
  0.00000000E+00 -1.69890283E-04  5.77622332E-05  0.00000000E+00 -1.23345602E-04
  0.00000000E+00  0.00000000E+00  2.43080532E-04  9.40505248E-05 -4.42101828E-04
  0.00000000E+00  0.00000000E+00  8.98831940E-04 -6.62782421E-05  1.16853199E-05
  0.00000000E+00  0.00000000E+00 -3.38285264E-04 -1.23887267E-04  0.00000000E+00
 -1.35909487E-06  1.52746765E-05  0.00000000E+00  0.00000000E+00  1.88996563E-05
  1.34556498E-05  0.00000000E+00  1.64835423E-04 -7.16633763E-05  0.00000000E+00
  0.00000000E+00 -2.40829502E-04  4.14774741E-05  9.76649084E-01 -9.84825486E-03
  4.35681060E-02  4.50012794E-03 -4.47028601E-04  2.14802265E-03  4.80580622E-04
  0.00000000E+00 -2.38383513E-03 -6.03163970E-04  0.00000000E+00  1.13953491E-03
 -4.28936971E-06  0.00000000E+00  4.16822202E-06 -4.32891703E-05  0.00000000E+00
 -2.32319210E-04  0.00000000E+00  0.00000000E+00  1.02712784E-04  3.18303485E-05
  3.90480228E-04  0.00000000E+00  0.00000000E+00 -8.33962669E-04 -4.18914699E-04
 -1.53877720E-04  0.00000000E+00  0.00000000E+00  2.56475693E-04  1.66380687E-05
  0.00000000E+00  5.22718274E-05  1.76734733E-05  0.00000000E+00  0.00000000E+00
 -2.21042625E-05 -1.32728396E-05  0.00000000E+00  1.38189564E-04  9.31941239E-06
  0.00000000E+00  0.00000000E+00 -1.89657244E-04 -1.40625288E-04  4.44204864E-04
  2.34137835E-03  2.93938451E-04  2.28786583E-05 -4.17765851E-05 -2.83031310E-04
  0.00000000E+00  9.79688425E-05 -1.41519161E-03  0.00000000E+00  3.03196667E-04
 -3.88506523E-04  0.00000000E+00 -2.99227311E-05  0.00000000E+00  0.00000000E+00
  2.74372288E-05  2.10076707E-05 -1.67357564E-04  0.00000000E+00  0.00000000E+00
 -5.47164271E-04 -2.39572183E-05  9.76835747E-01 -9.19558157E-03  4.34374139E-02
 -5.63652947E-05 -1.28924960E-03 -1.56302505E-03  1.44175585E-03  0.00000000E+00
  1.56563947E-03 -1.37157504E-03  0.00000000E+00 -6.21186508E-04 -1.03677772E-03
  0.00000000E+00  6.36753828E-05 -5.23314585E-05  0.00000000E+00  3.61965813E-05
  0.00000000E+00  0.00000000E+00 -1.08134330E-04 -3.86564062E-06  7.78518232E-04
  0.00000000E+00  0.00000000E+00 -1.61858611E-04 -2.47954671E-04 -2.51163685E-04
  0.00000000E+00  0.00000000E+00  2.09290741E-04  1.21907802E-04  0.00000000E+00
 -6.32883952E-05  9.26504422E-06  0.00000000E+00  0.00000000E+00  2.27414004E-05