title                                                                   
Freq      RMP2-FC                                                     Aug-CC-pVTZ         
Number of atoms                            I                5
Info1-9                                    I   N=           9
          33          24           0           0           0         100
           6           2           1
Full Title                                 C   N=           1
title       
Route                                      C   N=           4
#p freq mp2/aug-cc-pvtz density=current         
Charge                                     I                0
Multiplicity                               I                1
Number of electrons                        I               32
Number of alpha electrons                  I               16
Number of beta electrons                   I               16
Number of basis functions                  I              207
Number of independent functions            I              207
Number of point charges in /Mol/           I                0
Number of translation vectors              I                0
Atomic numbers                             I   N=           5
           1           8           8           7           8
Nuclear charges                            R   N=           5
  1.00000000E+00  8.00000000E+00  8.00000000E+00  7.00000000E+00  8.00000000E+00
Current cartesian coordinates              R   N=          15
 -1.02142853E+00 -2.15128118E+00  5.82489167E-02 -2.41338011E+00 -9.15508888E-01
  6.05522381E-03 -1.02584472E+00  1.39602008E+00 -2.14869023E-02  1.55927217E+00
  1.04108347E+00  3.18791344E-02  2.20254024E+00 -1.12254908E+00 -1.97436786E-02
Number of symbols in /Mol/                 I                0
Force Field                                I                0
Atom Types                                 C   N=           5
                                                            
Int Atom Types                             I   N=           5
           0           0           0           0           0
MM charges                                 R   N=           5
  0.00000000E+00  0.00000000E+00  0.00000000E+00  0.00000000E+00  0.00000000E+00
Integer atomic weights                     I   N=           5
           1          16          16          14          16
Real atomic weights                        R   N=           5
  1.00782504E+00  1.59949146E+01  1.59949146E+01  1.40030740E+01  1.59949146E+01
Atom fragment info                         I   N=           5
           0           0           0           0           0
Atom residue num                           I   N=           5
           0           0           0           0           0
Nuclear spins                              I   N=           5
           1           0           0           2           0
Nuclear ZEff                               R   N=           5
 -1.00000000E+00 -5.60000000E+00 -5.60000000E+00 -4.55000000E+00 -5.60000000E+00
Nuclear ZNuc                               R   N=           5
  1.00000000E+00  8.00000000E+00  8.00000000E+00  7.00000000E+00  8.00000000E+00
Nuclear QMom                               R   N=           5
  0.00000000E+00  0.00000000E+00  0.00000000E+00  2.04400000E+00  0.00000000E+00
Nuclear GFac                               R   N=           5
  2.79284600E+00  0.00000000E+00  0.00000000E+00  4.03761000E-01  0.00000000E+00
MicOpt                                     I   N=           5
          -1          -1          -1          -1          -1
Number of residues                         I                0
Number of secondary structures             I                0
SymInf integers                            I   N=          26
           1           1           1           1           1           0
           0           0           0           0           0           0
           0           0           0           0           0           0
           0           0           0           0           0           0
           0           0
RotTr to input orientation                 R   N=          12
  6.64006979E-01  1.75532252E-02 -7.47520312E-01  7.47708775E-01 -2.24469015E-02
  6.63647290E-01 -5.13036449E-03 -9.99593928E-01 -2.80295998E-02  2.28706633E+00
  2.78650316E-02  6.65786047E-01
Number of contracted shells                I               65
Number of primitive shells                 I              119
Pure/Cartesian d shells                    I                0
Pure/Cartesian f shells                    I                0
Highest angular momentum                   I                3
Largest degree of contraction              I                7
Shell types                                I   N=          65
           0           0           0           0           1           1
           1          -2          -2           0           0           0
           0           0           1           1           1           1
          -2          -2          -2          -3          -3           0
           0           0           0           0           1           1
           1           1          -2          -2          -2          -3
          -3           0           0           0           0           0
           1           1           1           1          -2          -2
          -2          -3          -3           0           0           0
           0           0           1           1           1           1
          -2          -2          -2          -3          -3
Number of primitives per shell             I   N=          65
           3           1           1           1           1           1
           1           1           1           7           6           1
           1           1           3           1           1           1
           1           1           1           1           1           7
           6           1           1           1           3           1
           1           1           1           1           1           1
           1           7           6           1           1           1
           3           1           1           1           1           1
           1           1           1           7           6           1
           1           1           3           1           1           1
           1           1           1           1           1
Shell to atom map                          I   N=          65
           1           1           1           1           1           1
           1           1           1           2           2           2
           2           2           2           2           2           2
           2           2           2           2           2           3
           3           3           3           3           3           3
           3           3           3           3           3           3
           3           4           4           4           4           4
           4           4           4           4           4           4
           4           4           4           5           5           5
           5           5           5           5           5           5
           5           5           5           5           5
Primitive exponents                        R   N=         119
  3.38700000E+01  5.09500000E+00  1.15900000E+00  3.25800000E-01  1.02700000E-01
  2.52600000E-02  1.40700000E+00  3.88000000E-01  1.02000000E-01  1.05700000E+00
  2.47000000E-01  1.53300000E+04  2.29900000E+03  5.22400000E+02  1.47300000E+02
  4.75500000E+01  1.67600000E+01  6.20700000E+00  5.22400000E+02  1.47300000E+02
  4.75500000E+01  1.67600000E+01  6.20700000E+00  6.88200000E-01  1.75200000E+00
  2.38400000E-01  7.37600000E-02  3.44600000E+01  7.74900000E+00  2.28000000E+00
  7.15600000E-01  2.14000000E-01  5.97400000E-02  2.31400000E+00  6.45000000E-01
  2.14000000E-01  1.42800000E+00  5.00000000E-01  1.53300000E+04  2.29900000E+03
  5.22400000E+02  1.47300000E+02  4.75500000E+01  1.67600000E+01  6.20700000E+00
  5.22400000E+02  1.47300000E+02  4.75500000E+01  1.67600000E+01  6.20700000E+00
  6.88200000E-01  1.75200000E+00  2.38400000E-01  7.37600000E-02  3.44600000E+01
  7.74900000E+00  2.28000000E+00  7.15600000E-01  2.14000000E-01  5.97400000E-02
  2.31400000E+00  6.45000000E-01  2.14000000E-01  1.42800000E+00  5.00000000E-01
  1.14200000E+04  1.71200000E+03  3.89300000E+02  1.10000000E+02  3.55700000E+01
  1.25400000E+01  4.64400000E+00  3.89300000E+02  1.10000000E+02  3.55700000E+01
  1.25400000E+01  4.64400000E+00  5.11800000E-01  1.29300000E+00  1.78700000E-01
  5.76000000E-02  2.66300000E+01  5.94800000E+00  1.74200000E+00  5.55000000E-01
  1.72500000E-01  4.91000000E-02  1.65400000E+00  4.69000000E-01  1.51000000E-01
  1.09300000E+00  3.64000000E-01  1.53300000E+04  2.29900000E+03  5.22400000E+02
  1.47300000E+02  4.75500000E+01  1.67600000E+01  6.20700000E+00  5.22400000E+02
  1.47300000E+02  4.75500000E+01  1.67600000E+01  6.20700000E+00  6.88200000E-01
  1.75200000E+00  2.38400000E-01  7.37600000E-02  3.44600000E+01  7.74900000E+00
  2.28000000E+00  7.15600000E-01  2.14000000E-01  5.97400000E-02  2.31400000E+00
  6.45000000E-01  2.14000000E-01  1.42800000E+00  5.00000000E-01
Contraction coefficients                   R   N=         119
  2.54948632E-02  1.90362766E-01  8.52162022E-01  1.00000000E+00  1.00000000E+00
  1.00000000E+00  1.00000000E+00  1.00000000E+00  1.00000000E+00  1.00000000E+00
  1.00000000E+00  5.19808943E-04  4.02025621E-03  2.07128267E-02  8.10105536E-02
  2.35962985E-01  4.42653446E-01  3.57064423E-01 -4.42115008E-05 -1.22591041E-03
 -1.05517725E-02 -6.74452633E-02 -1.71198607E-01  1.07329856E+00  1.00000000E+00
  1.00000000E+00  1.00000000E+00  4.11634896E-02  2.57762836E-01  8.02419274E-01
  1.00000000E+00  1.00000000E+00  1.00000000E+00  1.00000000E+00  1.00000000E+00
  1.00000000E+00  1.00000000E+00  1.00000000E+00  5.19808943E-04  4.02025621E-03
  2.07128267E-02  8.10105536E-02  2.35962985E-01  4.42653446E-01  3.57064423E-01
 -4.42115008E-05 -1.22591041E-03 -1.05517725E-02 -6.74452633E-02 -1.71198607E-01
  1.07329856E+00  1.00000000E+00  1.00000000E+00  1.00000000E+00  4.11634896E-02
  2.57762836E-01  8.02419274E-01  1.00000000E+00  1.00000000E+00  1.00000000E+00
  1.00000000E+00  1.00000000E+00  1.00000000E+00  1.00000000E+00  1.00000000E+00
  5.34563860E-04  4.13435660E-03  2.12335358E-02  8.25006224E-02  2.38138871E-01
  4.42551547E-01  3.53757422E-01 -4.89867350E-05 -1.19527323E-03 -1.03490714E-02
 -6.48680190E-02 -1.71552477E-01  1.07289568E+00  1.00000000E+00  1.00000000E+00
  1.00000000E+00  3.98072123E-02  2.49002660E-01  8.10479727E-01  1.00000000E+00
  1.00000000E+00  1.00000000E+00  1.00000000E+00  1.00000000E+00  1.00000000E+00
  1.00000000E+00  1.00000000E+00  5.19808943E-04  4.02025621E-03  2.07128267E-02
  8.10105536E-02  2.35962985E-01  4.42653446E-01  3.57064423E-01 -4.42115008E-05
 -1.22591041E-03 -1.05517725E-02 -6.74452633E-02 -1.71198607E-01  1.07329856E+00
  1.00000000E+00  1.00000000E+00  1.00000000E+00  4.11634896E-02  2.57762836E-01
  8.02419274E-01  1.00000000E+00  1.00000000E+00  1.00000000E+00  1.00000000E+00
  1.00000000E+00  1.00000000E+00  1.00000000E+00  1.00000000E+00
Coordinates of each shell                  R   N=         195
 -1.02142853E+00 -2.15128118E+00  5.82489167E-02 -1.02142853E+00 -2.15128118E+00
  5.82489167E-02 -1.02142853E+00 -2.15128118E+00  5.82489167E-02 -1.02142853E+00
 -2.15128118E+00  5.82489167E-02 -1.02142853E+00 -2.15128118E+00  5.82489167E-02
 -1.02142853E+00 -2.15128118E+00  5.82489167E-02 -1.02142853E+00 -2.15128118E+00
  5.82489167E-02 -1.02142853E+00 -2.15128118E+00  5.82489167E-02 -1.02142853E+00
 -2.15128118E+00  5.82489167E-02 -2.41338011E+00 -9.15508888E-01  6.05522381E-03
 -2.41338011E+00 -9.15508888E-01  6.05522381E-03 -2.41338011E+00 -9.15508888E-01
  6.05522381E-03 -2.41338011E+00 -9.15508888E-01  6.05522381E-03 -2.41338011E+00
 -9.15508888E-01  6.05522381E-03 -2.41338011E+00 -9.15508888E-01  6.05522381E-03
 -2.41338011E+00 -9.15508888E-01  6.05522381E-03 -2.41338011E+00 -9.15508888E-01
  6.05522381E-03 -2.41338011E+00 -9.15508888E-01  6.05522381E-03 -2.41338011E+00
 -9.15508888E-01  6.05522381E-03 -2.41338011E+00 -9.15508888E-01  6.05522381E-03
 -2.41338011E+00 -9.15508888E-01  6.05522381E-03 -2.41338011E+00 -9.15508888E-01
  6.05522381E-03 -2.41338011E+00 -9.15508888E-01  6.05522381E-03 -1.02584472E+00
  1.39602008E+00 -2.14869023E-02 -1.02584472E+00  1.39602008E+00 -2.14869023E-02
 -1.02584472E+00  1.39602008E+00 -2.14869023E-02 -1.02584472E+00  1.39602008E+00
 -2.14869023E-02 -1.02584472E+00  1.39602008E+00 -2.14869023E-02 -1.02584472E+00
  1.39602008E+00 -2.14869023E-02 -1.02584472E+00  1.39602008E+00 -2.14869023E-02
 -1.02584472E+00  1.39602008E+00 -2.14869023E-02 -1.02584472E+00  1.39602008E+00
 -2.14869023E-02 -1.02584472E+00  1.39602008E+00 -2.14869023E-02 -1.02584472E+00
  1.39602008E+00 -2.14869023E-02 -1.02584472E+00  1.39602008E+00 -2.14869023E-02
 -1.02584472E+00  1.39602008E+00 -2.14869023E-02 -1.02584472E+00  1.39602008E+00
 -2.14869023E-02  1.55927217E+00  1.04108347E+00  3.18791344E-02  1.55927217E+00
  1.04108347E+00  3.18791344E-02  1.55927217E+00  1.04108347E+00  3.18791344E-02
  1.55927217E+00  1.04108347E+00  3.18791344E-02  1.55927217E+00  1.04108347E+00
  3.18791344E-02  1.55927217E+00  1.04108347E+00  3.18791344E-02  1.55927217E+00
  1.04108347E+00  3.18791344E-02  1.55927217E+00  1.04108347E+00  3.18791344E-02
  1.55927217E+00  1.04108347E+00  3.18791344E-02  1.55927217E+00  1.04108347E+00
  3.18791344E-02  1.55927217E+00  1.04108347E+00  3.18791344E-02  1.55927217E+00
  1.04108347E+00  3.18791344E-02  1.55927217E+00  1.04108347E+00  3.18791344E-02
  1.55927217E+00  1.04108347E+00  3.18791344E-02  2.20254024E+00 -1.12254908E+00
 -1.97436786E-02  2.20254024E+00 -1.12254908E+00 -1.97436786E-02  2.20254024E+00
 -1.12254908E+00 -1.97436786E-02  2.20254024E+00 -1.12254908E+00 -1.97436786E-02
  2.20254024E+00 -1.12254908E+00 -1.97436786E-02  2.20254024E+00 -1.12254908E+00
 -1.97436786E-02  2.20254024E+00 -1.12254908E+00 -1.97436786E-02  2.20254024E+00
 -1.12254908E+00 -1.97436786E-02  2.20254024E+00 -1.12254908E+00 -1.97436786E-02
  2.20254024E+00 -1.12254908E+00 -1.97436786E-02  2.20254024E+00 -1.12254908E+00
 -1.97436786E-02  2.20254024E+00 -1.12254908E+00 -1.97436786E-02  2.20254024E+00
 -1.12254908E+00 -1.97436786E-02  2.20254024E+00 -1.12254908E+00 -1.97436786E-02
Num ILSW                                   I              100
ILSW                                       I   N=         100
           0           0           0           0           2           0
           0           0           0           0           0          -1
           5           0           0           0           2           0
           0           0           0           0           1           0
           1           0           0           0           0           0
           0           0      100000           0          -1           0
           0           0           0           0           0           0
           0           0           0           1           1           0
           0 -2000000000           1           0           0           0
           0           0           4          52           0           0
           0           0           0           0           0           0
           0           0           0           5           4           1
           0           0           0           0           0           0
           0           0           0           0           0           0
           0           0           0           0           0           0
           0           0           0           0           0           0
           0           0           0           0
Num RLSW                                   I               52
RLSW                                       R   N=          52
  1.00000000E+00  1.00000000E+00  1.00000000E+00  1.00000000E+00  1.00000000E+00
  0.00000000E+00  0.00000000E+00  1.00000000E+00  0.00000000E+00  0.00000000E+00
  0.00000000E+00  0.00000000E+00  1.00000000E+00  0.00000000E+00  0.00000000E+00
  0.00000000E+00  0.00000000E+00  1.00000000E+00  0.00000000E+00  0.00000000E+00
  0.00000000E+00  0.00000000E+00  1.00000000E+00  0.00000000E+00  0.00000000E+00
  0.00000000E+00  0.00000000E+00  1.00000000E+00  0.00000000E+00  0.00000000E+00
  0.00000000E+00  0.00000000E+00  1.00000000E+00  0.00000000E+00  0.00000000E+00
  0.00000000E+00  0.00000000E+00  0.00000000E+00  1.00000000E+00  1.00000000E+00
  0.00000000E+00  1.00000000E+00  0.00000000E+00  0.00000000E+00  0.00000000E+00
  0.00000000E+00  0.00000000E+00  0.00000000E+00  0.00000000E+00  0.00000000E+00
  0.00000000E+00  0.00000000E+00
MxBond                                     I                2
NBond                                      I   N=           5
           1           2           2           2           1
IBond                                      I   N=          10
           2           0           1           3           2           4
           3           5           4           0
RBond                                      R   N=          10
  1.00000000E+00  0.00000000E+00  1.00000000E+00  1.00000000E+00  1.00000000E+00
  1.00000000E+00  1.00000000E+00  2.00000000E+00  2.00000000E+00  0.00000000E+00
Virial Ratio                               R      2.002226615360915E+00
SCF Energy                                 R     -2.795063192684066E+02
MP2 Energy                                 R     -2.804550809701465E+02
Total Energy                               R     -2.804550809701465E+02
Post-SCF wavefunction norm                 R      1.583717072827920E+00
RMS Force                                  R      1.625371186473988E-03
RMS Density                                R      6.274234512663679E-09
NImag                                      I                0
Job Status                                 I                1
Nuclear derivative order                   I                2
External E-field                           R   N=          35
  0.00000000E+00  0.00000000E+00  0.00000000E+00  0.00000000E+00  0.00000000E+00
  0.00000000E+00  0.00000000E+00  0.00000000E+00  0.00000000E+00  0.00000000E+00
  0.00000000E+00  0.00000000E+00  0.00000000E+00  0.00000000E+00  0.00000000E+00
  0.00000000E+00  0.00000000E+00  0.00000000E+00  0.00000000E+00  0.00000000E+00
  0.00000000E+00  0.00000000E+00  0.00000000E+00  0.00000000E+00  0.00000000E+00
  0.00000000E+00  0.00000000E+00  0.00000000E+00  0.00000000E+00  0.00000000E+00
  0.00000000E+00  0.00000000E+00  0.00000000E+00  0.00000000E+00  0.00000000E+00
IOpCl                                      I                0
IROHF                                      I                0
Alpha Orbital Energies                     R   N=         207
 -2.07197150E+01 -2.06872564E+01 -2.06683309E+01 -1.58259856E+01 -1.64424751E+00
 -1.50516502E+00 -1.29374526E+00 -9.60357949E-01 -8.34568274E-01 -7.58935262E-01
 -7.39906213E-01 -6.37481909E-01 -6.19154685E-01 -6.17981877E-01 -5.04805476E-01
 -4.97307779E-01  3.50521443E-02  6.01451434E-02  9.51181977E-02  1.00377167E-01
  1.19193612E-01  1.22999042E-01  1.49432202E-01  1.52043730E-01  1.77371724E-01
  1.80514130E-01  1.89655865E-01  2.11137323E-01  2.16776506E-01  2.42528937E-01
  2.46326459E-01  2.68904169E-01  3.11673165E-01  3.17688613E-01  3.38059339E-01
  3.43861368E-01  3.46824390E-01  3.92616768E-01  4.48443952E-01  4.87824909E-01
  5.05628064E-01  5.18676096E-01  5.44832218E-01  5.61288321E-01  5.99002438E-01
  6.20333540E-01  6.38319056E-01  6.89797255E-01  7.16857283E-01  7.24653167E-01
  7.43129964E-01  7.63747252E-01  7.67296363E-01  7.94947909E-01  8.06175698E-01
  8.40723158E-01  8.43214331E-01  8.52055400E-01  8.85618191E-01  9.07763391E-01
  9.30003305E-01  9.48626038E-01  9.54200780E-01  1.01785775E+00  1.03289324E+00
  1.06122302E+00  1.06553585E+00  1.09606985E+00  1.14364429E+00  1.15633411E+00
  1.17022638E+00  1.22186905E+00  1.22693067E+00  1.24617877E+00  1.35190798E+00
  1.36237427E+00  1.37115439E+00  1.46849988E+00  1.48595974E+00  1.50471653E+00
  1.54139525E+00  1.59251170E+00  1.59801850E+00  1.60965867E+00  1.62864536E+00
  1.69544221E+00  1.74041328E+00  1.80128652E+00  1.82996729E+00  1.88705292E+00
  1.89723006E+00  1.92961478E+00  1.97906607E+00  1.98939053E+00  2.05230902E+00
  2.12369857E+00  2.13071696E+00  2.16527376E+00  2.18813680E+00  2.24047349E+00
  2.26302336E+00  2.29458031E+00  2.35207567E+00  2.36592825E+00  2.38652296E+00
  2.40219895E+00  2.43367753E+00  2.46807754E+00  2.48021181E+00  2.52861338E+00
  2.53912383E+00  2.54858466E+00  2.55973604E+00  2.61617795E+00  2.63028476E+00
  2.67051850E+00  2.67467439E+00  2.75366962E+00  2.80857470E+00  2.81910824E+00
  2.84196347E+00  2.91861787E+00  2.98515582E+00  3.04656714E+00  3.05103409E+00
  3.11546540E+00  3.11823957E+00  3.17312874E+00  3.21308584E+00  3.30748223E+00
  3.33237579E+00  3.36109877E+00  3.47776393E+00  3.67788789E+00  3.86982349E+00
  3.93027952E+00  4.18275009E+00  4.21962960E+00  4.22885050E+00  4.26913124E+00
  4.36980262E+00  4.50027670E+00  4.52777856E+00  4.55625413E+00  4.59923464E+00
  4.69361645E+00  4.80961585E+00  4.89605439E+00  4.91771303E+00  4.94139196E+00
  4.99789043E+00  5.00621176E+00  5.10844719E+00  5.13302249E+00  5.17947952E+00
  5.24973304E+00  5.25916021E+00  5.31773121E+00  5.34700874E+00  5.35611925E+00
  5.54692069E+00  5.64497119E+00  5.70640654E+00  5.88964116E+00  5.99735560E+00
  6.26446980E+00  6.29593502E+00  6.36101236E+00  6.37665509E+00  6.59827547E+00
  6.65926987E+00  6.65981060E+00  6.69008319E+00  6.72590100E+00  6.79526197E+00
  6.80716651E+00  6.85072668E+00  6.96787760E+00  7.02078422E+00  7.06641279E+00
  7.08054968E+00  7.13872577E+00  7.17234341E+00  7.17793780E+00  7.20341776E+00
  7.24431096E+00  7.24919493E+00  7.27169911E+00  7.34980341E+00  7.39434906E+00
  7.42807116E+00  7.44304682E+00  7.46277179E+00  7.55971401E+00  7.66346988E+00
  7.66744283E+00  7.79438447E+00  7.88277967E+00  7.95283214E+00  8.06374288E+00
  8.30653982E+00  8.49967977E+00  8.65221236E+00  1.36189245E+01  1.47632686E+01
  1.51038825E+01  1.57623384E+01
Alpha MO coefficients                      R   N=       42849
  6.45340687E-05 -2.63765350E-05 -1.10948454E-03  1.28858306E-05  1.66397904E-05
  6.44595662E-05  7.14307585E-08  2.42067098E-04 -1.81550811E-04 -7.99233658E-06
  2.06256700E-04 -2.81074743E-04 -7.44661148E-06  4.25676961E-05 -7.27863354E-07
 -1.29690912E-06  4.29221786E-06 -2.78696261E-05  2.28349736E-04 -7.11215507E-06
 -3.74380242E-06 -2.10584005E-04  2.44145945E-05  3.07789684E-03 -9.56975117E-05
 -9.91514944E-05  3.54246027E-03  2.47847299E-03 -5.12071474E-05 -1.03692345E-04
  1.14221126E-06  4.18732632E-04  6.61940623E-04 -6.31025503E-06  9.39651821E-04
  2.06579961E-03 -1.45730332E-05  4.10002142E-04  3.50643499E-04  2.43204124E-06
  2.04526218E-05 -5.34791950E-08  1.94046402E-06  3.93957093E-05 -2.17340896E-05
 -4.43014490E-04 -5.27117922E-06 -2.19856168E-05 -5.03013853E-04  6.07093721E-04
 -3.64177313E-04 -1.01273669E-05 -2.03816103E-05 -5.43122978E-04  7.41010376E-04
  2.92962570E-06 -2.86282639E-05 -8.60382851E-05  1.98784066E-06 -1.65870814E-06
 -1.11276959E-04 -8.79979937E-06  3.61231840E-06 -1.37518093E-04 -1.63784521E-04
  3.07357620E-06 -1.16209857E-05 -3.38918329E-04  6.39772251E-05  9.76903648E-01
 -9.17362577E-03  4.34074265E-02  4.93451594E-04 -2.20835481E-03  9.08803803E-04
 -1.99692836E-03  4.35899456E-05 -1.07556811E-03  2.00552530E-03 -4.79516725E-05
  2.15121453E-03  9.81460448E-04  2.95680538E-05  1.23254148E-04  2.10917784E-04
 -5.47197859E-06  7.12885412E-06 -1.65891535E-06  2.04495253E-06  3.46565806E-05
 -1.60405620E-05  8.26938945E-04 -1.48429732E-05  1.88812909E-05 -3.05464136E-04
 -4.02286259E-04 -1.38617349E-04  2.60716304E-05 -1.25422748E-05  1.73576089E-04
 -6.30620194E-04  5.08893544E-06  5.19725985E-05 -6.01120949E-05 -8.96531395E-07
 -2.41049698E-07 -4.84524429E-05 -6.96524998E-06 -1.54287915E-06 -7.45752577E-05
 -5.39822329E-05 -6.33976928E-06 -3.62780361E-06 -4.68547761E-04  1.95030144E-04
  1.04364002E-04  4.57628588E-04 -3.23538661E-04 -8.25354151E-04  3.53591212E-04
  9.48211214E-05 -5.44171609E-05  2.38075161E-06 -1.22012072E-03  4.81925093E-04
 -2.16827254E-05  1.00501172E-03 -7.80737902E-05 -7.12747266E-06 -2.82276937E-04
  5.48519696E-05 -7.36949876E-06 -5.24735774E-05  3.13700703E-06 -1.22055478E-06
  9.46611786E-05 -9.56893489E-06 -4.15042568E-04  4.51313023E-05 -8.68227221E-06
  1.04261925E-03 -2.84151896E-04  2.68751944E-05  3.39155646E-06  3.02089182E-06
 -6.74148267E-05 -3.10318917E-04  5.91760864E-06  1.30281854E-04 -4.48996588E-05
 -9.13813325E-06  1.56744054E-06 -1.31628867E-04  5.69785559E-05  1.11973695E-05
  7.16797254E-05  1.11086582E-04 -2.34990690E-05 -6.86328373E-06 -4.86927683E-04
 -1.82904308E-04 -7.07694023E-04  4.61205832E-05 -7.02945214E-05  2.08940132E-04
 -1.78866769E-04  4.77368340E-05 -1.62859559E-05  1.79819645E-06 -2.85492326E-04
  1.04407158E-04 -1.02928119E-05 -6.18411004E-04 -5.35362269E-05  1.72528192E-05
  2.12079007E-04  7.82528127E-05  6.98208685E-06 -1.29154415E-05  1.87850606E-06
  5.24671522E-07  1.55368431E-05 -1.40541298E-06 -2.36999531E-06 -9.98508801E-06
 -4.39387913E-06 -3.92654815E-05 -1.59273077E-04 -2.20319128E-05 -2.91082483E-05
 -4.35236950E-07 -9.02457173E-05 -1.49360565E-04  1.82822593E-06  1.01610309E-05
 -3.74382327E-06 -1.76854586E-06  5.50591896E-07 -1.58824675E-05  1.72846284E-05
 -8.81230623E-06 -6.86485520E-05  2.49247958E-05  8.95529688E-06 -8.63220492E-06
  1.48647653E-04 -1.15025025E-04  4.02164846E-05  6.11951565E-05 -1.22224099E-04
 -2.98425137E-05 -2.12640509E-05 -2.21100442E-06  4.58385915E-07 -2.28516082E-04
 -9.31666792E-05  2.10184834E-06 -1.14136693E-04 -5.62821327E-05  6.60391580E-06
  1.34541281E-05  1.20105065E-06  1.33647371E-06  1.16617465E-05 -1.67346436E-05
  2.25721410E-05 -5.99125212E-06  6.29797229E-07  3.03716184E-05 -1.10697915E-04
 -2.59143607E-04  2.57463430E-05 -1.52331704E-05 -5.48544128E-04  1.62820507E-04
 -1.40348711E-05  6.69648363E-06  4.00907663E-07  2.52544230E-05 -3.39522821E-05
 -1.86632822E-06 -2.25766110E-04 -4.56963200E-06 -3.33903343E-06  8.71871750E-06
  6.65820878E-05 -6.42635480E-06 -1.38604700E-06 -8.98478423E-08 -5.60732589E-07
 -1.36056211E-05 -4.45122327E-06  2.08902855E-05 -4.03648816E-07  4.15163291E-06
  1.18281557E-04  1.47113104E-05  6.11544444E-05  9.13020538E-07  1.04540138E-05
 -8.36342500E-05 -4.16542097E-06  5.08331224E-07 -1.23389205E-05  3.69363110E-06
 -8.38976200E-07  4.54238690E-08  2.31201770E-05  8.97093576E-06 -9.74944379E-07
  3.24213369E-05 -2.04899402E-05  2.18390936E-06  2.85850674E-06  1.75432261E-05
  8.88125661E-06  7.35760915E-04  2.27694932E-05 -1.88269682E-05  2.96907921E-04
 -3.91629057E-04 -2.93823922E-05  1.21368171E-05 -4.02375762E-07  1.43708347E-04
 -8.43797333E-05  1.05021446E-06 -3.21850180E-06 -2.53795018E-04  1.41277282E-05
  4.26151136E-05  2.07431353E-04  6.34799213E-06 -4.06546622E-06 -6.74712028E-07
  5.02395036E-07 -1.82048198E-05 -2.52375476E-05 -5.12929719E-05  5.54885201E-06
 -2.51118358E-06  1.40089715E-04  3.99310148E-05 -6.46338158E-05  1.63712578E-05
 -3.73285820E-06  3.84925911E-05  3.25530844E-05  5.48450658E-07 -4.38436176E-06
  9.00313433E-07  6.35690801E-07  6.87333606E-07 -4.02743997E-07  8.16206842E-06
 -5.97757588E-06  1.20033584E-05 -2.24633958E-05  4.36763901E-06 -5.54386704E-06
  1.77334366E-04 -4.02614841E-05  2.37052325E-04  1.35741845E-03 -1.47152466E-04
 -6.88909705E-04  9.02741746E-04 -8.81488268E-06 -9.46392823E-05 -2.23397338E-06
  7.73988205E-04 -2.01647991E-03 -4.52385599E-05 -3.85082988E-04  3.32131784E-04
 -2.37416776E-05  3.24875781E-05 -3.57117984E-04 -8.23218474E-06 -1.27613724E-04
 -4.48062058E-06  9.71236219E-06 -2.11917420E-04 -1.47553575E-04 -4.59391176E-04
 -9.56826228E-06  4.85509544E-05 -1.05711878E-03 -3.01161864E-04 -4.18303688E-05
  1.19724727E-05  2.57837681E-06  1.29077206E-04  2.27543711E-05  1.11710104E-07
 -2.85704614E-05  2.46355726E-05  3.06585343E-06 -4.66139400E-07 -4.15158251E-06
  2.44513642E-05  1.75933419E-05  1.51930934E-05  2.06835012E-04  1.67111534E-05
  6.28379691E-06 -7.07980374E-05  3.08499426E-04  9.76646048E-01 -9.88645301E-03
  4.35753716E-02  3.68644059E-03 -8.93462375E-04 -9.02122811E-04  1.98196052E-03
  5.15117328E-05  1.07208994E-03 -2.32171318E-03 -5.73433543E-05 -4.27591106E-04
  6.97154393E-04  4.09464094E-05 -4.62103905E-05 -1.13773183E-04 -3.49179508E-06
 -1.93725319E-04  4.49867138E-06  9.69362206E-06 -6.36360539E-05 -5.81229245E-05
  4.08483789E-04  2.01875329E-05 -3.22346070E-05  7.17206476E-04  6.75719380E-04
 -2.05845087E-04 -1.42469525E-05  1.62694162E-05 -7.56978656E-05 -1.22432685E-04
  4.33669147E-06 -3.78399159E-05  5.92948922E-05  2.51848092E-06  1.14236692E-06
 -1.94201109E-05  2.39926316E-05  3.44949098E-06  1.77044127E-05  1.26473963E-04
  1.05328447E-05  8.58066433E-06 -2.48034338E-04  8.98873781E-05  3.75257279E-04
  1.99342556E-03  1.36916159E-03 -1.80612164E-05 -2.00114970E-04  1.86311089E-04
 -6.84875926E-06 -9.14892655E-04  6.01335506E-04 -3.60185908E-05 -4.19590162E-05
  2.64116917E-04 -1.96611429E-05 -2.35986693E-05 -1.49103962E-06 -1.99525876E-06
 -1.77406399E-05  3.97388959E-05 -2.15806065E-04  1.60299806E-05 -9.71021100E-06
  2.82727722E-04 -4.52421932E-04  9.76834473E-01 -9.18697555E-03  4.34652918E-02
  1.36931367E-04 -1.90739052E-03  2.14193071E-03  5.36829685E-04  2.53580593E-05
 -2.13477640E-03 -6.10919451E-04 -2.27629744E-05 -5.58927545E-05  7.58790394E-04
 -2.31813435E-05 -4.01098808E-06 -3.71984112E-04  1.29696710E-05  3.07804837E-05
  1.55503764E-06  2.54030759E-06  3.80165002E-05 -9.00000965E-05  7.65088794E-04
 -9.66342814E-06  3.18371080E-05  2.73905352E-04 -3.04841864E-04 -2.37841612E-04
 -1.60216247E-06 -4.73509588E-06  1.03491656E-04  3.19440834E-04 -4.64472874E-07
  6.40010405E-05  4.89702137E-05 -1.85641935E-06  2.08613687E-06  4.63400928E-05