title                                                                   
Freq      RMP2-FC                                                     Aug-CC-pVTZ         
Number of atoms                            I                5
Info1-9                                    I   N=           9
          33          24           0           0           0         100
           6           2           1
Full Title                                 C   N=           1
title       
Route                                      C   N=           4
#p freq mp2/aug-cc-pvtz density=current         
Charge                                     I                0
Multiplicity                               I                1
Number of electrons                        I               32
Number of alpha electrons                  I               16
Number of beta electrons                   I               16
Number of basis functions                  I              207
Number of independent functions            I              207
Number of point charges in /Mol/           I                0
Number of translation vectors              I                0
Atomic numbers                             I   N=           5
           1           8           8           7           8
Nuclear charges                            R   N=           5
  1.00000000E+00  8.00000000E+00  8.00000000E+00  7.00000000E+00  8.00000000E+00
Current cartesian coordinates              R   N=          15
  2.11763633E+00 -1.10129217E+00  0.00000000E+00  2.49435925E+00  7.22293963E-01
  0.00000000E+00 -4.83091741E-17  1.74569571E+00  0.00000000E+00 -1.88770612E+00
 -1.12884227E-01  0.00000000E+00 -1.10732094E+00 -2.23155445E+00  0.00000000E+00
Number of symbols in /Mol/                 I                0
Force Field                                I                0
Atom Types                                 C   N=           5
                                                            
Int Atom Types                             I   N=           5
           0           0           0           0           0
MM charges                                 R   N=           5
  0.00000000E+00  0.00000000E+00  0.00000000E+00  0.00000000E+00  0.00000000E+00
Integer atomic weights                     I   N=           5
           1          16          16          14          16
Real atomic weights                        R   N=           5
  1.00782504E+00  1.59949146E+01  1.59949146E+01  1.40030740E+01  1.59949146E+01
Atom fragment info                         I   N=           5
           0           0           0           0           0
Atom residue num                           I   N=           5
           0           0           0           0           0
Nuclear spins                              I   N=           5
           1           0           0           2           0
Nuclear ZEff                               R   N=           5
 -1.00000000E+00 -5.60000000E+00 -5.60000000E+00 -4.55000000E+00 -5.60000000E+00
Nuclear ZNuc                               R   N=           5
  1.00000000E+00  8.00000000E+00  8.00000000E+00  7.00000000E+00  8.00000000E+00
Nuclear QMom                               R   N=           5
  0.00000000E+00  0.00000000E+00  0.00000000E+00  2.04400000E+00  0.00000000E+00
Nuclear GFac                               R   N=           5
  2.79284600E+00  0.00000000E+00  0.00000000E+00  4.03761000E-01  0.00000000E+00
MicOpt                                     I   N=           5
          -1          -1          -1          -1          -1
Number of residues                         I                0
Number of secondary structures             I                0
SymInf integers                            I   N=          26
           1           2           1           1           1           1
           1          -1           0           0           0           0
           0           0           0           0           0           0
           0           0           0           0           0           0
           0           0
RotTr to input orientation                 R   N=          12
 -9.79321189E-01  0.00000000E+00  2.02311662E-01  2.02311662E-01  0.00000000E+00
  9.79321189E-01  0.00000000E+00  1.00000000E+00  0.00000000E+00  2.29665038E+00
  0.00000000E+00  6.50096232E-01
Number of contracted shells                I               65
Number of primitive shells                 I              119
Pure/Cartesian d shells                    I                0
Pure/Cartesian f shells                    I                0
Highest angular momentum                   I                3
Largest degree of contraction              I                7
Shell types                                I   N=          65
           0           0           0           0           1           1
           1          -2          -2           0           0           0
           0           0           1           1           1           1
          -2          -2          -2          -3          -3           0
           0           0           0           0           1           1
           1           1          -2          -2          -2          -3
          -3           0           0           0           0           0
           1           1           1           1          -2          -2
          -2          -3          -3           0           0           0
           0           0           1           1           1           1
          -2          -2          -2          -3          -3
Number of primitives per shell             I   N=          65
           3           1           1           1           1           1
           1           1           1           7           6           1
           1           1           3           1           1           1
           1           1           1           1           1           7
           6           1           1           1           3           1
           1           1           1           1           1           1
           1           7           6           1           1           1
           3           1           1           1           1           1
           1           1           1           7           6           1
           1           1           3           1           1           1
           1           1           1           1           1
Shell to atom map                          I   N=          65
           1           1           1           1           1           1
           1           1           1           2           2           2
           2           2           2           2           2           2
           2           2           2           2           2           3
           3           3           3           3           3           3
           3           3           3           3           3           3
           3           4           4           4           4           4
           4           4           4           4           4           4
           4           4           4           5           5           5
           5           5           5           5           5           5
           5           5           5           5           5
Primitive exponents                        R   N=         119
  3.38700000E+01  5.09500000E+00  1.15900000E+00  3.25800000E-01  1.02700000E-01
  2.52600000E-02  1.40700000E+00  3.88000000E-01  1.02000000E-01  1.05700000E+00
  2.47000000E-01  1.53300000E+04  2.29900000E+03  5.22400000E+02  1.47300000E+02
  4.75500000E+01  1.67600000E+01  6.20700000E+00  5.22400000E+02  1.47300000E+02
  4.75500000E+01  1.67600000E+01  6.20700000E+00  6.88200000E-01  1.75200000E+00
  2.38400000E-01  7.37600000E-02  3.44600000E+01  7.74900000E+00  2.28000000E+00
  7.15600000E-01  2.14000000E-01  5.97400000E-02  2.31400000E+00  6.45000000E-01
  2.14000000E-01  1.42800000E+00  5.00000000E-01  1.53300000E+04  2.29900000E+03
  5.22400000E+02  1.47300000E+02  4.75500000E+01  1.67600000E+01  6.20700000E+00
  5.22400000E+02  1.47300000E+02  4.75500000E+01  1.67600000E+01  6.20700000E+00
  6.88200000E-01  1.75200000E+00  2.38400000E-01  7.37600000E-02  3.44600000E+01
  7.74900000E+00  2.28000000E+00  7.15600000E-01  2.14000000E-01  5.97400000E-02
  2.31400000E+00  6.45000000E-01  2.14000000E-01  1.42800000E+00  5.00000000E-01
  1.14200000E+04  1.71200000E+03  3.89300000E+02  1.10000000E+02  3.55700000E+01
  1.25400000E+01  4.64400000E+00  3.89300000E+02  1.10000000E+02  3.55700000E+01
  1.25400000E+01  4.64400000E+00  5.11800000E-01  1.29300000E+00  1.78700000E-01
  5.76000000E-02  2.66300000E+01  5.94800000E+00  1.74200000E+00  5.55000000E-01
  1.72500000E-01  4.91000000E-02  1.65400000E+00  4.69000000E-01  1.51000000E-01
  1.09300000E+00  3.64000000E-01  1.53300000E+04  2.29900000E+03  5.22400000E+02
  1.47300000E+02  4.75500000E+01  1.67600000E+01  6.20700000E+00  5.22400000E+02
  1.47300000E+02  4.75500000E+01  1.67600000E+01  6.20700000E+00  6.88200000E-01
  1.75200000E+00  2.38400000E-01  7.37600000E-02  3.44600000E+01  7.74900000E+00
  2.28000000E+00  7.15600000E-01  2.14000000E-01  5.97400000E-02  2.31400000E+00
  6.45000000E-01  2.14000000E-01  1.42800000E+00  5.00000000E-01
Contraction coefficients                   R   N=         119
  2.54948632E-02  1.90362766E-01  8.52162022E-01  1.00000000E+00  1.00000000E+00
  1.00000000E+00  1.00000000E+00  1.00000000E+00  1.00000000E+00  1.00000000E+00
  1.00000000E+00  5.19808943E-04  4.02025621E-03  2.07128267E-02  8.10105536E-02
  2.35962985E-01  4.42653446E-01  3.57064423E-01 -4.42115008E-05 -1.22591041E-03
 -1.05517725E-02 -6.74452633E-02 -1.71198607E-01  1.07329856E+00  1.00000000E+00
  1.00000000E+00  1.00000000E+00  4.11634896E-02  2.57762836E-01  8.02419274E-01
  1.00000000E+00  1.00000000E+00  1.00000000E+00  1.00000000E+00  1.00000000E+00
  1.00000000E+00  1.00000000E+00  1.00000000E+00  5.19808943E-04  4.02025621E-03
  2.07128267E-02  8.10105536E-02  2.35962985E-01  4.42653446E-01  3.57064423E-01
 -4.42115008E-05 -1.22591041E-03 -1.05517725E-02 -6.74452633E-02 -1.71198607E-01
  1.07329856E+00  1.00000000E+00  1.00000000E+00  1.00000000E+00  4.11634896E-02
  2.57762836E-01  8.02419274E-01  1.00000000E+00  1.00000000E+00  1.00000000E+00
  1.00000000E+00  1.00000000E+00  1.00000000E+00  1.00000000E+00  1.00000000E+00
  5.34563860E-04  4.13435660E-03  2.12335358E-02  8.25006224E-02  2.38138871E-01
  4.42551547E-01  3.53757422E-01 -4.89867350E-05 -1.19527323E-03 -1.03490714E-02
 -6.48680190E-02 -1.71552477E-01  1.07289568E+00  1.00000000E+00  1.00000000E+00
  1.00000000E+00  3.98072123E-02  2.49002660E-01  8.10479727E-01  1.00000000E+00
  1.00000000E+00  1.00000000E+00  1.00000000E+00  1.00000000E+00  1.00000000E+00
  1.00000000E+00  1.00000000E+00  5.19808943E-04  4.02025621E-03  2.07128267E-02
  8.10105536E-02  2.35962985E-01  4.42653446E-01  3.57064423E-01 -4.42115008E-05
 -1.22591041E-03 -1.05517725E-02 -6.74452633E-02 -1.71198607E-01  1.07329856E+00
  1.00000000E+00  1.00000000E+00  1.00000000E+00  4.11634896E-02  2.57762836E-01
  8.02419274E-01  1.00000000E+00  1.00000000E+00  1.00000000E+00  1.00000000E+00
  1.00000000E+00  1.00000000E+00  1.00000000E+00  1.00000000E+00
Coordinates of each shell                  R   N=         195
  2.11763633E+00 -1.10129217E+00  0.00000000E+00  2.11763633E+00 -1.10129217E+00
  0.00000000E+00  2.11763633E+00 -1.10129217E+00  0.00000000E+00  2.11763633E+00
 -1.10129217E+00  0.00000000E+00  2.11763633E+00 -1.10129217E+00  0.00000000E+00
  2.11763633E+00 -1.10129217E+00  0.00000000E+00  2.11763633E+00 -1.10129217E+00
  0.00000000E+00  2.11763633E+00 -1.10129217E+00  0.00000000E+00  2.11763633E+00
 -1.10129217E+00  0.00000000E+00  2.49435925E+00  7.22293963E-01  0.00000000E+00
  2.49435925E+00  7.22293963E-01  0.00000000E+00  2.49435925E+00  7.22293963E-01
  0.00000000E+00  2.49435925E+00  7.22293963E-01  0.00000000E+00  2.49435925E+00
  7.22293963E-01  0.00000000E+00  2.49435925E+00  7.22293963E-01  0.00000000E+00
  2.49435925E+00  7.22293963E-01  0.00000000E+00  2.49435925E+00  7.22293963E-01
  0.00000000E+00  2.49435925E+00  7.22293963E-01  0.00000000E+00  2.49435925E+00
  7.22293963E-01  0.00000000E+00  2.49435925E+00  7.22293963E-01  0.00000000E+00
  2.49435925E+00  7.22293963E-01  0.00000000E+00  2.49435925E+00  7.22293963E-01
  0.00000000E+00  2.49435925E+00  7.22293963E-01  0.00000000E+00  7.00674474E-17
  1.74569571E+00  0.00000000E+00  7.00674474E-17  1.74569571E+00  0.00000000E+00
  7.00674474E-17  1.74569571E+00  0.00000000E+00  7.00674474E-17  1.74569571E+00
  0.00000000E+00  7.00674474E-17  1.74569571E+00  0.00000000E+00  7.00674474E-17
  1.74569571E+00  0.00000000E+00  7.00674474E-17  1.74569571E+00  0.00000000E+00
  7.00674474E-17  1.74569571E+00  0.00000000E+00  7.00674474E-17  1.74569571E+00
  0.00000000E+00  7.00674474E-17  1.74569571E+00  0.00000000E+00  7.00674474E-17
  1.74569571E+00  0.00000000E+00  7.00674474E-17  1.74569571E+00  0.00000000E+00
  7.00674474E-17  1.74569571E+00  0.00000000E+00  7.00674474E-17  1.74569571E+00
  0.00000000E+00 -1.88770612E+00 -1.12884227E-01  0.00000000E+00 -1.88770612E+00
 -1.12884227E-01  0.00000000E+00 -1.88770612E+00 -1.12884227E-01  0.00000000E+00
 -1.88770612E+00 -1.12884227E-01  0.00000000E+00 -1.88770612E+00 -1.12884227E-01
  0.00000000E+00 -1.88770612E+00 -1.12884227E-01  0.00000000E+00 -1.88770612E+00
 -1.12884227E-01  0.00000000E+00 -1.88770612E+00 -1.12884227E-01  0.00000000E+00
 -1.88770612E+00 -1.12884227E-01  0.00000000E+00 -1.88770612E+00 -1.12884227E-01
  0.00000000E+00 -1.88770612E+00 -1.12884227E-01  0.00000000E+00 -1.88770612E+00
 -1.12884227E-01  0.00000000E+00 -1.88770612E+00 -1.12884227E-01  0.00000000E+00
 -1.88770612E+00 -1.12884227E-01  0.00000000E+00 -1.10732094E+00 -2.23155445E+00
  0.00000000E+00 -1.10732094E+00 -2.23155445E+00  0.00000000E+00 -1.10732094E+00
 -2.23155445E+00  0.00000000E+00 -1.10732094E+00 -2.23155445E+00  0.00000000E+00
 -1.10732094E+00 -2.23155445E+00  0.00000000E+00 -1.10732094E+00 -2.23155445E+00
  0.00000000E+00 -1.10732094E+00 -2.23155445E+00  0.00000000E+00 -1.10732094E+00
 -2.23155445E+00  0.00000000E+00 -1.10732094E+00 -2.23155445E+00  0.00000000E+00
 -1.10732094E+00 -2.23155445E+00  0.00000000E+00 -1.10732094E+00 -2.23155445E+00
  0.00000000E+00 -1.10732094E+00 -2.23155445E+00  0.00000000E+00 -1.10732094E+00
 -2.23155445E+00  0.00000000E+00 -1.10732094E+00 -2.23155445E+00  0.00000000E+00
Num ILSW                                   I              100
ILSW                                       I   N=         100
           0           0           0           0           2           0
           0           0           0           0           0          -1
           5           0           0           0           2           0
           0           0           0           0           1           0
           1           0           0           0           0           0
           0           0      100000           0          -1           0
           0           0           0           0           0           0
           0           0           0           1           1           0
           0 -2000000000           1           0           0           0
           0           0           4          52           0           0
           0           0           0           0           0           0
           0           0           0           5           4           1
           0           0           0           0           0           0
           0           0           0           0           0           0
           0           0           0           0           0           0
           0           0           0           0           0           0
           0           0           0           0
Num RLSW                                   I               52
RLSW                                       R   N=          52
  1.00000000E+00  1.00000000E+00  1.00000000E+00  1.00000000E+00  1.00000000E+00
  0.00000000E+00  0.00000000E+00  1.00000000E+00  0.00000000E+00  0.00000000E+00
  0.00000000E+00  0.00000000E+00  1.00000000E+00  0.00000000E+00  0.00000000E+00
  0.00000000E+00  0.00000000E+00  1.00000000E+00  0.00000000E+00  0.00000000E+00
  0.00000000E+00  0.00000000E+00  1.00000000E+00  0.00000000E+00  0.00000000E+00
  0.00000000E+00  0.00000000E+00  1.00000000E+00  0.00000000E+00  0.00000000E+00
  0.00000000E+00  0.00000000E+00  1.00000000E+00  0.00000000E+00  0.00000000E+00
  0.00000000E+00  0.00000000E+00  0.00000000E+00  1.00000000E+00  1.00000000E+00
  0.00000000E+00  1.00000000E+00  0.00000000E+00  0.00000000E+00  0.00000000E+00
  0.00000000E+00  0.00000000E+00  0.00000000E+00  0.00000000E+00  0.00000000E+00
  0.00000000E+00  0.00000000E+00
MxBond                                     I                2
NBond                                      I   N=           5
           1           2           2           2           1
IBond                                      I   N=          10
           2           0           1           3           2           4
           3           5           4           0
RBond                                      R   N=          10
  1.00000000E+00  0.00000000E+00  1.00000000E+00  1.00000000E+00  1.00000000E+00
  1.00000000E+00  1.00000000E+00  2.00000000E+00  2.00000000E+00  0.00000000E+00
Virial Ratio                               R      2.002372435089266E+00
SCF Energy                                 R     -2.795044937318430E+02
MP2 Energy                                 R     -2.804550808284398E+02
Total Energy                               R     -2.804550808284398E+02
Post-SCF wavefunction norm                 R      1.584936638552964E+00
RMS Force                                  R      2.609205630987153E-03
RMS Density                                R      4.902856805667086E-09
NImag                                      I                0
Job Status                                 I                1
Nuclear derivative order                   I                2
External E-field                           R   N=          35
  0.00000000E+00  0.00000000E+00  0.00000000E+00  0.00000000E+00  0.00000000E+00
  0.00000000E+00  0.00000000E+00  0.00000000E+00  0.00000000E+00  0.00000000E+00
  0.00000000E+00  0.00000000E+00  0.00000000E+00  0.00000000E+00  0.00000000E+00
  0.00000000E+00  0.00000000E+00  0.00000000E+00  0.00000000E+00  0.00000000E+00
  0.00000000E+00  0.00000000E+00  0.00000000E+00  0.00000000E+00  0.00000000E+00
  0.00000000E+00  0.00000000E+00  0.00000000E+00  0.00000000E+00  0.00000000E+00
  0.00000000E+00  0.00000000E+00  0.00000000E+00  0.00000000E+00  0.00000000E+00
IOpCl                                      I                0
IROHF                                      I                0
Alpha Orbital Energies                     R   N=         207
 -2.07163761E+01 -2.06920263E+01 -2.06670701E+01 -1.58285601E+01 -1.63962461E+00
 -1.50487482E+00 -1.28639561E+00 -9.61565440E-01 -8.32403920E-01 -7.56554108E-01
 -7.35419688E-01 -6.36891047E-01 -6.20272797E-01 -6.19159600E-01 -5.04195686E-01
 -4.95453489E-01  3.51652216E-02  5.72444442E-02  9.50068610E-02  1.00329779E-01
  1.19721592E-01  1.22138314E-01  1.49791389E-01  1.52575089E-01  1.77655986E-01
  1.79988104E-01  1.89912681E-01  2.10813115E-01  2.16775729E-01  2.41868411E-01
  2.46270791E-01  2.68284852E-01  3.11525226E-01  3.16033166E-01  3.35336078E-01
  3.37668452E-01  3.45272799E-01  3.89440029E-01  4.48273140E-01  4.88503748E-01
  5.04904152E-01  5.18004780E-01  5.43973826E-01  5.60532705E-01  5.98158565E-01
  6.19862811E-01  6.37496352E-01  6.88811769E-01  7.19530849E-01  7.23564188E-01
  7.42624002E-01  7.62888423E-01  7.66493490E-01  7.95767741E-01  8.04754035E-01
  8.39948893E-01  8.43935516E-01  8.51584042E-01  8.83905829E-01  9.07150497E-01
  9.28664113E-01  9.46135266E-01  9.56183254E-01  1.01758991E+00  1.03120862E+00
  1.05993511E+00  1.06519822E+00  1.09313673E+00  1.14289091E+00  1.15473109E+00
  1.16704251E+00  1.22102659E+00  1.22798077E+00  1.24565480E+00  1.35146745E+00
  1.36293239E+00  1.37355234E+00  1.46727491E+00  1.48470980E+00  1.50546577E+00
  1.54214853E+00  1.59483889E+00  1.59561767E+00  1.60073767E+00  1.62271356E+00
  1.69443096E+00  1.74079311E+00  1.80075521E+00  1.82671633E+00  1.88693974E+00
  1.89532395E+00  1.92200382E+00  1.97645520E+00  1.98706686E+00  2.05093892E+00
  2.11866093E+00  2.12756945E+00  2.15854242E+00  2.18733609E+00  2.24074815E+00
  2.25910626E+00  2.29532603E+00  2.34997128E+00  2.36264013E+00  2.38608861E+00
  2.40299339E+00  2.42670724E+00  2.46728618E+00  2.47576688E+00  2.52954774E+00
  2.52979317E+00  2.54819682E+00  2.55423032E+00  2.61096280E+00  2.62742870E+00
  2.66683440E+00  2.66734330E+00  2.75000223E+00  2.80505691E+00  2.80911124E+00
  2.84031334E+00  2.91120850E+00  2.97348552E+00  3.03890908E+00  3.04591440E+00
  3.11362298E+00  3.11597421E+00  3.17316853E+00  3.21319784E+00  3.30540989E+00
  3.32850187E+00  3.34853883E+00  3.48108077E+00  3.66196234E+00  3.85915092E+00
  3.92513518E+00  4.18201000E+00  4.21555427E+00  4.21985114E+00  4.25964320E+00
  4.36674222E+00  4.49723426E+00  4.51268936E+00  4.55216100E+00  4.59370801E+00
  4.69191225E+00  4.80710753E+00  4.88426438E+00  4.91055792E+00  4.93816947E+00
  4.98681574E+00  5.00220728E+00  5.09802669E+00  5.12959281E+00  5.17850829E+00
  5.24796129E+00  5.25652413E+00  5.30701800E+00  5.33621840E+00  5.35440799E+00
  5.54424811E+00  5.63999840E+00  5.69738196E+00  5.88545181E+00  6.00111315E+00
  6.26544623E+00  6.28443788E+00  6.34792362E+00  6.37614601E+00  6.59672908E+00
  6.65025470E+00  6.65615284E+00  6.68017394E+00  6.72126484E+00  6.80607352E+00
  6.80821193E+00  6.83725420E+00  6.95091082E+00  7.02044267E+00  7.06843744E+00
  7.07963037E+00  7.13950567E+00  7.16055243E+00  7.16864021E+00  7.20512785E+00
  7.24266050E+00  7.24340353E+00  7.26664777E+00  7.34196483E+00  7.37402076E+00
  7.41812799E+00  7.43839321E+00  7.46389918E+00  7.53582607E+00  7.65200794E+00
  7.65796403E+00  7.78843103E+00  7.87475816E+00  7.92267006E+00  8.04731064E+00
  8.30253222E+00  8.49215958E+00  8.63754779E+00  1.35124242E+01  1.46198350E+01
  1.50497696E+01  1.57126676E+01
Alpha MO coefficients                      R   N=       42849
  6.81314122E-05 -4.93013440E-05 -1.18308301E-03  8.26277540E-06 -5.22571144E-05
  4.35735191E-05  0.00000000E+00 -9.12329337E-05 -3.03838518E-04  0.00000000E+00
  7.13763773E-06 -3.64857646E-04  0.00000000E+00  4.36955437E-05  0.00000000E+00
  0.00000000E+00 -2.53644413E-05  1.34895798E-05  2.31048794E-04  0.00000000E+00
  0.00000000E+00 -4.33764242E-05 -2.07497932E-04  3.20766080E-03 -9.16780901E-05
 -9.55835160E-05  3.48707212E-03  2.49325522E-03  1.04266436E-04 -5.23523722E-05
  0.00000000E+00 -7.32891491E-04  2.75350845E-04  0.00000000E+00 -1.93550392E-03
  1.04614469E-03  0.00000000E+00 -5.40107354E-04  2.34833489E-05  0.00000000E+00
  2.08618221E-05  0.00000000E+00  0.00000000E+00 -1.07536919E-05  4.42366518E-05
 -4.45951423E-04  0.00000000E+00  0.00000000E+00  4.44956915E-04 -6.53059043E-04
 -3.62865866E-04  0.00000000E+00  0.00000000E+00  5.43473455E-04 -7.29383636E-04
  0.00000000E+00  7.53358977E-05 -5.22758523E-05  0.00000000E+00  0.00000000E+00
 -2.96976483E-05  1.06857610E-04  0.00000000E+00  2.10293673E-04 -4.92342434E-05
  0.00000000E+00  0.00000000E+00 -1.85688330E-04  3.00087519E-04  9.76921048E-01
 -9.14797265E-03  4.33754396E-02  5.86201552E-04 -2.19034672E-03  5.05205792E-04
 -2.11475424E-03  0.00000000E+00 -4.01004796E-04  2.19902542E-03  0.00000000E+00
 -2.21153868E-03 -5.56433142E-04  0.00000000E+00 -2.08952005E-04  9.82785063E-05
  0.00000000E+00  1.45914672E-05  0.00000000E+00  0.00000000E+00 -3.22870108E-06
  3.05301019E-05  8.12995756E-04  0.00000000E+00  0.00000000E+00 -4.82002712E-04
 -1.38599155E-04 -1.58016086E-04  0.00000000E+00  0.00000000E+00 -5.53460925E-04
  3.31100565E-04  0.00000000E+00 -2.50098452E-06 -7.89950867E-05  0.00000000E+00
  0.00000000E+00 -1.06205693E-05  4.80355789E-05  0.00000000E+00  9.11534028E-05
  9.89571553E-06  0.00000000E+00  0.00000000E+00 -3.24553815E-04  3.66903709E-04
  9.57555484E-05  3.92227333E-04 -3.21949835E-04 -6.91397846E-04  3.89777086E-04
 -4.60241296E-05 -1.02415145E-04  0.00000000E+00  6.12158019E-04  1.01151024E-03
  0.00000000E+00 -7.62420581E-04 -6.76053622E-04  0.00000000E+00  1.92329634E-04
  2.09758718E-04  0.00000000E+00 -4.26357348E-05  0.00000000E+00  0.00000000E+00
  2.13118079E-05  7.37785038E-05 -4.11058297E-04  0.00000000E+00  0.00000000E+00
 -3.04584412E-05  1.04905314E-03  2.35194559E-05  0.00000000E+00  0.00000000E+00
 -3.42991047E-04  3.46715583E-05  0.00000000E+00 -7.86125992E-05 -1.13787344E-04
  0.00000000E+00  0.00000000E+00 -1.02661986E-04  1.08127962E-04  0.00000000E+00
 -1.19948084E-04  4.24357570E-05  0.00000000E+00  0.00000000E+00 -1.22727863E-05
  5.18731828E-04 -9.23608776E-04  3.03788211E-05 -7.90660731E-05  1.32542253E-04
 -2.20682046E-04 -3.16567981E-05 -4.18872643E-05  0.00000000E+00  1.82835494E-04
  2.35367173E-04  0.00000000E+00  5.78014331E-04  2.93777692E-04  0.00000000E+00
 -2.08536517E-04 -7.34896387E-05  0.00000000E+00 -1.14797193E-05  0.00000000E+00
  0.00000000E+00  4.36843559E-06  1.32203285E-05 -2.37846442E-06  0.00000000E+00
  0.00000000E+00 -1.64112364E-04  3.31323435E-05 -1.63638559E-05  0.00000000E+00
  0.00000000E+00 -1.62046368E-04 -2.51608139E-05  0.00000000E+00 -7.89100198E-06
 -1.06403180E-05  0.00000000E+00  0.00000000E+00 -2.59496619E-05  6.95312176E-06
  0.00000000E+00  4.13660502E-05  6.18895871E-05  0.00000000E+00  0.00000000E+00
  1.49707844E-04 -1.01291008E-04  4.07877758E-05  3.64378501E-05 -1.50031500E-04
 -3.11956215E-05  1.37857111E-05  6.96487398E-06  0.00000000E+00  2.44499905E-04
  6.81931803E-05  0.00000000E+00  1.37066830E-04  2.81375138E-05  0.00000000E+00
  1.53675116E-05  0.00000000E+00  0.00000000E+00 -1.47043583E-05  1.28824949E-05
  2.42329094E-05  0.00000000E+00  0.00000000E+00 -1.07792052E-04  5.64867586E-05
 -1.78576276E-04  1.87645302E-05 -1.25171809E-05 -5.47800665E-04  1.75425528E-04
  7.25497091E-06  1.35831150E-05  0.00000000E+00 -1.11504652E-07 -3.94587099E-05
  0.00000000E+00  1.85792992E-04  9.25753922E-05  0.00000000E+00 -5.30862598E-05
  4.27059569E-05  0.00000000E+00 -5.62534401E-07  0.00000000E+00  0.00000000E+00
 -8.20988319E-06 -1.26658983E-05  1.59878251E-05  0.00000000E+00  0.00000000E+00
  4.57799654E-05  1.08847910E-04  5.49955018E-05  0.00000000E+00  0.00000000E+00
 -3.25847623E-05 -6.55846960E-05  0.00000000E+00  7.72596240E-06  1.04761441E-05
  0.00000000E+00  0.00000000E+00 -5.72858773E-07 -2.26524320E-05  0.00000000E+00
 -1.23130108E-05 -3.18391624E-05  0.00000000E+00  0.00000000E+00 -1.71450420E-06
 -2.10828365E-05  9.47821976E-04  1.73047368E-05 -8.36244751E-06  2.49952094E-04
 -4.26421329E-04  1.55789716E-05  2.74725296E-05  0.00000000E+00 -5.54974798E-05
 -1.44988250E-04  0.00000000E+00  2.15938979E-04 -1.60045044E-04  0.00000000E+00
 -1.44755925E-04  1.46555398E-04  0.00000000E+00 -3.66421600E-06  0.00000000E+00
  0.00000000E+00 -2.73451935E-05 -1.00202475E-05 -4.88669043E-05  0.00000000E+00
  0.00000000E+00  6.62362566E-05  1.13012779E-04 -5.72583287E-05  0.00000000E+00
  0.00000000E+00  5.01467434E-05  6.64971040E-06  0.00000000E+00  2.85936748E-06
  5.10004576E-06  0.00000000E+00  0.00000000E+00 -6.29132840E-06  9.15923211E-07
  0.00000000E+00  2.90015677E-06 -2.64503737E-05  0.00000000E+00  0.00000000E+00
  9.64027977E-05 -1.44892747E-04  2.39842716E-04  1.36903506E-03 -1.51303989E-04
 -5.89286016E-04  9.27777246E-04  6.33085382E-05 -7.24880882E-05  0.00000000E+00
  6.00360158E-04 -2.05143747E-03  0.00000000E+00  1.37723318E-04  4.96568530E-04
  0.00000000E+00  1.87968017E-04 -3.00525090E-04  0.00000000E+00 -1.28331802E-04
  0.00000000E+00  0.00000000E+00 -1.99530576E-04 -1.60351011E-04 -4.65608234E-04
  0.00000000E+00  0.00000000E+00 -6.02917395E-04 -9.11170834E-04 -4.84994911E-05
  0.00000000E+00  0.00000000E+00  5.07934124E-05  1.19417630E-04  0.00000000E+00
  7.95494765E-06  3.54572979E-05  0.00000000E+00  0.00000000E+00 -2.71948417E-05
 -4.00282722E-06  0.00000000E+00 -1.34593917E-04  1.59985579E-04  0.00000000E+00
  0.00000000E+00 -3.20749304E-04 -3.18293632E-05  9.76651860E-01 -9.89191357E-03
  4.35624167E-02  3.66637519E-03 -8.91740378E-04 -4.67244999E-04  2.12329956E-03
  0.00000000E+00  5.35922858E-04 -2.49835293E-03  0.00000000E+00 -6.13874256E-05
  8.17109628E-04  0.00000000E+00  1.07643222E-04 -6.38718565E-05  0.00000000E+00
 -1.94685405E-04  0.00000000E+00  0.00000000E+00 -7.31502835E-05 -4.67537877E-05
  4.04657112E-04  0.00000000E+00  0.00000000E+00  8.45109713E-04  4.97808729E-04
 -2.09868118E-04  0.00000000E+00  0.00000000E+00 -1.40777026E-04 -3.83371765E-05
  0.00000000E+00 -5.08316767E-06  7.01622697E-05  0.00000000E+00  0.00000000E+00
 -3.03448259E-05  9.82731405E-06  0.00000000E+00 -8.97836891E-05  8.88528044E-05
  0.00000000E+00  0.00000000E+00 -1.68653197E-04  1.99224610E-04  3.79071541E-04
  1.98452913E-03  1.29065672E-03 -1.88034162E-05  4.74614289E-05  2.69871395E-04
  0.00000000E+00  3.89374239E-04  1.03757016E-03  0.00000000E+00 -1.06221427E-04
  2.24642216E-04  0.00000000E+00 -2.29115678E-05  0.00000000E+00  0.00000000E+00
  3.10565620E-05 -2.75389190E-05 -2.12430661E-04  0.00000000E+00  0.00000000E+00
 -3.61643221E-04  3.99900135E-04  9.76836014E-01 -9.18337339E-03  4.34614592E-02
  1.03189477E-04 -1.87184197E-03 -2.03256972E-03 -8.56690934E-04  0.00000000E+00
  2.06881082E-03  7.93803441E-04  0.00000000E+00 -3.82104796E-04  6.31193253E-04
  0.00000000E+00  2.18219389E-04 -2.96265821E-04  0.00000000E+00  3.17693099E-05
  0.00000000E+00  0.00000000E+00 -7.47467534E-05  6.05448816E-05  7.65014639E-04
  0.00000000E+00  0.00000000E+00 -2.05962686E-04  3.49509332E-04 -2.35525048E-04
  0.00000000E+00  0.00000000E+00  3.31873566E-04  3.86150195E-06  0.00000000E+00
 -7.99393242E-05  6.03773468E-07  0.00000000E+00  0.00000000E+00  1.69019583E-05