 Entering Gaussian System, Link 0=g16
 Input=hoono_a1_101p9746.gjf
 Output=hoono_a1_101p9746.log
 Initial command:
 /sw/contrib/gaussian/g16/B01/g16/l1.exe "/scr/Gau-28200.inp" -scrdir="/scr/"
 Entering Link 1 = /sw/contrib/gaussian/g16/B01/g16/l1.exe PID=     28201.
  
 Copyright (c) 1988-2017, Gaussian, Inc.  All Rights Reserved.
  
 This is part of the Gaussian(R) 16 program.  It is based on
 the Gaussian(R) 09 system (copyright 2009, Gaussian, Inc.),
 the Gaussian(R) 03 system (copyright 2003, Gaussian, Inc.),
 the Gaussian(R) 98 system (copyright 1998, Gaussian, Inc.),
 the Gaussian(R) 94 system (copyright 1995, Gaussian, Inc.),
 the Gaussian 92(TM) system (copyright 1992, Gaussian, Inc.),
 the Gaussian 90(TM) system (copyright 1990, Gaussian, Inc.),
 the Gaussian 88(TM) system (copyright 1988, Gaussian, Inc.),
 the Gaussian 86(TM) system (copyright 1986, Carnegie Mellon
 University), and the Gaussian 82(TM) system (copyright 1983,
 Carnegie Mellon University). Gaussian is a federally registered
 trademark of Gaussian, Inc.
  
 This software contains proprietary and confidential information,
 including trade secrets, belonging to Gaussian, Inc.
  
 This software is provided under written license and may be
 used, copied, transmitted, or stored only in accord with that
 written license.
  
 The following legend is applicable only to US Government
 contracts under FAR:
  
                    RESTRICTED RIGHTS LEGEND
  
 Use, reproduction and disclosure by the US Government is
 subject to restrictions as set forth in subparagraphs (a)
 and (c) of the Commercial Computer Software - Restricted
 Rights clause in FAR 52.227-19.
  
 Gaussian, Inc.
 340 Quinnipiac St., Bldg. 40, Wallingford CT 06492
  
  
 ---------------------------------------------------------------
 Warning -- This program may not be used in any manner that
 competes with the business of Gaussian, Inc. or will provide
 assistance to any competitor of Gaussian, Inc.  The licensee
 of this program is prohibited from giving any competitor of
 Gaussian, Inc. access to this program.  By using this program,
 the user acknowledges that Gaussian, Inc. is engaged in the
 business of creating and licensing software in the field of
 computational chemistry and represents and warrants to the
 licensee that it is not a competitor of Gaussian, Inc. and that
 it will not use this program in any manner prohibited above.
 ---------------------------------------------------------------
  

 Cite this work as:
 Gaussian 16, Revision B.01,
 M. J. Frisch, G. W. Trucks, H. B. Schlegel, G. E. Scuseria, 
 M. A. Robb, J. R. Cheeseman, G. Scalmani, V. Barone, 
 G. A. Petersson, H. Nakatsuji, X. Li, M. Caricato, A. V. Marenich, 
 J. Bloino, B. G. Janesko, R. Gomperts, B. Mennucci, H. P. Hratchian, 
 J. V. Ortiz, A. F. Izmaylov, J. L. Sonnenberg, D. Williams-Young, 
 F. Ding, F. Lipparini, F. Egidi, J. Goings, B. Peng, A. Petrone, 
 T. Henderson, D. Ranasinghe, V. G. Zakrzewski, J. Gao, N. Rega, 
 G. Zheng, W. Liang, M. Hada, M. Ehara, K. Toyota, R. Fukuda, 
 J. Hasegawa, M. Ishida, T. Nakajima, Y. Honda, O. Kitao, H. Nakai, 
 T. Vreven, K. Throssell, J. A. Montgomery, Jr., J. E. Peralta, 
 F. Ogliaro, M. J. Bearpark, J. J. Heyd, E. N. Brothers, K. N. Kudin, 
 V. N. Staroverov, T. A. Keith, R. Kobayashi, J. Normand, 
 K. Raghavachari, A. P. Rendell, J. C. Burant, S. S. Iyengar, 
 J. Tomasi, M. Cossi, J. M. Millam, M. Klene, C. Adamo, R. Cammi, 
 J. W. Ochterski, R. L. Martin, K. Morokuma, O. Farkas, 
 J. B. Foresman, and D. J. Fox, Gaussian, Inc., Wallingford CT, 2016.
 
 ******************************************
 Gaussian 16:  ES64L-G16RevB.01 20-Dec-2017
                 6-Mar-2022 
 ******************************************
 %nproc=28
 Will use up to   28 processors via shared memory.
 %mem=120GB
 %chk=hoono_a1_101p9746.chk
 ---------------------------------------
 #p freq mp2/aug-cc-pvtz density=current
 ---------------------------------------
 1/10=4,30=1,38=1/1,3;
 2/12=2,17=6,18=5,40=1/2;
 3/5=16,6=1,7=10,11=9,25=1,30=1,71=2,140=1/1,2,3;
 4//1;
 5/5=2,38=5,98=1/2;
 8/6=3,8=1,10=1,19=11,30=-1/1;
 9/15=3,16=-3/6;
 11/6=1,8=1,15=11,17=12,24=-1,27=1,28=-2,29=300,32=6,42=3/1,2,10;
 10/6=2,21=1/2;
 8/6=4,8=1,10=1,19=11,30=-1/11,4;
 10/5=1,20=4/2;
 11/12=2,14=11,16=1,17=2,28=-2,42=3,76=2/2,10,12;
 6/7=2,8=2,9=2,10=2,22=-1/1;
 7/8=1,10=1,12=2,25=1,44=2/1,2,3,16;
 1/10=4,30=1/3;
 99//99;
 Leave Link    1 at Sun Mar  6 19:21:11 2022, MaxMem= 16106127360 cpu:               2.2 elap:               0.1
 (Enter /sw/contrib/gaussian/g16/B01/g16/l101.exe)
 -----
 title
 -----
 Symbolic Z-matrix:
 Charge =  0 Multiplicity = 1
 H
 O                    1    r1
 O                    2    r2       1    a1
 N                    3    r3       2    a2       1    d1       0
 O                    4    r4       3    a3       2    d2       0
       Variables:
  r1                    0.98538                  
  r2                    1.42674                  
  r3                    1.38111                  
  r4                    1.19479                  
  a1                  101.97466                  
  a2                  113.13777                  
  a3                  114.33392                  
  d1                    0.                       
  d2                    0.                       
 
 ITRead=  0  0  0  0  0
 MicOpt= -1 -1 -1 -1 -1
 NAtoms=      5 NQM=        5 NQMF=       0 NMMI=      0 NMMIF=      0
                NMic=       0 NMicF=      0.
                    Isotopes and Nuclear Properties:
 (Nuclear quadrupole moments (NQMom) in fm**2, nuclear magnetic moments (NMagM)
  in nuclear magnetons)

  Atom         1           2           3           4           5
 IAtWgt=           1          16          16          14          16
 AtmWgt=   1.0078250  15.9949146  15.9949146  14.0030740  15.9949146
 NucSpn=           1           0           0           2           0
 AtZEff=  -0.0000000  -0.0000000  -0.0000000  -0.0000000  -0.0000000
 NQMom=    0.0000000   0.0000000   0.0000000   2.0440000   0.0000000
 NMagM=    2.7928460   0.0000000   0.0000000   0.4037610   0.0000000
 AtZNuc=   1.0000000   8.0000000   8.0000000   7.0000000   8.0000000
 Leave Link  101 at Sun Mar  6 19:21:11 2022, MaxMem= 16106127360 cpu:               2.5 elap:               0.1
 (Enter /sw/contrib/gaussian/g16/B01/g16/l103.exe)

 GradGradGradGradGradGradGradGradGradGradGradGradGradGradGradGradGradGrad
 Berny optimization.
 Initialization pass.
                       ----------------------------
                       !    Initial Parameters    !
                       ! (Angstroms and Degrees)  !
 ----------------------                            ----------------------
 !      Name          Value   Derivative information (Atomic Units)     !
 ------------------------------------------------------------------------
 !       r1          0.9854   calculate D2E/DX2 analytically            !
 !       r2          1.4267   calculate D2E/DX2 analytically            !
 !       r3          1.3811   calculate D2E/DX2 analytically            !
 !       r4          1.1948   calculate D2E/DX2 analytically            !
 !       a1        101.9747   calculate D2E/DX2 analytically            !
 !       a2        113.1378   calculate D2E/DX2 analytically            !
 !       a3        114.3339   calculate D2E/DX2 analytically            !
 !       d1          0.0      calculate D2E/DX2 analytically            !
 !       d2          0.0      calculate D2E/DX2 analytically            !
 ------------------------------------------------------------------------
 Trust Radius=3.00D-01 FncErr=1.00D-07 GrdErr=1.00D-07 EigMax=2.50D+02 EigMin=1.00D-04
 Number of steps in this run=      2 maximum allowed number of steps=      2.
 GradGradGradGradGradGradGradGradGradGradGradGradGradGradGradGradGradGrad

 Leave Link  103 at Sun Mar  6 19:21:11 2022, MaxMem= 16106127360 cpu:               1.3 elap:               0.1
 (Enter /sw/contrib/gaussian/g16/B01/g16/l202.exe)
                          Input orientation:                          
 ---------------------------------------------------------------------
 Center     Atomic      Atomic             Coordinates (Angstroms)
 Number     Number       Type             X           Y           Z
 ---------------------------------------------------------------------
      1          1           0        0.000000    0.000000    0.000000
      2          8           0        0.000000    0.000000    0.985377
      3          8           0        1.395690    0.000000    1.281395
      4          7           0        2.190079    0.000000    0.151614
      5          8           0        1.582715    0.000000   -0.877282
 ---------------------------------------------------------------------
                    Distance matrix (angstroms):
                    1          2          3          4          5
     1  H    0.000000
     2  O    0.985377   0.000000
     3  O    1.894709   1.426737   0.000000
     4  N    2.195321   2.343418   1.381108   0.000000
     5  O    1.809588   2.444276   2.166763   1.194788   0.000000
 Stoichiometry    HNO3
 Framework group  CS[SG(HNO3)]
 Deg. of freedom     7
 Full point group                 CS      NOp   2
 Largest Abelian subgroup         CS      NOp   2
 Largest concise Abelian subgroup C1      NOp   1
                         Standard orientation:                         
 ---------------------------------------------------------------------
 Center     Atomic      Atomic             Coordinates (Angstroms)
 Number     Number       Type             X           Y           Z
 ---------------------------------------------------------------------
      1          1           0        1.130596   -0.603288    0.000000
      2          8           0        1.315405    0.364603    0.000000
      3          8           0       -0.000000    0.917131    0.000000
      4          7           0       -0.992184   -0.043612    0.000000
      5          8           0       -0.588568   -1.168163    0.000000
 ---------------------------------------------------------------------
 Rotational constants (GHZ):          21.3140101           8.1050990           5.8721072
 Leave Link  202 at Sun Mar  6 19:21:11 2022, MaxMem= 16106127360 cpu:               0.3 elap:               0.0
 (Enter /sw/contrib/gaussian/g16/B01/g16/l301.exe)
 Standard basis: Aug-CC-pVTZ (5D, 7F)
 Ernie: Thresh=  0.10000D-02 Tol=  0.10000D-05 Strict=F.
 Ernie:  12 primitive shells out of 131 were deleted.
 There are   166 symmetry adapted cartesian basis functions of A'  symmetry.
 There are    79 symmetry adapted cartesian basis functions of A"  symmetry.
 There are   136 symmetry adapted basis functions of A'  symmetry.
 There are    71 symmetry adapted basis functions of A"  symmetry.
   207 basis functions,   315 primitive gaussians,   245 cartesian basis functions
    16 alpha electrons       16 beta electrons
       nuclear repulsion energy       122.6860255692 Hartrees.
 IExCor=    0 DFT=F Ex=HF Corr=None ExCW=0 ScaHFX=  1.000000
 ScaDFX=  1.000000  1.000000  1.000000  1.000000 ScalE2=  1.000000  1.000000
 IRadAn=      5 IRanWt=     -1 IRanGd=            0 ICorTp=0 IEmpDi=  4
 NAtoms=    5 NActive=    5 NUniq=    5 SFac= 1.00D+00 NAtFMM=   60 NAOKFM=F Big=F
 Integral buffers will be    131072 words long.
 Raffenetti 1 integral format.
 Two-electron integral symmetry is turned on.
 Leave Link  301 at Sun Mar  6 19:21:11 2022, MaxMem= 16106127360 cpu:               2.1 elap:               0.1
 (Enter /sw/contrib/gaussian/g16/B01/g16/l302.exe)
 NPDir=0 NMtPBC=     1 NCelOv=     1 NCel=       1 NClECP=     1 NCelD=      1
         NCelK=      1 NCelE2=     1 NClLst=     1 CellRange=     0.0.
 One-electron integrals computed using PRISM.
 One-electron integral symmetry used in STVInt
 NBasis=   207 RedAO= T EigKep=  1.31D-04  NBF=   136    71
 NBsUse=   207 1.00D-06 EigRej= -1.00D+00 NBFU=   136    71
 Leave Link  302 at Sun Mar  6 19:21:12 2022, MaxMem= 16106127360 cpu:               4.5 elap:               0.2
 (Enter /sw/contrib/gaussian/g16/B01/g16/l303.exe)
 DipDrv:  MaxL=1.
 Leave Link  303 at Sun Mar  6 19:21:12 2022, MaxMem= 16106127360 cpu:               1.4 elap:               0.1
 (Enter /sw/contrib/gaussian/g16/B01/g16/l401.exe)
 ExpMin= 2.53D-02 ExpMax= 1.53D+04 ExpMxC= 5.22D+02 IAcc=3 IRadAn=         5 AccDes= 0.00D+00
 Harris functional with IExCor=  205 and IRadAn=       5 diagonalized for initial guess.
 HarFok:  IExCor=  205 AccDes= 0.00D+00 IRadAn=         5 IDoV= 1 UseB2=F ITyADJ=14
 ICtDFT=  3500011 ScaDFX=  1.000000  1.000000  1.000000  1.000000
 FoFCou: FMM=F IPFlag=           0 FMFlag=      100000 FMFlg1=           0
         NFxFlg=           0 DoJE=T BraDBF=F KetDBF=T FulRan=T
         wScrn=  0.000000 ICntrl=       500 IOpCl=  0 I1Cent=   200000004 NGrid=           0
         NMat0=    1 NMatS0=      1 NMatT0=    0 NMatD0=    1 NMtDS0=    0 NMtDT0=    0
 Petite list used in FoFCou.
 Harris En= -279.644971029211    
 JPrj=0 DoOrth=F DoCkMO=F.
 Initial guess orbital symmetries:
       Occupied  (A') (A') (A') (A') (A') (A') (A') (A') (A') (A')
                 (A") (A') (A") (A') (A") (A')
       Virtual   (A") (A') (A') (A') (A') (A") (A') (A') (A') (A')
                 (A") (A') (A") (A') (A') (A") (A') (A') (A") (A')
                 (A') (A') (A') (A') (A") (A') (A') (A') (A") (A')
                 (A') (A") (A") (A') (A') (A") (A') (A") (A') (A")
                 (A') (A") (A') (A") (A') (A') (A') (A') (A") (A')
                 (A') (A") (A') (A") (A') (A") (A') (A') (A') (A")
                 (A') (A') (A") (A') (A') (A') (A") (A") (A') (A')
                 (A") (A') (A") (A") (A') (A') (A") (A') (A') (A')
                 (A") (A') (A') (A") (A') (A") (A") (A') (A') (A')
                 (A') (A") (A') (A") (A') (A') (A") (A') (A") (A')
                 (A") (A') (A') (A") (A") (A') (A') (A') (A") (A')
                 (A") (A') (A') (A') (A") (A') (A') (A') (A") (A')
                 (A") (A') (A') (A") (A") (A") (A") (A') (A') (A')
                 (A') (A') (A') (A") (A') (A") (A') (A") (A') (A')
                 (A") (A') (A") (A') (A') (A") (A') (A') (A') (A")
                 (A') (A') (A') (A") (A') (A") (A") (A') (A") (A')
                 (A') (A") (A") (A') (A") (A') (A') (A") (A") (A')
                 (A") (A") (A") (A') (A') (A") (A') (A') (A') (A")
                 (A') (A') (A') (A') (A') (A') (A') (A') (A') (A')
                 (A')
 The electronic state of the initial guess is 1-A'.
 Leave Link  401 at Sun Mar  6 19:21:12 2022, MaxMem= 16106127360 cpu:               6.9 elap:               0.3
 (Enter /sw/contrib/gaussian/g16/B01/g16/l502.exe)
 Keep R1 ints in memory in symmetry-blocked form, NReq=348887737.
 FoFCou: FMM=F IPFlag=           0 FMFlag=           0 FMFlg1=           0
         NFxFlg=           0 DoJE=F BraDBF=F KetDBF=F FulRan=T
         wScrn=  0.000000 ICntrl=       600 IOpCl=  0 I1Cent=           0 NGrid=           0
         NMat0=    1 NMatS0=  21528 NMatT0=    0 NMatD0=    1 NMtDS0=    0 NMtDT0=    0
 Petite list used in FoFCou.
 Closed shell SCF:
 Using DIIS extrapolation, IDIIS=  1040.
 NGot= 16106127360 LenX= 15988850015 LenY= 15988789549
 Requested convergence on RMS density matrix=1.00D-08 within 128 cycles.
 Requested convergence on MAX density matrix=1.00D-06.
 Requested convergence on             energy=1.00D-06.
 No special actions if energy rises.

 Cycle   1  Pass 1  IDiag  1:
 E= -279.364285413152    
 DIIS: error= 2.75D-02 at cycle   1 NSaved=   1.
 NSaved= 1 IEnMin= 1 EnMin= -279.364285413152     IErMin= 1 ErrMin= 2.75D-02
 ErrMax= 2.75D-02  0.00D+00 EMaxC= 1.00D-01 BMatC= 4.51D-01 BMatP= 4.51D-01
 IDIUse=3 WtCom= 7.25D-01 WtEn= 2.75D-01
 Coeff-Com:  0.100D+01
 Coeff-En:   0.100D+01
 Coeff:      0.100D+01
 Gap=     0.499 Goal=   None    Shift=    0.000
 GapD=    0.499 DampG=2.000 DampE=0.500 DampFc=1.0000 IDamp=-1.
 RMSDP=1.68D-03 MaxDP=8.74D-02              OVMax= 1.24D-01

 Cycle   2  Pass 1  IDiag  1:
 E= -279.446146062868     Delta-E=       -0.081860649716 Rises=F Damp=F
 DIIS: error= 1.92D-02 at cycle   2 NSaved=   2.
 NSaved= 2 IEnMin= 2 EnMin= -279.446146062868     IErMin= 2 ErrMin= 1.92D-02
 ErrMax= 1.92D-02  0.00D+00 EMaxC= 1.00D-01 BMatC= 8.65D-02 BMatP= 4.51D-01
 IDIUse=3 WtCom= 8.08D-01 WtEn= 1.92D-01
 Coeff-Com:  0.219D+00 0.781D+00
 Coeff-En:   0.803D-01 0.920D+00
 Coeff:      0.193D+00 0.807D+00
 Gap=     0.561 Goal=   None    Shift=    0.000
 RMSDP=9.67D-04 MaxDP=3.64D-02 DE=-8.19D-02 OVMax= 9.12D-02

 Cycle   3  Pass 1  IDiag  1:
 E= -279.484243314123     Delta-E=       -0.038097251255 Rises=F Damp=F
 DIIS: error= 1.09D-02 at cycle   3 NSaved=   3.
 NSaved= 3 IEnMin= 3 EnMin= -279.484243314123     IErMin= 3 ErrMin= 1.09D-02
 ErrMax= 1.09D-02  0.00D+00 EMaxC= 1.00D-01 BMatC= 3.09D-02 BMatP= 8.65D-02
 IDIUse=3 WtCom= 8.91D-01 WtEn= 1.09D-01
 Coeff-Com: -0.347D-01 0.364D+00 0.671D+00
 Coeff-En:   0.000D+00 0.217D+00 0.783D+00
 Coeff:     -0.309D-01 0.348D+00 0.683D+00
 Gap=     0.541 Goal=   None    Shift=    0.000
 RMSDP=4.09D-04 MaxDP=1.57D-02 DE=-3.81D-02 OVMax= 3.92D-02

 Cycle   4  Pass 1  IDiag  1:
 E= -279.505367665192     Delta-E=       -0.021124351069 Rises=F Damp=F
 DIIS: error= 1.59D-03 at cycle   4 NSaved=   4.
 NSaved= 4 IEnMin= 4 EnMin= -279.505367665192     IErMin= 4 ErrMin= 1.59D-03
 ErrMax= 1.59D-03  0.00D+00 EMaxC= 1.00D-01 BMatC= 5.91D-04 BMatP= 3.09D-02
 IDIUse=3 WtCom= 9.84D-01 WtEn= 1.59D-02
 Coeff-Com: -0.118D-01 0.459D-01 0.152D+00 0.814D+00
 Coeff-En:   0.000D+00 0.000D+00 0.000D+00 0.100D+01
 Coeff:     -0.117D-01 0.451D-01 0.149D+00 0.817D+00
 Gap=     0.528 Goal=   None    Shift=    0.000
 RMSDP=9.87D-05 MaxDP=2.28D-03 DE=-2.11D-02 OVMax= 1.17D-02

 Cycle   5  Pass 1  IDiag  1:
 E= -279.506173769812     Delta-E=       -0.000806104619 Rises=F Damp=F
 DIIS: error= 1.08D-03 at cycle   5 NSaved=   5.
 NSaved= 5 IEnMin= 5 EnMin= -279.506173769812     IErMin= 5 ErrMin= 1.08D-03
 ErrMax= 1.08D-03  0.00D+00 EMaxC= 1.00D-01 BMatC= 1.02D-04 BMatP= 5.91D-04
 IDIUse=3 WtCom= 9.89D-01 WtEn= 1.08D-02
 Coeff-Com:  0.535D-02-0.654D-01-0.110D+00 0.596D-01 0.111D+01
 Coeff-En:   0.000D+00 0.000D+00 0.000D+00 0.000D+00 0.100D+01
 Coeff:      0.529D-02-0.647D-01-0.109D+00 0.589D-01 0.111D+01
 Gap=     0.532 Goal=   None    Shift=    0.000
 RMSDP=7.93D-05 MaxDP=2.11D-03 DE=-8.06D-04 OVMax= 1.29D-02

 Cycle   6  Pass 1  IDiag  1:
 E= -279.506533053115     Delta-E=       -0.000359283304 Rises=F Damp=F
 DIIS: error= 3.24D-04 at cycle   6 NSaved=   6.
 NSaved= 6 IEnMin= 6 EnMin= -279.506533053115     IErMin= 6 ErrMin= 3.24D-04
 ErrMax= 3.24D-04  0.00D+00 EMaxC= 1.00D-01 BMatC= 2.39D-05 BMatP= 1.02D-04
 IDIUse=3 WtCom= 9.97D-01 WtEn= 3.24D-03
 Coeff-Com:  0.188D-02-0.704D-02-0.177D-01-0.184D+00 0.154D-01 0.119D+01
 Coeff-En:   0.000D+00 0.000D+00 0.000D+00 0.000D+00 0.000D+00 0.100D+01
 Coeff:      0.187D-02-0.702D-02-0.177D-01-0.183D+00 0.153D-01 0.119D+01
 Gap=     0.532 Goal=   None    Shift=    0.000
 RMSDP=4.64D-05 MaxDP=1.07D-03 DE=-3.59D-04 OVMax= 6.07D-03

 Cycle   7  Pass 1  IDiag  1:
 E= -279.506618338805     Delta-E=       -0.000085285690 Rises=F Damp=F
 DIIS: error= 1.31D-04 at cycle   7 NSaved=   7.
 NSaved= 7 IEnMin= 7 EnMin= -279.506618338805     IErMin= 7 ErrMin= 1.31D-04
 ErrMax= 1.31D-04  0.00D+00 EMaxC= 1.00D-01 BMatC= 3.56D-06 BMatP= 2.39D-05
 IDIUse=3 WtCom= 9.99D-01 WtEn= 1.31D-03
 Coeff-Com: -0.109D-02 0.114D-01 0.250D-01 0.172D-01-0.182D+00-0.153D+00
 Coeff-Com:  0.128D+01
 Coeff-En:   0.000D+00 0.000D+00 0.000D+00 0.000D+00 0.000D+00 0.000D+00
 Coeff-En:   0.100D+01
 Coeff:     -0.109D-02 0.113D-01 0.250D-01 0.172D-01-0.182D+00-0.153D+00
 Coeff:      0.128D+01
 Gap=     0.532 Goal=   None    Shift=    0.000
 RMSDP=1.75D-05 MaxDP=5.12D-04 DE=-8.53D-05 OVMax= 2.33D-03

 Cycle   8  Pass 1  IDiag  1:
 E= -279.506630276113     Delta-E=       -0.000011937308 Rises=F Damp=F
 DIIS: error= 4.71D-05 at cycle   8 NSaved=   8.
 NSaved= 8 IEnMin= 8 EnMin= -279.506630276113     IErMin= 8 ErrMin= 4.71D-05
 ErrMax= 4.71D-05  0.00D+00 EMaxC= 1.00D-01 BMatC= 5.91D-07 BMatP= 3.56D-06
 IDIUse=1 WtCom= 1.00D+00 WtEn= 0.00D+00
 Coeff-Com: -0.556D-03 0.405D-02 0.966D-02 0.251D-01-0.575D-01-0.192D+00
 Coeff-Com:  0.354D+00 0.857D+00
 Coeff:     -0.556D-03 0.405D-02 0.966D-02 0.251D-01-0.575D-01-0.192D+00
 Coeff:      0.354D+00 0.857D+00
 Gap=     0.532 Goal=   None    Shift=    0.000
 RMSDP=5.38D-06 MaxDP=1.51D-04 DE=-1.19D-05 OVMax= 6.39D-04

 Cycle   9  Pass 1  IDiag  1:
 E= -279.506631628819     Delta-E=       -0.000001352706 Rises=F Damp=F
 DIIS: error= 2.47D-05 at cycle   9 NSaved=   9.
 NSaved= 9 IEnMin= 9 EnMin= -279.506631628819     IErMin= 9 ErrMin= 2.47D-05
 ErrMax= 2.47D-05  0.00D+00 EMaxC= 1.00D-01 BMatC= 1.15D-07 BMatP= 5.91D-07
 IDIUse=1 WtCom= 1.00D+00 WtEn= 0.00D+00
 Coeff-Com:  0.239D-03-0.253D-02-0.529D-02-0.563D-02 0.469D-01 0.487D-01
 Coeff-Com: -0.339D+00 0.346D-01 0.122D+01
 Coeff:      0.239D-03-0.253D-02-0.529D-02-0.563D-02 0.469D-01 0.487D-01
 Coeff:     -0.339D+00 0.346D-01 0.122D+01
 Gap=     0.532 Goal=   None    Shift=    0.000
 RMSDP=2.44D-06 MaxDP=6.53D-05 DE=-1.35D-06 OVMax= 2.57D-04

 Cycle  10  Pass 1  IDiag  1:
 E= -279.506631888381     Delta-E=       -0.000000259562 Rises=F Damp=F
 DIIS: error= 5.58D-06 at cycle  10 NSaved=  10.
 NSaved=10 IEnMin=10 EnMin= -279.506631888381     IErMin=10 ErrMin= 5.58D-06
 ErrMax= 5.58D-06  0.00D+00 EMaxC= 1.00D-01 BMatC= 8.18D-09 BMatP= 1.15D-07
 IDIUse=1 WtCom= 1.00D+00 WtEn= 0.00D+00
 Coeff-Com: -0.381D-04 0.489D-03 0.119D-02-0.183D-02-0.109D-01 0.516D-02
 Coeff-Com:  0.730D-01-0.542D-01-0.438D+00 0.142D+01
 Coeff:     -0.381D-04 0.489D-03 0.119D-02-0.183D-02-0.109D-01 0.516D-02
 Coeff:      0.730D-01-0.542D-01-0.438D+00 0.142D+01
 Gap=     0.532 Goal=   None    Shift=    0.000
 RMSDP=6.97D-07 MaxDP=2.54D-05 DE=-2.60D-07 OVMax= 7.51D-05

 Cycle  11  Pass 1  IDiag  1:
 E= -279.506631912849     Delta-E=       -0.000000024469 Rises=F Damp=F
 DIIS: error= 2.17D-06 at cycle  11 NSaved=  11.
 NSaved=11 IEnMin=11 EnMin= -279.506631912849     IErMin=11 ErrMin= 2.17D-06
 ErrMax= 2.17D-06  0.00D+00 EMaxC= 1.00D-01 BMatC= 8.17D-10 BMatP= 8.18D-09
 IDIUse=1 WtCom= 1.00D+00 WtEn= 0.00D+00
 Coeff-Com: -0.157D-04 0.158D-03 0.328D-03 0.905D-03-0.207D-02-0.710D-02
 Coeff-Com:  0.180D-01 0.194D-01-0.446D-01-0.333D+00 0.135D+01
 Coeff:     -0.157D-04 0.158D-03 0.328D-03 0.905D-03-0.207D-02-0.710D-02
 Coeff:      0.180D-01 0.194D-01-0.446D-01-0.333D+00 0.135D+01
 Gap=     0.532 Goal=   None    Shift=    0.000
 RMSDP=2.41D-07 MaxDP=8.94D-06 DE=-2.45D-08 OVMax= 2.83D-05

 Cycle  12  Pass 1  IDiag  1:
 E= -279.506631915778     Delta-E=       -0.000000002929 Rises=F Damp=F
 DIIS: error= 7.06D-07 at cycle  12 NSaved=  12.
 NSaved=12 IEnMin=12 EnMin= -279.506631915778     IErMin=12 ErrMin= 7.06D-07
 ErrMax= 7.06D-07  0.00D+00 EMaxC= 1.00D-01 BMatC= 8.50D-11 BMatP= 8.17D-10
 IDIUse=1 WtCom= 1.00D+00 WtEn= 0.00D+00
 Coeff-Com:  0.257D-05-0.445D-04-0.966D-04 0.130D-03 0.112D-02-0.723D-03
 Coeff-Com: -0.727D-02 0.644D-02 0.406D-01-0.113D+00-0.178D+00 0.125D+01
 Coeff:      0.257D-05-0.445D-04-0.966D-04 0.130D-03 0.112D-02-0.723D-03
 Coeff:     -0.727D-02 0.644D-02 0.406D-01-0.113D+00-0.178D+00 0.125D+01
 Gap=     0.532 Goal=   None    Shift=    0.000
 RMSDP=8.31D-08 MaxDP=2.71D-06 DE=-2.93D-09 OVMax= 9.67D-06

 Cycle  13  Pass 1  IDiag  1:
 E= -279.506631916077     Delta-E=       -0.000000000298 Rises=F Damp=F
 DIIS: error= 1.57D-07 at cycle  13 NSaved=  13.
 NSaved=13 IEnMin=13 EnMin= -279.506631916077     IErMin=13 ErrMin= 1.57D-07
 ErrMax= 1.57D-07  0.00D+00 EMaxC= 1.00D-01 BMatC= 7.16D-12 BMatP= 8.50D-11
 IDIUse=1 WtCom= 1.00D+00 WtEn= 0.00D+00
 Coeff-Com:  0.129D-05-0.120D-04-0.174D-04-0.122D-03 0.495D-04 0.922D-03
 Coeff-Com: -0.105D-02-0.249D-02-0.213D-02 0.549D-01-0.130D+00-0.146D+00
 Coeff-Com:  0.123D+01
 Coeff:      0.129D-05-0.120D-04-0.174D-04-0.122D-03 0.495D-04 0.922D-03
 Coeff:     -0.105D-02-0.249D-02-0.213D-02 0.549D-01-0.130D+00-0.146D+00
 Coeff:      0.123D+01
 Gap=     0.532 Goal=   None    Shift=    0.000
 RMSDP=2.22D-08 MaxDP=6.55D-07 DE=-2.98D-10 OVMax= 2.00D-06

 Cycle  14  Pass 1  IDiag  1:
 E= -279.506631916096     Delta-E=       -0.000000000019 Rises=F Damp=F
 DIIS: error= 4.11D-08 at cycle  14 NSaved=  14.
 NSaved=14 IEnMin=14 EnMin= -279.506631916096     IErMin=14 ErrMin= 4.11D-08
 ErrMax= 4.11D-08  0.00D+00 EMaxC= 1.00D-01 BMatC= 4.86D-13 BMatP= 7.16D-12
 IDIUse=1 WtCom= 1.00D+00 WtEn= 0.00D+00
 Coeff-Com: -0.299D-06 0.444D-05 0.886D-05-0.391D-05-0.113D-03 0.596D-04
 Coeff-Com:  0.645D-03-0.324D-03-0.359D-02 0.809D-02 0.165D-01-0.897D-01
 Coeff-Com: -0.220D-01 0.109D+01
 Coeff:     -0.299D-06 0.444D-05 0.886D-05-0.391D-05-0.113D-03 0.596D-04
 Coeff:      0.645D-03-0.324D-03-0.359D-02 0.809D-02 0.165D-01-0.897D-01
 Coeff:     -0.220D-01 0.109D+01
 Gap=     0.532 Goal=   None    Shift=    0.000
 RMSDP=4.37D-09 MaxDP=1.10D-07 DE=-1.94D-11 OVMax= 4.41D-07

 SCF Done:  E(RHF) =  -279.506631916     A.U. after   14 cycles
            NFock= 14  Conv=0.44D-08     -V/T= 2.0022
 KE= 2.788795763065D+02 PE=-9.062500296816D+02 EE= 2.251777958898D+02
 Leave Link  502 at Sun Mar  6 19:21:16 2022, MaxMem= 16106127360 cpu:              58.6 elap:               3.7
 (Enter /sw/contrib/gaussian/g16/B01/g16/l801.exe)
 ExpMin= 2.53D-02 ExpMax= 1.53D+04 ExpMxC= 5.22D+02 IAcc=3 IRadAn=         5 AccDes= 0.00D+00
 HarFok:  IExCor=  205 AccDes= 0.00D+00 IRadAn=         5 IDoV=-2 UseB2=F ITyADJ=14
 ICtDFT= 12500011 ScaDFX=  1.000000  1.000000  1.000000  1.000000
 Largest valence mixing into a core orbital is  2.07D-04
 Largest core mixing into a valence orbital is  3.09D-05
 Range of M.O.s used for correlation:     5   207
 NBasis=   207 NAE=    16 NBE=    16 NFC=     4 NFV=     0
 NROrb=    203 NOA=    12 NOB=    12 NVA=   191 NVB=   191

 **** Warning!!: The largest alpha MO coefficient is  0.15987984D+02

 Leave Link  801 at Sun Mar  6 19:21:16 2022, MaxMem= 16106127360 cpu:               2.7 elap:               0.1
 (Enter /sw/contrib/gaussian/g16/B01/g16/l906.exe)
 Frozen-core derivative calculation, NFC=   4 NFV=   0.
 FulOut=F Deriv=T AODrv=T NAtomX=     5
   MMem=           0  MDisk=          12 MDiskD=          12
  W3Min=      811440 MinDsk=     2425030 NBas6D=         245
 NBas2D=       30762    NTT=       30135    LW2=     7400000
    MDV= 16105571560 MDiskM=      328644 NBas2p=       30759
 Disk-based method using ON**2 memory for 12 occupieds at a time.
 Permanent disk used for amplitudes=    11516536 words.
 Estimated scratch disk usage=   321863743 words.
 IMap=   1   2   3   4   5   6   7   8   9  10  11  12  13  14  15  16
 Actual    scratch disk usage=   310892607 words.
 JobTyp=1 Pass  1:  I=   5 to  16 NPSUse= 28 ParTrn=T ParDer=T DoDerP=T.
 (rs|ai) integrals will be sorted in core.
 Spin components of T(2) and E(2):
     alpha-alpha T2 =       0.3477534484D-01 E2=     -0.1244868771D+00
     alpha-beta  T2 =       0.1844678422D+00 E2=     -0.6995660585D+00
     beta-beta   T2 =       0.3477534484D-01 E2=     -0.1244868771D+00
 The integrals were generated   1 times.
 ANorm=    0.1119829689D+01
 E2 =    -0.9485398127D+00 EUMP2 =    -0.28045517172883D+03
 Leave Link  906 at Sun Mar  6 19:22:53 2022, MaxMem= 16106127360 cpu:            2722.6 elap:              97.4
 (Enter /sw/contrib/gaussian/g16/B01/g16/l1101.exe)
 Using compressed Sx but separate Hx and Fx, NAtomX=     5.
 Will process      6 centers per pass.
 Leave Link 1101 at Sun Mar  6 19:22:53 2022, MaxMem= 16106127360 cpu:               6.4 elap:               0.3
 (Enter /sw/contrib/gaussian/g16/B01/g16/l1102.exe)
 Leave Link 1102 at Sun Mar  6 19:22:54 2022, MaxMem= 16106127360 cpu:               1.1 elap:               0.1
 (Enter /sw/contrib/gaussian/g16/B01/g16/l1110.exe)
 Forming Gx(P) for the SCF density, NAtomX=     5.
 Integral derivatives from FoFJK, PRISM(SPDF).
 Do as many integral derivatives as possible in FoFJK.
 G2DrvN: MDV=   16106126844.
 G2DrvN: will do     6 centers at a time, making    1 passes.
 Calling FoFCou, ICntrl=  3107 FMM=F I1Cent=   0 AccDes= 0.00D+00.
 FoFJK:  IHMeth= 1 ICntrl=    3107 DoSepK=F KAlg= 0 I1Cent=           0 FoldK=F
 IRaf=         0 NMat=       1 IRICut=       1 DoRegI=T DoRafI=F ISym2E= 1 IDoP0=0 IntGTp=1.
 FoFCou: FMM=F IPFlag=           0 FMFlag=      100000 FMFlg1=           0
         NFxFlg=           0 DoJE=F BraDBF=F KetDBF=F FulRan=T
         wScrn=  0.000000 ICntrl=      3107 IOpCl=  0 I1Cent=           0 NGrid=           0
         NMat0=    1 NMatS0=      1 NMatT0=    0 NMatD0=    1 NMtDS0=    0 NMtDT0=    0
 Petite list used in FoFCou.
 End of G2Drv F.D. properties file   721 does not exist.
 End of G2Drv F.D. properties file   722 does not exist.
 End of G2Drv F.D. properties file   788 does not exist.
 Leave Link 1110 at Sun Mar  6 19:22:57 2022, MaxMem= 16106127360 cpu:              87.2 elap:               3.1
 (Enter /sw/contrib/gaussian/g16/B01/g16/l1002.exe)
 Minotr:  Closed shell wavefunction.
          IDoAtm=11111
          Frozen-core window.
          Direct CPHF calculation.
          Differentiating once with respect to electric field.
                with respect to dipole field.
          Differentiating once with respect to nuclear coordinates.
          Requested convergence is 1.0D-08 RMS, and 1.0D-07 maximum.
          Secondary convergence is 1.0D-12 RMS, and 1.0D-12 maximum.
          NewPWx=T KeepS1=T KeepF1=T KeepIn=T MapXYZ=F SortEE=F KeepMc=T.
 Keep R1 ints in memory in symmetry-blocked form, NReq=348888983.
 FoFCou: FMM=F IPFlag=           0 FMFlag=           0 FMFlg1=           0
         NFxFlg=           0 DoJE=F BraDBF=F KetDBF=F FulRan=T
         wScrn=  0.000000 ICntrl=       600 IOpCl=  0 I1Cent=           0 NGrid=           0
         NMat0=    1 NMatS0=  21528 NMatT0=    0 NMatD0=    1 NMtDS0=    0 NMtDT0=    0
 Petite list used in FoFCou.
          MDV=   16106127360 using IRadAn=       1.
          Solving linear equations simultaneously, MaxMat=       0.
          There are    18 degrees of freedom in the 1st order CPHF.  IDoFFX=6 NUNeed=    18.
     15 vectors produced by pass  0 Test12= 1.70D-14 5.56D-09 XBig12= 7.93D+00 1.23D+00.
 AX will form    15 AO Fock derivatives at one time.
     15 vectors produced by pass  1 Test12= 1.70D-14 5.56D-09 XBig12= 1.35D+00 2.29D-01.
     15 vectors produced by pass  2 Test12= 1.70D-14 5.56D-09 XBig12= 6.48D-02 5.79D-02.
     15 vectors produced by pass  3 Test12= 1.70D-14 5.56D-09 XBig12= 1.96D-03 1.05D-02.
     15 vectors produced by pass  4 Test12= 1.70D-14 5.56D-09 XBig12= 4.08D-05 1.20D-03.
     15 vectors produced by pass  5 Test12= 1.70D-14 5.56D-09 XBig12= 5.76D-07 1.20D-04.
     15 vectors produced by pass  6 Test12= 1.70D-14 5.56D-09 XBig12= 4.56D-09 1.24D-05.
     14 vectors produced by pass  7 Test12= 1.70D-14 5.56D-09 XBig12= 3.44D-11 8.33D-07.
      3 vectors produced by pass  8 Test12= 1.70D-14 5.56D-09 XBig12= 2.34D-13 6.11D-08.
      1 vectors produced by pass  9 Test12= 1.70D-14 5.56D-09 XBig12= 1.59D-15 6.52D-09.
 InvSVY:  IOpt=1 It=  1 EMax= 8.88D-16
 Solved reduced A of dimension   123 with    15 vectors.
 FullF1:  Do perturbations      1 to      18.
 Saving first derivative matrices.
 End of Minotr F.D. properties file   721 does not exist.
 End of Minotr F.D. properties file   722 does not exist.
 End of Minotr F.D. properties file   788 does not exist.
 Leave Link 1002 at Sun Mar  6 19:23:00 2022, MaxMem= 16106127360 cpu:              78.1 elap:               2.9
 (Enter /sw/contrib/gaussian/g16/B01/g16/l811.exe)
 MDV= 16106127360.
 Form MO integral derivatives with frozen-active canonical formalism.
 MOERI=1 MOERIx=1 NAtoms=     5 NAtomX=     5.
 Discarding MO integrals.
 MO basis two electron integral derivatives will not be stored on disk.
 IAlg= 3 DoFC=T DoPWx=T Debug=F.
 Frozen-core window:  NFC=   4 NFV=   0.
 Reordered first order wavefunction length =     18678272
 In DefCFB: NBatch=  1 ICI= 16 ICA=191 LFMax= 96
            Large arrays: LIAPS=   619940160 LIARS=   288257200 words.
 In StABat: MaxSiz= 55 MinSiz= 25 NAtomB=  5
 DoIAMN: NPSUse= 28.
 Leave Link  811 at Sun Mar  6 19:24:20 2022, MaxMem= 16106127360 cpu:            2247.7 elap:              80.4
 (Enter /sw/contrib/gaussian/g16/B01/g16/l804.exe)
 Frozen-core window:  NFC=   4 NFV=   0.
 Closed-shell transformation, MDV= 16106127360 ITran=4 ISComp=1.
 Semi-Direct transformation.
 ModeAB=           2 MOrb=            16 LenV=   16104919939
 LASXX=     67341636 LTotXX=    67341636 LenRXX=    67341636
 LTotAB=    68301760 MaxLAS=    99807120 LenRXY=    99807120
 NonZer=   134683272 LenScr=   202817536 LnRSAI=           0
 LnScr1=           0 LExtra=           0 Total=    369966292
 MaxDsk=          -1 SrtSym=           F ITran=            4
 DoSDTr:  NPSUse= 28
 JobTyp=0 Pass  1:  I=   1 to  16.
 (rs|ai) integrals will be sorted in core.
 Complete sort for first half transformation.
 First half transformation complete.
 Begin second half transformation for I=  10.
 Begin second half transformation for I=  10.
 Complete sort for second half transformation.
 Second half transformation complete.
 Spin components of T(2) and E(2):
     alpha-alpha T2 =       0.3477534484D-01 E2=     -0.1244868771D+00
     alpha-beta  T2 =       0.1844678422D+00 E2=     -0.6995660585D+00
     beta-beta   T2 =       0.3477534484D-01 E2=     -0.1244868771D+00
 ANorm=    0.1583678333D+01
 E2 =    -0.9485398127D+00 EUMP2 =    -0.28045517172883D+03
 Leave Link  804 at Sun Mar  6 19:24:36 2022, MaxMem= 16106127360 cpu:             430.8 elap:              15.4
 (Enter /sw/contrib/gaussian/g16/B01/g16/l1002.exe)
 Minotr:  Closed shell wavefunction.
          Computing MP2/KS-MP2 derivatives.
          Using Z-Vector for PSCF gradient.
          Skipping F1 and S1 gradient terms here.
          IDoAtm=11111
          Frozen-core window.
          Using MO integrals in the linear equations.
          Forming densities via direct SCF.
          Differentiating once with respect to electric field.
                with respect to dipole field.
          Differentiating once with respect to nuclear coordinates.
          Using symmetry in CPHF.
          Requested convergence is 1.0D-10 RMS, and 1.0D-09 maximum.
          NewPWx=F KeepS1=T KeepF1=T KeepIn=T MapXYZ=F SortEE=F KeepMc=T.
          MDV=   16106127360 using IRadAn=       5.
          Solving linear equations separately, MaxMat=       0.
          There are     1 degrees of freedom in the 1st order CPHF.  IDoFFX=0 NUNeed=     1.
 FoFJK:  IHMeth= 1 ICntrl=       0 DoSepK=F KAlg= 0 I1Cent=           0 FoldK=F
 IRaf=         0 NMat=       1 IRICut=       1 DoRegI=T DoRafI=F ISym2E= 0 IDoP0=0 IntGTp=1.
 FoFCou: FMM=F IPFlag=           0 FMFlag=      100000 FMFlg1=           0
         NFxFlg=           0 DoJE=F BraDBF=F KetDBF=F FulRan=T
         wScrn=  0.000000 ICntrl=         0 IOpCl=  0 I1Cent=           0 NGrid=           0
         NMat0=    1 NMatS0=      1 NMatT0=    0 NMatD0=    1 NMtDS0=    0 NMtDT0=    0
 Symmetry not used in FoFCou.
 LinEq1:  Iter=  0 NonCon=     1 RMS=6.58D-03 Max=1.69D-01 NDo=     1
 LinEq1:  Iter=  1 NonCon=     1 RMS=2.00D-03 Max=3.08D-02 NDo=     1
 LinEq1:  Iter=  2 NonCon=     1 RMS=8.85D-04 Max=1.43D-02 NDo=     1
 LinEq1:  Iter=  3 NonCon=     1 RMS=3.81D-04 Max=8.21D-03 NDo=     1
 LinEq1:  Iter=  4 NonCon=     1 RMS=1.37D-04 Max=1.67D-03 NDo=     1
 LinEq1:  Iter=  5 NonCon=     1 RMS=7.64D-05 Max=1.37D-03 NDo=     1
 LinEq1:  Iter=  6 NonCon=     1 RMS=2.43D-05 Max=3.43D-04 NDo=     1
 LinEq1:  Iter=  7 NonCon=     1 RMS=8.13D-06 Max=1.09D-04 NDo=     1
 LinEq1:  Iter=  8 NonCon=     1 RMS=3.96D-06 Max=6.10D-05 NDo=     1
 LinEq1:  Iter=  9 NonCon=     1 RMS=1.04D-06 Max=1.14D-05 NDo=     1
 LinEq1:  Iter= 10 NonCon=     1 RMS=2.31D-07 Max=2.82D-06 NDo=     1
 LinEq1:  Iter= 11 NonCon=     1 RMS=4.98D-08 Max=7.59D-07 NDo=     1
 LinEq1:  Iter= 12 NonCon=     1 RMS=1.17D-08 Max=1.60D-07 NDo=     1
 LinEq1:  Iter= 13 NonCon=     1 RMS=2.05D-09 Max=2.15D-08 NDo=     1
 LinEq1:  Iter= 14 NonCon=     1 RMS=4.26D-10 Max=5.71D-09 NDo=     1
 LinEq1:  Iter= 15 NonCon=     0 RMS=8.74D-11 Max=8.51D-10 NDo=     1
 Linear equations converged to 1.000D-10 1.000D-09 after    15 iterations.
 End of Minotr F.D. properties file   721 does not exist.
 End of Minotr F.D. properties file   722 does not exist.
 End of Minotr F.D. properties file   788 does not exist.
 Leave Link 1002 at Sun Mar  6 19:24:38 2022, MaxMem= 16106127360 cpu:              66.5 elap:               2.4
 (Enter /sw/contrib/gaussian/g16/B01/g16/l1102.exe)
 Use density number 2.
 Symmetrizing basis deriv contribution to polar:
 IMax=3 JMax=2 DiffMx= 0.00D+00
 Leave Link 1102 at Sun Mar  6 19:24:38 2022, MaxMem= 16106127360 cpu:               1.5 elap:               0.1
 (Enter /sw/contrib/gaussian/g16/B01/g16/l1110.exe)
 Forming Gx(P) for generalized density number  2 NAtomX=     5.
 Integral derivatives from FoFJK, PRISM(SPDF).
 Do as many integral derivatives as possible in FoFJK.
 G2DrvN: MDV=   16106126844.
 G2DrvN: will do     6 centers at a time, making    1 passes.
 Calling FoFCou, ICntrl=  3107 FMM=F I1Cent=   0 AccDes= 0.00D+00.
 FoFJK:  IHMeth= 1 ICntrl=    3107 DoSepK=F KAlg= 0 I1Cent=           0 FoldK=F
 IRaf=         0 NMat=       1 IRICut=       1 DoRegI=T DoRafI=F ISym2E= 1 IDoP0=0 IntGTp=1.
 FoFCou: FMM=F IPFlag=           0 FMFlag=      100000 FMFlg1=           0
         NFxFlg=           0 DoJE=F BraDBF=F KetDBF=F FulRan=T
         wScrn=  0.000000 ICntrl=      3107 IOpCl=  0 I1Cent=           0 NGrid=           0
         NMat0=    1 NMatS0=      1 NMatT0=    0 NMatD0=    1 NMtDS0=    0 NMtDT0=    0
 Petite list used in FoFCou.
 End of G2Drv F.D. properties file   721 does not exist.
 End of G2Drv F.D. properties file   722 does not exist.
 End of G2Drv F.D. properties file   788 does not exist.
 Leave Link 1110 at Sun Mar  6 19:24:41 2022, MaxMem= 16106127360 cpu:              86.8 elap:               3.1
 (Enter /sw/contrib/gaussian/g16/B01/g16/l1112.exe)
 MP22nd: MDV=   16106127360
 This link is doing NAtomX=     5 total of    18 degrees of freedom.
 Using ON3 I/O method in MakUI.
 Frozen-core window:  NFC=   4 NFV=   0.
 Using Ix for Sx.
 Use MO integrals over full window.
 Using OV2 memory method for fx*t*t/D, MaxI=    16 DoOO2=F NP=  28.
 R2 and R3 integrals will be kept in memory, NReq=   915591705.
 FoFCou: FMM=F IPFlag=           0 FMFlag=           0 FMFlg1=           0
         NFxFlg=           0 DoJE=F BraDBF=F KetDBF=F FulRan=T
         wScrn=  0.000000 ICntrl=       600 IOpCl=  0 I1Cent=           0 NGrid=           0
         NMat0=    1 NMatS0=      1 NMatT0=    0 NMatD0=    1 NMtDS0=    0 NMtDT0=    0
 Symmetry not used in FoFCou.
 DD1Dir will call FoFMem   1 times, MxPair=       272
 NAB=   136 NAA=     0 NBB=     0.
 Symmetry is being used.
 FoFJK:  IHMeth= 1 ICntrl=       0 DoSepK=F KAlg= 0 I1Cent=           0 FoldK=F
 IRaf=         0 NMat=      18 IRICut=      45 DoRegI=T DoRafI=T ISym2E= 2 IDoP0=3 IntGTp=3.
 Discarding MO integrals.
 Leave Link 1112 at Sun Mar  6 19:25:13 2022, MaxMem= 16106127360 cpu:             882.6 elap:              31.8
 (Enter /sw/contrib/gaussian/g16/B01/g16/l601.exe)
 Copying SCF densities to generalized density rwf, IOpCl= 0 IROHF=0.

 **********************************************************************

            Population analysis using the MP2 Density.

 **********************************************************************

 Orbital symmetries:
       Occupied  (A') (A') (A') (A') (A') (A') (A') (A') (A') (A')
                 (A") (A') (A') (A") (A') (A")
       Virtual   (A') (A") (A') (A') (A") (A') (A') (A') (A") (A')
                 (A") (A') (A') (A') (A") (A') (A') (A") (A') (A')
                 (A') (A') (A') (A') (A") (A') (A') (A") (A') (A')
                 (A') (A") (A") (A') (A') (A') (A") (A') (A") (A')
                 (A") (A") (A') (A') (A") (A') (A') (A") (A') (A')
                 (A') (A") (A') (A') (A") (A') (A") (A') (A") (A')
                 (A') (A') (A") (A') (A') (A') (A") (A") (A') (A')
                 (A") (A') (A") (A') (A") (A') (A") (A') (A') (A')
                 (A") (A') (A') (A") (A') (A") (A") (A') (A') (A')
                 (A') (A') (A") (A") (A') (A') (A") (A") (A') (A')
                 (A") (A') (A") (A') (A") (A') (A') (A') (A") (A')
                 (A") (A') (A') (A') (A") (A') (A') (A') (A") (A')
                 (A") (A") (A') (A') (A") (A") (A') (A") (A') (A')
                 (A') (A') (A") (A') (A') (A") (A") (A') (A') (A')
                 (A") (A") (A') (A') (A') (A") (A') (A') (A') (A")
                 (A') (A') (A') (A") (A") (A') (A") (A') (A') (A")
                 (A') (A") (A') (A") (A") (A') (A') (A") (A") (A")
                 (A') (A") (A") (A') (A') (A") (A') (A') (A') (A")
                 (A') (A') (A') (A') (A') (A') (A') (A') (A') (A')
                 (A')
 The electronic state is 1-A'.
 Alpha  occ. eigenvalues --  -20.71998 -20.68647 -20.66794 -15.82537  -1.64326
 Alpha  occ. eigenvalues --   -1.50440  -1.29367  -0.96039  -0.83355  -0.75843
 Alpha  occ. eigenvalues --   -0.73948  -0.63697  -0.61847  -0.61781  -0.50385
 Alpha  occ. eigenvalues --   -0.49737
 Alpha virt. eigenvalues --    0.03482   0.06081   0.09519   0.10042   0.11997
 Alpha virt. eigenvalues --    0.12260   0.14927   0.15139   0.17765   0.18076
 Alpha virt. eigenvalues --    0.18990   0.21118   0.21651   0.24269   0.24638
 Alpha virt. eigenvalues --    0.26939   0.31211   0.31595   0.33830   0.34355
 Alpha virt. eigenvalues --    0.34596   0.39244   0.44810   0.48656   0.50466
 Alpha virt. eigenvalues --    0.51881   0.54658   0.56159   0.60045   0.61998
 Alpha virt. eigenvalues --    0.63887   0.68840   0.71775   0.72438   0.74405
 Alpha virt. eigenvalues --    0.76280   0.76736   0.79597   0.80651   0.84113
 Alpha virt. eigenvalues --    0.84313   0.85072   0.88577   0.90733   0.93184
 Alpha virt. eigenvalues --    0.94677   0.95482   1.01755   1.02972   1.05898
 Alpha virt. eigenvalues --    1.06479   1.09397   1.14259   1.15625   1.16933
 Alpha virt. eigenvalues --    1.22296   1.22669   1.24464   1.34882   1.36852
 Alpha virt. eigenvalues --    1.37324   1.46870   1.48620   1.50667   1.53972
 Alpha virt. eigenvalues --    1.59618   1.59733   1.60717   1.62882   1.69687
 Alpha virt. eigenvalues --    1.73538   1.80146   1.83051   1.88549   1.88874
 Alpha virt. eigenvalues --    1.92681   1.97949   1.99042   2.05144   2.12308
 Alpha virt. eigenvalues --    2.12793   2.16299   2.18584   2.24448   2.25865
 Alpha virt. eigenvalues --    2.29155   2.34930   2.36405   2.38542   2.40108
 Alpha virt. eigenvalues --    2.43204   2.46932   2.47848   2.52823   2.53608
 Alpha virt. eigenvalues --    2.55134   2.55757   2.61538   2.62892   2.67289
 Alpha virt. eigenvalues --    2.67344   2.75711   2.81470   2.82060   2.83216
 Alpha virt. eigenvalues --    2.91908   2.98476   3.04657   3.05136   3.11399
 Alpha virt. eigenvalues --    3.11413   3.17052   3.20619   3.30607   3.33275
 Alpha virt. eigenvalues --    3.36358   3.47510   3.67912   3.86847   3.92101
 Alpha virt. eigenvalues --    4.18126   4.22137   4.22737   4.26771   4.37108
 Alpha virt. eigenvalues --    4.50213   4.52112   4.55678   4.59233   4.69699
 Alpha virt. eigenvalues --    4.80906   4.89920   4.91378   4.94327   5.00177
 Alpha virt. eigenvalues --    5.00613   5.10634   5.13377   5.18169   5.24865
 Alpha virt. eigenvalues --    5.26169   5.31854   5.33175   5.35924   5.54791
 Alpha virt. eigenvalues --    5.64519   5.70363   5.88355   5.99853   6.26491
 Alpha virt. eigenvalues --    6.29297   6.36314   6.38130   6.59466   6.65583
 Alpha virt. eigenvalues --    6.66291   6.68898   6.72730   6.79932   6.80182
 Alpha virt. eigenvalues --    6.85201   6.96728   7.00930   7.06640   7.08399
 Alpha virt. eigenvalues --    7.14694   7.17357   7.17525   7.20102   7.24528
 Alpha virt. eigenvalues --    7.24583   7.26978   7.34765   7.38847   7.42258
 Alpha virt. eigenvalues --    7.44301   7.46239   7.56037   7.66147   7.66393
 Alpha virt. eigenvalues --    7.79266   7.87856   7.95204   8.05471   8.29675
 Alpha virt. eigenvalues --    8.50386   8.65233  13.61987  14.74654  15.09524
 Alpha virt. eigenvalues --   15.73689
          Condensed to atoms (all electrons):
               1          2          3          4          5
     1  H    0.574880   0.125859   0.025653  -0.001211  -0.006555
     2  O    0.125859   8.389232  -0.231899  -0.000563  -0.008855
     3  O    0.025653  -0.231899   8.371766  -0.168276  -0.034613
     4  N   -0.001211  -0.000563  -0.168276   7.133436  -0.115811
     5  O   -0.006555  -0.008855  -0.034613  -0.115811   8.363229
 Mulliken charges:
               1
     1  H    0.281375
     2  O   -0.273774
     3  O    0.037369
     4  N    0.152425
     5  O   -0.197395
 Sum of Mulliken charges =  -0.00000
 Mulliken charges with hydrogens summed into heavy atoms:
               1
     2  O    0.007601
     3  O    0.037369
     4  N    0.152425
     5  O   -0.197395
 APT charges:
               1
     1  H    0.270731
     2  O   -0.302065
     3  O   -0.309539
     4  N    0.642747
     5  O   -0.301873
 Sum of APT charges =  -0.00000
 APT charges with hydrogens summed into heavy atoms:
               1
     2  O   -0.031334
     3  O   -0.309539
     4  N    0.642747
     5  O   -0.301873
 Electronic spatial extent (au):  <R**2>=            207.3667
 Charge=             -0.0000 electrons
 Dipole moment (field-independent basis, Debye):
    X=              0.0842    Y=             -1.1054    Z=              0.0000  Tot=              1.1086
 Quadrupole moment (field-independent basis, Debye-Ang):
   XX=            -23.3255   YY=            -22.9371   ZZ=            -21.9385
   XY=             -2.0339   XZ=              0.0000   YZ=              0.0000
 Traceless Quadrupole moment (field-independent basis, Debye-Ang):
   XX=             -0.5918   YY=             -0.2034   ZZ=              0.7952
   XY=             -2.0339   XZ=              0.0000   YZ=              0.0000
 Octapole moment (field-independent basis, Debye-Ang**2):
  XXX=              2.6866  YYY=              0.2696  ZZZ=              0.0000  XYY=              2.3981
  XXY=             -2.9080  XXZ=              0.0000  XZZ=             -0.5882  YZZ=             -0.7059
  YYZ=              0.0000  XYZ=              0.0000
 Hexadecapole moment (field-independent basis, Debye-Ang**3):
 XXXX=           -127.2116 YYYY=            -94.7782 ZZZZ=            -18.0560 XXXY=            -21.7415
 XXXZ=              0.0000 YYYX=            -19.8582 YYYZ=              0.0000 ZZZX=              0.0000
 ZZZY=              0.0000 XXYY=            -35.6424 XXZZ=            -24.3954 YYZZ=            -18.5829
 XXYZ=              0.0000 YYXZ=              0.0000 ZZXY=             -5.9134
 N-N= 1.226860255692D+02 E-N=-9.069385972684D+02  KE= 2.801976397512D+02
 Symmetry A'   KE= 2.663462735573D+02
 Symmetry A"   KE= 1.385136619386D+01
  Exact polarizability:  30.940   4.087  29.879   0.000   0.000  17.642
 Approx polarizability:  24.525   0.456  27.692  -0.000  -0.000  15.528
 No NMR shielding tensors so no spin-rotation constants.
 Leave Link  601 at Sun Mar  6 19:25:13 2022, MaxMem= 16106127360 cpu:               6.4 elap:               0.3
 (Enter /sw/contrib/gaussian/g16/B01/g16/l701.exe)
 ... and contract with generalized density number  2.
 Compute integral second derivatives.
 Leave Link  701 at Sun Mar  6 19:25:14 2022, MaxMem= 16106127360 cpu:               7.3 elap:               0.3
 (Enter /sw/contrib/gaussian/g16/B01/g16/l702.exe)
 L702 exits ... SP integral derivatives will be done elsewhere.
 Leave Link  702 at Sun Mar  6 19:25:14 2022, MaxMem= 16106127360 cpu:               0.5 elap:               0.0
 (Enter /sw/contrib/gaussian/g16/B01/g16/l703.exe)
 Integral derivatives from FoFJK, PRISM(SPDF).
 Compute integral second derivatives, UseDBF=F ICtDFT=           0.
 Calling FoFJK, ICntrl=  10100127 FMM=F ISym2X=1 I1Cent= 0 IOpClX= 0 NMat=1 NMatS=1 NMatT=0.
 FoFJK:  IHMeth= 1 ICntrl=10100127 DoSepK=F KAlg= 0 I1Cent=           0 FoldK=F
 IRaf=         0 NMat=       1 IRICut=       1 DoRegI=T DoRafI=F ISym2E= 1 IDoP0=0 IntGTp=1.
 FoFCou: FMM=F IPFlag=           0 FMFlag=      100000 FMFlg1=         800
         NFxFlg=           0 DoJE=F BraDBF=F KetDBF=F FulRan=T
         wScrn=  0.000000 ICntrl=  10100127 IOpCl=  0 I1Cent=           0 NGrid=           0
         NMat0=    1 NMatS0=      1 NMatT0=    0 NMatD0=    1 NMtDS0=    0 NMtDT0=    0
 Petite list used in FoFCou.
 Leave Link  703 at Sun Mar  6 19:25:30 2022, MaxMem= 16106127360 cpu:             445.6 elap:              16.0
 (Enter /sw/contrib/gaussian/g16/B01/g16/l716.exe)
 Dipole        = 3.31403395D-02-4.34881296D-01 0.00000000D+00
 Polarizability= 3.09402494D+01 4.08689247D+00 2.98792803D+01
                 0.00000000D+00 0.00000000D+00 1.76416034D+01
 Full mass-weighted force constant matrix:
 Low frequencies ---  -26.0386   -0.0011    0.0013    0.0014   19.4495   49.6978
 Low frequencies ---  336.5783  396.6269  524.3735
 Diagonal vibrational polarizability:
        7.3043832       9.9672240      17.9243080
 Harmonic frequencies (cm**-1), IR intensities (KM/Mole), Raman scattering
 activities (A**4/AMU), depolarization ratios for plane and unpolarized
 incident light, reduced masses (AMU), force constants (mDyne/A),
 and normal coordinates:
                      1                      2                      3
                     A"                     A'                     A"
 Frequencies --    335.9396               396.6234               524.2817
 Red. masses --      1.5467                 6.9543                 2.9611
 Frc consts  --      0.1028                 0.6446                 0.4796
 IR Inten    --     64.7297                 7.6371                25.4232
  Atom  AN      X      Y      Z        X      Y      Z        X      Y      Z
     1   1     0.00   0.00   0.98    -0.73  -0.25   0.00     0.00   0.00   0.93
     2   8     0.00   0.00  -0.11    -0.32  -0.31  -0.00     0.00   0.00   0.06
     3   8     0.00  -0.00   0.11    -0.06   0.09   0.00    -0.00  -0.00  -0.19
     4   7    -0.00  -0.00  -0.11     0.05   0.09  -0.00    -0.00   0.00   0.27
     5   8    -0.00  -0.00   0.03     0.39   0.16  -0.00    -0.00  -0.00  -0.17
                      4                      5                      6
                     A'                     A'                     A'
 Frequencies --    710.0760               833.9663               969.0424
 Red. masses --     13.2640                11.8045                 9.7541
 Frc consts  --      3.9403                 4.8372                 5.3967
 IR Inten    --    218.1462                30.2860                12.7545
  Atom  AN      X      Y      Z        X      Y      Z        X      Y      Z
     1   1    -0.36  -0.00   0.00     0.48  -0.17  -0.00    -0.63  -0.02  -0.00
     2   8    -0.00  -0.08   0.00     0.51  -0.20   0.00     0.20  -0.17   0.00
     3   8     0.37   0.58  -0.00    -0.37  -0.02  -0.00    -0.36   0.41  -0.00
     4   7    -0.41  -0.46   0.00    -0.43  -0.06   0.00     0.38   0.05   0.00
     5   8     0.01  -0.10  -0.00     0.20   0.28  -0.00    -0.13  -0.28  -0.00
                      7                      8                      9
                     A'                     A'                     A'
 Frequencies --   1419.4554              1566.9314              3495.0468
 Red. masses --      1.2804                 7.4629                 1.0639
 Frc consts  --      1.5200                10.7959                 7.6573
 IR Inten    --     78.7697               149.7681                41.2793
  Atom  AN      X      Y      Z        X      Y      Z        X      Y      Z
     1   1     0.97  -0.19  -0.00    -0.72   0.15   0.00     0.14   0.99   0.00
     2   8    -0.07  -0.05   0.00     0.02   0.02  -0.00    -0.01  -0.06  -0.00
     3   8    -0.02   0.06  -0.00    -0.04  -0.06   0.00     0.00  -0.00   0.00
     4   7     0.06  -0.04  -0.00     0.27  -0.44   0.00    -0.00   0.00   0.00
     5   8    -0.02   0.04   0.00    -0.16   0.41  -0.00     0.00  -0.00  -0.00

 -------------------
 - Thermochemistry -
 -------------------
 Temperature   298.150 Kelvin.  Pressure   1.00000 Atm.
 Atom     1 has atomic number  1 and mass   1.00783
 Atom     2 has atomic number  8 and mass  15.99491
 Atom     3 has atomic number  8 and mass  15.99491
 Atom     4 has atomic number  7 and mass  14.00307
 Atom     5 has atomic number  8 and mass  15.99491
 Molecular mass:    62.99564 amu.
 Principal axes and moments of inertia in atomic units:
                           1         2         3
     Eigenvalues --    84.67394 222.66739 307.34132
           X            0.79721  -0.60370   0.00000
           Y            0.60370   0.79721   0.00000
           Z            0.00000   0.00000   1.00000
 This molecule is an asymmetric top.
 Rotational symmetry number  1.
 Rotational temperatures (Kelvin)      1.02291     0.38898     0.28182
 Rotational constants (GHZ):          21.31401     8.10510     5.87211
 Zero-point vibrational energy      61316.8 (Joules/Mol)
                                   14.65506 (Kcal/Mol)
 Warning -- explicit consideration of   3 degrees of freedom as
           vibrations may cause significant error
 Vibrational temperatures:    483.34   570.65   754.32  1021.64  1199.89
          (Kelvin)           1394.24  2042.28  2254.46  5028.59
 
 Zero-point correction=                           0.023354 (Hartree/Particle)
 Thermal correction to Energy=                    0.027313
 Thermal correction to Enthalpy=                  0.028257
 Thermal correction to Gibbs Free Energy=        -0.002640
 Sum of electronic and zero-point Energies=           -280.431817
 Sum of electronic and thermal Energies=              -280.427858
 Sum of electronic and thermal Enthalpies=            -280.426914
 Sum of electronic and thermal Free Energies=         -280.457812
 
                     E (Thermal)             CV                S
                      KCal/Mol        Cal/Mol-Kelvin    Cal/Mol-Kelvin
 Total                   17.139             12.216             65.030
 Electronic               0.000              0.000              0.000
 Translational            0.889              2.981             38.341
 Rotational               0.889              2.981             23.276
 Vibrational             15.362              6.254              3.414
 Vibration     1          0.717              1.604              1.231
 Vibration     2          0.763              1.477              0.975
 Vibration     3          0.879              1.196              0.600
                       Q            Log10(Q)             Ln(Q)
 Total Bot       0.163862D+02          1.214477          2.796437
 Total V=0       0.905129D+12         11.956711         27.531344
 Vib (Bot)       0.305984D-10        -10.514302        -24.210075
 Vib (Bot)    1  0.554145D+00         -0.256377         -0.590329
 Vib (Bot)    2  0.450492D+00         -0.346313         -0.797416
 Vib (Bot)    3  0.306665D+00         -0.513336         -1.181999
 Vib (V=0)       0.169018D+01          0.227932          0.524832
 Vib (V=0)    1  0.124638D+01          0.095649          0.220240
 Vib (V=0)    2  0.117301D+01          0.069302          0.159573
 Vib (V=0)    3  0.108655D+01          0.036051          0.083010
 Electronic      0.100000D+01          0.000000          0.000000
 Translational   0.196526D+08          7.293420         16.793719
 Rotational      0.272495D+05          4.435359         10.212792
 
                                                                title
                                                             IR Spectrum
 
     3                                                                      1    1                                                   
     4                                                                      5    4               9    8    7     5    3 3            
     9                                                                      6    1               6    3    1     2    9 3            
     5                                                                      7    9               9    4    0     4    7 6            
 
     X                                                                      X    X               X    X    X     X    X X            
     X                                                                      X    X                    X    X     X      X            
     X                                                                      X    X                    X    X            X            
     X                                                                      X    X                         X            X            
                                                                            X    X                         X            X            
                                                                            X    X                         X            X            
                                                                            X    X                         X                         
                                                                            X                              X                         
                                                                            X                              X                         
                                                                            X                              X                         
                                                                            X                              X                         
                                                                            X                              X                         
                                                                            X                              X                         
                                                                            X                              X                         
                                                                                                           X                         
                                                                                                           X                         
                                                                                                           X                         
                                                                                                           X                         
                                                                                                           X                         
                                                                                                           X                         
 
 ***** Axes restored to original set *****
 -------------------------------------------------------------------
 Center     Atomic                   Forces (Hartrees/Bohr)
 Number     Number              X              Y              Z
 -------------------------------------------------------------------
      1        1           0.003100571   -0.000000000    0.001009672
      2        8          -0.002491937   -0.000000000    0.001505081
      3        8          -0.000843827   -0.000000000   -0.002280439
      4        7          -0.000007672   -0.000000000   -0.000325093
      5        8           0.000242864   -0.000000000    0.000090779
 -------------------------------------------------------------------
 Cartesian Forces:  Max     0.003100571 RMS     0.001295979
 -----------------------------------------------------------------------------------------------
                       Internal Coordinate Forces (Hartree/Bohr or radian)
  Cent   Atom   N1       Length/X         N2         Alpha/Y        N3         Beta/Z          J
 -----------------------------------------------------------------------------------------------
      1  H 
      2  O        1  -0.001010(     1)
      3  O        2  -0.001117(     2)      1  -0.005774(     5)
      4  N        3   0.000327(     3)      2   0.000518(     6)      1   0.000000(     8)     0
      5  O        4  -0.000202(     4)      3   0.000368(     7)      2   0.000000(     9)     0
 -----------------------------------------------------------------------------------------------
 Internal  Forces:  Max     0.005773727 RMS     0.002004304
 Force constants in Cartesian coordinates: 
                1             2             3             4             5 
      1  0.697304D-01
      2  0.000000D+00  0.593194D-02
      3  0.216508D-01  0.000000D+00  0.438848D+00
      4 -0.538050D-01  0.000000D+00 -0.423870D-02  0.282981D+00
      5  0.000000D+00 -0.122513D-02  0.000000D+00  0.000000D+00  0.100855D-01
      6  0.333159D-01  0.000000D+00 -0.422414D+00 -0.114252D-01  0.000000D+00
      7 -0.220365D-01  0.000000D+00 -0.146132D-01 -0.168631D+00  0.000000D+00
      8  0.000000D+00 -0.537130D-02  0.000000D+00  0.000000D+00 -0.179752D-01
      9 -0.436076D-01  0.000000D+00 -0.184384D-01  0.987334D-02  0.000000D+00
     10 -0.400853D-02  0.000000D+00  0.565608D-02 -0.854902D-01  0.000000D+00
     11  0.000000D+00  0.791005D-02  0.000000D+00  0.000000D+00  0.197252D-01
     12 -0.187137D-01  0.000000D+00  0.103629D-01  0.949312D-02  0.000000D+00
     13  0.101197D-01  0.000000D+00 -0.845489D-02  0.249452D-01  0.000000D+00
     14  0.000000D+00 -0.724556D-02  0.000000D+00  0.000000D+00 -0.106103D-01
     15  0.735459D-02  0.000000D+00 -0.835855D-02 -0.370253D-02  0.000000D+00
                6             7             8             9            10 
      6  0.524310D+00
      7 -0.915023D-01  0.297951D+00
      8  0.000000D+00  0.000000D+00  0.408969D-01
      9 -0.996206D-01  0.790841D-01  0.000000D+00  0.318414D+00
     10  0.393217D-01 -0.143525D+00  0.000000D+00 -0.382936D-01  0.541952D+00
     11  0.000000D+00  0.000000D+00 -0.475099D-01  0.000000D+00  0.000000D+00
     12 -0.849519D-02  0.126879D-01  0.000000D+00 -0.253627D-01  0.245133D+00
     13  0.302899D-01  0.362420D-01  0.000000D+00 -0.705636D-02 -0.308928D+00
     14  0.000000D+00  0.000000D+00  0.299595D-01  0.000000D+00  0.000000D+00
     15  0.621947D-02  0.143435D-01  0.000000D+00 -0.174993D+00 -0.251817D+00
               11            12            13            14            15 
     11  0.573917D-01
     12  0.000000D+00  0.459505D+00
     13  0.000000D+00 -0.248600D+00  0.237621D+00
     14 -0.375170D-01  0.000000D+00  0.000000D+00  0.254134D-01
     15  0.000000D+00 -0.436010D+00  0.233821D+00  0.000000D+00  0.613141D+00
 Force constants in internal coordinates: 
                1             2             3             4             5 
      1  0.438848D+00
      2  0.204429D-01  0.255599D+00
      3  0.324946D-02  0.181526D-01  0.207951D+00
      4 -0.114960D-01  0.224345D-01  0.148397D+00  0.720818D+00
      5  0.434162D-01  0.502454D-01 -0.238478D-01  0.213725D-01  0.239901D+00
      6  0.981205D-02  0.204408D-01  0.930606D-01  0.868628D-02 -0.134633D-01
      7  0.684557D-02 -0.719116D-01  0.121947D+00  0.115919D+00 -0.209209D-01
      8  0.000000D+00  0.000000D+00  0.000000D+00  0.000000D+00  0.000000D+00
      9  0.000000D+00  0.000000D+00  0.000000D+00  0.000000D+00  0.000000D+00
                6             7             8             9 
      6  0.514021D+00
      7  0.617335D-01  0.661969D+00
      8  0.000000D+00  0.000000D+00  0.190555D-01
      9  0.000000D+00  0.000000D+00  0.271522D-01  0.107039D+00
 Leave Link  716 at Sun Mar  6 19:25:30 2022, MaxMem= 16106127360 cpu:               0.7 elap:               0.0
 (Enter /sw/contrib/gaussian/g16/B01/g16/l103.exe)

 GradGradGradGradGradGradGradGradGradGradGradGradGradGradGradGradGradGrad
 Berny optimization.
 Search for a local minimum.
 Step number   1 out of a maximum of    2
 All quantities printed in internal units (Hartrees-Bohrs-Radians)
 Second derivative matrix not updated -- analytic derivatives used.
 The second derivative matrix:
                          r1        r2        r3        r4        a1
           r1           0.43885
           r2           0.02044   0.25560
           r3           0.00325   0.01815   0.20795
           r4          -0.01150   0.02243   0.14840   0.72082
           a1           0.04342   0.05025  -0.02385   0.02137   0.23990
           a2           0.00981   0.02044   0.09306   0.00869  -0.01346
           a3           0.00685  -0.07191   0.12195   0.11592  -0.02092
           d1           0.00000   0.00000   0.00000   0.00000   0.00000
           d2           0.00000   0.00000   0.00000   0.00000   0.00000
                          a2        a3        d1        d2
           a2           0.51402
           a3           0.06173   0.66197
           d1           0.00000   0.00000   0.01906
           d2           0.00000   0.00000   0.02715   0.10704
 ITU=  0
     Eigenvalues ---    0.01135   0.11474   0.12392   0.20215   0.26699
     Eigenvalues ---    0.45003   0.50801   0.60683   0.88118
 Angle between quadratic step and forces=  18.70 degrees.
 Linear search not attempted -- first point.
 Variable       Old X    -DE/DX   Delta X   Delta X   Delta X     New X
                                 (Linear)    (Quad)   (Total)
    r1        1.86209  -0.00101   0.00000   0.00012   0.00012   1.86221
    r2        2.69614  -0.00112   0.00000   0.00045   0.00045   2.69660
    r3        2.60992   0.00033   0.00000  -0.00224  -0.00224   2.60767
    r4        2.25782  -0.00020   0.00000   0.00088   0.00088   2.25871
    a1        1.77979  -0.00577   0.00000  -0.02444  -0.02444   1.75535
    a2        1.97463   0.00052   0.00000   0.00074   0.00074   1.97536
    a3        1.99550   0.00037   0.00000   0.00002   0.00002   1.99553
    d1        0.00000   0.00000   0.00000   0.00000   0.00000   0.00000
    d2        0.00000   0.00000   0.00000   0.00000   0.00000   0.00000
         Item               Value     Threshold  Converged?
 Maximum Force            0.005774     0.000450     NO 
 RMS     Force            0.002004     0.000300     NO 
 Maximum Displacement     0.024442     0.001800     NO 
 RMS     Displacement     0.008192     0.001200     NO 
 Predicted change in Energy=-6.998683D-05
                       ----------------------------
                       ! Non-Optimized Parameters !
                       ! (Angstroms and Degrees)  !
 ----------------------                            ----------------------
 !      Name          Value   Derivative information (Atomic Units)     !
 ------------------------------------------------------------------------
 !       r1          0.9854   -DE/DX =   -0.001                         !
 !       r2          1.427    -DE/DX =   -0.0011                        !
 !       r3          1.3799   -DE/DX =    0.0003                        !
 !       r4          1.1953   -DE/DX =   -0.0002                        !
 !       a1        100.5742   -DE/DX =   -0.0058                        !
 !       a2        113.18     -DE/DX =    0.0005                        !
 !       a3        114.3352   -DE/DX =    0.0004                        !
 !       d1          0.0      -DE/DX =    0.0                           !
 !       d2          0.0      -DE/DX =    0.0                           !
 ------------------------------------------------------------------------
 GradGradGradGradGradGradGradGradGradGradGradGradGradGradGradGradGradGrad

 Leave Link  103 at Sun Mar  6 19:25:30 2022, MaxMem= 16106127360 cpu:               0.6 elap:               0.0
 (Enter /sw/contrib/gaussian/g16/B01/g16/l9999.exe)

 ----------------------------------------------------------------------

 Electric dipole moment (input orientation):
 (Debye = 10**-18 statcoulomb cm , SI units = C m)
                  (au)            (Debye)         (10**-30 SI)
   Tot        0.436142D+00      0.110856D+01      0.369777D+01
   x         -0.114115D+00     -0.290051D+00     -0.967505D+00
   y          0.000000D+00      0.000000D+00      0.000000D+00
   z         -0.420949D+00     -0.106994D+01     -0.356895D+01

 Dipole polarizability, Alpha (input orientation).
 (esu units = cm**3 , SI units = C**2 m**2 J**-1)
 Alpha(0;0):
               (au)            (10**-24 esu)      (10**-40 SI)
   iso        0.261537D+02      0.387558D+01      0.431216D+01
   aniso      0.146280D+02      0.216765D+01      0.241183D+01
   xx         0.293971D+02      0.435621D+01      0.484693D+01
   yx         0.000000D+00      0.000000D+00      0.000000D+00
   yy         0.176416D+02      0.261422D+01      0.290871D+01
   zx        -0.399483D+01     -0.591973D+00     -0.658659D+00
   zy         0.000000D+00      0.000000D+00      0.000000D+00
   zz         0.314224D+02      0.465632D+01      0.518085D+01

 ----------------------------------------------------------------------

 Dipole orientation:
     1         -0.00000000          0.00000000          0.00000000
     8         -0.48720834          0.00000000         -1.79722413
     8          1.91202192         -0.00000000         -3.02721329
     7          3.91951227         -0.00000000         -1.35938842
     8          3.32046873          0.00000000          0.81751567

 Electric dipole moment (dipole orientation):
 (Debye = 10**-18 statcoulomb cm , SI units = C m)
                  (au)            (Debye)         (10**-30 SI)
   Tot        0.436142D+00      0.110856D+01      0.369777D+01
   x          0.000000D+00      0.000000D+00      0.000000D+00
   y          0.000000D+00      0.000000D+00      0.000000D+00
   z          0.436142D+00      0.110856D+01      0.369777D+01

 Dipole polarizability, Alpha (dipole orientation).
 (esu units = cm**3 , SI units = C**2 m**2 J**-1)
 Alpha(0;0):
               (au)            (10**-24 esu)      (10**-40 SI)
   iso        0.261537D+02      0.387558D+01      0.431216D+01
   aniso      0.146280D+02      0.216765D+01      0.241183D+01
   xx         0.315534D+02      0.467573D+01      0.520246D+01
   yx         0.000000D+00      0.000000D+00      0.000000D+00
   yy         0.176416D+02      0.261422D+01      0.290871D+01
   zx         0.395931D+01      0.586710D+00      0.652803D+00
   zy         0.000000D+00      0.000000D+00      0.000000D+00
   zz         0.292661D+02      0.433679D+01      0.482533D+01

 ----------------------------------------------------------------------
 1\1\GINC-N2199\Freq\RMP2-FC\Aug-CC-pVTZ\H1N1O3\CGAVINH\06-Mar-2022\1\\
 #p freq mp2/aug-cc-pvtz density=current\\title\\0,1\H\O,1,r1\O,2,r2,1,
 a1\N,3,r3,2,a2,1,d1,0\O,4,r4,3,a3,2,d2,0\\r1=0.98537664\r2=1.42673666\
 r3=1.38110764\r4=1.19478846\a1=101.97466103\a2=113.13777052\a3=114.333
 92022\d1=0.\d2=0.\\Version=ES64L-G16RevB.01\State=1-A'\HF=-279.5066319
 \MP2=-280.4551717\RMSD=4.374e-09\RMSF=1.296e-03\ZeroPoint=0.0233543\Th
 ermal=0.0273133\Dipole=-0.1141147,0.,-0.4209488\DipoleDeriv=0.3137149,
 0.,0.0428611,0.,0.3012094,0.,-0.0127736,0.,0.1972691,-0.5299164,0.,0.2
 688158,0.,-0.2573245,0.,-0.1229473,0.,-0.1189556,-0.0172982,0.,0.36060
 48,0.,-0.0093152,0.,0.4668347,0.,-0.9020034,0.2197486,0.,-0.1761669,0.
 ,0.0120654,0.,-0.7043884,0.,1.6964262,0.0137511,0.,-0.4961147,0.,-0.04
 66351,0.,0.3732745,0.,-0.8727364\Polar=29.3971303,0.,17.6416034,-3.994
 8311,0.,31.4223994\Quadrupole=0.1273149,0.5912167,-0.7185316,0.,1.4590
 026,0.\PG=CS [SG(H1N1O3)]\NImag=0\\0.06973036,0.,0.00593194,0.02165076
 ,0.,0.43884787,-0.05380500,0.,-0.00423870,0.28298124,0.,-0.00122513,0.
 ,0.,0.01008551,0.03331592,0.,-0.42241381,-0.01142522,0.,0.52431015,-0.
 02203651,0.,-0.01461324,-0.16863127,0.,-0.09150230,0.29795121,0.,-0.00
 537130,0.,0.,-0.01797521,0.,0.,0.04089692,-0.04360757,0.,-0.01843843,0
 .00987334,0.,-0.09962062,0.07908414,0.,0.31841445,-0.00400853,0.,0.005
 65608,-0.08549021,0.,0.03932171,-0.14352541,0.,-0.03829355,0.54195183,
 0.,0.00791005,0.,0.,0.01972517,0.,0.,-0.04750987,0.,0.,0.05739165,-0.0
 1871370,0.,0.01036292,0.00949312,0.,-0.00849519,0.01268786,0.,-0.02536
 274,0.24513264,0.,0.45950464,0.01011968,0.,-0.00845489,0.02494524,0.,0
 .03028988,0.03624198,0.,-0.00705636,-0.30892768,0.,-0.24859993,0.23762
 078,0.,-0.00724556,0.,0.,-0.01061034,0.,0.,0.02995947,0.,0.,-0.0375169
 9,0.,0.,0.02541343,0.00735459,0.,-0.00835855,-0.00370253,0.,0.00621947
 ,0.01434353,0.,-0.17499266,-0.25181688,0.,-0.43600963,0.23382130,0.,0.
 61314137\\-0.00310057,0.,-0.00100967,0.00249194,0.,-0.00150508,0.00084
 383,0.,0.00228044,0.00000767,0.,0.00032509,-0.00024286,0.,-0.00009078\
 \\@


 ALL MY ATTEMPTS TO ADAPT THE THEORETICAL FOUNDATIONS OF PHYSICS
 TO THESE NEW NOTIONS FAILED COMPLETELY. IT WAS AS IF THE GROUND HAD
 BEEN PULLED OUT FROM UNDER ONE WITH NO FIRM FOUNDATION TO BE SEEN ANYWHERE,
 UPON WHICH ONE COULD HAVE BUILT.  -- A.EINSTEIN
 Job cpu time:       0 days  1 hours 59 minutes 17.6 seconds.
 Elapsed time:       0 days  0 hours  4 minutes 18.7 seconds.
 File lengths (MBytes):  RWF=   7239 Int=      0 D2E=      0 Chk=      8 Scr=      1
 Normal termination of Gaussian 16 at Sun Mar  6 19:25:31 2022.
