title                                                                   
Freq      RMP2-FC                                                     Aug-CC-pVTZ         
Number of atoms                            I                5
Info1-9                                    I   N=           9
          33          24           0           0           0         100
           6           2           1
Full Title                                 C   N=           1
title       
Route                                      C   N=           4
#p freq mp2/aug-cc-pvtz density=current         
Charge                                     I                0
Multiplicity                               I                1
Number of electrons                        I               32
Number of alpha electrons                  I               16
Number of beta electrons                   I               16
Number of basis functions                  I              207
Number of independent functions            I              207
Number of point charges in /Mol/           I                0
Number of translation vectors              I                0
Atomic numbers                             I   N=           5
           1           8           8           7           8
Nuclear charges                            R   N=           5
  1.00000000E+00  8.00000000E+00  8.00000000E+00  7.00000000E+00  8.00000000E+00
Current cartesian coordinates              R   N=          15
  2.07996730E+00 -1.11089193E+00  0.00000000E+00  2.46157559E+00  7.11678134E-01
  0.00000000E+00 -2.84755331E-16  1.72934446E+00  0.00000000E+00 -1.86468076E+00
 -9.67505421E-02  0.00000000E+00 -1.08997584E+00 -2.21750438E+00  0.00000000E+00
Number of symbols in /Mol/                 I                0
Force Field                                I                0
Atom Types                                 C   N=           5
                                                            
Int Atom Types                             I   N=           5
           0           0           0           0           0
MM charges                                 R   N=           5
  0.00000000E+00  0.00000000E+00  0.00000000E+00  0.00000000E+00  0.00000000E+00
Integer atomic weights                     I   N=           5
           1          16          16          14          16
Real atomic weights                        R   N=           5
  1.00782504E+00  1.59949146E+01  1.59949146E+01  1.40030740E+01  1.59949146E+01
Atom fragment info                         I   N=           5
           0           0           0           0           0
Atom residue num                           I   N=           5
           0           0           0           0           0
Nuclear spins                              I   N=           5
           1           0           0           2           0
Nuclear ZEff                               R   N=           5
 -1.00000000E+00 -5.60000000E+00 -5.60000000E+00 -4.55000000E+00 -5.60000000E+00
Nuclear ZNuc                               R   N=           5
  1.00000000E+00  8.00000000E+00  8.00000000E+00  7.00000000E+00  8.00000000E+00
Nuclear QMom                               R   N=           5
  0.00000000E+00  0.00000000E+00  0.00000000E+00  2.04400000E+00  0.00000000E+00
Nuclear GFac                               R   N=           5
  2.79284600E+00  0.00000000E+00  0.00000000E+00  4.03761000E-01  0.00000000E+00
MicOpt                                     I   N=           5
          -1          -1          -1          -1          -1
Number of residues                         I                0
Number of secondary structures             I                0
SymInf integers                            I   N=          26
           1           2           1           1           1           1
           1          -1           0           0           0           0
           0           0           0           0           0           0
           0           0           0           0           0           0
           0           0
RotTr to input orientation                 R   N=          12
 -9.78775531E-01  0.00000000E+00  2.04935255E-01  2.04935255E-01  0.00000000E+00
  9.78775531E-01  0.00000000E+00  1.00000000E+00  0.00000000E+00  2.26348202E+00
  0.00000000E+00  6.61055213E-01
Number of contracted shells                I               65
Number of primitive shells                 I              119
Pure/Cartesian d shells                    I                0
Pure/Cartesian f shells                    I                0
Highest angular momentum                   I                3
Largest degree of contraction              I                7
Shell types                                I   N=          65
           0           0           0           0           1           1
           1          -2          -2           0           0           0
           0           0           1           1           1           1
          -2          -2          -2          -3          -3           0
           0           0           0           0           1           1
           1           1          -2          -2          -2          -3
          -3           0           0           0           0           0
           1           1           1           1          -2          -2
          -2          -3          -3           0           0           0
           0           0           1           1           1           1
          -2          -2          -2          -3          -3
Number of primitives per shell             I   N=          65
           3           1           1           1           1           1
           1           1           1           7           6           1
           1           1           3           1           1           1
           1           1           1           1           1           7
           6           1           1           1           3           1
           1           1           1           1           1           1
           1           7           6           1           1           1
           3           1           1           1           1           1
           1           1           1           7           6           1
           1           1           3           1           1           1
           1           1           1           1           1
Shell to atom map                          I   N=          65
           1           1           1           1           1           1
           1           1           1           2           2           2
           2           2           2           2           2           2
           2           2           2           2           2           3
           3           3           3           3           3           3
           3           3           3           3           3           3
           3           4           4           4           4           4
           4           4           4           4           4           4
           4           4           4           5           5           5
           5           5           5           5           5           5
           5           5           5           5           5
Primitive exponents                        R   N=         119
  3.38700000E+01  5.09500000E+00  1.15900000E+00  3.25800000E-01  1.02700000E-01
  2.52600000E-02  1.40700000E+00  3.88000000E-01  1.02000000E-01  1.05700000E+00
  2.47000000E-01  1.53300000E+04  2.29900000E+03  5.22400000E+02  1.47300000E+02
  4.75500000E+01  1.67600000E+01  6.20700000E+00  5.22400000E+02  1.47300000E+02
  4.75500000E+01  1.67600000E+01  6.20700000E+00  6.88200000E-01  1.75200000E+00
  2.38400000E-01  7.37600000E-02  3.44600000E+01  7.74900000E+00  2.28000000E+00
  7.15600000E-01  2.14000000E-01  5.97400000E-02  2.31400000E+00  6.45000000E-01
  2.14000000E-01  1.42800000E+00  5.00000000E-01  1.53300000E+04  2.29900000E+03
  5.22400000E+02  1.47300000E+02  4.75500000E+01  1.67600000E+01  6.20700000E+00
  5.22400000E+02  1.47300000E+02  4.75500000E+01  1.67600000E+01  6.20700000E+00
  6.88200000E-01  1.75200000E+00  2.38400000E-01  7.37600000E-02  3.44600000E+01
  7.74900000E+00  2.28000000E+00  7.15600000E-01  2.14000000E-01  5.97400000E-02
  2.31400000E+00  6.45000000E-01  2.14000000E-01  1.42800000E+00  5.00000000E-01
  1.14200000E+04  1.71200000E+03  3.89300000E+02  1.10000000E+02  3.55700000E+01
  1.25400000E+01  4.64400000E+00  3.89300000E+02  1.10000000E+02  3.55700000E+01
  1.25400000E+01  4.64400000E+00  5.11800000E-01  1.29300000E+00  1.78700000E-01
  5.76000000E-02  2.66300000E+01  5.94800000E+00  1.74200000E+00  5.55000000E-01
  1.72500000E-01  4.91000000E-02  1.65400000E+00  4.69000000E-01  1.51000000E-01
  1.09300000E+00  3.64000000E-01  1.53300000E+04  2.29900000E+03  5.22400000E+02
  1.47300000E+02  4.75500000E+01  1.67600000E+01  6.20700000E+00  5.22400000E+02
  1.47300000E+02  4.75500000E+01  1.67600000E+01  6.20700000E+00  6.88200000E-01
  1.75200000E+00  2.38400000E-01  7.37600000E-02  3.44600000E+01  7.74900000E+00
  2.28000000E+00  7.15600000E-01  2.14000000E-01  5.97400000E-02  2.31400000E+00
  6.45000000E-01  2.14000000E-01  1.42800000E+00  5.00000000E-01
Contraction coefficients                   R   N=         119
  2.54948632E-02  1.90362766E-01  8.52162022E-01  1.00000000E+00  1.00000000E+00
  1.00000000E+00  1.00000000E+00  1.00000000E+00  1.00000000E+00  1.00000000E+00
  1.00000000E+00  5.19808943E-04  4.02025621E-03  2.07128267E-02  8.10105536E-02
  2.35962985E-01  4.42653446E-01  3.57064423E-01 -4.42115008E-05 -1.22591041E-03
 -1.05517725E-02 -6.74452633E-02 -1.71198607E-01  1.07329856E+00  1.00000000E+00
  1.00000000E+00  1.00000000E+00  4.11634896E-02  2.57762836E-01  8.02419274E-01
  1.00000000E+00  1.00000000E+00  1.00000000E+00  1.00000000E+00  1.00000000E+00
  1.00000000E+00  1.00000000E+00  1.00000000E+00  5.19808943E-04  4.02025621E-03
  2.07128267E-02  8.10105536E-02  2.35962985E-01  4.42653446E-01  3.57064423E-01
 -4.42115008E-05 -1.22591041E-03 -1.05517725E-02 -6.74452633E-02 -1.71198607E-01
  1.07329856E+00  1.00000000E+00  1.00000000E+00  1.00000000E+00  4.11634896E-02
  2.57762836E-01  8.02419274E-01  1.00000000E+00  1.00000000E+00  1.00000000E+00
  1.00000000E+00  1.00000000E+00  1.00000000E+00  1.00000000E+00  1.00000000E+00
  5.34563860E-04  4.13435660E-03  2.12335358E-02  8.25006224E-02  2.38138871E-01
  4.42551547E-01  3.53757422E-01 -4.89867350E-05 -1.19527323E-03 -1.03490714E-02
 -6.48680190E-02 -1.71552477E-01  1.07289568E+00  1.00000000E+00  1.00000000E+00
  1.00000000E+00  3.98072123E-02  2.49002660E-01  8.10479727E-01  1.00000000E+00
  1.00000000E+00  1.00000000E+00  1.00000000E+00  1.00000000E+00  1.00000000E+00
  1.00000000E+00  1.00000000E+00  5.19808943E-04  4.02025621E-03  2.07128267E-02
  8.10105536E-02  2.35962985E-01  4.42653446E-01  3.57064423E-01 -4.42115008E-05
 -1.22591041E-03 -1.05517725E-02 -6.74452633E-02 -1.71198607E-01  1.07329856E+00
  1.00000000E+00  1.00000000E+00  1.00000000E+00  4.11634896E-02  2.57762836E-01
  8.02419274E-01  1.00000000E+00  1.00000000E+00  1.00000000E+00  1.00000000E+00
  1.00000000E+00  1.00000000E+00  1.00000000E+00  1.00000000E+00
Coordinates of each shell                  R   N=         195
  2.07996730E+00 -1.11089193E+00  0.00000000E+00  2.07996730E+00 -1.11089193E+00
  0.00000000E+00  2.07996730E+00 -1.11089193E+00  0.00000000E+00  2.07996730E+00
 -1.11089193E+00  0.00000000E+00  2.07996730E+00 -1.11089193E+00  0.00000000E+00
  2.07996730E+00 -1.11089193E+00  0.00000000E+00  2.07996730E+00 -1.11089193E+00
  0.00000000E+00  2.07996730E+00 -1.11089193E+00  0.00000000E+00  2.07996730E+00
 -1.11089193E+00  0.00000000E+00  2.46157559E+00  7.11678134E-01  0.00000000E+00
  2.46157559E+00  7.11678134E-01  0.00000000E+00  2.46157559E+00  7.11678134E-01
  0.00000000E+00  2.46157559E+00  7.11678134E-01  0.00000000E+00  2.46157559E+00
  7.11678134E-01  0.00000000E+00  2.46157559E+00  7.11678134E-01  0.00000000E+00
  2.46157559E+00  7.11678134E-01  0.00000000E+00  2.46157559E+00  7.11678134E-01
  0.00000000E+00  2.46157559E+00  7.11678134E-01  0.00000000E+00  2.46157559E+00
  7.11678134E-01  0.00000000E+00  2.46157559E+00  7.11678134E-01  0.00000000E+00
  2.46157559E+00  7.11678134E-01  0.00000000E+00  2.46157559E+00  7.11678134E-01
  0.00000000E+00  2.46157559E+00  7.11678134E-01  0.00000000E+00 -9.47293442E-17
  1.72934446E+00  0.00000000E+00 -9.47293442E-17  1.72934446E+00  0.00000000E+00
 -9.47293442E-17  1.72934446E+00  0.00000000E+00 -9.47293442E-17  1.72934446E+00
  0.00000000E+00 -9.47293442E-17  1.72934446E+00  0.00000000E+00 -9.47293442E-17
  1.72934446E+00  0.00000000E+00 -9.47293442E-17  1.72934446E+00  0.00000000E+00
 -9.47293442E-17  1.72934446E+00  0.00000000E+00 -9.47293442E-17  1.72934446E+00
  0.00000000E+00 -9.47293442E-17  1.72934446E+00  0.00000000E+00 -9.47293442E-17
  1.72934446E+00  0.00000000E+00 -9.47293442E-17  1.72934446E+00  0.00000000E+00
 -9.47293442E-17  1.72934446E+00  0.00000000E+00 -9.47293442E-17  1.72934446E+00
  0.00000000E+00 -1.86468076E+00 -9.67505421E-02  0.00000000E+00 -1.86468076E+00
 -9.67505421E-02  0.00000000E+00 -1.86468076E+00 -9.67505421E-02  0.00000000E+00
 -1.86468076E+00 -9.67505421E-02  0.00000000E+00 -1.86468076E+00 -9.67505421E-02
  0.00000000E+00 -1.86468076E+00 -9.67505421E-02  0.00000000E+00 -1.86468076E+00
 -9.67505421E-02  0.00000000E+00 -1.86468076E+00 -9.67505421E-02  0.00000000E+00
 -1.86468076E+00 -9.67505421E-02  0.00000000E+00 -1.86468076E+00 -9.67505421E-02
  0.00000000E+00 -1.86468076E+00 -9.67505421E-02  0.00000000E+00 -1.86468076E+00
 -9.67505421E-02  0.00000000E+00 -1.86468076E+00 -9.67505421E-02  0.00000000E+00
 -1.86468076E+00 -9.67505421E-02  0.00000000E+00 -1.08997584E+00 -2.21750438E+00
  0.00000000E+00 -1.08997584E+00 -2.21750438E+00  0.00000000E+00 -1.08997584E+00
 -2.21750438E+00  0.00000000E+00 -1.08997584E+00 -2.21750438E+00  0.00000000E+00
 -1.08997584E+00 -2.21750438E+00  0.00000000E+00 -1.08997584E+00 -2.21750438E+00
  0.00000000E+00 -1.08997584E+00 -2.21750438E+00  0.00000000E+00 -1.08997584E+00
 -2.21750438E+00  0.00000000E+00 -1.08997584E+00 -2.21750438E+00  0.00000000E+00
 -1.08997584E+00 -2.21750438E+00  0.00000000E+00 -1.08997584E+00 -2.21750438E+00
  0.00000000E+00 -1.08997584E+00 -2.21750438E+00  0.00000000E+00 -1.08997584E+00
 -2.21750438E+00  0.00000000E+00 -1.08997584E+00 -2.21750438E+00  0.00000000E+00
Num ILSW                                   I              100
ILSW                                       I   N=         100
           0           0           0           0           2           0
           0           0           0           0           0          -1
           5           0           0           0           2           0
           0           0           0           0           1           0
           1           0           0           0           0           0
           0           0      100000           0          -1           0
           0           0           0           0           0           0
           0           0           0           1           1           0
           0 -2000000000           1           0           0           0
           0           0           4          52           0           0
           0           0           0           0           0           0
           0           0           0           5           4           1
           0           0           0           0           0           0
           0           0           0           0           0           0
           0           0           0           0           0           0
           0           0           0           0           0           0
           0           0           0           0
Num RLSW                                   I               52
RLSW                                       R   N=          52
  1.00000000E+00  1.00000000E+00  1.00000000E+00  1.00000000E+00  1.00000000E+00
  0.00000000E+00  0.00000000E+00  1.00000000E+00  0.00000000E+00  0.00000000E+00
  0.00000000E+00  0.00000000E+00  1.00000000E+00  0.00000000E+00  0.00000000E+00
  0.00000000E+00  0.00000000E+00  1.00000000E+00  0.00000000E+00  0.00000000E+00
  0.00000000E+00  0.00000000E+00  1.00000000E+00  0.00000000E+00  0.00000000E+00
  0.00000000E+00  0.00000000E+00  1.00000000E+00  0.00000000E+00  0.00000000E+00
  0.00000000E+00  0.00000000E+00  1.00000000E+00  0.00000000E+00  0.00000000E+00
  0.00000000E+00  0.00000000E+00  0.00000000E+00  1.00000000E+00  1.00000000E+00
  0.00000000E+00  1.00000000E+00  0.00000000E+00  0.00000000E+00  0.00000000E+00
  0.00000000E+00  0.00000000E+00  0.00000000E+00  0.00000000E+00  0.00000000E+00
  0.00000000E+00  0.00000000E+00
MxBond                                     I                2
NBond                                      I   N=           5
           1           2           2           2           1
IBond                                      I   N=          10
           2           0           1           3           2           4
           3           5           4           0
RBond                                      R   N=          10
  1.00000000E+00  0.00000000E+00  1.00000000E+00  1.00000000E+00  1.00000000E+00
  1.00000000E+00  1.00000000E+00  2.00000000E+00  2.00000000E+00  0.00000000E+00
Virial Ratio                               R      2.002115257830416E+00
SCF Energy                                 R     -2.795072917612406E+02
MP2 Energy                                 R     -2.804550944746728E+02
Total Energy                               R     -2.804550944746728E+02
Post-SCF wavefunction norm                 R      1.582901410019939E+00
RMS Force                                  R      2.973829423309288E-03
RMS Density                                R      4.127998043614545E-09
NImag                                      I                0
Job Status                                 I                1
Nuclear derivative order                   I                2
External E-field                           R   N=          35
  0.00000000E+00  0.00000000E+00  0.00000000E+00  0.00000000E+00  0.00000000E+00
  0.00000000E+00  0.00000000E+00  0.00000000E+00  0.00000000E+00  0.00000000E+00
  0.00000000E+00  0.00000000E+00  0.00000000E+00  0.00000000E+00  0.00000000E+00
  0.00000000E+00  0.00000000E+00  0.00000000E+00  0.00000000E+00  0.00000000E+00
  0.00000000E+00  0.00000000E+00  0.00000000E+00  0.00000000E+00  0.00000000E+00
  0.00000000E+00  0.00000000E+00  0.00000000E+00  0.00000000E+00  0.00000000E+00
  0.00000000E+00  0.00000000E+00  0.00000000E+00  0.00000000E+00  0.00000000E+00
IOpCl                                      I                0
IROHF                                      I                0
Alpha Orbital Energies                     R   N=         207
 -2.07199135E+01 -2.06875180E+01 -2.06666581E+01 -1.58257700E+01 -1.64722656E+00
 -1.51105671E+00 -1.29156018E+00 -9.61331855E-01 -8.37859844E-01 -7.60184328E-01
 -7.42480902E-01 -6.34948430E-01 -6.22731611E-01 -6.20166174E-01 -5.05315195E-01
 -4.94540937E-01  3.52603236E-02  6.01736272E-02  9.51390821E-02  1.00546520E-01
  1.19587647E-01  1.22945155E-01  1.49708820E-01  1.53690827E-01  1.77476611E-01
  1.80090836E-01  1.89670795E-01  2.11093541E-01  2.16877349E-01  2.46372109E-01
  2.50798221E-01  2.68840003E-01  3.13842342E-01  3.17196122E-01  3.38332175E-01
  3.44486054E-01  3.48378769E-01  3.92331708E-01  4.49421741E-01  4.89830252E-01
  5.05403651E-01  5.18724021E-01  5.44427631E-01  5.61138321E-01  5.99237092E-01
  6.20766719E-01  6.39076691E-01  6.90112990E-01  7.16897754E-01  7.23711700E-01
  7.44931453E-01  7.64515043E-01  7.68939443E-01  7.94603115E-01  8.06713440E-01
  8.38763085E-01  8.43401425E-01  8.51409118E-01  8.85983567E-01  9.09481135E-01
  9.33002178E-01  9.48135631E-01  9.53353538E-01  1.01909752E+00  1.03379205E+00
  1.06569754E+00  1.06659614E+00  1.09729091E+00  1.14578553E+00  1.15737634E+00
  1.16936768E+00  1.22342111E+00  1.22736038E+00  1.24703303E+00  1.35667518E+00
  1.35923355E+00  1.37212867E+00  1.46767903E+00  1.48433651E+00  1.50425258E+00
  1.54317303E+00  1.59769235E+00  1.59805117E+00  1.60595714E+00  1.63047560E+00
  1.69651321E+00  1.74323221E+00  1.80124660E+00  1.82990301E+00  1.88856623E+00
  1.90096139E+00  1.93127914E+00  1.98206174E+00  1.99027586E+00  2.05238997E+00
  2.12545542E+00  2.13127929E+00  2.16802251E+00  2.18841380E+00  2.24359274E+00
  2.26700302E+00  2.29717675E+00  2.35602809E+00  2.36765654E+00  2.38717714E+00
  2.40147309E+00  2.44253347E+00  2.47102451E+00  2.48246335E+00  2.52996702E+00
  2.53915492E+00  2.55296702E+00  2.55987646E+00  2.61757902E+00  2.63537498E+00
  2.67795663E+00  2.67836633E+00  2.76349503E+00  2.81453001E+00  2.81934989E+00
  2.84467476E+00  2.92315413E+00  2.98760449E+00  3.05130752E+00  3.05487795E+00
  3.11742147E+00  3.12140699E+00  3.18154156E+00  3.22291524E+00  3.31578307E+00
  3.33689164E+00  3.36409081E+00  3.49554383E+00  3.67822007E+00  3.87171267E+00
  3.93717822E+00  4.18944342E+00  4.22725737E+00  4.22900443E+00  4.27248965E+00
  4.37181409E+00  4.51560269E+00  4.53711433E+00  4.56280517E+00  4.60473741E+00
  4.69138910E+00  4.81406680E+00  4.90053737E+00  4.91569728E+00  4.94357062E+00
  4.99916975E+00  5.00517382E+00  5.10802040E+00  5.13690072E+00  5.17904718E+00
  5.25168495E+00  5.25850916E+00  5.32123339E+00  5.35060661E+00  5.36820873E+00
  5.54467183E+00  5.64519320E+00  5.71037109E+00  5.91289754E+00  6.00591562E+00
  6.23629969E+00  6.29893008E+00  6.36905210E+00  6.37435358E+00  6.59218828E+00
  6.64774886E+00  6.66215924E+00  6.68976870E+00  6.72381872E+00  6.79682874E+00
  6.80992727E+00  6.84807685E+00  6.97079052E+00  7.03310008E+00  7.07431655E+00
  7.08832271E+00  7.14669840E+00  7.18302454E+00  7.18495772E+00  7.22199160E+00
  7.25224886E+00  7.26089784E+00  7.27464368E+00  7.35467895E+00  7.40343815E+00
  7.44155176E+00  7.44270102E+00  7.47395823E+00  7.56377035E+00  7.67557457E+00
  7.67797420E+00  7.80914158E+00  7.90186099E+00  7.96077293E+00  8.07977277E+00
  8.33573343E+00  8.51087746E+00  8.67147326E+00  1.36873506E+01  1.47936452E+01
  1.51321438E+01  1.57915691E+01
Alpha MO coefficients                      R   N=       42849
  6.44910053E-05 -1.51109937E-05 -1.12204196E-03  1.78250075E-05 -4.60302168E-05
  3.85354589E-05  0.00000000E+00 -6.24907268E-05 -2.75556739E-04  0.00000000E+00
  2.68688435E-05 -3.33207910E-04  0.00000000E+00  4.11244564E-05  0.00000000E+00
  0.00000000E+00 -2.57981048E-05  2.14090207E-05  2.31098977E-04  0.00000000E+00
  0.00000000E+00 -4.63963353E-05 -2.16913167E-04  3.13151142E-03 -5.86291282E-05
 -1.12507324E-04  3.75775610E-03  2.57644389E-03  1.07896880E-04 -5.50055770E-05
  0.00000000E+00 -8.11084979E-04  3.28099973E-04  0.00000000E+00 -2.11091149E-03
  1.15171507E-03  0.00000000E+00 -5.64000701E-04  5.00353266E-05  0.00000000E+00
  1.50750100E-05  0.00000000E+00  0.00000000E+00 -3.28085154E-06  3.48086492E-05
 -4.60478683E-04  0.00000000E+00  0.00000000E+00  4.64011026E-04 -6.71035589E-04
 -3.76147415E-04  0.00000000E+00  0.00000000E+00  5.72534062E-04 -7.38541440E-04
  0.00000000E+00  7.67947212E-05 -5.38177436E-05  0.00000000E+00  0.00000000E+00
 -3.01448354E-05  1.10934237E-04  0.00000000E+00  2.09424518E-04 -4.44579877E-05
  0.00000000E+00  0.00000000E+00 -1.71660178E-04  2.85259077E-04  9.76891483E-01
 -9.17736196E-03  4.34364937E-02  2.66615223E-04 -2.29853090E-03  5.03582581E-04
 -2.16312114E-03  0.00000000E+00 -3.98092933E-04  2.27522811E-03  0.00000000E+00
 -2.44312446E-03 -4.48246821E-04  0.00000000E+00 -2.47754340E-04  1.00359976E-04
  0.00000000E+00  2.74862518E-06  0.00000000E+00  0.00000000E+00 -2.40273786E-07
  3.21083535E-05  8.47566889E-04  0.00000000E+00  0.00000000E+00 -5.02406060E-04
 -1.47191090E-04 -1.22555582E-04  0.00000000E+00  0.00000000E+00 -5.75380457E-04
  3.72302739E-04  0.00000000E+00 -2.70134025E-06 -8.02694667E-05  0.00000000E+00
  0.00000000E+00 -1.12789142E-05  5.09536994E-05  0.00000000E+00  1.00455301E-04
 -2.88333402E-06  0.00000000E+00  0.00000000E+00 -3.43167918E-04  3.90893143E-04
  1.04379743E-04  4.58461180E-04 -3.21362078E-04 -8.40663791E-04  3.19638526E-04
 -4.25373785E-05 -9.97835422E-05  0.00000000E+00  6.89159438E-04  1.11541594E-03
  0.00000000E+00 -7.75161665E-04 -6.79611930E-04  0.00000000E+00  1.86610029E-04
  2.06951897E-04  0.00000000E+00 -5.22953933E-05  0.00000000E+00  0.00000000E+00
  1.82846445E-05  9.39883864E-05 -4.13744169E-04  0.00000000E+00  0.00000000E+00
  2.26197450E-05  1.07429215E-03  2.73840663E-05  0.00000000E+00  0.00000000E+00
 -3.20723647E-04  1.59372520E-05  0.00000000E+00 -7.69071956E-05 -1.13492916E-04
  0.00000000E+00  0.00000000E+00 -9.87190390E-05  1.03152490E-04  0.00000000E+00
 -1.24453187E-04  4.83226741E-05  0.00000000E+00  0.00000000E+00  4.35822346E-06
  5.16179872E-04 -7.08777802E-04  3.94428164E-05 -7.05624466E-05  2.21074773E-04
 -1.47147760E-04 -2.87592297E-05 -4.15565583E-05  0.00000000E+00  1.67358805E-04
  2.51625497E-04  0.00000000E+00  5.44182745E-04  3.32125129E-04  0.00000000E+00
 -2.09158756E-04 -5.65137962E-05  0.00000000E+00 -1.27171118E-05  0.00000000E+00
  0.00000000E+00  3.01553855E-06  1.50725874E-05 -3.20636635E-06  0.00000000E+00
  0.00000000E+00 -1.61842584E-04  9.05668929E-06 -2.51618822E-05  0.00000000E+00
  0.00000000E+00 -1.67113396E-04 -4.06032669E-05  0.00000000E+00 -5.74670370E-06
 -9.05507277E-06  0.00000000E+00  0.00000000E+00 -2.10882983E-05  9.24873124E-06
  0.00000000E+00  3.90052717E-05  6.02119751E-05  0.00000000E+00  0.00000000E+00
  1.57906697E-04 -1.00192563E-04  3.86118154E-05  7.06672926E-05 -9.96337590E-05
 -3.09711690E-05  2.21843003E-05  1.29885100E-05  0.00000000E+00  2.38459427E-04
  6.33482895E-05  0.00000000E+00  1.17797754E-04  2.39855704E-05  0.00000000E+00
  1.14030459E-05  0.00000000E+00  0.00000000E+00 -1.06652835E-05  1.79164507E-05
  1.84238487E-05  0.00000000E+00  0.00000000E+00 -9.54570984E-05  6.61847745E-05
 -2.37908354E-04  2.48844261E-05 -1.40552673E-05 -5.87329085E-04  1.52210855E-04
  7.45843626E-06  1.37295669E-05  0.00000000E+00  1.04893506E-06 -4.41523830E-05
  0.00000000E+00  1.99505027E-04  1.46157804E-04  0.00000000E+00 -4.21250291E-05
  4.89265239E-05  0.00000000E+00 -1.68812565E-06  0.00000000E+00  0.00000000E+00
 -8.30313569E-06 -1.15294729E-05  2.32673468E-05  0.00000000E+00  0.00000000E+00
  5.11092594E-05  1.12085145E-04  6.43808064E-05  0.00000000E+00  0.00000000E+00
 -3.32693806E-05 -8.49442627E-05  0.00000000E+00  7.76115456E-06  1.03255334E-05
  0.00000000E+00  0.00000000E+00 -8.88867303E-07 -2.62377111E-05  0.00000000E+00
 -1.34034084E-05 -3.85234384E-05  0.00000000E+00  0.00000000E+00 -1.38897027E-06
 -1.89473660E-05  7.35398797E-04  2.09880816E-05 -1.98522017E-05  3.25362704E-04
 -3.94162087E-04  1.61664910E-05  2.74517303E-05  0.00000000E+00 -6.42180722E-05
 -1.55033675E-04  0.00000000E+00  1.67414636E-04 -2.27867962E-04  0.00000000E+00
 -1.56356774E-04  1.41834290E-04  0.00000000E+00 -3.92474394E-06  0.00000000E+00
  0.00000000E+00 -2.98274263E-05 -1.05635795E-05 -5.34118282E-05  0.00000000E+00
  0.00000000E+00  8.15615863E-05  1.24561167E-04 -6.73576433E-05  0.00000000E+00
  0.00000000E+00  3.29777276E-05  2.30305913E-05  0.00000000E+00  2.82356142E-06
  3.21908660E-06  0.00000000E+00  0.00000000E+00 -7.43660972E-06 -2.64096730E-06
  0.00000000E+00  3.69354410E-06 -2.44096694E-05  0.00000000E+00  0.00000000E+00
  1.01228107E-04 -1.54197749E-04  2.36772748E-04  1.35604802E-03 -1.46239213E-04
 -7.07031876E-04  9.12614550E-04  6.36590922E-05 -7.05213847E-05  0.00000000E+00
  5.79531174E-04 -2.08453014E-03  0.00000000E+00  9.94012965E-05  5.13162383E-04
  0.00000000E+00  1.88656554E-04 -3.06054358E-04  0.00000000E+00 -1.27723809E-04
  0.00000000E+00  0.00000000E+00 -2.02830997E-04 -1.60291888E-04 -4.59762018E-04
  0.00000000E+00  0.00000000E+00 -5.93058059E-04 -9.31287791E-04 -4.19640843E-05
  0.00000000E+00  0.00000000E+00  5.50044996E-05  1.21756497E-04  0.00000000E+00
  8.25986526E-06  3.72069912E-05  0.00000000E+00  0.00000000E+00 -2.44871839E-05
 -4.68851266E-06  0.00000000E+00 -1.37025723E-04  1.56556794E-04  0.00000000E+00
  0.00000000E+00 -3.15229221E-04 -4.29396398E-05  9.76645743E-01 -9.88604157E-03
  4.35758790E-02  3.69846106E-03 -9.00950667E-04 -4.53036766E-04  2.13226221E-03
  0.00000000E+00  5.20936815E-04 -2.50687104E-03  0.00000000E+00 -7.87263034E-05
  8.23319526E-04  0.00000000E+00  1.04504795E-04 -6.48221862E-05  0.00000000E+00
 -1.93411620E-04  0.00000000E+00  0.00000000E+00 -7.43132808E-05 -4.45157739E-05
  4.09546436E-04  0.00000000E+00  0.00000000E+00  8.56732253E-04  4.90839860E-04
 -2.04565042E-04  0.00000000E+00  0.00000000E+00 -1.44240294E-04 -3.50382604E-05
  0.00000000E+00 -5.25946299E-06  7.03816522E-05  0.00000000E+00  0.00000000E+00
 -2.84246285E-05  1.03783984E-05  0.00000000E+00 -8.93466943E-05  9.11748303E-05
  0.00000000E+00  0.00000000E+00 -1.71319930E-04  2.03934844E-04  3.70106743E-04
  1.96380404E-03  1.42799305E-03 -2.52685256E-05  4.91456490E-05  2.61471827E-04
  0.00000000E+00  3.78598253E-04  1.00422541E-03  0.00000000E+00 -1.52051939E-04
  2.27986627E-04  0.00000000E+00 -2.21456853E-05  0.00000000E+00  0.00000000E+00
  3.91853727E-05 -2.95616081E-05 -2.18857916E-04  0.00000000E+00  0.00000000E+00
 -3.46237202E-04  4.13647750E-04  9.76819412E-01 -9.18996280E-03  4.34994337E-02
 -2.59192268E-05 -2.04194855E-03 -2.07849906E-03 -8.19472857E-04  0.00000000E+00
  2.13937273E-03  7.37081972E-04  0.00000000E+00 -2.98298102E-04  6.19046563E-04
  0.00000000E+00  2.51007734E-04 -3.16174786E-04  0.00000000E+00  2.54561964E-05
  0.00000000E+00  0.00000000E+00 -6.81380693E-05  5.82933729E-05  7.84732109E-04
  0.00000000E+00  0.00000000E+00 -2.53166677E-04  3.81248071E-04 -2.23683229E-04
  0.00000000E+00  0.00000000E+00  3.06224343E-04  1.98877415E-05  0.00000000E+00
 -8.36416441E-05  4.56455624E-06  0.00000000E+00  0.00000000E+00  1.92651506E-05