 Entering Gaussian System, Link 0=g16
 Input=hoono_a2_104p4795.gjf
 Output=hoono_a2_104p4795.log
 Initial command:
 /sw/contrib/gaussian/g16/B01/g16/l1.exe "/scr/Gau-9130.inp" -scrdir="/scr/"
 Entering Link 1 = /sw/contrib/gaussian/g16/B01/g16/l1.exe PID=      9131.
  
 Copyright (c) 1988-2017, Gaussian, Inc.  All Rights Reserved.
  
 This is part of the Gaussian(R) 16 program.  It is based on
 the Gaussian(R) 09 system (copyright 2009, Gaussian, Inc.),
 the Gaussian(R) 03 system (copyright 2003, Gaussian, Inc.),
 the Gaussian(R) 98 system (copyright 1998, Gaussian, Inc.),
 the Gaussian(R) 94 system (copyright 1995, Gaussian, Inc.),
 the Gaussian 92(TM) system (copyright 1992, Gaussian, Inc.),
 the Gaussian 90(TM) system (copyright 1990, Gaussian, Inc.),
 the Gaussian 88(TM) system (copyright 1988, Gaussian, Inc.),
 the Gaussian 86(TM) system (copyright 1986, Carnegie Mellon
 University), and the Gaussian 82(TM) system (copyright 1983,
 Carnegie Mellon University). Gaussian is a federally registered
 trademark of Gaussian, Inc.
  
 This software contains proprietary and confidential information,
 including trade secrets, belonging to Gaussian, Inc.
  
 This software is provided under written license and may be
 used, copied, transmitted, or stored only in accord with that
 written license.
  
 The following legend is applicable only to US Government
 contracts under FAR:
  
                    RESTRICTED RIGHTS LEGEND
  
 Use, reproduction and disclosure by the US Government is
 subject to restrictions as set forth in subparagraphs (a)
 and (c) of the Commercial Computer Software - Restricted
 Rights clause in FAR 52.227-19.
  
 Gaussian, Inc.
 340 Quinnipiac St., Bldg. 40, Wallingford CT 06492
  
  
 ---------------------------------------------------------------
 Warning -- This program may not be used in any manner that
 competes with the business of Gaussian, Inc. or will provide
 assistance to any competitor of Gaussian, Inc.  The licensee
 of this program is prohibited from giving any competitor of
 Gaussian, Inc. access to this program.  By using this program,
 the user acknowledges that Gaussian, Inc. is engaged in the
 business of creating and licensing software in the field of
 computational chemistry and represents and warrants to the
 licensee that it is not a competitor of Gaussian, Inc. and that
 it will not use this program in any manner prohibited above.
 ---------------------------------------------------------------
  

 Cite this work as:
 Gaussian 16, Revision B.01,
 M. J. Frisch, G. W. Trucks, H. B. Schlegel, G. E. Scuseria, 
 M. A. Robb, J. R. Cheeseman, G. Scalmani, V. Barone, 
 G. A. Petersson, H. Nakatsuji, X. Li, M. Caricato, A. V. Marenich, 
 J. Bloino, B. G. Janesko, R. Gomperts, B. Mennucci, H. P. Hratchian, 
 J. V. Ortiz, A. F. Izmaylov, J. L. Sonnenberg, D. Williams-Young, 
 F. Ding, F. Lipparini, F. Egidi, J. Goings, B. Peng, A. Petrone, 
 T. Henderson, D. Ranasinghe, V. G. Zakrzewski, J. Gao, N. Rega, 
 G. Zheng, W. Liang, M. Hada, M. Ehara, K. Toyota, R. Fukuda, 
 J. Hasegawa, M. Ishida, T. Nakajima, Y. Honda, O. Kitao, H. Nakai, 
 T. Vreven, K. Throssell, J. A. Montgomery, Jr., J. E. Peralta, 
 F. Ogliaro, M. J. Bearpark, J. J. Heyd, E. N. Brothers, K. N. Kudin, 
 V. N. Staroverov, T. A. Keith, R. Kobayashi, J. Normand, 
 K. Raghavachari, A. P. Rendell, J. C. Burant, S. S. Iyengar, 
 J. Tomasi, M. Cossi, J. M. Millam, M. Klene, C. Adamo, R. Cammi, 
 J. W. Ochterski, R. L. Martin, K. Morokuma, O. Farkas, 
 J. B. Foresman, and D. J. Fox, Gaussian, Inc., Wallingford CT, 2016.
 
 ******************************************
 Gaussian 16:  ES64L-G16RevB.01 20-Dec-2017
                21-Feb-2022 
 ******************************************
 %nproc=28
 Will use up to   28 processors via shared memory.
 %mem=120GB
 %chk=hoono_a2_104p4795.chk
 ---------------------------------------
 #p freq mp2/aug-cc-pvtz density=current
 ---------------------------------------
 1/10=4,30=1,38=1/1,3;
 2/12=2,17=6,18=5,40=1/2;
 3/5=16,6=1,7=10,11=9,25=1,30=1,71=2,140=1/1,2,3;
 4//1;
 5/5=2,38=5,98=1/2;
 8/6=3,8=1,10=1,19=11,30=-1/1;
 9/15=3,16=-3/6;
 11/6=1,8=1,15=11,17=12,24=-1,27=1,28=-2,29=300,32=6,42=3/1,2,10;
 10/6=2,21=1/2;
 8/6=4,8=1,10=1,19=11,30=-1/11,4;
 10/5=1,20=4/2;
 11/12=2,14=11,16=1,17=2,28=-2,42=3,76=2/2,10,12;
 6/7=2,8=2,9=2,10=2,22=-1/1;
 7/8=1,10=1,12=2,25=1,44=2/1,2,3,16;
 1/10=4,30=1/3;
 99//99;
 Leave Link    1 at Mon Feb 21 20:42:59 2022, MaxMem= 16106127360 cpu:               3.5 elap:               0.1
 (Enter /sw/contrib/gaussian/g16/B01/g16/l101.exe)
 -----
 title
 -----
 Symbolic Z-matrix:
 Charge =  0 Multiplicity = 1
 H
 O                    1    r1
 O                    2    r2       1    a1
 N                    3    r3       2    a2       1    d1       0
 O                    4    r4       3    a3       2    d2       0
       Variables:
  r1                    0.96898                  
  r2                    1.45492                  
  r3                    1.45878                  
  r4                    1.17073                  
  a1                   97.59495                  
  a2                  104.47958                  
  a3                  109.06955                  
  d1                  180.                       
  d2                  180.                       
 
 ITRead=  0  0  0  0  0
 MicOpt= -1 -1 -1 -1 -1
 NAtoms=      5 NQM=        5 NQMF=       0 NMMI=      0 NMMIF=      0
                NMic=       0 NMicF=      0.
                    Isotopes and Nuclear Properties:
 (Nuclear quadrupole moments (NQMom) in fm**2, nuclear magnetic moments (NMagM)
  in nuclear magnetons)

  Atom         1           2           3           4           5
 IAtWgt=           1          16          16          14          16
 AtmWgt=   1.0078250  15.9949146  15.9949146  14.0030740  15.9949146
 NucSpn=           1           0           0           2           0
 AtZEff=  -0.0000000  -0.0000000  -0.0000000  -0.0000000  -0.0000000
 NQMom=    0.0000000   0.0000000   0.0000000   2.0440000   0.0000000
 NMagM=    2.7928460   0.0000000   0.0000000   0.4037610   0.0000000
 AtZNuc=   1.0000000   8.0000000   8.0000000   7.0000000   8.0000000
 Leave Link  101 at Mon Feb 21 20:42:59 2022, MaxMem= 16106127360 cpu:               2.5 elap:               0.1
 (Enter /sw/contrib/gaussian/g16/B01/g16/l103.exe)

 GradGradGradGradGradGradGradGradGradGradGradGradGradGradGradGradGradGrad
 Berny optimization.
 Initialization pass.
                       ----------------------------
                       !    Initial Parameters    !
                       ! (Angstroms and Degrees)  !
 ----------------------                            ----------------------
 !      Name          Value   Derivative information (Atomic Units)     !
 ------------------------------------------------------------------------
 !       r1          0.969    calculate D2E/DX2 analytically            !
 !       r2          1.4549   calculate D2E/DX2 analytically            !
 !       r3          1.4588   calculate D2E/DX2 analytically            !
 !       r4          1.1707   calculate D2E/DX2 analytically            !
 !       a1         97.5949   calculate D2E/DX2 analytically            !
 !       a2        104.4796   calculate D2E/DX2 analytically            !
 !       a3        109.0696   calculate D2E/DX2 analytically            !
 !       d1        180.0      calculate D2E/DX2 analytically            !
 !       d2        180.0      calculate D2E/DX2 analytically            !
 ------------------------------------------------------------------------
 Trust Radius=3.00D-01 FncErr=1.00D-07 GrdErr=1.00D-07 EigMax=2.50D+02 EigMin=1.00D-04
 Number of steps in this run=      2 maximum allowed number of steps=      2.
 GradGradGradGradGradGradGradGradGradGradGradGradGradGradGradGradGradGrad

 Leave Link  103 at Mon Feb 21 20:42:59 2022, MaxMem= 16106127360 cpu:               1.3 elap:               0.1
 (Enter /sw/contrib/gaussian/g16/B01/g16/l202.exe)
                          Input orientation:                          
 ---------------------------------------------------------------------
 Center     Atomic      Atomic             Coordinates (Angstroms)
 Number     Number       Type             X           Y           Z
 ---------------------------------------------------------------------
      1          1           0        0.000000    0.000000    0.000000
      2          8           0        0.000000    0.000000    0.968976
      3          8           0        1.442156    0.000000    1.161271
      4          7           0        1.617021    0.000000    2.609536
      5          8           0        2.761375    0.000000    2.856639
 ---------------------------------------------------------------------
                    Distance matrix (angstroms):
                    1          2          3          4          5
     1  H    0.000000
     2  O    0.968976   0.000000
     3  O    1.851584   1.454919   0.000000
     4  N    3.069924   2.303518   1.458784   0.000000
     5  O    3.973107   3.344916   2.148165   1.170729   0.000000
 Stoichiometry    HNO3
 Framework group  CS[SG(HNO3)]
 Deg. of freedom     7
 Full point group                 CS      NOp   2
 Largest Abelian subgroup         CS      NOp   2
 Largest concise Abelian subgroup C1      NOp   1
                         Standard orientation:                         
 ---------------------------------------------------------------------
 Center     Atomic      Atomic             Coordinates (Angstroms)
 Number     Number       Type             X           Y           Z
 ---------------------------------------------------------------------
      1          1           0        1.506135    1.734356    0.000000
      2          8           0        1.450785    0.766962    0.000000
      3          8           0       -0.000000    0.657360    0.000000
      4          7           0       -0.257307   -0.778552   -0.000000
      5          8           0       -1.413908   -0.959884   -0.000000
 ---------------------------------------------------------------------
 Rotational constants (GHZ):          56.8619486           4.9323713           4.5386735
 Leave Link  202 at Mon Feb 21 20:42:59 2022, MaxMem= 16106127360 cpu:               0.3 elap:               0.0
 (Enter /sw/contrib/gaussian/g16/B01/g16/l301.exe)
 Standard basis: Aug-CC-pVTZ (5D, 7F)
 Ernie: Thresh=  0.10000D-02 Tol=  0.10000D-05 Strict=F.
 Ernie:  12 primitive shells out of 131 were deleted.
 There are   166 symmetry adapted cartesian basis functions of A'  symmetry.
 There are    79 symmetry adapted cartesian basis functions of A"  symmetry.
 There are   136 symmetry adapted basis functions of A'  symmetry.
 There are    71 symmetry adapted basis functions of A"  symmetry.
   207 basis functions,   315 primitive gaussians,   245 cartesian basis functions
    16 alpha electrons       16 beta electrons
       nuclear repulsion energy       116.5871544883 Hartrees.
 IExCor=    0 DFT=F Ex=HF Corr=None ExCW=0 ScaHFX=  1.000000
 ScaDFX=  1.000000  1.000000  1.000000  1.000000 ScalE2=  1.000000  1.000000
 IRadAn=      5 IRanWt=     -1 IRanGd=            0 ICorTp=0 IEmpDi=  4
 NAtoms=    5 NActive=    5 NUniq=    5 SFac= 1.00D+00 NAtFMM=   60 NAOKFM=F Big=F
 Integral buffers will be    131072 words long.
 Raffenetti 1 integral format.
 Two-electron integral symmetry is turned on.
 Leave Link  301 at Mon Feb 21 20:42:59 2022, MaxMem= 16106127360 cpu:               1.6 elap:               0.1
 (Enter /sw/contrib/gaussian/g16/B01/g16/l302.exe)
 NPDir=0 NMtPBC=     1 NCelOv=     1 NCel=       1 NClECP=     1 NCelD=      1
         NCelK=      1 NCelE2=     1 NClLst=     1 CellRange=     0.0.
 One-electron integrals computed using PRISM.
 One-electron integral symmetry used in STVInt
 NBasis=   207 RedAO= T EigKep=  1.81D-04  NBF=   136    71
 NBsUse=   207 1.00D-06 EigRej= -1.00D+00 NBFU=   136    71
 Leave Link  302 at Mon Feb 21 20:42:59 2022, MaxMem= 16106127360 cpu:               5.0 elap:               0.2
 (Enter /sw/contrib/gaussian/g16/B01/g16/l303.exe)
 DipDrv:  MaxL=1.
 Leave Link  303 at Mon Feb 21 20:42:59 2022, MaxMem= 16106127360 cpu:               1.0 elap:               0.1
 (Enter /sw/contrib/gaussian/g16/B01/g16/l401.exe)
 ExpMin= 2.53D-02 ExpMax= 1.53D+04 ExpMxC= 5.22D+02 IAcc=3 IRadAn=         5 AccDes= 0.00D+00
 Harris functional with IExCor=  205 and IRadAn=       5 diagonalized for initial guess.
 HarFok:  IExCor=  205 AccDes= 0.00D+00 IRadAn=         5 IDoV= 1 UseB2=F ITyADJ=14
 ICtDFT=  3500011 ScaDFX=  1.000000  1.000000  1.000000  1.000000
 FoFCou: FMM=F IPFlag=           0 FMFlag=      100000 FMFlg1=           0
         NFxFlg=           0 DoJE=T BraDBF=F KetDBF=T FulRan=T
         wScrn=  0.000000 ICntrl=       500 IOpCl=  0 I1Cent=   200000004 NGrid=           0
         NMat0=    1 NMatS0=      1 NMatT0=    0 NMatD0=    1 NMtDS0=    0 NMtDT0=    0
 Petite list used in FoFCou.
 Harris En= -279.628886001712    
 JPrj=0 DoOrth=F DoCkMO=F.
 Initial guess orbital symmetries:
       Occupied  (A') (A') (A') (A') (A') (A') (A') (A') (A') (A')
                 (A") (A') (A") (A') (A") (A')
       Virtual   (A") (A') (A') (A') (A') (A') (A") (A') (A') (A')
                 (A") (A') (A") (A') (A') (A") (A') (A") (A') (A')
                 (A') (A') (A') (A') (A') (A") (A') (A") (A') (A')
                 (A") (A') (A") (A') (A') (A") (A') (A") (A') (A')
                 (A") (A') (A") (A') (A") (A') (A') (A') (A") (A")
                 (A') (A') (A') (A') (A") (A') (A") (A') (A") (A')
                 (A') (A') (A") (A') (A') (A") (A') (A") (A') (A')
                 (A") (A') (A') (A") (A") (A') (A') (A") (A') (A')
                 (A') (A") (A') (A") (A') (A") (A') (A") (A') (A')
                 (A') (A") (A') (A") (A') (A") (A") (A') (A') (A')
                 (A") (A') (A") (A') (A') (A") (A') (A') (A") (A')
                 (A") (A') (A') (A') (A") (A') (A') (A') (A") (A')
                 (A") (A') (A') (A") (A") (A') (A") (A') (A") (A')
                 (A') (A') (A') (A") (A") (A') (A") (A') (A') (A')
                 (A') (A") (A") (A') (A') (A") (A') (A') (A') (A')
                 (A") (A') (A') (A") (A') (A") (A') (A") (A') (A")
                 (A') (A") (A') (A") (A') (A") (A") (A") (A') (A')
                 (A") (A') (A") (A') (A") (A') (A") (A") (A') (A')
                 (A') (A') (A') (A') (A') (A') (A') (A') (A') (A')
                 (A')
 The electronic state of the initial guess is 1-A'.
 Leave Link  401 at Mon Feb 21 20:43:00 2022, MaxMem= 16106127360 cpu:               6.9 elap:               0.3
 (Enter /sw/contrib/gaussian/g16/B01/g16/l502.exe)
 Keep R1 ints in memory in symmetry-blocked form, NReq=348887737.
 FoFCou: FMM=F IPFlag=           0 FMFlag=           0 FMFlg1=           0
         NFxFlg=           0 DoJE=F BraDBF=F KetDBF=F FulRan=T
         wScrn=  0.000000 ICntrl=       600 IOpCl=  0 I1Cent=           0 NGrid=           0
         NMat0=    1 NMatS0=  21528 NMatT0=    0 NMatD0=    1 NMtDS0=    0 NMtDT0=    0
 Petite list used in FoFCou.
 Closed shell SCF:
 Using DIIS extrapolation, IDIIS=  1040.
 NGot= 16106127360 LenX= 15988850015 LenY= 15988789549
 Requested convergence on RMS density matrix=1.00D-08 within 128 cycles.
 Requested convergence on MAX density matrix=1.00D-06.
 Requested convergence on             energy=1.00D-06.
 No special actions if energy rises.

 Cycle   1  Pass 1  IDiag  1:
 E= -279.370708577137    
 DIIS: error= 2.47D-02 at cycle   1 NSaved=   1.
 NSaved= 1 IEnMin= 1 EnMin= -279.370708577137     IErMin= 1 ErrMin= 2.47D-02
 ErrMax= 2.47D-02  0.00D+00 EMaxC= 1.00D-01 BMatC= 4.38D-01 BMatP= 4.38D-01
 IDIUse=3 WtCom= 7.53D-01 WtEn= 2.47D-01
 Coeff-Com:  0.100D+01
 Coeff-En:   0.100D+01
 Coeff:      0.100D+01
 Gap=     0.512 Goal=   None    Shift=    0.000
 GapD=    0.512 DampG=2.000 DampE=0.500 DampFc=1.0000 IDamp=-1.
 RMSDP=1.62D-03 MaxDP=9.97D-02              OVMax= 1.12D-01

 Cycle   2  Pass 1  IDiag  1:
 E= -279.452608320967     Delta-E=       -0.081899743830 Rises=F Damp=F
 DIIS: error= 1.77D-02 at cycle   2 NSaved=   2.
 NSaved= 2 IEnMin= 2 EnMin= -279.452608320967     IErMin= 2 ErrMin= 1.77D-02
 ErrMax= 1.77D-02  0.00D+00 EMaxC= 1.00D-01 BMatC= 7.13D-02 BMatP= 4.38D-01
 IDIUse=3 WtCom= 8.23D-01 WtEn= 1.77D-01
 Coeff-Com:  0.194D+00 0.806D+00
 Coeff-En:   0.000D+00 0.100D+01
 Coeff:      0.160D+00 0.840D+00
 Gap=     0.529 Goal=   None    Shift=    0.000
 RMSDP=8.99D-04 MaxDP=3.73D-02 DE=-8.19D-02 OVMax= 6.93D-02

 Cycle   3  Pass 1  IDiag  1:
 E= -279.481475865100     Delta-E=       -0.028867544133 Rises=F Damp=F
 DIIS: error= 1.04D-02 at cycle   3 NSaved=   3.
 NSaved= 3 IEnMin= 3 EnMin= -279.481475865100     IErMin= 3 ErrMin= 1.04D-02
 ErrMax= 1.04D-02  0.00D+00 EMaxC= 1.00D-01 BMatC= 2.87D-02 BMatP= 7.13D-02
 IDIUse=3 WtCom= 8.96D-01 WtEn= 1.04D-01
 Coeff-Com: -0.331D-01 0.379D+00 0.654D+00
 Coeff-En:   0.000D+00 0.242D+00 0.758D+00
 Coeff:     -0.296D-01 0.365D+00 0.665D+00
 Gap=     0.510 Goal=   None    Shift=    0.000
 RMSDP=3.76D-04 MaxDP=1.55D-02 DE=-2.89D-02 OVMax= 3.81D-02

 Cycle   4  Pass 1  IDiag  1:
 E= -279.500540870044     Delta-E=       -0.019065004944 Rises=F Damp=F
 DIIS: error= 1.37D-03 at cycle   4 NSaved=   4.
 NSaved= 4 IEnMin= 4 EnMin= -279.500540870044     IErMin= 4 ErrMin= 1.37D-03
 ErrMax= 1.37D-03  0.00D+00 EMaxC= 1.00D-01 BMatC= 4.95D-04 BMatP= 2.87D-02
 IDIUse=3 WtCom= 9.86D-01 WtEn= 1.37D-02
 Coeff-Com: -0.117D-01 0.579D-01 0.159D+00 0.795D+00
 Coeff-En:   0.000D+00 0.000D+00 0.000D+00 0.100D+01
 Coeff:     -0.115D-01 0.571D-01 0.156D+00 0.798D+00
 Gap=     0.502 Goal=   None    Shift=    0.000
 RMSDP=9.05D-05 MaxDP=2.78D-03 DE=-1.91D-02 OVMax= 1.12D-02

 Cycle   5  Pass 1  IDiag  1:
 E= -279.501220463216     Delta-E=       -0.000679593172 Rises=F Damp=F
 DIIS: error= 7.57D-04 at cycle   5 NSaved=   5.
 NSaved= 5 IEnMin= 5 EnMin= -279.501220463216     IErMin= 5 ErrMin= 7.57D-04
 ErrMax= 7.57D-04  0.00D+00 EMaxC= 1.00D-01 BMatC= 8.79D-05 BMatP= 4.95D-04
 IDIUse=3 WtCom= 9.92D-01 WtEn= 7.57D-03
 Coeff-Com:  0.615D-02-0.729D-01-0.118D+00 0.217D-01 0.116D+01
 Coeff-En:   0.000D+00 0.000D+00 0.000D+00 0.000D+00 0.100D+01
 Coeff:      0.611D-02-0.723D-01-0.117D+00 0.215D-01 0.116D+01
 Gap=     0.502 Goal=   None    Shift=    0.000
 RMSDP=7.68D-05 MaxDP=2.11D-03 DE=-6.80D-04 OVMax= 1.12D-02

 Cycle   6  Pass 1  IDiag  1:
 E= -279.501539131074     Delta-E=       -0.000318667859 Rises=F Damp=F
 DIIS: error= 2.86D-04 at cycle   6 NSaved=   6.
 NSaved= 6 IEnMin= 6 EnMin= -279.501539131074     IErMin= 6 ErrMin= 2.86D-04
 ErrMax= 2.86D-04  0.00D+00 EMaxC= 1.00D-01 BMatC= 1.69D-05 BMatP= 8.79D-05
 IDIUse=3 WtCom= 9.97D-01 WtEn= 2.86D-03
 Coeff-Com:  0.569D-03 0.200D-02 0.517D-02-0.132D+00-0.235D+00 0.136D+01
 Coeff-En:   0.000D+00 0.000D+00 0.000D+00 0.000D+00 0.000D+00 0.100D+01
 Coeff:      0.567D-03 0.199D-02 0.516D-02-0.131D+00-0.234D+00 0.136D+01
 Gap=     0.502 Goal=   None    Shift=    0.000
 RMSDP=4.58D-05 MaxDP=1.26D-03 DE=-3.19D-04 OVMax= 5.62D-03

 Cycle   7  Pass 1  IDiag  1:
 E= -279.501613177792     Delta-E=       -0.000074046718 Rises=F Damp=F
 DIIS: error= 1.24D-04 at cycle   7 NSaved=   7.
 NSaved= 7 IEnMin= 7 EnMin= -279.501613177792     IErMin= 7 ErrMin= 1.24D-04
 ErrMax= 1.24D-04  0.00D+00 EMaxC= 1.00D-01 BMatC= 4.47D-06 BMatP= 1.69D-05
 IDIUse=3 WtCom= 9.99D-01 WtEn= 1.24D-03
 Coeff-Com: -0.954D-03 0.137D-01 0.267D-01-0.234D-01-0.284D+00 0.376D+00
 Coeff-Com:  0.892D+00
 Coeff-En:   0.000D+00 0.000D+00 0.000D+00 0.000D+00 0.000D+00 0.000D+00
 Coeff-En:   0.100D+01
 Coeff:     -0.952D-03 0.137D-01 0.266D-01-0.234D-01-0.284D+00 0.376D+00
 Coeff:      0.892D+00
 Gap=     0.502 Goal=   None    Shift=    0.000
 RMSDP=1.34D-05 MaxDP=3.84D-04 DE=-7.40D-05 OVMax= 1.56D-03

 Cycle   8  Pass 1  IDiag  1:
 E= -279.501622184225     Delta-E=       -0.000009006433 Rises=F Damp=F
 DIIS: error= 5.99D-05 at cycle   8 NSaved=   8.
 NSaved= 8 IEnMin= 8 EnMin= -279.501622184225     IErMin= 8 ErrMin= 5.99D-05
 ErrMax= 5.99D-05  0.00D+00 EMaxC= 1.00D-01 BMatC= 6.18D-07 BMatP= 4.47D-06
 IDIUse=1 WtCom= 1.00D+00 WtEn= 0.00D+00
 Coeff-Com: -0.452D-03 0.349D-02 0.765D-02 0.275D-01-0.412D-01-0.199D+00
 Coeff-Com:  0.181D+00 0.102D+01
 Coeff:     -0.452D-03 0.349D-02 0.765D-02 0.275D-01-0.412D-01-0.199D+00
 Coeff:      0.181D+00 0.102D+01
 Gap=     0.502 Goal=   None    Shift=    0.000
 RMSDP=6.98D-06 MaxDP=2.05D-04 DE=-9.01D-06 OVMax= 7.56D-04

 Cycle   9  Pass 1  IDiag  1:
 E= -279.501623988824     Delta-E=       -0.000001804599 Rises=F Damp=F
 DIIS: error= 1.46D-05 at cycle   9 NSaved=   9.
 NSaved= 9 IEnMin= 9 EnMin= -279.501623988824     IErMin= 9 ErrMin= 1.46D-05
 ErrMax= 1.46D-05  0.00D+00 EMaxC= 1.00D-01 BMatC= 7.21D-08 BMatP= 6.18D-07
 IDIUse=1 WtCom= 1.00D+00 WtEn= 0.00D+00
 Coeff-Com:  0.122D-03-0.173D-02-0.309D-02-0.181D-02 0.343D-01-0.126D-02
 Coeff-Com: -0.171D+00-0.885D-01 0.123D+01
 Coeff:      0.122D-03-0.173D-02-0.309D-02-0.181D-02 0.343D-01-0.126D-02
 Coeff:     -0.171D+00-0.885D-01 0.123D+01
 Gap=     0.502 Goal=   None    Shift=    0.000
 RMSDP=1.97D-06 MaxDP=6.67D-05 DE=-1.80D-06 OVMax= 1.77D-04

 Cycle  10  Pass 1  IDiag  1:
 E= -279.501624154053     Delta-E=       -0.000000165229 Rises=F Damp=F
 DIIS: error= 3.86D-06 at cycle  10 NSaved=  10.
 NSaved=10 IEnMin=10 EnMin= -279.501624154053     IErMin=10 ErrMin= 3.86D-06
 ErrMax= 3.86D-06  0.00D+00 EMaxC= 1.00D-01 BMatC= 5.69D-09 BMatP= 7.21D-08
 IDIUse=1 WtCom= 1.00D+00 WtEn= 0.00D+00
 Coeff-Com:  0.325D-04-0.258D-03-0.354D-03-0.277D-02 0.189D-02 0.201D-01
 Coeff-Com: -0.150D-01-0.752D-01-0.749D-01 0.115D+01
 Coeff:      0.325D-04-0.258D-03-0.354D-03-0.277D-02 0.189D-02 0.201D-01
 Coeff:     -0.150D-01-0.752D-01-0.749D-01 0.115D+01
 Gap=     0.502 Goal=   None    Shift=    0.000
 RMSDP=5.15D-07 MaxDP=2.15D-05 DE=-1.65D-07 OVMax= 4.19D-05

 Cycle  11  Pass 1  IDiag  1:
 E= -279.501624166990     Delta-E=       -0.000000012937 Rises=F Damp=F
 DIIS: error= 2.04D-06 at cycle  11 NSaved=  11.
 NSaved=11 IEnMin=11 EnMin= -279.501624166990     IErMin=11 ErrMin= 2.04D-06
 ErrMax= 2.04D-06  0.00D+00 EMaxC= 1.00D-01 BMatC= 6.77D-10 BMatP= 5.69D-09
 IDIUse=1 WtCom= 1.00D+00 WtEn= 0.00D+00
 Coeff-Com: -0.215D-04 0.247D-03 0.492D-03 0.530D-03-0.429D-02-0.366D-02
 Coeff-Com:  0.218D-01 0.301D-01-0.138D+00-0.184D+00 0.128D+01
 Coeff:     -0.215D-04 0.247D-03 0.492D-03 0.530D-03-0.429D-02-0.366D-02
 Coeff:      0.218D-01 0.301D-01-0.138D+00-0.184D+00 0.128D+01
 Gap=     0.502 Goal=   None    Shift=    0.000
 RMSDP=1.82D-07 MaxDP=6.76D-06 DE=-1.29D-08 OVMax= 1.75D-05

 Cycle  12  Pass 1  IDiag  1:
 E= -279.501624168852     Delta-E=       -0.000000001862 Rises=F Damp=F
 DIIS: error= 6.07D-07 at cycle  12 NSaved=  12.
 NSaved=12 IEnMin=12 EnMin= -279.501624168852     IErMin=12 ErrMin= 6.07D-07
 ErrMax= 6.07D-07  0.00D+00 EMaxC= 1.00D-01 BMatC= 7.38D-11 BMatP= 6.77D-10
 IDIUse=1 WtCom= 1.00D+00 WtEn= 0.00D+00
 Coeff-Com:  0.127D-05-0.298D-04-0.639D-04 0.183D-03 0.109D-02-0.230D-02
 Coeff-Com: -0.420D-02 0.554D-02 0.417D-01-0.110D+00-0.293D+00 0.136D+01
 Coeff:      0.127D-05-0.298D-04-0.639D-04 0.183D-03 0.109D-02-0.230D-02
 Coeff:     -0.420D-02 0.554D-02 0.417D-01-0.110D+00-0.293D+00 0.136D+01
 Gap=     0.502 Goal=   None    Shift=    0.000
 RMSDP=7.38D-08 MaxDP=2.93D-06 DE=-1.86D-09 OVMax= 6.73D-06

 Cycle  13  Pass 1  IDiag  1:
 E= -279.501624169090     Delta-E=       -0.000000000238 Rises=F Damp=F
 DIIS: error= 1.72D-07 at cycle  13 NSaved=  13.
 NSaved=13 IEnMin=13 EnMin= -279.501624169090     IErMin=13 ErrMin= 1.72D-07
 ErrMax= 1.72D-07  0.00D+00 EMaxC= 1.00D-01 BMatC= 4.13D-12 BMatP= 7.38D-11
 IDIUse=1 WtCom= 1.00D+00 WtEn= 0.00D+00
 Coeff-Com:  0.129D-05-0.141D-04-0.226D-04-0.900D-04 0.121D-03 0.772D-03
 Coeff-Com: -0.874D-03-0.323D-02 0.480D-03 0.407D-01-0.327D-01-0.330D+00
 Coeff-Com:  0.133D+01
 Coeff:      0.129D-05-0.141D-04-0.226D-04-0.900D-04 0.121D-03 0.772D-03
 Coeff:     -0.874D-03-0.323D-02 0.480D-03 0.407D-01-0.327D-01-0.330D+00
 Coeff:      0.133D+01
 Gap=     0.502 Goal=   None    Shift=    0.000
 RMSDP=1.95D-08 MaxDP=5.65D-07 DE=-2.38D-10 OVMax= 1.58D-06

 Cycle  14  Pass 1  IDiag  1:
 E= -279.501624169103     Delta-E=       -0.000000000013 Rises=F Damp=F
 DIIS: error= 2.50D-08 at cycle  14 NSaved=  14.
 NSaved=14 IEnMin=14 EnMin= -279.501624169103     IErMin=14 ErrMin= 2.50D-08
 ErrMax= 2.50D-08  0.00D+00 EMaxC= 1.00D-01 BMatC= 1.96D-13 BMatP= 4.13D-12
 IDIUse=1 WtCom= 1.00D+00 WtEn= 0.00D+00
 Coeff-Com: -0.187D-06 0.310D-05 0.554D-05 0.447D-05-0.820D-04 0.453D-04
 Coeff-Com:  0.286D-03 0.207D-03-0.239D-02 0.130D-02 0.172D-01-0.258D-01
 Coeff-Com: -0.198D+00 0.121D+01
 Coeff:     -0.187D-06 0.310D-05 0.554D-05 0.447D-05-0.820D-04 0.453D-04
 Coeff:      0.286D-03 0.207D-03-0.239D-02 0.130D-02 0.172D-01-0.258D-01
 Coeff:     -0.198D+00 0.121D+01
 Gap=     0.502 Goal=   None    Shift=    0.000
 RMSDP=3.81D-09 MaxDP=9.37D-08 DE=-1.31D-11 OVMax= 3.41D-07

 SCF Done:  E(RHF) =  -279.501624169     A.U. after   14 cycles
            NFock= 14  Conv=0.38D-08     -V/T= 2.0024
 KE= 2.788334991075D+02 PE=-8.944861175326D+02 EE= 2.195638397676D+02
 Leave Link  502 at Mon Feb 21 20:43:03 2022, MaxMem= 16106127360 cpu:              55.8 elap:               3.6
 (Enter /sw/contrib/gaussian/g16/B01/g16/l801.exe)
 ExpMin= 2.53D-02 ExpMax= 1.53D+04 ExpMxC= 5.22D+02 IAcc=3 IRadAn=         5 AccDes= 0.00D+00
 HarFok:  IExCor=  205 AccDes= 0.00D+00 IRadAn=         5 IDoV=-2 UseB2=F ITyADJ=14
 ICtDFT= 12500011 ScaDFX=  1.000000  1.000000  1.000000  1.000000
 Largest valence mixing into a core orbital is  2.08D-04
 Largest core mixing into a valence orbital is  3.62D-05
 Range of M.O.s used for correlation:     5   207
 NBasis=   207 NAE=    16 NBE=    16 NFC=     4 NFV=     0
 NROrb=    203 NOA=    12 NOB=    12 NVA=   191 NVB=   191

 **** Warning!!: The largest alpha MO coefficient is  0.17038010D+02

 Leave Link  801 at Mon Feb 21 20:43:03 2022, MaxMem= 16106127360 cpu:               2.2 elap:               0.1
 (Enter /sw/contrib/gaussian/g16/B01/g16/l906.exe)
 Frozen-core derivative calculation, NFC=   4 NFV=   0.
 FulOut=F Deriv=T AODrv=T NAtomX=     5
   MMem=           0  MDisk=          12 MDiskD=          12
  W3Min=      811440 MinDsk=     2425030 NBas6D=         245
 NBas2D=       30762    NTT=       30135    LW2=     7400000
    MDV= 16105574325 MDiskM=      328644 NBas2p=       30702
 Disk-based method using ON**2 memory for 12 occupieds at a time.
 Permanent disk used for amplitudes=    11516536 words.
 Estimated scratch disk usage=   321251614 words.
 IMap=   1   2   3   4   5   6   7   8   9  10  11  12  13  14  15  16
 Actual    scratch disk usage=   310331678 words.
 JobTyp=1 Pass  1:  I=   5 to  16 NPSUse= 28 ParTrn=T ParDer=T DoDerP=T.
 (rs|ai) integrals will be sorted in core.
 Spin components of T(2) and E(2):
     alpha-alpha T2 =       0.3403636179D-01 E2=     -0.1223855064D+00
     alpha-beta  T2 =       0.1868587952D+00 E2=     -0.7001393186D+00
     beta-beta   T2 =       0.3403636179D-01 E2=     -0.1223855064D+00
 The integrals were generated   1 times.
 ANorm=    0.1120237260D+01
 E2 =    -0.9449103315D+00 EUMP2 =    -0.28044653450058D+03
 Leave Link  906 at Mon Feb 21 20:44:40 2022, MaxMem= 16106127360 cpu:            2693.3 elap:              96.4
 (Enter /sw/contrib/gaussian/g16/B01/g16/l1101.exe)
 Using compressed Sx but separate Hx and Fx, NAtomX=     5.
 Will process      6 centers per pass.
 Leave Link 1101 at Mon Feb 21 20:44:40 2022, MaxMem= 16106127360 cpu:               6.4 elap:               0.3
 (Enter /sw/contrib/gaussian/g16/B01/g16/l1102.exe)
 Leave Link 1102 at Mon Feb 21 20:44:40 2022, MaxMem= 16106127360 cpu:               0.9 elap:               0.1
 (Enter /sw/contrib/gaussian/g16/B01/g16/l1110.exe)
 Forming Gx(P) for the SCF density, NAtomX=     5.
 Integral derivatives from FoFJK, PRISM(SPDF).
 Do as many integral derivatives as possible in FoFJK.
 G2DrvN: MDV=   16106126844.
 G2DrvN: will do     6 centers at a time, making    1 passes.
 Calling FoFCou, ICntrl=  3107 FMM=F I1Cent=   0 AccDes= 0.00D+00.
 FoFJK:  IHMeth= 1 ICntrl=    3107 DoSepK=F KAlg= 0 I1Cent=           0 FoldK=F
 IRaf=         0 NMat=       1 IRICut=       1 DoRegI=T DoRafI=F ISym2E= 1 IDoP0=0 IntGTp=1.
 FoFCou: FMM=F IPFlag=           0 FMFlag=      100000 FMFlg1=           0
         NFxFlg=           0 DoJE=F BraDBF=F KetDBF=F FulRan=T
         wScrn=  0.000000 ICntrl=      3107 IOpCl=  0 I1Cent=           0 NGrid=           0
         NMat0=    1 NMatS0=      1 NMatT0=    0 NMatD0=    1 NMtDS0=    0 NMtDT0=    0
 Petite list used in FoFCou.
 End of G2Drv F.D. properties file   721 does not exist.
 End of G2Drv F.D. properties file   722 does not exist.
 End of G2Drv F.D. properties file   788 does not exist.
 Leave Link 1110 at Mon Feb 21 20:44:43 2022, MaxMem= 16106127360 cpu:              83.8 elap:               3.0
 (Enter /sw/contrib/gaussian/g16/B01/g16/l1002.exe)
 Minotr:  Closed shell wavefunction.
          IDoAtm=11111
          Frozen-core window.
          Direct CPHF calculation.
          Differentiating once with respect to electric field.
                with respect to dipole field.
          Differentiating once with respect to nuclear coordinates.
          Requested convergence is 1.0D-08 RMS, and 1.0D-07 maximum.
          Secondary convergence is 1.0D-12 RMS, and 1.0D-12 maximum.
          NewPWx=T KeepS1=T KeepF1=T KeepIn=T MapXYZ=F SortEE=F KeepMc=T.
 Keep R1 ints in memory in symmetry-blocked form, NReq=348888983.
 FoFCou: FMM=F IPFlag=           0 FMFlag=           0 FMFlg1=           0
         NFxFlg=           0 DoJE=F BraDBF=F KetDBF=F FulRan=T
         wScrn=  0.000000 ICntrl=       600 IOpCl=  0 I1Cent=           0 NGrid=           0
         NMat0=    1 NMatS0=  21528 NMatT0=    0 NMatD0=    1 NMtDS0=    0 NMtDT0=    0
 Petite list used in FoFCou.
          MDV=   16106127360 using IRadAn=       1.
          Solving linear equations simultaneously, MaxMat=       0.
          There are    18 degrees of freedom in the 1st order CPHF.  IDoFFX=6 NUNeed=    18.
     15 vectors produced by pass  0 Test12= 1.70D-14 5.56D-09 XBig12= 8.29D+00 1.05D+00.
 AX will form    15 AO Fock derivatives at one time.
     15 vectors produced by pass  1 Test12= 1.70D-14 5.56D-09 XBig12= 1.34D+00 2.44D-01.
     15 vectors produced by pass  2 Test12= 1.70D-14 5.56D-09 XBig12= 1.42D-01 9.96D-02.
     15 vectors produced by pass  3 Test12= 1.70D-14 5.56D-09 XBig12= 5.03D-03 1.12D-02.
     15 vectors produced by pass  4 Test12= 1.70D-14 5.56D-09 XBig12= 9.95D-05 1.89D-03.
     15 vectors produced by pass  5 Test12= 1.70D-14 5.56D-09 XBig12= 1.37D-06 1.75D-04.
     15 vectors produced by pass  6 Test12= 1.70D-14 5.56D-09 XBig12= 1.09D-08 1.51D-05.
     12 vectors produced by pass  7 Test12= 1.70D-14 5.56D-09 XBig12= 8.13D-11 1.29D-06.
      3 vectors produced by pass  8 Test12= 1.70D-14 5.56D-09 XBig12= 5.85D-13 1.19D-07.
      2 vectors produced by pass  9 Test12= 1.70D-14 5.56D-09 XBig12= 3.92D-15 1.00D-08.
 InvSVY:  IOpt=1 It=  1 EMax= 1.11D-15
 Solved reduced A of dimension   122 with    15 vectors.
 FullF1:  Do perturbations      1 to      18.
 Saving first derivative matrices.
 End of Minotr F.D. properties file   721 does not exist.
 End of Minotr F.D. properties file   722 does not exist.
 End of Minotr F.D. properties file   788 does not exist.
 Leave Link 1002 at Mon Feb 21 20:44:46 2022, MaxMem= 16106127360 cpu:              80.5 elap:               2.9
 (Enter /sw/contrib/gaussian/g16/B01/g16/l811.exe)
 MDV= 16106127360.
 Form MO integral derivatives with frozen-active canonical formalism.
 MOERI=1 MOERIx=1 NAtoms=     5 NAtomX=     5.
 Discarding MO integrals.
 MO basis two electron integral derivatives will not be stored on disk.
 IAlg= 3 DoFC=T DoPWx=T Debug=F.
 Frozen-core window:  NFC=   4 NFV=   0.
 Reordered first order wavefunction length =     18678272
 In DefCFB: NBatch=  1 ICI= 16 ICA=191 LFMax= 96
            Large arrays: LIAPS=   619940160 LIARS=   288257200 words.
 In StABat: MaxSiz= 55 MinSiz= 25 NAtomB=  5
 DoIAMN: NPSUse= 28.
 Leave Link  811 at Mon Feb 21 20:46:09 2022, MaxMem= 16106127360 cpu:            2323.6 elap:              83.2
 (Enter /sw/contrib/gaussian/g16/B01/g16/l804.exe)
 Frozen-core window:  NFC=   4 NFV=   0.
 Closed-shell transformation, MDV= 16106127360 ITran=4 ISComp=1.
 Semi-Direct transformation.
 ModeAB=           2 MOrb=            16 LenV=   16104923079
 LASXX=     67341636 LTotXX=    67341636 LenRXX=    67341636
 LTotAB=    68301760 MaxLAS=    99807120 LenRXY=    99807120
 NonZer=   134683272 LenScr=   202817536 LnRSAI=           0
 LnScr1=           0 LExtra=           0 Total=    369966292
 MaxDsk=          -1 SrtSym=           F ITran=            4
 DoSDTr:  NPSUse= 28
 JobTyp=0 Pass  1:  I=   1 to  16.
 (rs|ai) integrals will be sorted in core.
 Complete sort for first half transformation.
 First half transformation complete.
 Begin second half transformation for I=  10.
 Begin second half transformation for I=  10.
 Complete sort for second half transformation.
 Second half transformation complete.
 Spin components of T(2) and E(2):
     alpha-alpha T2 =       0.3403636179D-01 E2=     -0.1223855064D+00
     alpha-beta  T2 =       0.1868587952D+00 E2=     -0.7001393186D+00
     beta-beta   T2 =       0.3403636179D-01 E2=     -0.1223855064D+00
 ANorm=    0.1584254726D+01
 E2 =    -0.9449103315D+00 EUMP2 =    -0.28044653450058D+03
 Leave Link  804 at Mon Feb 21 20:46:25 2022, MaxMem= 16106127360 cpu:             423.3 elap:              15.2
 (Enter /sw/contrib/gaussian/g16/B01/g16/l1002.exe)
 Minotr:  Closed shell wavefunction.
          Computing MP2/KS-MP2 derivatives.
          Using Z-Vector for PSCF gradient.
          Skipping F1 and S1 gradient terms here.
          IDoAtm=11111
          Frozen-core window.
          Using MO integrals in the linear equations.
          Forming densities via direct SCF.
          Differentiating once with respect to electric field.
                with respect to dipole field.
          Differentiating once with respect to nuclear coordinates.
          Using symmetry in CPHF.
          Requested convergence is 1.0D-10 RMS, and 1.0D-09 maximum.
          NewPWx=F KeepS1=T KeepF1=T KeepIn=T MapXYZ=F SortEE=F KeepMc=T.
          MDV=   16106127360 using IRadAn=       5.
          Solving linear equations separately, MaxMat=       0.
          There are     1 degrees of freedom in the 1st order CPHF.  IDoFFX=0 NUNeed=     1.
 FoFJK:  IHMeth= 1 ICntrl=       0 DoSepK=F KAlg= 0 I1Cent=           0 FoldK=F
 IRaf=         0 NMat=       1 IRICut=       1 DoRegI=T DoRafI=F ISym2E= 0 IDoP0=0 IntGTp=1.
 FoFCou: FMM=F IPFlag=           0 FMFlag=      100000 FMFlg1=           0
         NFxFlg=           0 DoJE=F BraDBF=F KetDBF=F FulRan=T
         wScrn=  0.000000 ICntrl=         0 IOpCl=  0 I1Cent=           0 NGrid=           0
         NMat0=    1 NMatS0=      1 NMatT0=    0 NMatD0=    1 NMtDS0=    0 NMtDT0=    0
 Symmetry not used in FoFCou.
 LinEq1:  Iter=  0 NonCon=     1 RMS=5.99D-03 Max=1.33D-01 NDo=     1
 LinEq1:  Iter=  1 NonCon=     1 RMS=1.92D-03 Max=3.83D-02 NDo=     1
 LinEq1:  Iter=  2 NonCon=     1 RMS=8.72D-04 Max=1.33D-02 NDo=     1
 LinEq1:  Iter=  3 NonCon=     1 RMS=3.89D-04 Max=7.90D-03 NDo=     1
 LinEq1:  Iter=  4 NonCon=     1 RMS=1.21D-04 Max=1.94D-03 NDo=     1
 LinEq1:  Iter=  5 NonCon=     1 RMS=4.78D-05 Max=7.55D-04 NDo=     1
 LinEq1:  Iter=  6 NonCon=     1 RMS=2.11D-05 Max=2.57D-04 NDo=     1
 LinEq1:  Iter=  7 NonCon=     1 RMS=8.36D-06 Max=1.58D-04 NDo=     1
 LinEq1:  Iter=  8 NonCon=     1 RMS=3.54D-06 Max=3.49D-05 NDo=     1
 LinEq1:  Iter=  9 NonCon=     1 RMS=9.55D-07 Max=1.30D-05 NDo=     1
 LinEq1:  Iter= 10 NonCon=     1 RMS=1.87D-07 Max=1.99D-06 NDo=     1
 LinEq1:  Iter= 11 NonCon=     1 RMS=3.44D-08 Max=3.44D-07 NDo=     1
 LinEq1:  Iter= 12 NonCon=     1 RMS=8.24D-09 Max=1.19D-07 NDo=     1
 LinEq1:  Iter= 13 NonCon=     1 RMS=1.48D-09 Max=2.54D-08 NDo=     1
 LinEq1:  Iter= 14 NonCon=     1 RMS=2.72D-10 Max=3.57D-09 NDo=     1
 LinEq1:  Iter= 15 NonCon=     0 RMS=4.96D-11 Max=5.72D-10 NDo=     1
 Linear equations converged to 1.000D-10 1.000D-09 after    15 iterations.
 End of Minotr F.D. properties file   721 does not exist.
 End of Minotr F.D. properties file   722 does not exist.
 End of Minotr F.D. properties file   788 does not exist.
 Leave Link 1002 at Mon Feb 21 20:46:27 2022, MaxMem= 16106127360 cpu:              65.3 elap:               2.4
 (Enter /sw/contrib/gaussian/g16/B01/g16/l1102.exe)
 Use density number 2.
 Symmetrizing basis deriv contribution to polar:
 IMax=3 JMax=2 DiffMx= 0.00D+00
 Leave Link 1102 at Mon Feb 21 20:46:27 2022, MaxMem= 16106127360 cpu:               0.6 elap:               0.0
 (Enter /sw/contrib/gaussian/g16/B01/g16/l1110.exe)
 Forming Gx(P) for generalized density number  2 NAtomX=     5.
 Integral derivatives from FoFJK, PRISM(SPDF).
 Do as many integral derivatives as possible in FoFJK.
 G2DrvN: MDV=   16106126844.
 G2DrvN: will do     6 centers at a time, making    1 passes.
 Calling FoFCou, ICntrl=  3107 FMM=F I1Cent=   0 AccDes= 0.00D+00.
 FoFJK:  IHMeth= 1 ICntrl=    3107 DoSepK=F KAlg= 0 I1Cent=           0 FoldK=F
 IRaf=         0 NMat=       1 IRICut=       1 DoRegI=T DoRafI=F ISym2E= 1 IDoP0=0 IntGTp=1.
 FoFCou: FMM=F IPFlag=           0 FMFlag=      100000 FMFlg1=           0
         NFxFlg=           0 DoJE=F BraDBF=F KetDBF=F FulRan=T
         wScrn=  0.000000 ICntrl=      3107 IOpCl=  0 I1Cent=           0 NGrid=           0
         NMat0=    1 NMatS0=      1 NMatT0=    0 NMatD0=    1 NMtDS0=    0 NMtDT0=    0
 Petite list used in FoFCou.
 End of G2Drv F.D. properties file   721 does not exist.
 End of G2Drv F.D. properties file   722 does not exist.
 End of G2Drv F.D. properties file   788 does not exist.
 Leave Link 1110 at Mon Feb 21 20:46:30 2022, MaxMem= 16106127360 cpu:              83.0 elap:               3.0
 (Enter /sw/contrib/gaussian/g16/B01/g16/l1112.exe)
 MP22nd: MDV=   16106127360
 This link is doing NAtomX=     5 total of    18 degrees of freedom.
 Using ON3 I/O method in MakUI.
 Frozen-core window:  NFC=   4 NFV=   0.
 Using Ix for Sx.
 Use MO integrals over full window.
 Using OV2 memory method for fx*t*t/D, MaxI=    16 DoOO2=F NP=  28.
 R2 and R3 integrals will be kept in memory, NReq=   915591705.
 FoFCou: FMM=F IPFlag=           0 FMFlag=           0 FMFlg1=           0
         NFxFlg=           0 DoJE=F BraDBF=F KetDBF=F FulRan=T
         wScrn=  0.000000 ICntrl=       600 IOpCl=  0 I1Cent=           0 NGrid=           0
         NMat0=    1 NMatS0=      1 NMatT0=    0 NMatD0=    1 NMtDS0=    0 NMtDT0=    0
 Symmetry not used in FoFCou.
 DD1Dir will call FoFMem   1 times, MxPair=       272
 NAB=   136 NAA=     0 NBB=     0.
 Symmetry is being used.
 FoFJK:  IHMeth= 1 ICntrl=       0 DoSepK=F KAlg= 0 I1Cent=           0 FoldK=F
 IRaf=         0 NMat=      18 IRICut=      45 DoRegI=T DoRafI=T ISym2E= 2 IDoP0=3 IntGTp=3.
 Discarding MO integrals.
 Leave Link 1112 at Mon Feb 21 20:47:02 2022, MaxMem= 16106127360 cpu:             893.1 elap:              32.2
 (Enter /sw/contrib/gaussian/g16/B01/g16/l601.exe)
 Copying SCF densities to generalized density rwf, IOpCl= 0 IROHF=0.

 **********************************************************************

            Population analysis using the MP2 Density.

 **********************************************************************

 Orbital symmetries:
       Occupied  (A') (A') (A') (A') (A') (A') (A') (A') (A') (A')
                 (A") (A') (A") (A') (A") (A')
       Virtual   (A') (A") (A') (A') (A") (A') (A') (A') (A") (A')
                 (A") (A') (A') (A') (A") (A') (A') (A") (A') (A')
                 (A') (A') (A') (A') (A') (A") (A') (A") (A') (A')
                 (A") (A') (A") (A') (A') (A") (A') (A") (A') (A')
                 (A") (A') (A") (A') (A') (A") (A') (A') (A") (A')
                 (A") (A') (A') (A') (A") (A') (A") (A') (A") (A')
                 (A') (A') (A") (A') (A') (A") (A') (A") (A') (A')
                 (A") (A') (A') (A") (A") (A') (A') (A") (A') (A')
                 (A') (A") (A') (A") (A") (A') (A') (A") (A') (A')
                 (A") (A') (A') (A") (A') (A") (A') (A") (A') (A')
                 (A") (A') (A") (A') (A') (A") (A') (A') (A") (A')
                 (A") (A') (A') (A') (A") (A') (A') (A') (A") (A')
                 (A") (A') (A") (A') (A') (A") (A") (A') (A") (A')
                 (A') (A') (A') (A") (A") (A") (A') (A') (A') (A')
                 (A") (A') (A") (A') (A') (A") (A') (A') (A') (A')
                 (A") (A') (A') (A") (A') (A") (A') (A") (A') (A")
                 (A') (A") (A') (A") (A') (A") (A") (A') (A") (A')
                 (A") (A') (A") (A') (A") (A') (A") (A') (A") (A')
                 (A') (A') (A') (A') (A') (A') (A') (A') (A') (A')
                 (A')
 The electronic state is 1-A'.
 Alpha  occ. eigenvalues --  -20.69020 -20.68479 -20.66071 -15.81351  -1.62397
 Alpha  occ. eigenvalues --   -1.49512  -1.25541  -0.94767  -0.77115  -0.76004
 Alpha  occ. eigenvalues --   -0.71147  -0.68255  -0.62102  -0.58777  -0.48502
 Alpha  occ. eigenvalues --   -0.47206
 Alpha virt. eigenvalues --    0.02963   0.07142   0.08598   0.10230   0.13370
 Alpha virt. eigenvalues --    0.13372   0.14380   0.15377   0.17834   0.19438
 Alpha virt. eigenvalues --    0.20004   0.20595   0.22061   0.23509   0.23720
 Alpha virt. eigenvalues --    0.26770   0.29373   0.30271   0.31108   0.34400
 Alpha virt. eigenvalues --    0.34902   0.38627   0.42258   0.43337   0.52731
 Alpha virt. eigenvalues --    0.52765   0.55608   0.57835   0.62536   0.63994
 Alpha virt. eigenvalues --    0.67497   0.68461   0.70763   0.70977   0.72484
 Alpha virt. eigenvalues --    0.72824   0.74463   0.79215   0.79391   0.81162
 Alpha virt. eigenvalues --    0.81261   0.82848   0.86820   0.90843   0.92175
 Alpha virt. eigenvalues --    0.92693   0.95307   0.97014   0.98280   1.01634
 Alpha virt. eigenvalues --    1.05025   1.05644   1.07640   1.11237   1.13769
 Alpha virt. eigenvalues --    1.19221   1.21868   1.23562   1.34080   1.35198
 Alpha virt. eigenvalues --    1.38350   1.45544   1.48838   1.50856   1.53550
 Alpha virt. eigenvalues --    1.56476   1.57816   1.61050   1.65879   1.67384
 Alpha virt. eigenvalues --    1.70329   1.79066   1.83767   1.83773   1.87662
 Alpha virt. eigenvalues --    1.90630   1.95257   1.99053   2.00609   2.07894
 Alpha virt. eigenvalues --    2.12611   2.13343   2.14939   2.22244   2.26380
 Alpha virt. eigenvalues --    2.26564   2.29156   2.31135   2.33231   2.38352
 Alpha virt. eigenvalues --    2.42042   2.42984   2.45577   2.46018   2.47658
 Alpha virt. eigenvalues --    2.49542   2.58685   2.59839   2.61809   2.62944
 Alpha virt. eigenvalues --    2.64009   2.66379   2.75235   2.81521   2.83341
 Alpha virt. eigenvalues --    2.87088   2.89602   2.92836   2.96397   3.01141
 Alpha virt. eigenvalues --    3.06282   3.11644   3.20213   3.22204   3.31905
 Alpha virt. eigenvalues --    3.35236   3.53234   3.63096   3.83600   3.84284
 Alpha virt. eigenvalues --    4.14610   4.16395   4.18147   4.25351   4.35755
 Alpha virt. eigenvalues --    4.38862   4.46285   4.52137   4.64896   4.70891
 Alpha virt. eigenvalues --    4.79732   4.82345   4.83255   4.89407   5.02570
 Alpha virt. eigenvalues --    5.07780   5.10387   5.15428   5.17102   5.23735
 Alpha virt. eigenvalues --    5.27387   5.30775   5.32391   5.34524   5.58755
 Alpha virt. eigenvalues --    5.67326   5.76225   5.83293   5.95763   6.16150
 Alpha virt. eigenvalues --    6.30908   6.34050   6.39680   6.49452   6.50735
 Alpha virt. eigenvalues --    6.60954   6.67191   6.70179   6.75035   6.76306
 Alpha virt. eigenvalues --    6.83105   6.90142   7.01893   7.05538   7.06289
 Alpha virt. eigenvalues --    7.08963   7.12233   7.14539   7.18041   7.22731
 Alpha virt. eigenvalues --    7.23894   7.30612   7.32588   7.33385   7.39400
 Alpha virt. eigenvalues --    7.43504   7.48076   7.61316   7.61512   7.61943
 Alpha virt. eigenvalues --    7.65959   7.78586   7.87670   8.09627   8.31375
 Alpha virt. eigenvalues --    8.40971   8.54642  13.37116  14.43555  15.13926
 Alpha virt. eigenvalues --   16.14935
          Condensed to atoms (all electrons):
               1          2          3          4          5
     1  H    0.585662   0.128653   0.021981   0.011063  -0.000484
     2  O    0.128653   8.323238  -0.177808  -0.083012   0.014839
     3  O    0.021981  -0.177808   8.469543  -0.133307  -0.036369
     4  N    0.011063  -0.083012  -0.133307   6.972929  -0.055612
     5  O   -0.000484   0.014839  -0.036369  -0.055612   8.268738
 Mulliken charges:
               1
     1  H    0.253124
     2  O   -0.205911
     3  O   -0.144040
     4  N    0.287938
     5  O   -0.191112
 Sum of Mulliken charges =  -0.00000
 Mulliken charges with hydrogens summed into heavy atoms:
               1
     2  O    0.047214
     3  O   -0.144040
     4  N    0.287938
     5  O   -0.191112
 APT charges:
               1
     1  H    0.299822
     2  O   -0.298488
     3  O   -0.490914
     4  N    0.883698
     5  O   -0.394118
 Sum of APT charges =  -0.00000
 APT charges with hydrogens summed into heavy atoms:
               1
     2  O    0.001334
     3  O   -0.490914
     4  N    0.883698
     5  O   -0.394118
 Electronic spatial extent (au):  <R**2>=            255.2842
 Charge=             -0.0000 electrons
 Dipole moment (field-independent basis, Debye):
    X=              0.4522    Y=              1.3761    Z=              0.0000  Tot=              1.4485
 Quadrupole moment (field-independent basis, Debye-Ang):
   XX=            -22.6989   YY=            -18.3949   ZZ=            -22.0146
   XY=              3.1722   XZ=              0.0000   YZ=             -0.0000
 Traceless Quadrupole moment (field-independent basis, Debye-Ang):
   XX=             -1.6628   YY=              2.6412   ZZ=             -0.9784
   XY=              3.1722   XZ=              0.0000   YZ=             -0.0000
 Octapole moment (field-independent basis, Debye-Ang**2):
  XXX=              2.2362  YYY=             12.1159  ZZZ=             -0.0000  XYY=              7.9735
  XXY=              6.1982  XXZ=              0.0000  XZZ=             -1.5726  YZZ=             -0.8777
  YYZ=              0.0000  XYZ=              0.0000
 Hexadecapole moment (field-independent basis, Debye-Ang**3):
 XXXX=           -158.5358 YYYY=            -91.7850 ZZZZ=            -18.2496 XXXY=            -38.8684
 XXXZ=             -0.0000 YYYX=            -31.4184 YYYZ=             -0.0000 ZZZX=             -0.0000
 ZZZY=             -0.0000 XXYY=            -34.6288 XXZZ=            -30.6739 YYZZ=            -21.3384
 XXYZ=             -0.0000 YYXZ=             -0.0000 ZZXY=            -15.5602
 N-N= 1.165871544883D+02 E-N=-8.952674994788D+02  KE= 2.801857877270D+02
 Symmetry A'   KE= 2.662160650243D+02
 Symmetry A"   KE= 1.396972270274D+01
  Exact polarizability:  33.960   9.766  30.701   0.000   0.000  17.953
 Approx polarizability:  28.974   5.382  23.673   0.000   0.000  15.531
 No NMR shielding tensors so no spin-rotation constants.
 Leave Link  601 at Mon Feb 21 20:47:02 2022, MaxMem= 16106127360 cpu:               4.4 elap:               0.2
 (Enter /sw/contrib/gaussian/g16/B01/g16/l701.exe)
 ... and contract with generalized density number  2.
 Compute integral second derivatives.
 Leave Link  701 at Mon Feb 21 20:47:03 2022, MaxMem= 16106127360 cpu:               8.4 elap:               0.3
 (Enter /sw/contrib/gaussian/g16/B01/g16/l702.exe)
 L702 exits ... SP integral derivatives will be done elsewhere.
 Leave Link  702 at Mon Feb 21 20:47:03 2022, MaxMem= 16106127360 cpu:               0.5 elap:               0.0
 (Enter /sw/contrib/gaussian/g16/B01/g16/l703.exe)
 Integral derivatives from FoFJK, PRISM(SPDF).
 Compute integral second derivatives, UseDBF=F ICtDFT=           0.
 Calling FoFJK, ICntrl=  10100127 FMM=F ISym2X=1 I1Cent= 0 IOpClX= 0 NMat=1 NMatS=1 NMatT=0.
 FoFJK:  IHMeth= 1 ICntrl=10100127 DoSepK=F KAlg= 0 I1Cent=           0 FoldK=F
 IRaf=         0 NMat=       1 IRICut=       1 DoRegI=T DoRafI=F ISym2E= 1 IDoP0=0 IntGTp=1.
 FoFCou: FMM=F IPFlag=           0 FMFlag=      100000 FMFlg1=         800
         NFxFlg=           0 DoJE=F BraDBF=F KetDBF=F FulRan=T
         wScrn=  0.000000 ICntrl=  10100127 IOpCl=  0 I1Cent=           0 NGrid=           0
         NMat0=    1 NMatS0=      1 NMatT0=    0 NMatD0=    1 NMtDS0=    0 NMtDT0=    0
 Petite list used in FoFCou.
 Leave Link  703 at Mon Feb 21 20:47:18 2022, MaxMem= 16106127360 cpu:             420.1 elap:              15.1
 (Enter /sw/contrib/gaussian/g16/B01/g16/l716.exe)
 Dipole        = 1.77915968D-01 5.41404726D-01 1.37690761D-32
 Polarizability= 3.39595988D+01 9.76563600D+00 3.07005892D+01
                 2.95285766D-31 8.84376330D-31 1.79531242D+01
 Full mass-weighted force constant matrix:
 Low frequencies --- -282.8906  -93.0422   -0.0012   -0.0009   -0.0005   27.3755
 Low frequencies ---   39.8044  233.5484  333.0802
 ******    1 imaginary frequencies (negative Signs) ****** 
 Diagonal vibrational polarizability:
       14.7470813      26.3458984      42.2412112
 Harmonic frequencies (cm**-1), IR intensities (KM/Mole), Raman scattering
 activities (A**4/AMU), depolarization ratios for plane and unpolarized
 incident light, reduced masses (AMU), force constants (mDyne/A),
 and normal coordinates:
                      1                      2                      3
                     A"                     A"                     A'
 Frequencies --   -282.8876               233.4991               333.0763
 Red. masses --      1.1411                10.6597                 8.9434
 Frc consts  --      0.0538                 0.3424                 0.5846
 IR Inten    --    124.4556                 0.7878                 2.3657
  Atom  AN      X      Y      Z        X      Y      Z        X      Y      Z
     1   1    -0.00   0.00   1.00    -0.00   0.00  -0.57    -0.51   0.44   0.00
     2   8    -0.00   0.00  -0.06    -0.00   0.00  -0.32     0.12   0.41   0.00
     3   8    -0.00  -0.00  -0.04     0.00  -0.00   0.35     0.18  -0.37  -0.00
     4   7     0.00  -0.00   0.06     0.00  -0.00   0.51    -0.09  -0.32  -0.00
     5   8     0.00   0.00  -0.01    -0.00   0.00  -0.44    -0.19   0.22   0.00
                      4                      5                      6
                     A'                     A'                     A'
 Frequencies --    436.4360               784.1452               967.9173
 Red. masses --     11.5667                12.6688                15.1984
 Frc consts  --      1.2981                 4.5896                 8.3893
 IR Inten    --    201.6389               173.3489                24.8019
  Atom  AN      X      Y      Z        X      Y      Z        X      Y      Z
     1   1     0.50   0.13  -0.00    -0.38   0.17  -0.00    -0.20  -0.04  -0.00
     2   8     0.30   0.14  -0.00     0.42   0.10  -0.00    -0.51   0.02  -0.00
     3   8     0.14   0.49   0.00    -0.07  -0.28   0.00     0.75  -0.01   0.00
     4   7    -0.33  -0.34   0.00    -0.14   0.61   0.00    -0.12   0.25   0.00
     5   8    -0.18  -0.34  -0.00    -0.21  -0.36  -0.00    -0.12  -0.22  -0.00
                      7                      8                      9
                     A'                     A'                     A'
 Frequencies --   1371.8283              1676.0468              3778.6851
 Red. masses --      1.1368                13.2680                 1.0676
 Frc consts  --      1.2605                21.9598                 8.9816
 IR Inten    --    155.7041               140.0885                86.4583
  Atom  AN      X      Y      Z        X      Y      Z        X      Y      Z
     1   1     1.00  -0.01   0.00    -0.34  -0.01  -0.00     0.06   1.00   0.00
     2   8    -0.03   0.05   0.00    -0.00  -0.04   0.00    -0.01  -0.06  -0.00
     3   8    -0.02  -0.05  -0.00     0.00   0.15   0.00     0.00   0.00  -0.00
     4   7     0.02   0.01  -0.00     0.71  -0.06  -0.00    -0.00  -0.00   0.00
     5   8    -0.03  -0.01   0.00    -0.60  -0.07  -0.00     0.00   0.00   0.00

 -------------------
 - Thermochemistry -
 -------------------
 Temperature   298.150 Kelvin.  Pressure   1.00000 Atm.
 Atom     1 has atomic number  1 and mass   1.00783
 Atom     2 has atomic number  8 and mass  15.99491
 Atom     3 has atomic number  8 and mass  15.99491
 Atom     4 has atomic number  7 and mass  14.00307
 Atom     5 has atomic number  8 and mass  15.99491
 Molecular mass:    62.99564 amu.
 Principal axes and moments of inertia in atomic units:
                           1         2         3
     Eigenvalues --    31.73900 365.89727 397.63627
           X            0.80030  -0.59960   0.00000
           Y            0.59960   0.80030   0.00000
           Z            0.00000  -0.00000   1.00000
 This molecule is an asymmetric top.
 Rotational symmetry number  1.
 Rotational temperatures (Kelvin)      2.72894     0.23672     0.21782
 Rotational constants (GHZ):          56.86195     4.93237     4.53867
    1 imaginary frequencies ignored.
 Zero-point vibrational energy      57310.9 (Joules/Mol)
                                   13.69763 (Kcal/Mol)
 Warning -- explicit consideration of   3 degrees of freedom as
           vibrations may cause significant error
 Vibrational temperatures:    335.95   479.22   627.93  1128.21  1392.62
          (Kelvin)           1973.76  2411.46  5436.69
 
 Zero-point correction=                           0.021829 (Hartree/Particle)
 Thermal correction to Energy=                    0.025963
 Thermal correction to Enthalpy=                  0.026907
 Thermal correction to Gibbs Free Energy=        -0.004299
 Sum of electronic and zero-point Energies=           -280.424706
 Sum of electronic and thermal Energies=              -280.420572
 Sum of electronic and thermal Enthalpies=            -280.419628
 Sum of electronic and thermal Free Energies=         -280.450834
 
                     E (Thermal)             CV                S
                      KCal/Mol        Cal/Mol-Kelvin    Cal/Mol-Kelvin
 Total                   16.292             11.999             65.678
 Electronic               0.000              0.000              0.000
 Translational            0.889              2.981             38.341
 Rotational               0.889              2.981             23.050
 Vibrational             14.514              6.037              4.288
 Vibration     1          0.654              1.790              1.852
 Vibration     2          0.715              1.609              1.245
 Vibration     3          0.797              1.391              0.838
                       Q            Log10(Q)             Ln(Q)
 Total Bot       0.949370D+02          1.977435          4.553213
 Total V=0       0.104201D+13         12.017871         27.672171
 Vib (Bot)       0.198587D-09         -9.702049        -22.339794
 Vib (Bot)    1  0.842208D+00         -0.074581         -0.171729
 Vib (Bot)    2  0.559906D+00         -0.251885         -0.579986
 Vib (Bot)    3  0.397218D+00         -0.400971         -0.923270
 Vib (V=0)       0.217965D+01          0.338387          0.779164
 Vib (V=0)    1  0.147945D+01          0.170099          0.391667
 Vib (V=0)    2  0.125066D+01          0.097140          0.223674
 Vib (V=0)    3  0.113858D+01          0.056363          0.129780
 Electronic      0.100000D+01          0.000000          0.000000
 Translational   0.196526D+08          7.293420         16.793719
 Rotational      0.243257D+05          4.386065         10.099287
 
                                                                title
                                                             IR Spectrum
 
     3                                                                      1         1                                              
     7                                                                      6         3             9     7           4  3   2       
     7                                                                      7         7             6     8           3  3   3       
     9                                                                      6         2             8     4           6  3   3       
 
     X                                                                      X         X             X     X           X  X   X       
     X                                                                      X         X             X     X           X              
     X                                                                      X         X                   X           X              
     X                                                                      X         X                   X           X              
     X                                                                      X         X                   X           X              
     X                                                                      X         X                   X           X              
     X                                                                      X         X                   X           X              
     X                                                                      X         X                   X           X              
     X                                                                      X         X                   X           X              
                                                                            X         X                   X           X              
                                                                            X         X                   X           X              
                                                                            X         X                   X           X              
                                                                            X         X                   X           X              
                                                                            X         X                   X           X              
                                                                                      X                   X           X              
                                                                                                          X           X              
                                                                                                          X           X              
                                                                                                                      X              
                                                                                                                      X              
                                                                                                                      X              
 
 ***** Axes restored to original set *****
 -------------------------------------------------------------------
 Center     Atomic                   Forces (Hartrees/Bohr)
 Number     Number              X              Y              Z
 -------------------------------------------------------------------
      1        1           0.000715549    0.000000000    0.000160618
      2        8           0.001008716    0.000000000    0.004324370
      3        8           0.003480472    0.000000000   -0.003699737
      4        7          -0.005083397   -0.000000000    0.000951427
      5        8          -0.000121340   -0.000000000   -0.001736678
 -------------------------------------------------------------------
 Cartesian Forces:  Max     0.005083397 RMS     0.002248468
 -----------------------------------------------------------------------------------------------
                       Internal Coordinate Forces (Hartree/Bohr or radian)
  Cent   Atom   N1       Length/X         N2         Alpha/Y        N3         Beta/Z          J
 -----------------------------------------------------------------------------------------------
      1  H 
      2  O        1  -0.000161(     1)
      3  O        2  -0.002302(     2)      1  -0.001310(     5)
      4  N        3  -0.001403(     3)      2  -0.010286(     6)      1   0.000000(     8)     0
      5  O        4  -0.000485(     4)      3  -0.003699(     7)      2   0.000000(     9)     0
 -----------------------------------------------------------------------------------------------
 Internal  Forces:  Max     0.010286041 RMS     0.003781992
 Force constants in Cartesian coordinates: 
                1             2             3             4             5 
      1  0.645329D-01
      2  0.000000D+00 -0.260728D-02
      3  0.469151D-02  0.000000D+00  0.512319D+00
      4 -0.357061D-01  0.000000D+00 -0.157539D-01  0.269490D+00
      5  0.000000D+00  0.345915D-02  0.000000D+00  0.000000D+00  0.216690D-02
      6  0.486579D-01  0.000000D+00 -0.509020D+00  0.279016D-01  0.000000D+00
      7 -0.185037D-01  0.000000D+00  0.123839D-01 -0.220790D+00  0.000000D+00
      8  0.000000D+00  0.101347D-02  0.000000D+00  0.000000D+00 -0.598672D-02
      9 -0.540203D-01  0.000000D+00 -0.415193D-03 -0.156898D-01  0.000000D+00
     10 -0.852628D-02  0.000000D+00 -0.474548D-02 -0.129793D-01  0.000000D+00
     11  0.000000D+00 -0.289320D-02  0.000000D+00  0.000000D+00 -0.620798D-02
     12  0.640579D-02  0.000000D+00 -0.410307D-02  0.122733D-01  0.000000D+00
     13 -0.179682D-02  0.000000D+00  0.342396D-02 -0.145895D-04  0.000000D+00
     14  0.000000D+00  0.102786D-02  0.000000D+00  0.000000D+00  0.656865D-02
     15 -0.573495D-02  0.000000D+00  0.121979D-02 -0.873121D-02  0.000000D+00
                6             7             8             9            10 
      6  0.591158D+00
      7 -0.202319D-01  0.343067D+00
      8  0.000000D+00  0.000000D+00  0.218727D-02
      9 -0.813585D-01  0.308314D-01  0.000000D+00  0.186782D+00
     10 -0.463088D-01 -0.706505D-01  0.000000D+00  0.175718D+00  0.821939D+00
     11  0.000000D+00  0.000000D+00  0.110887D-01  0.000000D+00  0.000000D+00
     12  0.235717D-01  0.677128D-01  0.000000D+00 -0.935020D-01 -0.496928D-01
     13 -0.100188D-01 -0.331231D-01  0.000000D+00 -0.136839D+00 -0.729783D+00
     14  0.000000D+00  0.000000D+00 -0.830277D-02  0.000000D+00  0.000000D+00
     15 -0.243507D-01 -0.906963D-01  0.000000D+00 -0.115066D-01 -0.749708D-01
               11            12            13            14            15 
     11  0.682742D-02
     12  0.000000D+00  0.184283D+00
     13  0.000000D+00 -0.366991D-01  0.764717D+00
     14 -0.881498D-02  0.000000D+00  0.000000D+00  0.952123D-02
     15  0.000000D+00 -0.110250D+00  0.180133D+00  0.000000D+00  0.144888D+00
 Force constants in internal coordinates: 
                1             2             3             4             5 
      1  0.512319D+00
      2 -0.105294D-01  0.276677D+00
      3  0.302090D-02  0.185158D-04  0.113403D+00
      4 -0.360428D-02  0.627889D-02  0.153204D+00  0.811432D+00
      5  0.930621D-02  0.652330D-01  0.104648D-02  0.543250D-02  0.216080D+00
      6  0.370297D-02  0.489531D-01  0.281994D-01  0.236878D-01  0.309654D-01
      7 -0.103898D-02  0.363746D-01  0.331744D-01  0.817701D-01  0.211739D-01
      8  0.000000D+00  0.000000D+00  0.000000D+00  0.000000D+00  0.000000D+00
      9  0.000000D+00  0.000000D+00  0.000000D+00  0.000000D+00  0.000000D+00
                6             7             8             9 
      6  0.255156D+00
      7  0.956942D-01  0.479437D+00
      8  0.000000D+00  0.000000D+00 -0.870589D-02
      9  0.000000D+00  0.000000D+00 -0.390033D-02  0.418108D-01
 Leave Link  716 at Mon Feb 21 20:47:18 2022, MaxMem= 16106127360 cpu:               0.8 elap:               0.1
 (Enter /sw/contrib/gaussian/g16/B01/g16/l103.exe)

 GradGradGradGradGradGradGradGradGradGradGradGradGradGradGradGradGradGrad
 Berny optimization.
 Search for a local minimum.
 Step number   1 out of a maximum of    2
 All quantities printed in internal units (Hartrees-Bohrs-Radians)
 Second derivative matrix not updated -- analytic derivatives used.
 The second derivative matrix:
                          r1        r2        r3        r4        a1
           r1           0.51232
           r2          -0.01053   0.27668
           r3           0.00302   0.00002   0.11340
           r4          -0.00360   0.00628   0.15320   0.81143
           a1           0.00931   0.06523   0.00105   0.00543   0.21608
           a2           0.00370   0.04895   0.02820   0.02369   0.03097
           a3          -0.00104   0.03637   0.03317   0.08177   0.02117
           d1           0.00000  -0.00000  -0.00000  -0.00000  -0.00000
           d2          -0.00000   0.00000   0.00000   0.00000   0.00000
                          a2        a3        d1        d2
           a2           0.25516
           a3           0.09569   0.47944
           d1          -0.00000  -0.00000  -0.00871
           d2          -0.00000  -0.00000  -0.00390   0.04181
 ITU=  0
     Eigenvalues ---   -0.00901   0.04211   0.07792   0.17390   0.20654
     Eigenvalues ---    0.31608   0.50873   0.51299   0.86835
 Eigenvalue     1 is  -9.01D-03 should be greater than     0.000000 Eigenvector:
                          d1        d2        a3        a2        r3
   1                    0.99707   0.07653   0.00000   0.00000  -0.00000
                          a1        r4        r1        r2
   1                   -0.00000   0.00000  -0.00000  -0.00000
 Angle between quadratic step and forces=  23.70 degrees.
 Linear search not attempted -- first point.
 Variable       Old X    -DE/DX   Delta X   Delta X   Delta X     New X
                                 (Linear)    (Quad)   (Total)
    r1        1.83110  -0.00016   0.00000  -0.00002  -0.00002   1.83108
    r2        2.74940  -0.00230   0.00000  -0.00136  -0.00136   2.74804
    r3        2.75670  -0.00140   0.00000  -0.00444  -0.00444   2.75226
    r4        2.21236  -0.00049   0.00000   0.00137   0.00137   2.21373
    a1        1.70335  -0.00131   0.00000   0.00000   0.00000   1.70336
    a2        1.82351  -0.01029   0.00000  -0.03984  -0.03984   1.78367
    a3        1.90362  -0.00370   0.00000   0.00041   0.00041   1.90404
    d1        3.14159   0.00000   0.00000   0.00000   0.00000   3.14159
    d2        3.14159   0.00000   0.00000  -0.00000   0.00000   3.14159
         Item               Value     Threshold  Converged?
 Maximum Force            0.010286     0.000450     NO 
 RMS     Force            0.003782     0.000300     NO 
 Maximum Displacement     0.039844     0.001800     NO 
 RMS     Displacement     0.013380     0.001200     NO 
 Predicted change in Energy=-2.085000D-04
                       ----------------------------
                       ! Non-Optimized Parameters !
                       ! (Angstroms and Degrees)  !
 ----------------------                            ----------------------
 !      Name          Value   Derivative information (Atomic Units)     !
 ------------------------------------------------------------------------
 !       r1          0.969    -DE/DX =   -0.0002                        !
 !       r2          1.4542   -DE/DX =   -0.0023                        !
 !       r3          1.4564   -DE/DX =   -0.0014                        !
 !       r4          1.1715   -DE/DX =   -0.0005                        !
 !       a1         97.5951   -DE/DX =   -0.0013                        !
 !       a2        102.1967   -DE/DX =   -0.0103                        !
 !       a3        109.0933   -DE/DX =   -0.0037                        !
 !       d1        180.0      -DE/DX =    0.0                           !
 !       d2        180.0      -DE/DX =    0.0                           !
 ------------------------------------------------------------------------
 GradGradGradGradGradGradGradGradGradGradGradGradGradGradGradGradGradGrad

 Leave Link  103 at Mon Feb 21 20:47:18 2022, MaxMem= 16106127360 cpu:               1.8 elap:               0.1
 (Enter /sw/contrib/gaussian/g16/B01/g16/l9999.exe)

 ----------------------------------------------------------------------

 Electric dipole moment (input orientation):
 (Debye = 10**-18 statcoulomb cm , SI units = C m)
                  (au)            (Debye)         (10**-30 SI)
   Tot        0.569889D+00      0.144851D+01      0.483172D+01
   x         -0.146699D+00     -0.372873D+00     -0.124377D+01
   y          0.000000D+00      0.000000D+00      0.000000D+00
   z         -0.550684D+00     -0.139970D+01     -0.466889D+01

 Dipole polarizability, Alpha (input orientation).
 (esu units = cm**3 , SI units = C**2 m**2 J**-1)
 Alpha(0;0):
               (au)            (10**-24 esu)      (10**-40 SI)
   iso        0.275378D+02      0.408068D+01      0.454037D+01
   aniso      0.223778D+02      0.331605D+01      0.368960D+01
   xx         0.328351D+02      0.486566D+01      0.541378D+01
   yx         0.000000D+00      0.000000D+00      0.000000D+00
   yy         0.179531D+02      0.266038D+01      0.296007D+01
   zx         0.988776D+01      0.146522D+01      0.163027D+01
   zy         0.000000D+00      0.000000D+00      0.000000D+00
   zz         0.318251D+02      0.471599D+01      0.524724D+01

 ----------------------------------------------------------------------

 Dipole orientation:
     1          0.00000000          0.00000000         -0.00000000
     8         -0.47135683          0.00000000         -1.76939091
     8          2.06853935          0.00000000         -2.82206487
     7          1.68334379          0.00000000         -5.55172276
     8          3.65278044          0.00000000         -6.55961277

 Electric dipole moment (dipole orientation):
 (Debye = 10**-18 statcoulomb cm , SI units = C m)
                  (au)            (Debye)         (10**-30 SI)
   Tot        0.569889D+00      0.144851D+01      0.483172D+01
   x          0.000000D+00      0.000000D+00      0.000000D+00
   y          0.000000D+00      0.000000D+00      0.000000D+00
   z          0.569889D+00      0.144851D+01      0.483172D+01

 Dipole polarizability, Alpha (dipole orientation).
 (esu units = cm**3 , SI units = C**2 m**2 J**-1)
 Alpha(0;0):
               (au)            (10**-24 esu)      (10**-40 SI)
   iso        0.275378D+02      0.408068D+01      0.454037D+01
   aniso      0.223778D+02      0.331605D+01      0.368960D+01
   xx         0.278492D+02      0.412682D+01      0.459171D+01
   yx         0.000000D+00      0.000000D+00      0.000000D+00
   yy         0.179531D+02      0.266038D+01      0.296007D+01
   zx        -0.882861D+01     -0.130826D+01     -0.145564D+01
   zy         0.000000D+00      0.000000D+00      0.000000D+00
   zz         0.368110D+02      0.545483D+01      0.606932D+01

 ----------------------------------------------------------------------
 1\1\GINC-N2128\Freq\RMP2-FC\Aug-CC-pVTZ\H1N1O3\CGAVINH\21-Feb-2022\1\\
 #p freq mp2/aug-cc-pvtz density=current\\title\\0,1\H\O,1,r1\O,2,r2,1,
 a1\N,3,r3,2,a2,1,d1,0\O,4,r4,3,a3,2,d2,0\\r1=0.96897556\r2=1.45491931\
 r3=1.45878406\r4=1.17072885\a1=97.59494903\a2=104.479576\a3=109.069551
 23\d1=180.\d2=180.\\Version=ES64L-G16RevB.01\State=1-A'\HF=-279.501624
 2\MP2=-280.4465345\RMSD=3.814e-09\RMSF=2.248e-03\ZeroPoint=0.0218286\T
 hermal=0.0259627\Dipole=-0.1466993,0.,-0.5506836\DipoleDeriv=0.2634908
 ,0.,0.0455537,0.,0.3556914,0.,0.0874505,0.,0.280283,-0.344399,0.,-0.21
 5966,0.,-0.3113715,0.,-0.1224332,0.,-0.2396925,-0.057249,0.,0.1099634,
 0.,-0.0902118,0.,-0.7906841,0.,-1.3252804,0.9628343,0.,0.9507965,0.,0.
 064888,0.,0.9540105,0.,1.6233722,-0.8246771,0.,-0.8903477,0.,-0.018996
 2,0.,-0.1283437,0.,-0.3386822\Polar=32.8351213,0.,17.9531242,9.8877641
 ,0.,31.8250668\Quadrupole=-1.4948095,-0.7274492,2.2222587,0.,2.160604,
 0.\PG=CS [SG(H1N1O3)]\NImag=1\\0.06453292,0.,-0.00260728,0.00469151,0.
 ,0.51231869,-0.03570611,0.,-0.01575392,0.26948998,0.,0.00345915,0.,0.,
 0.00216690,0.04865792,0.,-0.50902022,0.02790158,0.,0.59115775,-0.01850
 372,0.,0.01238393,-0.22078999,0.,-0.02023186,0.34306733,0.,0.00101347,
 0.,0.,-0.00598672,0.,0.,0.00218727,-0.05402027,0.,-0.00041519,-0.01568
 977,0.,-0.08135853,0.03083145,0.,0.18678235,-0.00852628,0.,-0.00474548
 ,-0.01297929,0.,-0.04630882,-0.07065050,0.,0.17571792,0.82193884,0.,-0
 .00289320,0.,0.,-0.00620798,0.,0.,0.01108875,0.,0.,0.00682742,0.006405
 79,0.,-0.00410307,0.01227333,0.,0.02357172,0.06771278,0.,-0.09350205,-
 0.04969281,0.,0.18428343,-0.00179682,0.,0.00342396,-0.00001459,0.,-0.0
 1001881,-0.03312312,0.,-0.13683933,-0.72978277,0.,-0.03669909,0.764717
 29,0.,0.00102786,0.,0.,0.00656865,0.,0.,-0.00830277,0.,0.,-0.00881498,
 0.,0.,0.00952123,-0.00573495,0.,0.00121979,-0.00873121,0.,-0.02435072,
 -0.09069630,0.,-0.01150658,-0.07497081,0.,-0.11025003,0.18013328,0.,0.
 14488753\\-0.00071555,0.,-0.00016062,-0.00100872,0.,-0.00432437,-0.003
 48047,0.,0.00369974,0.00508340,0.,-0.00095143,0.00012134,0.,0.00173668
 \\\@


 IT IS WELL TO REMEMBER THAT MAN IS A PART OF NATURE AND THAT HIS WORKS,
 WHATEVER THEY MAY BE, ARE NO MORE "UNNATURAL" THAN 
 THE FLIGHT OF AN EAGLE OR THE PASSAGE OF A TORNADO.

                                    -- CHARLES MCCARRY IN "THE GREAT SOUTHWEST"
 Job cpu time:       0 days  1 hours 59 minutes 31.7 seconds.
 Elapsed time:       0 days  0 hours  4 minutes 19.4 seconds.
 File lengths (MBytes):  RWF=   7239 Int=      0 D2E=      0 Chk=      8 Scr=      1
 Normal termination of Gaussian 16 at Mon Feb 21 20:47:19 2022.
