title                                                                   
Freq      RMP2-FC                                                     Aug-CC-pVTZ         
Number of atoms                            I                5
Info1-9                                    I   N=           9
          33          24           0           0           0         100
           6           2           1
Full Title                                 C   N=           1
title       
Route                                      C   N=           4
#p freq mp2/aug-cc-pvtz density=current         
Charge                                     I                0
Multiplicity                               I                1
Number of electrons                        I               32
Number of alpha electrons                  I               16
Number of beta electrons                   I               16
Number of basis functions                  I              207
Number of independent functions            I              207
Number of point charges in /Mol/           I                0
Number of translation vectors              I                0
Atomic numbers                             I   N=           5
           1           8           8           7           8
Nuclear charges                            R   N=           5
  1.00000000E+00  8.00000000E+00  8.00000000E+00  7.00000000E+00  8.00000000E+00
Current cartesian coordinates              R   N=          15
  2.07304914E+00 -1.15189352E+00  0.00000000E+00  2.47812145E+00  6.65605574E-01
  0.00000000E+00 -1.14755253E-16  1.72772292E+00  0.00000000E+00 -1.88806698E+00
 -7.41817329E-02  0.00000000E+00 -1.08519399E+00 -2.18443279E+00  0.00000000E+00
Number of symbols in /Mol/                 I                0
Force Field                                I                0
Atom Types                                 C   N=           5
                                                            
Int Atom Types                             I   N=           5
           0           0           0           0           0
MM charges                                 R   N=           5
  0.00000000E+00  0.00000000E+00  0.00000000E+00  0.00000000E+00  0.00000000E+00
Integer atomic weights                     I   N=           5
           1          16          16          14          16
Real atomic weights                        R   N=           5
  1.00782504E+00  1.59949146E+01  1.59949146E+01  1.40030740E+01  1.59949146E+01
Atom fragment info                         I   N=           5
           0           0           0           0           0
Atom residue num                           I   N=           5
           0           0           0           0           0
Nuclear spins                              I   N=           5
           1           0           0           2           0
Nuclear ZEff                               R   N=           5
 -1.00000000E+00 -5.60000000E+00 -5.60000000E+00 -4.55000000E+00 -5.60000000E+00
Nuclear ZNuc                               R   N=           5
  1.00000000E+00  8.00000000E+00  8.00000000E+00  7.00000000E+00  8.00000000E+00
Nuclear QMom                               R   N=           5
  0.00000000E+00  0.00000000E+00  0.00000000E+00  2.04400000E+00  0.00000000E+00
Nuclear GFac                               R   N=           5
  2.79284600E+00  0.00000000E+00  0.00000000E+00  4.03761000E-01  0.00000000E+00
MicOpt                                     I   N=           5
          -1          -1          -1          -1          -1
Number of residues                         I                0
Number of secondary structures             I                0
SymInf integers                            I   N=          26
           1           2           1           1           1           1
           1          -1           0           0           0           0
           0           0           0           0           0           0
           0           0           0           0           0           0
           0           0
RotTr to input orientation                 R   N=          12
 -9.76052265E-01  0.00000000E+00  2.17536148E-01  2.17536148E-01  0.00000000E+00
  9.76052265E-01  0.00000000E+00  1.00000000E+00  0.00000000E+00  2.27398279E+00
  0.00000000E+00  6.73345155E-01
Number of contracted shells                I               65
Number of primitive shells                 I              119
Pure/Cartesian d shells                    I                0
Pure/Cartesian f shells                    I                0
Highest angular momentum                   I                3
Largest degree of contraction              I                7
Shell types                                I   N=          65
           0           0           0           0           1           1
           1          -2          -2           0           0           0
           0           0           1           1           1           1
          -2          -2          -2          -3          -3           0
           0           0           0           0           1           1
           1           1          -2          -2          -2          -3
          -3           0           0           0           0           0
           1           1           1           1          -2          -2
          -2          -3          -3           0           0           0
           0           0           1           1           1           1
          -2          -2          -2          -3          -3
Number of primitives per shell             I   N=          65
           3           1           1           1           1           1
           1           1           1           7           6           1
           1           1           3           1           1           1
           1           1           1           1           1           7
           6           1           1           1           3           1
           1           1           1           1           1           1
           1           7           6           1           1           1
           3           1           1           1           1           1
           1           1           1           7           6           1
           1           1           3           1           1           1
           1           1           1           1           1
Shell to atom map                          I   N=          65
           1           1           1           1           1           1
           1           1           1           2           2           2
           2           2           2           2           2           2
           2           2           2           2           2           3
           3           3           3           3           3           3
           3           3           3           3           3           3
           3           4           4           4           4           4
           4           4           4           4           4           4
           4           4           4           5           5           5
           5           5           5           5           5           5
           5           5           5           5           5
Primitive exponents                        R   N=         119
  3.38700000E+01  5.09500000E+00  1.15900000E+00  3.25800000E-01  1.02700000E-01
  2.52600000E-02  1.40700000E+00  3.88000000E-01  1.02000000E-01  1.05700000E+00
  2.47000000E-01  1.53300000E+04  2.29900000E+03  5.22400000E+02  1.47300000E+02
  4.75500000E+01  1.67600000E+01  6.20700000E+00  5.22400000E+02  1.47300000E+02
  4.75500000E+01  1.67600000E+01  6.20700000E+00  6.88200000E-01  1.75200000E+00
  2.38400000E-01  7.37600000E-02  3.44600000E+01  7.74900000E+00  2.28000000E+00
  7.15600000E-01  2.14000000E-01  5.97400000E-02  2.31400000E+00  6.45000000E-01
  2.14000000E-01  1.42800000E+00  5.00000000E-01  1.53300000E+04  2.29900000E+03
  5.22400000E+02  1.47300000E+02  4.75500000E+01  1.67600000E+01  6.20700000E+00
  5.22400000E+02  1.47300000E+02  4.75500000E+01  1.67600000E+01  6.20700000E+00
  6.88200000E-01  1.75200000E+00  2.38400000E-01  7.37600000E-02  3.44600000E+01
  7.74900000E+00  2.28000000E+00  7.15600000E-01  2.14000000E-01  5.97400000E-02
  2.31400000E+00  6.45000000E-01  2.14000000E-01  1.42800000E+00  5.00000000E-01
  1.14200000E+04  1.71200000E+03  3.89300000E+02  1.10000000E+02  3.55700000E+01
  1.25400000E+01  4.64400000E+00  3.89300000E+02  1.10000000E+02  3.55700000E+01
  1.25400000E+01  4.64400000E+00  5.11800000E-01  1.29300000E+00  1.78700000E-01
  5.76000000E-02  2.66300000E+01  5.94800000E+00  1.74200000E+00  5.55000000E-01
  1.72500000E-01  4.91000000E-02  1.65400000E+00  4.69000000E-01  1.51000000E-01
  1.09300000E+00  3.64000000E-01  1.53300000E+04  2.29900000E+03  5.22400000E+02
  1.47300000E+02  4.75500000E+01  1.67600000E+01  6.20700000E+00  5.22400000E+02
  1.47300000E+02  4.75500000E+01  1.67600000E+01  6.20700000E+00  6.88200000E-01
  1.75200000E+00  2.38400000E-01  7.37600000E-02  3.44600000E+01  7.74900000E+00
  2.28000000E+00  7.15600000E-01  2.14000000E-01  5.97400000E-02  2.31400000E+00
  6.45000000E-01  2.14000000E-01  1.42800000E+00  5.00000000E-01
Contraction coefficients                   R   N=         119
  2.54948632E-02  1.90362766E-01  8.52162022E-01  1.00000000E+00  1.00000000E+00
  1.00000000E+00  1.00000000E+00  1.00000000E+00  1.00000000E+00  1.00000000E+00
  1.00000000E+00  5.19808943E-04  4.02025621E-03  2.07128267E-02  8.10105536E-02
  2.35962985E-01  4.42653446E-01  3.57064423E-01 -4.42115008E-05 -1.22591041E-03
 -1.05517725E-02 -6.74452633E-02 -1.71198607E-01  1.07329856E+00  1.00000000E+00
  1.00000000E+00  1.00000000E+00  4.11634896E-02  2.57762836E-01  8.02419274E-01
  1.00000000E+00  1.00000000E+00  1.00000000E+00  1.00000000E+00  1.00000000E+00
  1.00000000E+00  1.00000000E+00  1.00000000E+00  5.19808943E-04  4.02025621E-03
  2.07128267E-02  8.10105536E-02  2.35962985E-01  4.42653446E-01  3.57064423E-01
 -4.42115008E-05 -1.22591041E-03 -1.05517725E-02 -6.74452633E-02 -1.71198607E-01
  1.07329856E+00  1.00000000E+00  1.00000000E+00  1.00000000E+00  4.11634896E-02
  2.57762836E-01  8.02419274E-01  1.00000000E+00  1.00000000E+00  1.00000000E+00
  1.00000000E+00  1.00000000E+00  1.00000000E+00  1.00000000E+00  1.00000000E+00
  5.34563860E-04  4.13435660E-03  2.12335358E-02  8.25006224E-02  2.38138871E-01
  4.42551547E-01  3.53757422E-01 -4.89867350E-05 -1.19527323E-03 -1.03490714E-02
 -6.48680190E-02 -1.71552477E-01  1.07289568E+00  1.00000000E+00  1.00000000E+00
  1.00000000E+00  3.98072123E-02  2.49002660E-01  8.10479727E-01  1.00000000E+00
  1.00000000E+00  1.00000000E+00  1.00000000E+00  1.00000000E+00  1.00000000E+00
  1.00000000E+00  1.00000000E+00  5.19808943E-04  4.02025621E-03  2.07128267E-02
  8.10105536E-02  2.35962985E-01  4.42653446E-01  3.57064423E-01 -4.42115008E-05
 -1.22591041E-03 -1.05517725E-02 -6.74452633E-02 -1.71198607E-01  1.07329856E+00
  1.00000000E+00  1.00000000E+00  1.00000000E+00  4.11634896E-02  2.57762836E-01
  8.02419274E-01  1.00000000E+00  1.00000000E+00  1.00000000E+00  1.00000000E+00
  1.00000000E+00  1.00000000E+00  1.00000000E+00  1.00000000E+00
Coordinates of each shell                  R   N=         195
  2.07304914E+00 -1.15189352E+00  0.00000000E+00  2.07304914E+00 -1.15189352E+00
  0.00000000E+00  2.07304914E+00 -1.15189352E+00  0.00000000E+00  2.07304914E+00
 -1.15189352E+00  0.00000000E+00  2.07304914E+00 -1.15189352E+00  0.00000000E+00
  2.07304914E+00 -1.15189352E+00  0.00000000E+00  2.07304914E+00 -1.15189352E+00
  0.00000000E+00  2.07304914E+00 -1.15189352E+00  0.00000000E+00  2.07304914E+00
 -1.15189352E+00  0.00000000E+00  2.47812145E+00  6.65605574E-01  0.00000000E+00
  2.47812145E+00  6.65605574E-01  0.00000000E+00  2.47812145E+00  6.65605574E-01
  0.00000000E+00  2.47812145E+00  6.65605574E-01  0.00000000E+00  2.47812145E+00
  6.65605574E-01  0.00000000E+00  2.47812145E+00  6.65605574E-01  0.00000000E+00
  2.47812145E+00  6.65605574E-01  0.00000000E+00  2.47812145E+00  6.65605574E-01
  0.00000000E+00  2.47812145E+00  6.65605574E-01  0.00000000E+00  2.47812145E+00
  6.65605574E-01  0.00000000E+00  2.47812145E+00  6.65605574E-01  0.00000000E+00
  2.47812145E+00  6.65605574E-01  0.00000000E+00  2.47812145E+00  6.65605574E-01
  0.00000000E+00  2.47812145E+00  6.65605574E-01  0.00000000E+00 -3.48222133E-17
  1.72772292E+00  0.00000000E+00 -3.48222133E-17  1.72772292E+00  0.00000000E+00
 -3.48222133E-17  1.72772292E+00  0.00000000E+00 -3.48222133E-17  1.72772292E+00
  0.00000000E+00 -3.48222133E-17  1.72772292E+00  0.00000000E+00 -3.48222133E-17
  1.72772292E+00  0.00000000E+00 -3.48222133E-17  1.72772292E+00  0.00000000E+00
 -3.48222133E-17  1.72772292E+00  0.00000000E+00 -3.48222133E-17  1.72772292E+00
  0.00000000E+00 -3.48222133E-17  1.72772292E+00  0.00000000E+00 -3.48222133E-17
  1.72772292E+00  0.00000000E+00 -3.48222133E-17  1.72772292E+00  0.00000000E+00
 -3.48222133E-17  1.72772292E+00  0.00000000E+00 -3.48222133E-17  1.72772292E+00
  0.00000000E+00 -1.88806698E+00 -7.41817329E-02  0.00000000E+00 -1.88806698E+00
 -7.41817329E-02  0.00000000E+00 -1.88806698E+00 -7.41817329E-02  0.00000000E+00
 -1.88806698E+00 -7.41817329E-02  0.00000000E+00 -1.88806698E+00 -7.41817329E-02
  0.00000000E+00 -1.88806698E+00 -7.41817329E-02  0.00000000E+00 -1.88806698E+00
 -7.41817329E-02  0.00000000E+00 -1.88806698E+00 -7.41817329E-02  0.00000000E+00
 -1.88806698E+00 -7.41817329E-02  0.00000000E+00 -1.88806698E+00 -7.41817329E-02
  0.00000000E+00 -1.88806698E+00 -7.41817329E-02  0.00000000E+00 -1.88806698E+00
 -7.41817329E-02  0.00000000E+00 -1.88806698E+00 -7.41817329E-02  0.00000000E+00
 -1.88806698E+00 -7.41817329E-02  0.00000000E+00 -1.08519399E+00 -2.18443279E+00
  0.00000000E+00 -1.08519399E+00 -2.18443279E+00  0.00000000E+00 -1.08519399E+00
 -2.18443279E+00  0.00000000E+00 -1.08519399E+00 -2.18443279E+00  0.00000000E+00
 -1.08519399E+00 -2.18443279E+00  0.00000000E+00 -1.08519399E+00 -2.18443279E+00
  0.00000000E+00 -1.08519399E+00 -2.18443279E+00  0.00000000E+00 -1.08519399E+00
 -2.18443279E+00  0.00000000E+00 -1.08519399E+00 -2.18443279E+00  0.00000000E+00
 -1.08519399E+00 -2.18443279E+00  0.00000000E+00 -1.08519399E+00 -2.18443279E+00
  0.00000000E+00 -1.08519399E+00 -2.18443279E+00  0.00000000E+00 -1.08519399E+00
 -2.18443279E+00  0.00000000E+00 -1.08519399E+00 -2.18443279E+00  0.00000000E+00
Num ILSW                                   I              100
ILSW                                       I   N=         100
           0           0           0           0           2           0
           0           0           0           0           0          -1
           5           0           0           0           2           0
           0           0           0           0           1           0
           1           0           0           0           0           0
           0           0      100000           0          -1           0
           0           0           0           0           0           0
           0           0           0           1           1           0
           0 -2000000000           1           0           0           0
           0           0           4          52           0           0
           0           0           0           0           0           0
           0           0           0           5           4           1
           0           0           0           0           0           0
           0           0           0           0           0           0
           0           0           0           0           0           0
           0           0           0           0           0           0
           0           0           0           0
Num RLSW                                   I               52
RLSW                                       R   N=          52
  1.00000000E+00  1.00000000E+00  1.00000000E+00  1.00000000E+00  1.00000000E+00
  0.00000000E+00  0.00000000E+00  1.00000000E+00  0.00000000E+00  0.00000000E+00
  0.00000000E+00  0.00000000E+00  1.00000000E+00  0.00000000E+00  0.00000000E+00
  0.00000000E+00  0.00000000E+00  1.00000000E+00  0.00000000E+00  0.00000000E+00
  0.00000000E+00  0.00000000E+00  1.00000000E+00  0.00000000E+00  0.00000000E+00
  0.00000000E+00  0.00000000E+00  1.00000000E+00  0.00000000E+00  0.00000000E+00
  0.00000000E+00  0.00000000E+00  1.00000000E+00  0.00000000E+00  0.00000000E+00
  0.00000000E+00  0.00000000E+00  0.00000000E+00  1.00000000E+00  1.00000000E+00
  0.00000000E+00  1.00000000E+00  0.00000000E+00  0.00000000E+00  0.00000000E+00
  0.00000000E+00  0.00000000E+00  0.00000000E+00  0.00000000E+00  0.00000000E+00
  0.00000000E+00  0.00000000E+00
MxBond                                     I                2
NBond                                      I   N=           5
           1           2           2           2           1
IBond                                      I   N=          10
           2           0           1           3           2           4
           3           5           4           0
RBond                                      R   N=          10
  1.00000000E+00  0.00000000E+00  1.00000000E+00  1.00000000E+00  1.00000000E+00
  1.00000000E+00  1.00000000E+00  2.00000000E+00  2.00000000E+00  0.00000000E+00
Virial Ratio                               R      2.002179976452826E+00
SCF Energy                                 R     -2.795061040211135E+02
MP2 Energy                                 R     -2.804550100729226E+02
Total Energy                               R     -2.804550100729226E+02
Post-SCF wavefunction norm                 R      1.583653176099184E+00
RMS Force                                  R      3.343309218538892E-03
RMS Density                                R      4.566748959586218E-09
NImag                                      I                0
Job Status                                 I                1
Nuclear derivative order                   I                2
External E-field                           R   N=          35
  0.00000000E+00  0.00000000E+00  0.00000000E+00  0.00000000E+00  0.00000000E+00
  0.00000000E+00  0.00000000E+00  0.00000000E+00  0.00000000E+00  0.00000000E+00
  0.00000000E+00  0.00000000E+00  0.00000000E+00  0.00000000E+00  0.00000000E+00
  0.00000000E+00  0.00000000E+00  0.00000000E+00  0.00000000E+00  0.00000000E+00
  0.00000000E+00  0.00000000E+00  0.00000000E+00  0.00000000E+00  0.00000000E+00
  0.00000000E+00  0.00000000E+00  0.00000000E+00  0.00000000E+00  0.00000000E+00
  0.00000000E+00  0.00000000E+00  0.00000000E+00  0.00000000E+00  0.00000000E+00
IOpCl                                      I                0
IROHF                                      I                0
Alpha Orbital Energies                     R   N=         207
 -2.07182619E+01 -2.06864851E+01 -2.06672600E+01 -1.58269866E+01 -1.64622976E+00
 -1.50300941E+00 -1.29312965E+00 -9.59870817E-01 -8.36750642E-01 -7.59242617E-01
 -7.40254064E-01 -6.35190301E-01 -6.17367139E-01 -6.17347737E-01 -5.07220386E-01
 -4.96666615E-01  3.51947650E-02  5.93748613E-02  9.51187278E-02  1.00136985E-01
  1.19677247E-01  1.22520604E-01  1.49767293E-01  1.52316384E-01  1.77298229E-01
  1.80300308E-01  1.90075902E-01  2.10883358E-01  2.16653432E-01  2.42391170E-01
  2.46361475E-01  2.70058190E-01  3.14553042E-01  3.18463941E-01  3.37818038E-01
  3.44509365E-01  3.48158879E-01  3.92477142E-01  4.51587624E-01  4.88690792E-01
  5.05868639E-01  5.17673600E-01  5.46547242E-01  5.59681999E-01  5.99078297E-01
  6.19207088E-01  6.37615460E-01  6.90027290E-01  7.16603170E-01  7.24723920E-01
  7.48577076E-01  7.61964037E-01  7.66897969E-01  7.95903931E-01  8.08762769E-01
  8.39260930E-01  8.43182756E-01  8.52714115E-01  8.85924808E-01  9.09245945E-01
  9.35311486E-01  9.46157484E-01  9.53599640E-01  1.01896766E+00  1.03309320E+00
  1.06692803E+00  1.07353884E+00  1.09812562E+00  1.14785898E+00  1.15736151E+00
  1.16664673E+00  1.22463704E+00  1.22807263E+00  1.24580185E+00  1.35555019E+00
  1.35698163E+00  1.37419583E+00  1.46683554E+00  1.48756503E+00  1.50240771E+00
  1.54386955E+00  1.59801413E+00  1.60512814E+00  1.60689833E+00  1.62973510E+00
  1.69617301E+00  1.74139423E+00  1.80056591E+00  1.83167691E+00  1.88948098E+00
  1.89378223E+00  1.93081860E+00  1.97793649E+00  1.99073007E+00  2.05515577E+00
  2.12836742E+00  2.13083687E+00  2.16764141E+00  2.18991194E+00  2.24595602E+00
  2.25938718E+00  2.29371465E+00  2.35271545E+00  2.37289827E+00  2.38509099E+00
  2.40369864E+00  2.43307563E+00  2.46910426E+00  2.47896599E+00  2.53326653E+00
  2.53947318E+00  2.55531986E+00  2.56118115E+00  2.62204134E+00  2.63210011E+00
  2.67761102E+00  2.68110387E+00  2.75315551E+00  2.81094310E+00  2.82633890E+00
  2.83781207E+00  2.91956975E+00  2.99938293E+00  3.04483496E+00  3.04697567E+00
  3.11207743E+00  3.12052340E+00  3.17912899E+00  3.21388146E+00  3.31268411E+00
  3.32941877E+00  3.36355819E+00  3.47274752E+00  3.67938647E+00  3.87045715E+00
  3.93886426E+00  4.18974376E+00  4.23229268E+00  4.23491082E+00  4.27207744E+00
  4.37598694E+00  4.49848721E+00  4.55196318E+00  4.55199234E+00  4.59908606E+00
  4.69648591E+00  4.81204582E+00  4.89142040E+00  4.91662758E+00  4.93752271E+00
  5.00368647E+00  5.00679316E+00  5.10550593E+00  5.13244985E+00  5.18464613E+00
  5.25411985E+00  5.26326994E+00  5.32163708E+00  5.34959135E+00  5.37107953E+00
  5.55343883E+00  5.64714707E+00  5.71371417E+00  5.89540085E+00  5.99077694E+00
  6.26595314E+00  6.29527758E+00  6.36385457E+00  6.37783603E+00  6.59782157E+00
  6.66138130E+00  6.67353640E+00  6.69864179E+00  6.73052290E+00  6.78132222E+00
  6.80119971E+00  6.87281993E+00  6.96566001E+00  7.02179165E+00  7.06634401E+00
  7.08004121E+00  7.13497289E+00  7.17426269E+00  7.19472785E+00  7.20476726E+00
  7.24816913E+00  7.25165115E+00  7.27390087E+00  7.35068605E+00  7.39090963E+00
  7.43532895E+00  7.44242553E+00  7.46498098E+00  7.56172989E+00  7.66351690E+00
  7.69051411E+00  7.79625280E+00  7.88433125E+00  7.95420170E+00  8.08083614E+00
  8.31169601E+00  8.49722441E+00  8.65284134E+00  1.36257390E+01  1.47641915E+01
  1.51131284E+01  1.58176101E+01
Alpha MO coefficients                      R   N=       42849
  6.26100300E-05  1.91283636E-05 -1.11407941E-03  1.73413359E-05 -5.07438360E-05
  4.16472308E-05  0.00000000E+00 -9.85539916E-05 -2.68758120E-04  0.00000000E+00
 -4.35985847E-06 -3.53957804E-04  0.00000000E+00  4.08774699E-05  0.00000000E+00
  0.00000000E+00 -2.50995753E-05  1.11904722E-05  2.33131416E-04  0.00000000E+00
  0.00000000E+00 -4.50718018E-05 -2.16753304E-04  3.10712442E-03 -9.59534771E-05
 -9.63538549E-05  3.48463054E-03  2.47907298E-03  1.00780346E-04 -5.46763536E-05
  0.00000000E+00 -7.18914185E-04  2.96096941E-04  0.00000000E+00 -1.93398107E-03
  1.14081975E-03  0.00000000E+00 -5.38984671E-04  3.91606434E-05  0.00000000E+00
  2.03702865E-05  0.00000000E+00  0.00000000E+00 -8.34070169E-06  4.41204584E-05
 -4.40368951E-04  0.00000000E+00  0.00000000E+00  4.17766176E-04 -6.69326497E-04
 -3.61300106E-04  0.00000000E+00  0.00000000E+00  5.28900050E-04 -7.55079775E-04
  0.00000000E+00  7.27867840E-05 -5.34598779E-05  0.00000000E+00  0.00000000E+00
 -2.55641949E-05  1.09351935E-04  0.00000000E+00  2.08276398E-04 -5.02336718E-05
  0.00000000E+00  0.00000000E+00 -1.62509430E-04  3.02135832E-04  9.76899776E-01
 -9.17767053E-03  4.34123697E-02  4.75857527E-04 -2.20331107E-03  4.23705001E-04
 -2.15182003E-03  0.00000000E+00 -2.95136201E-04  2.25699961E-03  0.00000000E+00
 -2.28274876E-03 -4.80697566E-04  0.00000000E+00 -2.21280478E-04  9.67674399E-05
  0.00000000E+00  6.26435783E-06  0.00000000E+00  0.00000000E+00 -5.63097933E-06
  3.82055371E-05  8.25592320E-04  0.00000000E+00  0.00000000E+00 -4.77556495E-04
 -1.62426353E-04 -1.47778168E-04  0.00000000E+00  0.00000000E+00 -5.56167944E-04
  3.53483750E-04  0.00000000E+00 -6.73892406E-06 -8.02030459E-05  0.00000000E+00
  0.00000000E+00 -8.37902329E-06  4.73093905E-05  0.00000000E+00  9.01978213E-05
  3.46029328E-06  0.00000000E+00  0.00000000E+00 -3.24206581E-04  3.87661647E-04
  1.04537617E-04  4.56916677E-04 -3.24707598E-04 -8.43043102E-04  3.38408079E-04
 -4.67636431E-05 -9.89965783E-05  0.00000000E+00  7.04954728E-04  1.10232632E-03
  0.00000000E+00 -7.06064467E-04 -5.48450475E-04  0.00000000E+00  2.01467901E-04
  2.16688603E-04  0.00000000E+00 -5.26830725E-05  0.00000000E+00  0.00000000E+00
  1.81516465E-05  9.43550501E-05 -4.16811355E-04  0.00000000E+00  0.00000000E+00
  6.66202185E-05  1.06937817E-03  2.60764640E-05  0.00000000E+00  0.00000000E+00
 -2.84917963E-04  3.68127747E-05  0.00000000E+00 -8.00408739E-05 -1.11753138E-04
  0.00000000E+00  0.00000000E+00 -9.48194067E-05  1.07313628E-04  0.00000000E+00
 -1.30440675E-04  4.16640148E-05  0.00000000E+00  0.00000000E+00  1.97723413E-05
  5.08869726E-04 -7.36655344E-04  7.06788663E-05 -6.72222829E-05  2.82079797E-04
 -1.80332732E-04 -2.68590206E-05 -3.87700342E-05  0.00000000E+00  1.57334468E-04
  2.55766791E-04  0.00000000E+00  4.57276874E-04  3.01187049E-04  0.00000000E+00
 -2.36087233E-04 -6.09965160E-05  0.00000000E+00 -1.43634048E-05  0.00000000E+00
  0.00000000E+00  1.37488960E-06  1.87094060E-05  7.36139530E-06  0.00000000E+00
  0.00000000E+00 -1.51423818E-04 -1.69325964E-05 -6.56654135E-06  0.00000000E+00
  0.00000000E+00 -1.63741024E-04 -8.33982572E-05  0.00000000E+00 -4.86131809E-06
 -6.19165159E-06  0.00000000E+00  0.00000000E+00 -1.90861979E-05  1.14425182E-05
  0.00000000E+00  3.90394063E-05  6.38823979E-05  0.00000000E+00  0.00000000E+00
  1.70943544E-04 -1.00702457E-04  3.57583689E-05  7.51792965E-05 -7.57026084E-05
 -2.92738246E-05  2.70716397E-05  1.82905784E-05  0.00000000E+00  2.15425538E-04
  2.84058417E-05  0.00000000E+00  1.06274381E-04  9.71400319E-06  0.00000000E+00
  8.11169644E-06  0.00000000E+00  0.00000000E+00 -4.29566640E-06  2.28702255E-05
  1.49179863E-05  0.00000000E+00  0.00000000E+00 -7.24845461E-05  7.77840130E-05
 -2.72191359E-04  4.01392106E-05 -1.45208735E-05 -5.31551838E-04  1.52116575E-04
  6.98403513E-06  1.32178269E-05  0.00000000E+00 -3.54651279E-06 -4.64397618E-05
  0.00000000E+00  1.78405589E-04  1.55477437E-04  0.00000000E+00 -4.02387540E-05
  5.36667867E-05  0.00000000E+00 -2.94421021E-06  0.00000000E+00  0.00000000E+00
 -7.67109673E-06 -9.66021477E-06  2.88026166E-05  0.00000000E+00  0.00000000E+00
  4.98002942E-05  1.05900439E-04  6.90506859E-05  0.00000000E+00  0.00000000E+00
 -3.12379920E-05 -8.47916744E-05  0.00000000E+00  7.29934652E-06  9.36011964E-06
  0.00000000E+00  0.00000000E+00 -4.45443504E-07 -2.79472380E-05  0.00000000E+00
 -1.66951320E-05 -4.18661572E-05  0.00000000E+00  0.00000000E+00 -8.32760597E-07
 -1.57633384E-05  7.68717215E-04  2.51774484E-05 -1.26879952E-05  2.76194224E-04
 -4.13536163E-04  1.49393920E-05  2.29885625E-05  0.00000000E+00 -5.97303935E-05
 -1.38357391E-04  0.00000000E+00  1.16099384E-04 -1.79628511E-04  0.00000000E+00
 -1.59884528E-04  1.41073836E-04  0.00000000E+00 -4.29288532E-06  0.00000000E+00
  0.00000000E+00 -3.21385657E-05 -8.34449250E-06 -4.53270494E-05  0.00000000E+00
  0.00000000E+00  9.99661442E-05  1.08644772E-04 -6.09584562E-05  0.00000000E+00
  0.00000000E+00  4.85293437E-05  3.40638529E-05  0.00000000E+00  1.59253554E-06
 -2.49886846E-08  0.00000000E+00  0.00000000E+00 -1.05207069E-05 -4.67704465E-06
  0.00000000E+00  5.26283155E-06 -2.29672216E-05  0.00000000E+00  0.00000000E+00
  8.44547730E-05 -1.62509780E-04  2.36248897E-04  1.34873570E-03 -1.50056614E-04
 -7.23755337E-04  9.11490840E-04  6.23174173E-05 -7.25869796E-05  0.00000000E+00
  6.05139103E-04 -2.05205322E-03  0.00000000E+00  1.05362731E-04  4.80094358E-04
  0.00000000E+00  1.96601126E-04 -2.97434521E-04  0.00000000E+00 -1.26949806E-04
  0.00000000E+00  0.00000000E+00 -2.00117111E-04 -1.64974903E-04 -4.64002144E-04
  0.00000000E+00  0.00000000E+00 -5.60826337E-04 -9.23743288E-04 -4.36505505E-05
  0.00000000E+00  0.00000000E+00  6.70944513E-05  1.18790405E-04  0.00000000E+00
  6.96500999E-06  3.47138208E-05  0.00000000E+00  0.00000000E+00 -2.36933830E-05
 -4.80202692E-06  0.00000000E+00 -1.40662645E-04  1.60902655E-04  0.00000000E+00
  0.00000000E+00 -3.03783454E-04 -3.68744628E-05  9.76641717E-01 -9.87981835E-03
  4.35830818E-02  3.69268514E-03 -8.98993217E-04 -4.94593088E-04  2.11527509E-03
  0.00000000E+00  5.70691526E-04 -2.48279070E-03  0.00000000E+00 -1.07831590E-04
  8.39002201E-04  0.00000000E+00  9.85293999E-05 -6.42957571E-05  0.00000000E+00
 -1.95129242E-04  0.00000000E+00  0.00000000E+00 -7.23687038E-05 -4.32542353E-05
  4.07866386E-04  0.00000000E+00  0.00000000E+00  8.28788737E-04  5.15318140E-04
 -2.05306955E-04  0.00000000E+00  0.00000000E+00 -1.59138521E-04 -4.27362637E-05
  0.00000000E+00 -6.48472009E-06  6.99574300E-05  0.00000000E+00  0.00000000E+00
 -2.75769161E-05  9.29257458E-06  0.00000000E+00 -8.91557104E-05  8.94976172E-05
  0.00000000E+00  0.00000000E+00 -1.78891183E-04  1.89384225E-04  3.68865475E-04
  2.02283853E-03  1.43580931E-03 -1.42936385E-05  5.49025935E-05  2.67625806E-04
  0.00000000E+00  3.53618541E-04  1.01876429E-03  0.00000000E+00 -1.44926478E-04
  2.33102364E-04  0.00000000E+00 -2.51345458E-05  0.00000000E+00  0.00000000E+00
  3.45615337E-05 -3.12084736E-05 -2.19571547E-04  0.00000000E+00  0.00000000E+00
 -3.45595942E-04  4.13854863E-04  9.76833281E-01 -9.18825302E-03  4.34677220E-02
  1.03707299E-04 -1.90943832E-03 -2.04952074E-03 -8.12847860E-04  0.00000000E+00
  2.09255307E-03  7.51000852E-04  0.00000000E+00 -3.71188284E-04  6.34615995E-04
  0.00000000E+00  2.22398801E-04 -3.02648330E-04  0.00000000E+00  2.99445814E-05
  0.00000000E+00  0.00000000E+00 -7.51033639E-05  6.55225076E-05  7.66317843E-04
  0.00000000E+00  0.00000000E+00 -2.08132704E-04  3.54087188E-04 -2.41610711E-04
  0.00000000E+00  0.00000000E+00  3.23982031E-04 -1.11260511E-06  0.00000000E+00
 -8.12416617E-05  1.57491181E-06  0.00000000E+00  0.00000000E+00  1.46938196E-05