title                                                                   
Freq      RMP2-FC                                                     Aug-CC-pVTZ         
Number of atoms                            I                5
Info1-9                                    I   N=           9
          33          24           0           0           0         100
           6           2           1
Full Title                                 C   N=           1
title       
Route                                      C   N=           4
#p freq mp2/aug-cc-pvtz density=current         
Charge                                     I                0
Multiplicity                               I                1
Number of electrons                        I               32
Number of alpha electrons                  I               16
Number of beta electrons                   I               16
Number of basis functions                  I              207
Number of independent functions            I              207
Number of point charges in /Mol/           I                0
Number of translation vectors              I                0
Atomic numbers                             I   N=           5
           1           8           8           7           8
Nuclear charges                            R   N=           5
  1.00000000E+00  8.00000000E+00  8.00000000E+00  7.00000000E+00  8.00000000E+00
Current cartesian coordinates              R   N=          15
  2.11739970E+00 -1.12074310E+00  9.86076132E-32  2.49427419E+00  7.02811719E-01
  0.00000000E+00  2.02637184E-16  1.72642077E+00 -1.23259516E-32 -1.87696870E+00
 -8.70416115E-02 -4.93038066E-32 -1.11660154E+00 -2.21297819E+00  2.46519033E-32
Number of symbols in /Mol/                 I                0
Force Field                                I                0
Atom Types                                 C   N=           5
                                                            
Int Atom Types                             I   N=           5
           0           0           0           0           0
MM charges                                 R   N=           5
  0.00000000E+00  0.00000000E+00  0.00000000E+00  0.00000000E+00  0.00000000E+00
Integer atomic weights                     I   N=           5
           1          16          16          14          16
Real atomic weights                        R   N=           5
  1.00782504E+00  1.59949146E+01  1.59949146E+01  1.40030740E+01  1.59949146E+01
Atom fragment info                         I   N=           5
           0           0           0           0           0
Atom residue num                           I   N=           5
           0           0           0           0           0
Nuclear spins                              I   N=           5
           1           0           0           2           0
Nuclear ZEff                               R   N=           5
 -1.00000000E+00 -5.60000000E+00 -5.60000000E+00 -4.55000000E+00 -5.60000000E+00
Nuclear ZNuc                               R   N=           5
  1.00000000E+00  8.00000000E+00  8.00000000E+00  7.00000000E+00  8.00000000E+00
Nuclear QMom                               R   N=           5
  0.00000000E+00  0.00000000E+00  0.00000000E+00  2.04400000E+00  0.00000000E+00
Nuclear GFac                               R   N=           5
  2.79284600E+00  0.00000000E+00  0.00000000E+00  4.03761000E-01  0.00000000E+00
MicOpt                                     I   N=           5
          -1          -1          -1          -1          -1
Number of residues                         I                0
Number of secondary structures             I                0
SymInf integers                            I   N=          26
           1           2           1           1           1           1
           1          -1           0           0           0           0
           0           0           0           0           0           0
           0           0           0           0           0           0
           0           0
RotTr to input orientation                 R   N=          12
 -9.79304371E-01 -1.23440538E-16  2.02393054E-01  2.02393054E-01  2.55114837E-17
  9.79304371E-01 -1.26049206E-16  1.00000000E+00  0.00000000E+00  2.30040940E+00
  0.00000000E+00  6.69001621E-01
Number of contracted shells                I               65
Number of primitive shells                 I              119
Pure/Cartesian d shells                    I                0
Pure/Cartesian f shells                    I                0
Highest angular momentum                   I                3
Largest degree of contraction              I                7
Shell types                                I   N=          65
           0           0           0           0           1           1
           1          -2          -2           0           0           0
           0           0           1           1           1           1
          -2          -2          -2          -3          -3           0
           0           0           0           0           1           1
           1           1          -2          -2          -2          -3
          -3           0           0           0           0           0
           1           1           1           1          -2          -2
          -2          -3          -3           0           0           0
           0           0           1           1           1           1
          -2          -2          -2          -3          -3
Number of primitives per shell             I   N=          65
           3           1           1           1           1           1
           1           1           1           7           6           1
           1           1           3           1           1           1
           1           1           1           1           1           7
           6           1           1           1           3           1
           1           1           1           1           1           1
           1           7           6           1           1           1
           3           1           1           1           1           1
           1           1           1           7           6           1
           1           1           3           1           1           1
           1           1           1           1           1
Shell to atom map                          I   N=          65
           1           1           1           1           1           1
           1           1           1           2           2           2
           2           2           2           2           2           2
           2           2           2           2           2           3
           3           3           3           3           3           3
           3           3           3           3           3           3
           3           4           4           4           4           4
           4           4           4           4           4           4
           4           4           4           5           5           5
           5           5           5           5           5           5
           5           5           5           5           5
Primitive exponents                        R   N=         119
  3.38700000E+01  5.09500000E+00  1.15900000E+00  3.25800000E-01  1.02700000E-01
  2.52600000E-02  1.40700000E+00  3.88000000E-01  1.02000000E-01  1.05700000E+00
  2.47000000E-01  1.53300000E+04  2.29900000E+03  5.22400000E+02  1.47300000E+02
  4.75500000E+01  1.67600000E+01  6.20700000E+00  5.22400000E+02  1.47300000E+02
  4.75500000E+01  1.67600000E+01  6.20700000E+00  6.88200000E-01  1.75200000E+00
  2.38400000E-01  7.37600000E-02  3.44600000E+01  7.74900000E+00  2.28000000E+00
  7.15600000E-01  2.14000000E-01  5.97400000E-02  2.31400000E+00  6.45000000E-01
  2.14000000E-01  1.42800000E+00  5.00000000E-01  1.53300000E+04  2.29900000E+03
  5.22400000E+02  1.47300000E+02  4.75500000E+01  1.67600000E+01  6.20700000E+00
  5.22400000E+02  1.47300000E+02  4.75500000E+01  1.67600000E+01  6.20700000E+00
  6.88200000E-01  1.75200000E+00  2.38400000E-01  7.37600000E-02  3.44600000E+01
  7.74900000E+00  2.28000000E+00  7.15600000E-01  2.14000000E-01  5.97400000E-02
  2.31400000E+00  6.45000000E-01  2.14000000E-01  1.42800000E+00  5.00000000E-01
  1.14200000E+04  1.71200000E+03  3.89300000E+02  1.10000000E+02  3.55700000E+01
  1.25400000E+01  4.64400000E+00  3.89300000E+02  1.10000000E+02  3.55700000E+01
  1.25400000E+01  4.64400000E+00  5.11800000E-01  1.29300000E+00  1.78700000E-01
  5.76000000E-02  2.66300000E+01  5.94800000E+00  1.74200000E+00  5.55000000E-01
  1.72500000E-01  4.91000000E-02  1.65400000E+00  4.69000000E-01  1.51000000E-01
  1.09300000E+00  3.64000000E-01  1.53300000E+04  2.29900000E+03  5.22400000E+02
  1.47300000E+02  4.75500000E+01  1.67600000E+01  6.20700000E+00  5.22400000E+02
  1.47300000E+02  4.75500000E+01  1.67600000E+01  6.20700000E+00  6.88200000E-01
  1.75200000E+00  2.38400000E-01  7.37600000E-02  3.44600000E+01  7.74900000E+00
  2.28000000E+00  7.15600000E-01  2.14000000E-01  5.97400000E-02  2.31400000E+00
  6.45000000E-01  2.14000000E-01  1.42800000E+00  5.00000000E-01
Contraction coefficients                   R   N=         119
  2.54948632E-02  1.90362766E-01  8.52162022E-01  1.00000000E+00  1.00000000E+00
  1.00000000E+00  1.00000000E+00  1.00000000E+00  1.00000000E+00  1.00000000E+00
  1.00000000E+00  5.19808943E-04  4.02025621E-03  2.07128267E-02  8.10105536E-02
  2.35962985E-01  4.42653446E-01  3.57064423E-01 -4.42115008E-05 -1.22591041E-03
 -1.05517725E-02 -6.74452633E-02 -1.71198607E-01  1.07329856E+00  1.00000000E+00
  1.00000000E+00  1.00000000E+00  4.11634896E-02  2.57762836E-01  8.02419274E-01
  1.00000000E+00  1.00000000E+00  1.00000000E+00  1.00000000E+00  1.00000000E+00
  1.00000000E+00  1.00000000E+00  1.00000000E+00  5.19808943E-04  4.02025621E-03
  2.07128267E-02  8.10105536E-02  2.35962985E-01  4.42653446E-01  3.57064423E-01
 -4.42115008E-05 -1.22591041E-03 -1.05517725E-02 -6.74452633E-02 -1.71198607E-01
  1.07329856E+00  1.00000000E+00  1.00000000E+00  1.00000000E+00  4.11634896E-02
  2.57762836E-01  8.02419274E-01  1.00000000E+00  1.00000000E+00  1.00000000E+00
  1.00000000E+00  1.00000000E+00  1.00000000E+00  1.00000000E+00  1.00000000E+00
  5.34563860E-04  4.13435660E-03  2.12335358E-02  8.25006224E-02  2.38138871E-01
  4.42551547E-01  3.53757422E-01 -4.89867350E-05 -1.19527323E-03 -1.03490714E-02
 -6.48680190E-02 -1.71552477E-01  1.07289568E+00  1.00000000E+00  1.00000000E+00
  1.00000000E+00  3.98072123E-02  2.49002660E-01  8.10479727E-01  1.00000000E+00
  1.00000000E+00  1.00000000E+00  1.00000000E+00  1.00000000E+00  1.00000000E+00
  1.00000000E+00  1.00000000E+00  5.19808943E-04  4.02025621E-03  2.07128267E-02
  8.10105536E-02  2.35962985E-01  4.42653446E-01  3.57064423E-01 -4.42115008E-05
 -1.22591041E-03 -1.05517725E-02 -6.74452633E-02 -1.71198607E-01  1.07329856E+00
  1.00000000E+00  1.00000000E+00  1.00000000E+00  4.11634896E-02  2.57762836E-01
  8.02419274E-01  1.00000000E+00  1.00000000E+00  1.00000000E+00  1.00000000E+00
  1.00000000E+00  1.00000000E+00  1.00000000E+00  1.00000000E+00
Coordinates of each shell                  R   N=         195
  2.11739970E+00 -1.12074310E+00  3.40435452E-32  2.11739970E+00 -1.12074310E+00
  3.40435452E-32  2.11739970E+00 -1.12074310E+00  3.40435452E-32  2.11739970E+00
 -1.12074310E+00  3.40435452E-32  2.11739970E+00 -1.12074310E+00  3.40435452E-32
  2.11739970E+00 -1.12074310E+00  3.40435452E-32  2.11739970E+00 -1.12074310E+00
  3.40435452E-32  2.11739970E+00 -1.12074310E+00  3.40435452E-32  2.11739970E+00
 -1.12074310E+00  3.40435452E-32  2.49427419E+00  7.02811719E-01  2.05693555E-32
  2.49427419E+00  7.02811719E-01  2.05693555E-32  2.49427419E+00  7.02811719E-01
  2.05693555E-32  2.49427419E+00  7.02811719E-01  2.05693555E-32  2.49427419E+00
  7.02811719E-01  2.05693555E-32  2.49427419E+00  7.02811719E-01  2.05693555E-32
  2.49427419E+00  7.02811719E-01  2.05693555E-32  2.49427419E+00  7.02811719E-01
  2.05693555E-32  2.49427419E+00  7.02811719E-01  2.05693555E-32  2.49427419E+00
  7.02811719E-01  2.05693555E-32  2.49427419E+00  7.02811719E-01  2.05693555E-32
  2.49427419E+00  7.02811719E-01  2.05693555E-32  2.49427419E+00  7.02811719E-01
  2.05693555E-32  2.49427419E+00  7.02811719E-01  2.05693555E-32 -2.39826770E-18
  1.72642077E+00 -1.66695932E-32 -2.39826770E-18  1.72642077E+00 -1.66695932E-32
 -2.39826770E-18  1.72642077E+00 -1.66695932E-32 -2.39826770E-18  1.72642077E+00
 -1.66695932E-32 -2.39826770E-18  1.72642077E+00 -1.66695932E-32 -2.39826770E-18
  1.72642077E+00 -1.66695932E-32 -2.39826770E-18  1.72642077E+00 -1.66695932E-32
 -2.39826770E-18  1.72642077E+00 -1.66695932E-32 -2.39826770E-18  1.72642077E+00
 -1.66695932E-32 -2.39826770E-18  1.72642077E+00 -1.66695932E-32 -2.39826770E-18
  1.72642077E+00 -1.66695932E-32 -2.39826770E-18  1.72642077E+00 -1.66695932E-32
 -2.39826770E-18  1.72642077E+00 -1.66695932E-32 -2.39826770E-18  1.72642077E+00
 -1.66695932E-32 -1.87696870E+00 -8.70416115E-02 -1.97448090E-32 -1.87696870E+00
 -8.70416115E-02 -1.97448090E-32 -1.87696870E+00 -8.70416115E-02 -1.97448090E-32
 -1.87696870E+00 -8.70416115E-02 -1.97448090E-32 -1.87696870E+00 -8.70416115E-02
 -1.97448090E-32 -1.87696870E+00 -8.70416115E-02 -1.97448090E-32 -1.87696870E+00
 -8.70416115E-02 -1.97448090E-32 -1.87696870E+00 -8.70416115E-02 -1.97448090E-32
 -1.87696870E+00 -8.70416115E-02 -1.97448090E-32 -1.87696870E+00 -8.70416115E-02
 -1.97448090E-32 -1.87696870E+00 -8.70416115E-02 -1.97448090E-32 -1.87696870E+00
 -8.70416115E-02 -1.97448090E-32 -1.87696870E+00 -8.70416115E-02 -1.97448090E-32
 -1.87696870E+00 -8.70416115E-02 -1.97448090E-32 -1.11660154E+00 -2.21297819E+00
  9.12150241E-33 -1.11660154E+00 -2.21297819E+00  9.12150241E-33 -1.11660154E+00
 -2.21297819E+00  9.12150241E-33 -1.11660154E+00 -2.21297819E+00  9.12150241E-33
 -1.11660154E+00 -2.21297819E+00  9.12150241E-33 -1.11660154E+00 -2.21297819E+00
  9.12150241E-33 -1.11660154E+00 -2.21297819E+00  9.12150241E-33 -1.11660154E+00
 -2.21297819E+00  9.12150241E-33 -1.11660154E+00 -2.21297819E+00  9.12150241E-33
 -1.11660154E+00 -2.21297819E+00  9.12150241E-33 -1.11660154E+00 -2.21297819E+00
  9.12150241E-33 -1.11660154E+00 -2.21297819E+00  9.12150241E-33 -1.11660154E+00
 -2.21297819E+00  9.12150241E-33 -1.11660154E+00 -2.21297819E+00  9.12150241E-33
Num ILSW                                   I              100
ILSW                                       I   N=         100
           0           0           0           0           2           0
           0           0           0           0           0          -1
           5           0           0           0           2           0
           0           0           0           0           1           0
           1           0           0           0           0           0
           0           0      100000           0          -1           0
           0           0           0           0           0           0
           0           0           0           1           1           0
           0 -2000000000           1           0           0           0
           0           0           4          52           0           0
           0           0           0           0           0           0
           0           0           0           5           4           1
           0           0           0           0           0           0
           0           0           0           0           0           0
           0           0           0           0           0           0
           0           0           0           0           0           0
           0           0           0           0
Num RLSW                                   I               52
RLSW                                       R   N=          52
  1.00000000E+00  1.00000000E+00  1.00000000E+00  1.00000000E+00  1.00000000E+00
  0.00000000E+00  0.00000000E+00  1.00000000E+00  0.00000000E+00  0.00000000E+00
  0.00000000E+00  0.00000000E+00  1.00000000E+00  0.00000000E+00  0.00000000E+00
  0.00000000E+00  0.00000000E+00  1.00000000E+00  0.00000000E+00  0.00000000E+00
  0.00000000E+00  0.00000000E+00  1.00000000E+00  0.00000000E+00  0.00000000E+00
  0.00000000E+00  0.00000000E+00  1.00000000E+00  0.00000000E+00  0.00000000E+00
  0.00000000E+00  0.00000000E+00  1.00000000E+00  0.00000000E+00  0.00000000E+00
  0.00000000E+00  0.00000000E+00  0.00000000E+00  1.00000000E+00  1.00000000E+00
  0.00000000E+00  1.00000000E+00  0.00000000E+00  0.00000000E+00  0.00000000E+00
  0.00000000E+00  0.00000000E+00  0.00000000E+00  0.00000000E+00  0.00000000E+00
  0.00000000E+00  0.00000000E+00
MxBond                                     I                2
NBond                                      I   N=           5
           1           2           2           2           1
IBond                                      I   N=          10
           2           0           1           3           2           4
           3           5           4           0
RBond                                      R   N=          10
  1.00000000E+00  0.00000000E+00  1.00000000E+00  1.00000000E+00  1.00000000E+00
  1.00000000E+00  1.00000000E+00  2.00000000E+00  2.00000000E+00  0.00000000E+00
Virial Ratio                               R      2.002241193865296E+00
SCF Energy                                 R     -2.795065156978487E+02
MP2 Energy                                 R     -2.804552201757176E+02
Total Energy                               R     -2.804552201757176E+02
Post-SCF wavefunction norm                 R      1.583749547841940E+00
RMS Force                                  R      8.199637717931599E-04
RMS Density                                R      4.284704864477380E-09
NImag                                      I                0
Job Status                                 I                1
Nuclear derivative order                   I                2
External E-field                           R   N=          35
  0.00000000E+00  0.00000000E+00  0.00000000E+00  0.00000000E+00  0.00000000E+00
  0.00000000E+00  0.00000000E+00  0.00000000E+00  0.00000000E+00  0.00000000E+00
  0.00000000E+00  0.00000000E+00  0.00000000E+00  0.00000000E+00  0.00000000E+00
  0.00000000E+00  0.00000000E+00  0.00000000E+00  0.00000000E+00  0.00000000E+00
  0.00000000E+00  0.00000000E+00  0.00000000E+00  0.00000000E+00  0.00000000E+00
  0.00000000E+00  0.00000000E+00  0.00000000E+00  0.00000000E+00  0.00000000E+00
  0.00000000E+00  0.00000000E+00  0.00000000E+00  0.00000000E+00  0.00000000E+00
IOpCl                                      I                0
IROHF                                      I                0
Alpha Orbital Energies                     R   N=         207
 -2.07191544E+01 -2.06869464E+01 -2.06690086E+01 -1.58260366E+01 -1.64354764E+00
 -1.50522457E+00 -1.29380232E+00 -9.60264742E-01 -8.33669075E-01 -7.58650944E-01
 -7.39557643E-01 -6.38161410E-01 -6.18571206E-01 -6.18219323E-01 -5.04351933E-01
 -4.97347145E-01  3.49609485E-02  6.04879257E-02  9.51458691E-02  1.00570073E-01
  1.19725545E-01  1.22539988E-01  1.49071145E-01  1.51759054E-01  1.77577906E-01
  1.80481148E-01  1.89847124E-01  2.11026256E-01  2.16696835E-01  2.41841274E-01
  2.46416063E-01  2.68994245E-01  3.11950276E-01  3.16013991E-01  3.37997602E-01
  3.44466646E-01  3.47120234E-01  3.92040140E-01  4.48093963E-01  4.88327281E-01
  5.04948232E-01  5.18824253E-01  5.44918289E-01  5.61286959E-01  5.99632880E-01
  6.20359069E-01  6.38528276E-01  6.89204349E-01  7.17262623E-01  7.24550933E-01
  7.42547367E-01  7.62699514E-01  7.66872862E-01  7.95631285E-01  8.05709643E-01
  8.40530615E-01  8.43359178E-01  8.51504392E-01  8.85216815E-01  9.07386350E-01
  9.29938544E-01  9.47891630E-01  9.53807304E-01  1.01848140E+00  1.03107696E+00
  1.05934131E+00  1.06542491E+00  1.09383466E+00  1.14253447E+00  1.15615337E+00
  1.16940206E+00  1.22227408E+00  1.22643591E+00  1.24638645E+00  1.35071963E+00
  1.36384892E+00  1.37316229E+00  1.46795232E+00  1.48513618E+00  1.50549282E+00
  1.54077488E+00  1.59491838E+00  1.59759190E+00  1.60553487E+00  1.62726318E+00
  1.69577408E+00  1.74056947E+00  1.80158852E+00  1.83039900E+00  1.88839621E+00
  1.89421403E+00  1.92785428E+00  1.97877861E+00  1.98871068E+00  2.05152957E+00
  2.12548317E+00  2.12914877E+00  2.16478716E+00  2.18607627E+00  2.24271524E+00
  2.25841415E+00  2.29484948E+00  2.34940764E+00  2.36401958E+00  2.38741399E+00
  2.40091499E+00  2.43254321E+00  2.46867136E+00  2.47762166E+00  2.52802498E+00
  2.53645809E+00  2.54912485E+00  2.55806846E+00  2.61454582E+00  2.62858171E+00
  2.67172636E+00  2.67176279E+00  2.75460955E+00  2.80955547E+00  2.81455970E+00
  2.84130744E+00  2.91691208E+00  2.98532557E+00  3.04671145E+00  3.04854600E+00
  3.11742004E+00  3.11750269E+00  3.16788046E+00  3.21307662E+00  3.30818579E+00
  3.33224361E+00  3.36392532E+00  3.47536523E+00  3.68072739E+00  3.86898318E+00
  3.92524018E+00  4.18147478E+00  4.21981661E+00  4.22360955E+00  4.26414955E+00
  4.36751621E+00  4.50159154E+00  4.51635201E+00  4.55630076E+00  4.59787399E+00
  4.69630048E+00  4.81191039E+00  4.89995691E+00  4.91367729E+00  4.93963961E+00
  4.99919507E+00  5.00612591E+00  5.10796680E+00  5.13108067E+00  5.18084178E+00
  5.24924376E+00  5.25837094E+00  5.31796069E+00  5.33792481E+00  5.35224753E+00
  5.54959285E+00  5.64520394E+00  5.70466186E+00  5.88804459E+00  5.99886017E+00
  6.26601284E+00  6.29643996E+00  6.36118481E+00  6.37777079E+00  6.59735311E+00
  6.65518237E+00  6.65838191E+00  6.68758083E+00  6.72764884E+00  6.79900312E+00
  6.80460817E+00  6.84946802E+00  6.96771579E+00  7.02063764E+00  7.06622567E+00
  7.08046948E+00  7.13743969E+00  7.16959262E+00  7.17503097E+00  7.20289609E+00
  7.24552650E+00  7.24771056E+00  7.27052617E+00  7.34709252E+00  7.39150314E+00
  7.42685045E+00  7.44269163E+00  7.46340646E+00  7.55728217E+00  7.66282315E+00
  7.66431948E+00  7.79517271E+00  7.88221492E+00  7.94979583E+00  8.05712926E+00
  8.30375624E+00  8.49779104E+00  8.65361091E+00  1.36123611E+01  1.47732646E+01
  1.50945109E+01  1.57448508E+01
Alpha MO coefficients                      R   N=       42849
  6.52588330E-05 -4.09832793E-05 -1.11904979E-03  1.40995816E-05 -5.19936843E-05
  4.25741573E-05  0.00000000E+00 -8.72400457E-05 -2.96430358E-04  0.00000000E+00
  1.06940183E-05 -3.48852199E-04  0.00000000E+00  4.30156511E-05  0.00000000E+00
  0.00000000E+00 -2.59235691E-05  1.17332335E-05  2.26379968E-04  0.00000000E+00
  0.00000000E+00 -3.94771279E-05 -2.06447802E-04  3.15010984E-03 -9.56698628E-05
 -9.70160958E-05  3.57472599E-03  2.49311852E-03  1.03797450E-04 -5.27245365E-05
  0.00000000E+00 -7.37600290E-04  2.81180533E-04  0.00000000E+00 -2.00920311E-03
  1.07623381E-03  0.00000000E+00 -5.42845505E-04  4.21712108E-05  0.00000000E+00
  2.04893939E-05  0.00000000E+00  0.00000000E+00 -9.61140400E-06  4.39550509E-05
 -4.45228759E-04  0.00000000E+00  0.00000000E+00  4.40468087E-04 -6.56393937E-04
 -3.66529498E-04  0.00000000E+00  0.00000000E+00  5.60323212E-04 -7.27690017E-04
  0.00000000E+00  7.48533739E-05 -5.21571871E-05  0.00000000E+00  0.00000000E+00
 -2.95499250E-05  1.07335263E-04  0.00000000E+00  2.07150332E-04 -4.82089361E-05
  0.00000000E+00  0.00000000E+00 -1.80066589E-04  2.97435895E-04  9.76902563E-01
 -9.17010326E-03  4.34106034E-02  4.83070843E-04 -2.19744421E-03  4.57064291E-04
 -2.14484405E-03  0.00000000E+00 -3.26165520E-04  2.24682783E-03  0.00000000E+00
 -2.34587112E-03 -4.70611230E-04  0.00000000E+00 -2.35632491E-04  9.20249405E-05
  0.00000000E+00  6.28361296E-06  0.00000000E+00  0.00000000E+00 -3.96861117E-06
  3.86549003E-05  8.29761112E-04  0.00000000E+00  0.00000000E+00 -4.84476270E-04
 -1.78296074E-04 -1.38424500E-04  0.00000000E+00  0.00000000E+00 -5.36005786E-04
  3.56986389E-04  0.00000000E+00 -6.39649733E-06 -7.88950216E-05  0.00000000E+00
  0.00000000E+00 -9.42033230E-06  4.81456159E-05  0.00000000E+00  9.38868805E-05
  7.12020617E-08  0.00000000E+00  0.00000000E+00 -3.43913146E-04  3.80027318E-04
  1.04767146E-04  4.60189907E-04 -3.23415438E-04 -8.40681083E-04  3.22525055E-04
 -4.47508558E-05 -1.00102847E-04  0.00000000E+00  7.04628258E-04  1.11510654E-03
  0.00000000E+00 -7.65018599E-04 -6.84469020E-04  0.00000000E+00  1.90055279E-04
  2.07970000E-04  0.00000000E+00 -5.29021989E-05  0.00000000E+00  0.00000000E+00
  1.93233247E-05  9.32813964E-05 -4.14176241E-04  0.00000000E+00  0.00000000E+00
  5.18266436E-05  1.08381999E-03  2.89550974E-05  0.00000000E+00  0.00000000E+00
 -3.11197540E-04  2.38725144E-05  0.00000000E+00 -7.89070014E-05 -1.13919002E-04
  0.00000000E+00  0.00000000E+00 -9.53795314E-05  1.06280003E-04  0.00000000E+00
 -1.22548839E-04  4.98303348E-05  0.00000000E+00  0.00000000E+00  2.15562739E-05
  5.26349189E-04 -7.15328292E-04  4.63570111E-05 -7.09098033E-05  2.02338044E-04
 -1.57306230E-04 -2.88502040E-05 -4.18262398E-05  0.00000000E+00  1.68293740E-04
  2.56511591E-04  0.00000000E+00  5.35027230E-04  3.28554776E-04  0.00000000E+00
 -2.14563096E-04 -5.84863719E-05  0.00000000E+00 -1.30786527E-05  0.00000000E+00
  0.00000000E+00  3.55379073E-06  1.50227169E-05 -2.32594763E-06  0.00000000E+00
  0.00000000E+00 -1.66901386E-04  1.10700300E-05 -2.49704864E-05  0.00000000E+00
  0.00000000E+00 -1.70209964E-04 -3.98815336E-05  0.00000000E+00 -5.70169728E-06
 -9.06590036E-06  0.00000000E+00  0.00000000E+00 -2.18967169E-05  9.26854178E-06
  0.00000000E+00  3.96425055E-05  6.04653116E-05  0.00000000E+00  0.00000000E+00
  1.58745386E-04 -1.03652494E-04  4.04385926E-05  6.41072569E-05 -1.23311829E-04
 -2.92356784E-05  1.47767621E-05  7.83604734E-06  0.00000000E+00  2.46247210E-04
  6.70597701E-05  0.00000000E+00  1.31530767E-04  2.71031847E-05  0.00000000E+00
  1.50360536E-05  0.00000000E+00  0.00000000E+00 -1.45126243E-05  1.44644883E-05
  2.51367614E-05  0.00000000E+00  0.00000000E+00 -1.01078294E-04  5.91113025E-05
 -2.62696060E-04  2.02522033E-05 -1.51592395E-05 -5.48558377E-04  1.60617250E-04
  6.80436491E-06  1.39801907E-05  0.00000000E+00  3.71780620E-06 -4.19835009E-05
  0.00000000E+00  1.75314221E-04  1.27899614E-04  0.00000000E+00 -4.86576899E-05
  4.74260750E-05  0.00000000E+00 -8.24694696E-07  0.00000000E+00  0.00000000E+00
 -8.07842582E-06 -1.23152169E-05  1.87746690E-05  0.00000000E+00  0.00000000E+00
  4.48472779E-05  1.10055599E-04  5.91259329E-05  0.00000000E+00  0.00000000E+00
 -2.37520538E-05 -7.39361256E-05  0.00000000E+00  7.49336774E-06  1.07380556E-05
  0.00000000E+00  0.00000000E+00 -6.91616279E-07 -2.36029724E-05  0.00000000E+00
 -1.27577205E-05 -3.41196927E-05  0.00000000E+00  0.00000000E+00 -1.99127839E-07
 -2.20310118E-05  7.43469807E-04  2.25624804E-05 -1.86738125E-05  3.00769949E-04
 -3.86001806E-04  1.64199454E-05  2.72173815E-05  0.00000000E+00 -6.55049409E-05
 -1.53208355E-04  0.00000000E+00  1.50021318E-04 -1.98070237E-04  0.00000000E+00
 -1.56081934E-04  1.41285079E-04  0.00000000E+00 -4.00463121E-06  0.00000000E+00
  0.00000000E+00 -2.96710912E-05 -9.68815671E-06 -5.18037036E-05  0.00000000E+00
  0.00000000E+00  8.15194335E-05  1.21314981E-04 -6.55108690E-05  0.00000000E+00
  0.00000000E+00  4.81609852E-05  2.80855170E-05  0.00000000E+00  2.89913082E-06
  3.29651806E-06  0.00000000E+00  0.00000000E+00 -7.70702123E-06 -2.06271875E-06
  0.00000000E+00  3.99094627E-06 -2.49486424E-05  0.00000000E+00  0.00000000E+00
  9.45738741E-05 -1.56223102E-04  2.37387150E-04  1.35903628E-03 -1.47486349E-04
 -6.89034627E-04  8.97820171E-04  6.29837436E-05 -7.11224179E-05  0.00000000E+00
  5.68665357E-04 -2.08484596E-03  0.00000000E+00  1.14306420E-04  4.85952546E-04
  0.00000000E+00  1.83393275E-04 -3.07202180E-04  0.00000000E+00 -1.27931410E-04
  0.00000000E+00  0.00000000E+00 -2.04602451E-04 -1.57880520E-04 -4.60145740E-04
  0.00000000E+00  0.00000000E+00 -6.05734189E-04 -9.17328541E-04 -4.13961311E-05
  0.00000000E+00  0.00000000E+00  6.08958223E-05  1.13927926E-04  0.00000000E+00
  8.45459577E-06  3.68022350E-05  0.00000000E+00  0.00000000E+00 -2.43122563E-05
 -4.02927606E-06  0.00000000E+00 -1.34424920E-04  1.59237744E-04  0.00000000E+00
  0.00000000E+00 -3.14754208E-04 -3.02186961E-05  9.76646601E-01 -9.88689355E-03
  4.35744629E-02  3.68210388E-03 -8.91116179E-04 -4.47242476E-04  2.13211284E-03
  0.00000000E+00  5.09151042E-04 -2.50629578E-03  0.00000000E+00 -6.37675552E-05
  8.11488309E-04  0.00000000E+00  1.05104856E-04 -6.46922304E-05  0.00000000E+00
 -1.94043871E-04  0.00000000E+00  0.00000000E+00 -7.47526836E-05 -4.34012151E-05
  4.09152965E-04  0.00000000E+00  0.00000000E+00  8.60418116E-04  4.81235423E-04
 -2.07369068E-04  0.00000000E+00  0.00000000E+00 -1.37035999E-04 -3.70858945E-05
  0.00000000E+00 -4.35944647E-06  7.03994241E-05  0.00000000E+00  0.00000000E+00
 -2.95888055E-05  1.06484807E-05  0.00000000E+00 -8.97509317E-05  9.18882855E-05
  0.00000000E+00  0.00000000E+00 -1.63349298E-04  2.06115293E-04  3.77775164E-04
  1.99833556E-03  1.32101944E-03 -1.93748476E-05  4.86697325E-05  2.69959055E-04
  0.00000000E+00  3.86585805E-04  1.03636273E-03  0.00000000E+00 -1.06368921E-04
  2.39319139E-04  0.00000000E+00 -2.37073671E-05  0.00000000E+00  0.00000000E+00
  3.16354844E-05 -2.74244502E-05 -2.11762672E-04  0.00000000E+00  0.00000000E+00
 -3.52762941E-04  3.95054987E-04  9.76836000E-01 -9.18576015E-03  4.34624730E-02
  1.44511237E-04 -1.91542450E-03 -2.03641816E-03 -8.55712401E-04  0.00000000E+00
  2.07425021E-03  7.92472389E-04  0.00000000E+00 -4.11572017E-04  6.56177028E-04
  0.00000000E+00  2.25000374E-04 -2.95479576E-04  0.00000000E+00  3.14032948E-05
  0.00000000E+00  0.00000000E+00 -7.54897818E-05  6.13828372E-05  7.66467427E-04
  0.00000000E+00  0.00000000E+00 -2.11734553E-04  3.48921686E-04 -2.35098073E-04
  0.00000000E+00  0.00000000E+00  3.40576478E-04  2.64570746E-06  0.00000000E+00
 -8.04826154E-05  9.84839844E-07  0.00000000E+00  0.00000000E+00  1.68940276E-05