title                                                                   
Freq      RMP2-FC                                                     Aug-CC-pVTZ         
Number of atoms                            I                5
Info1-9                                    I   N=           9
          33          24           0           0           0         100
           6           2           1
Full Title                                 C   N=           1
title       
Route                                      C   N=           4
#p freq mp2/aug-cc-pvtz density=current         
Charge                                     I                0
Multiplicity                               I                1
Number of electrons                        I               32
Number of alpha electrons                  I               16
Number of beta electrons                   I               16
Number of basis functions                  I              207
Number of independent functions            I              207
Number of point charges in /Mol/           I                0
Number of translation vectors              I                0
Atomic numbers                             I   N=           5
           1           8           8           7           8
Nuclear charges                            R   N=           5
  1.00000000E+00  8.00000000E+00  8.00000000E+00  7.00000000E+00  8.00000000E+00
Current cartesian coordinates              R   N=          15
  2.11563416E+00 -1.15369782E+00  0.00000000E+00  2.51693488E+00  6.64637756E-01
  0.00000000E+00  1.02625257E-16  1.73721488E+00  0.00000000E+00 -1.88432455E+00
 -6.86030174E-02  0.00000000E+00 -1.13260517E+00 -2.19761277E+00  0.00000000E+00
Number of symbols in /Mol/                 I                0
Force Field                                I                0
Atom Types                                 C   N=           5
                                                            
Int Atom Types                             I   N=           5
           0           0           0           0           0
MM charges                                 R   N=           5
  0.00000000E+00  0.00000000E+00  0.00000000E+00  0.00000000E+00  0.00000000E+00
Integer atomic weights                     I   N=           5
           1          16          16          14          16
Real atomic weights                        R   N=           5
  1.00782504E+00  1.59949146E+01  1.59949146E+01  1.40030740E+01  1.59949146E+01
Atom fragment info                         I   N=           5
           0           0           0           0           0
Atom residue num                           I   N=           5
           0           0           0           0           0
Nuclear spins                              I   N=           5
           1           0           0           2           0
Nuclear ZEff                               R   N=           5
 -1.00000000E+00 -5.60000000E+00 -5.60000000E+00 -4.55000000E+00 -5.60000000E+00
Nuclear ZNuc                               R   N=           5
  1.00000000E+00  8.00000000E+00  8.00000000E+00  7.00000000E+00  8.00000000E+00
Nuclear QMom                               R   N=           5
  0.00000000E+00  0.00000000E+00  0.00000000E+00  2.04400000E+00  0.00000000E+00
Nuclear GFac                               R   N=           5
  2.79284600E+00  0.00000000E+00  0.00000000E+00  4.03761000E-01  0.00000000E+00
MicOpt                                     I   N=           5
          -1          -1          -1          -1          -1
Number of residues                         I                0
Number of secondary structures             I                0
SymInf integers                            I   N=          26
           1           2           1           1           1           1
           1          -1           0           0           0           0
           0           0           0           0           0           0
           0           0           0           0           0           0
           0           0
RotTr to input orientation                 R   N=          12
 -9.76501481E-01  0.00000000E+00  2.15510689E-01  2.15510689E-01  0.00000000E+00
  9.76501481E-01  0.00000000E+00  1.00000000E+00  0.00000000E+00  2.31455410E+00
  0.00000000E+00  6.70645854E-01
Number of contracted shells                I               65
Number of primitive shells                 I              119
Pure/Cartesian d shells                    I                0
Pure/Cartesian f shells                    I                0
Highest angular momentum                   I                3
Largest degree of contraction              I                7
Shell types                                I   N=          65
           0           0           0           0           1           1
           1          -2          -2           0           0           0
           0           0           1           1           1           1
          -2          -2          -2          -3          -3           0
           0           0           0           0           1           1
           1           1          -2          -2          -2          -3
          -3           0           0           0           0           0
           1           1           1           1          -2          -2
          -2          -3          -3           0           0           0
           0           0           1           1           1           1
          -2          -2          -2          -3          -3
Number of primitives per shell             I   N=          65
           3           1           1           1           1           1
           1           1           1           7           6           1
           1           1           3           1           1           1
           1           1           1           1           1           7
           6           1           1           1           3           1
           1           1           1           1           1           1
           1           7           6           1           1           1
           3           1           1           1           1           1
           1           1           1           7           6           1
           1           1           3           1           1           1
           1           1           1           1           1
Shell to atom map                          I   N=          65
           1           1           1           1           1           1
           1           1           1           2           2           2
           2           2           2           2           2           2
           2           2           2           2           2           3
           3           3           3           3           3           3
           3           3           3           3           3           3
           3           4           4           4           4           4
           4           4           4           4           4           4
           4           4           4           5           5           5
           5           5           5           5           5           5
           5           5           5           5           5
Primitive exponents                        R   N=         119
  3.38700000E+01  5.09500000E+00  1.15900000E+00  3.25800000E-01  1.02700000E-01
  2.52600000E-02  1.40700000E+00  3.88000000E-01  1.02000000E-01  1.05700000E+00
  2.47000000E-01  1.53300000E+04  2.29900000E+03  5.22400000E+02  1.47300000E+02
  4.75500000E+01  1.67600000E+01  6.20700000E+00  5.22400000E+02  1.47300000E+02
  4.75500000E+01  1.67600000E+01  6.20700000E+00  6.88200000E-01  1.75200000E+00
  2.38400000E-01  7.37600000E-02  3.44600000E+01  7.74900000E+00  2.28000000E+00
  7.15600000E-01  2.14000000E-01  5.97400000E-02  2.31400000E+00  6.45000000E-01
  2.14000000E-01  1.42800000E+00  5.00000000E-01  1.53300000E+04  2.29900000E+03
  5.22400000E+02  1.47300000E+02  4.75500000E+01  1.67600000E+01  6.20700000E+00
  5.22400000E+02  1.47300000E+02  4.75500000E+01  1.67600000E+01  6.20700000E+00
  6.88200000E-01  1.75200000E+00  2.38400000E-01  7.37600000E-02  3.44600000E+01
  7.74900000E+00  2.28000000E+00  7.15600000E-01  2.14000000E-01  5.97400000E-02
  2.31400000E+00  6.45000000E-01  2.14000000E-01  1.42800000E+00  5.00000000E-01
  1.14200000E+04  1.71200000E+03  3.89300000E+02  1.10000000E+02  3.55700000E+01
  1.25400000E+01  4.64400000E+00  3.89300000E+02  1.10000000E+02  3.55700000E+01
  1.25400000E+01  4.64400000E+00  5.11800000E-01  1.29300000E+00  1.78700000E-01
  5.76000000E-02  2.66300000E+01  5.94800000E+00  1.74200000E+00  5.55000000E-01
  1.72500000E-01  4.91000000E-02  1.65400000E+00  4.69000000E-01  1.51000000E-01
  1.09300000E+00  3.64000000E-01  1.53300000E+04  2.29900000E+03  5.22400000E+02
  1.47300000E+02  4.75500000E+01  1.67600000E+01  6.20700000E+00  5.22400000E+02
  1.47300000E+02  4.75500000E+01  1.67600000E+01  6.20700000E+00  6.88200000E-01
  1.75200000E+00  2.38400000E-01  7.37600000E-02  3.44600000E+01  7.74900000E+00
  2.28000000E+00  7.15600000E-01  2.14000000E-01  5.97400000E-02  2.31400000E+00
  6.45000000E-01  2.14000000E-01  1.42800000E+00  5.00000000E-01
Contraction coefficients                   R   N=         119
  2.54948632E-02  1.90362766E-01  8.52162022E-01  1.00000000E+00  1.00000000E+00
  1.00000000E+00  1.00000000E+00  1.00000000E+00  1.00000000E+00  1.00000000E+00
  1.00000000E+00  5.19808943E-04  4.02025621E-03  2.07128267E-02  8.10105536E-02
  2.35962985E-01  4.42653446E-01  3.57064423E-01 -4.42115008E-05 -1.22591041E-03
 -1.05517725E-02 -6.74452633E-02 -1.71198607E-01  1.07329856E+00  1.00000000E+00
  1.00000000E+00  1.00000000E+00  4.11634896E-02  2.57762836E-01  8.02419274E-01
  1.00000000E+00  1.00000000E+00  1.00000000E+00  1.00000000E+00  1.00000000E+00
  1.00000000E+00  1.00000000E+00  1.00000000E+00  5.19808943E-04  4.02025621E-03
  2.07128267E-02  8.10105536E-02  2.35962985E-01  4.42653446E-01  3.57064423E-01
 -4.42115008E-05 -1.22591041E-03 -1.05517725E-02 -6.74452633E-02 -1.71198607E-01
  1.07329856E+00  1.00000000E+00  1.00000000E+00  1.00000000E+00  4.11634896E-02
  2.57762836E-01  8.02419274E-01  1.00000000E+00  1.00000000E+00  1.00000000E+00
  1.00000000E+00  1.00000000E+00  1.00000000E+00  1.00000000E+00  1.00000000E+00
  5.34563860E-04  4.13435660E-03  2.12335358E-02  8.25006224E-02  2.38138871E-01
  4.42551547E-01  3.53757422E-01 -4.89867350E-05 -1.19527323E-03 -1.03490714E-02
 -6.48680190E-02 -1.71552477E-01  1.07289568E+00  1.00000000E+00  1.00000000E+00
  1.00000000E+00  3.98072123E-02  2.49002660E-01  8.10479727E-01  1.00000000E+00
  1.00000000E+00  1.00000000E+00  1.00000000E+00  1.00000000E+00  1.00000000E+00
  1.00000000E+00  1.00000000E+00  5.19808943E-04  4.02025621E-03  2.07128267E-02
  8.10105536E-02  2.35962985E-01  4.42653446E-01  3.57064423E-01 -4.42115008E-05
 -1.22591041E-03 -1.05517725E-02 -6.74452633E-02 -1.71198607E-01  1.07329856E+00
  1.00000000E+00  1.00000000E+00  1.00000000E+00  4.11634896E-02  2.57762836E-01
  8.02419274E-01  1.00000000E+00  1.00000000E+00  1.00000000E+00  1.00000000E+00
  1.00000000E+00  1.00000000E+00  1.00000000E+00  1.00000000E+00
Coordinates of each shell                  R   N=         195
  2.11563416E+00 -1.15369782E+00  0.00000000E+00  2.11563416E+00 -1.15369782E+00
  0.00000000E+00  2.11563416E+00 -1.15369782E+00  0.00000000E+00  2.11563416E+00
 -1.15369782E+00  0.00000000E+00  2.11563416E+00 -1.15369782E+00  0.00000000E+00
  2.11563416E+00 -1.15369782E+00  0.00000000E+00  2.11563416E+00 -1.15369782E+00
  0.00000000E+00  2.11563416E+00 -1.15369782E+00  0.00000000E+00  2.11563416E+00
 -1.15369782E+00  0.00000000E+00  2.51693488E+00  6.64637756E-01  0.00000000E+00
  2.51693488E+00  6.64637756E-01  0.00000000E+00  2.51693488E+00  6.64637756E-01
  0.00000000E+00  2.51693488E+00  6.64637756E-01  0.00000000E+00  2.51693488E+00
  6.64637756E-01  0.00000000E+00  2.51693488E+00  6.64637756E-01  0.00000000E+00
  2.51693488E+00  6.64637756E-01  0.00000000E+00  2.51693488E+00  6.64637756E-01
  0.00000000E+00  2.51693488E+00  6.64637756E-01  0.00000000E+00  2.51693488E+00
  6.64637756E-01  0.00000000E+00  2.51693488E+00  6.64637756E-01  0.00000000E+00
  2.51693488E+00  6.64637756E-01  0.00000000E+00  2.51693488E+00  6.64637756E-01
  0.00000000E+00  2.51693488E+00  6.64637756E-01  0.00000000E+00  1.84871578E-17
  1.73721488E+00  0.00000000E+00  1.84871578E-17  1.73721488E+00  0.00000000E+00
  1.84871578E-17  1.73721488E+00  0.00000000E+00  1.84871578E-17  1.73721488E+00
  0.00000000E+00  1.84871578E-17  1.73721488E+00  0.00000000E+00  1.84871578E-17
  1.73721488E+00  0.00000000E+00  1.84871578E-17  1.73721488E+00  0.00000000E+00
  1.84871578E-17  1.73721488E+00  0.00000000E+00  1.84871578E-17  1.73721488E+00
  0.00000000E+00  1.84871578E-17  1.73721488E+00  0.00000000E+00  1.84871578E-17
  1.73721488E+00  0.00000000E+00  1.84871578E-17  1.73721488E+00  0.00000000E+00
  1.84871578E-17  1.73721488E+00  0.00000000E+00  1.84871578E-17  1.73721488E+00
  0.00000000E+00 -1.88432455E+00 -6.86030174E-02  0.00000000E+00 -1.88432455E+00
 -6.86030174E-02  0.00000000E+00 -1.88432455E+00 -6.86030174E-02  0.00000000E+00
 -1.88432455E+00 -6.86030174E-02  0.00000000E+00 -1.88432455E+00 -6.86030174E-02
  0.00000000E+00 -1.88432455E+00 -6.86030174E-02  0.00000000E+00 -1.88432455E+00
 -6.86030174E-02  0.00000000E+00 -1.88432455E+00 -6.86030174E-02  0.00000000E+00
 -1.88432455E+00 -6.86030174E-02  0.00000000E+00 -1.88432455E+00 -6.86030174E-02
  0.00000000E+00 -1.88432455E+00 -6.86030174E-02  0.00000000E+00 -1.88432455E+00
 -6.86030174E-02  0.00000000E+00 -1.88432455E+00 -6.86030174E-02  0.00000000E+00
 -1.88432455E+00 -6.86030174E-02  0.00000000E+00 -1.13260517E+00 -2.19761277E+00
  0.00000000E+00 -1.13260517E+00 -2.19761277E+00  0.00000000E+00 -1.13260517E+00
 -2.19761277E+00  0.00000000E+00 -1.13260517E+00 -2.19761277E+00  0.00000000E+00
 -1.13260517E+00 -2.19761277E+00  0.00000000E+00 -1.13260517E+00 -2.19761277E+00
  0.00000000E+00 -1.13260517E+00 -2.19761277E+00  0.00000000E+00 -1.13260517E+00
 -2.19761277E+00  0.00000000E+00 -1.13260517E+00 -2.19761277E+00  0.00000000E+00
 -1.13260517E+00 -2.19761277E+00  0.00000000E+00 -1.13260517E+00 -2.19761277E+00
  0.00000000E+00 -1.13260517E+00 -2.19761277E+00  0.00000000E+00 -1.13260517E+00
 -2.19761277E+00  0.00000000E+00 -1.13260517E+00 -2.19761277E+00  0.00000000E+00
Num ILSW                                   I              100
ILSW                                       I   N=         100
           0           0           0           0           2           0
           0           0           0           0           0          -1
           5           0           0           0           2           0
           0           0           0           0           1           0
           1           0           0           0           0           0
           0           0      100000           0          -1           0
           0           0           0           0           0           0
           0           0           0           1           1           0
           0 -2000000000           1           0           0           0
           0           0           4          52           0           0
           0           0           0           0           0           0
           0           0           0           5           4           1
           0           0           0           0           0           0
           0           0           0           0           0           0
           0           0           0           0           0           0
           0           0           0           0           0           0
           0           0           0           0
Num RLSW                                   I               52
RLSW                                       R   N=          52
  1.00000000E+00  1.00000000E+00  1.00000000E+00  1.00000000E+00  1.00000000E+00
  0.00000000E+00  0.00000000E+00  1.00000000E+00  0.00000000E+00  0.00000000E+00
  0.00000000E+00  0.00000000E+00  1.00000000E+00  0.00000000E+00  0.00000000E+00
  0.00000000E+00  0.00000000E+00  1.00000000E+00  0.00000000E+00  0.00000000E+00
  0.00000000E+00  0.00000000E+00  1.00000000E+00  0.00000000E+00  0.00000000E+00
  0.00000000E+00  0.00000000E+00  1.00000000E+00  0.00000000E+00  0.00000000E+00
  0.00000000E+00  0.00000000E+00  1.00000000E+00  0.00000000E+00  0.00000000E+00
  0.00000000E+00  0.00000000E+00  0.00000000E+00  1.00000000E+00  1.00000000E+00
  0.00000000E+00  1.00000000E+00  0.00000000E+00  0.00000000E+00  0.00000000E+00
  0.00000000E+00  0.00000000E+00  0.00000000E+00  0.00000000E+00  0.00000000E+00
  0.00000000E+00  0.00000000E+00
MxBond                                     I                2
NBond                                      I   N=           5
           1           2           2           2           1
IBond                                      I   N=          10
           2           0           1           3           2           4
           3           5           4           0
RBond                                      R   N=          10
  1.00000000E+00  0.00000000E+00  1.00000000E+00  1.00000000E+00  1.00000000E+00
  1.00000000E+00  1.00000000E+00  2.00000000E+00  2.00000000E+00  0.00000000E+00
Virial Ratio                               R      2.002354783219318E+00
SCF Energy                                 R     -2.795049272773450E+02
MP2 Energy                                 R     -2.804550488492517E+02
Total Energy                               R     -2.804550488492517E+02
Post-SCF wavefunction norm                 R      1.584796529726078E+00
RMS Force                                  R      3.109852054590541E-03
RMS Density                                R      4.828591686454433E-09
NImag                                      I                0
Job Status                                 I                1
Nuclear derivative order                   I                2
External E-field                           R   N=          35
  0.00000000E+00  0.00000000E+00  0.00000000E+00  0.00000000E+00  0.00000000E+00
  0.00000000E+00  0.00000000E+00  0.00000000E+00  0.00000000E+00  0.00000000E+00
  0.00000000E+00  0.00000000E+00  0.00000000E+00  0.00000000E+00  0.00000000E+00
  0.00000000E+00  0.00000000E+00  0.00000000E+00  0.00000000E+00  0.00000000E+00
  0.00000000E+00  0.00000000E+00  0.00000000E+00  0.00000000E+00  0.00000000E+00
  0.00000000E+00  0.00000000E+00  0.00000000E+00  0.00000000E+00  0.00000000E+00
  0.00000000E+00  0.00000000E+00  0.00000000E+00  0.00000000E+00  0.00000000E+00
IOpCl                                      I                0
IROHF                                      I                0
Alpha Orbital Energies                     R   N=         207
 -2.07196841E+01 -2.06869318E+01 -2.06702879E+01 -1.58262844E+01 -1.64111915E+00
 -1.49810243E+00 -1.29644407E+00 -9.59250210E-01 -8.30924663E-01 -7.57470649E-01
 -7.37124975E-01 -6.40364116E-01 -6.16264082E-01 -6.13774598E-01 -5.03931942E-01
 -5.00982465E-01  3.48108945E-02  6.03668203E-02  9.50558914E-02  1.00083713E-01
  1.19879250E-01  1.22098882E-01  1.47800465E-01  1.50738191E-01  1.77583601E-01
  1.80642812E-01  1.89907327E-01  2.10878862E-01  2.16495799E-01  2.32833977E-01
  2.46325980E-01  2.69319659E-01  3.11333594E-01  3.16247936E-01  3.37517386E-01
  3.43236420E-01  3.45410260E-01  3.92930576E-01  4.48402487E-01  4.87257965E-01
  5.04707304E-01  5.18210800E-01  5.45816244E-01  5.61133685E-01  5.99033552E-01
  6.19649455E-01  6.38345086E-01  6.88948261E-01  7.17202361E-01  7.24780066E-01
  7.41034014E-01  7.62755746E-01  7.65143162E-01  7.97074653E-01  8.06214082E-01
  8.41019088E-01  8.42843136E-01  8.51963167E-01  8.84555107E-01  9.05809700E-01
  9.28008156E-01  9.47324695E-01  9.55185647E-01  1.01746204E+00  1.03027601E+00
  1.05928296E+00  1.06597780E+00  1.09274856E+00  1.14235370E+00  1.15501022E+00
  1.16968255E+00  1.22125242E+00  1.22711378E+00  1.24484702E+00  1.34975309E+00
  1.36301953E+00  1.37119791E+00  1.46946391E+00  1.48640528E+00  1.50544860E+00
  1.54107575E+00  1.59500376E+00  1.59686957E+00  1.60527109E+00  1.62705155E+00
  1.69468272E+00  1.73781324E+00  1.80083451E+00  1.82969352E+00  1.88801302E+00
  1.88899746E+00  1.92786392E+00  1.97585694E+00  1.98909611E+00  2.05146038E+00
  2.12223027E+00  2.12930797E+00  2.16275909E+00  2.18691647E+00  2.24367706E+00
  2.25060935E+00  2.29099216E+00  2.34758132E+00  2.36465634E+00  2.38574852E+00
  2.40280787E+00  2.42315165E+00  2.46748763E+00  2.47550667E+00  2.52880186E+00
  2.53696049E+00  2.54578747E+00  2.55746186E+00  2.61417603E+00  2.62376581E+00
  2.66674442E+00  2.66850222E+00  2.74464007E+00  2.80385234E+00  2.81494458E+00
  2.83518195E+00  2.91291191E+00  2.98360495E+00  3.04068785E+00  3.04571324E+00
  3.11207843E+00  3.11376455E+00  3.16595608E+00  3.19942885E+00  3.30109886E+00
  3.32581572E+00  3.36194697E+00  3.45792958E+00  3.67858335E+00  3.86695869E+00
  3.92271651E+00  4.17845344E+00  4.21698785E+00  4.22188803E+00  4.26356695E+00
  4.36723288E+00  4.47957992E+00  4.51654775E+00  4.55159523E+00  4.59415951E+00
  4.69646803E+00  4.80590466E+00  4.89631452E+00  4.91242488E+00  4.93778808E+00
  4.99992499E+00  5.00602342E+00  5.10619787E+00  5.12899719E+00  5.18008536E+00
  5.24973499E+00  5.25841169E+00  5.31513982E+00  5.33243319E+00  5.35351853E+00
  5.54992934E+00  5.64454488E+00  5.70080544E+00  5.85397960E+00  5.99082802E+00
  6.29166340E+00  6.30097347E+00  6.34719160E+00  6.38691017E+00  6.60385637E+00
  6.65630793E+00  6.67368898E+00  6.69054671E+00  6.72896568E+00  6.79806971E+00
  6.79826045E+00  6.85570484E+00  6.96546823E+00  7.00548589E+00  7.04999825E+00
  7.06919968E+00  7.12959748E+00  7.16316537E+00  7.16536270E+00  7.18868645E+00
  7.23123514E+00  7.24163373E+00  7.26800383E+00  7.34269675E+00  7.38117482E+00
  7.41269539E+00  7.44183506E+00  7.45154799E+00  7.55671011E+00  7.64844925E+00
  7.65465925E+00  7.77780448E+00  7.86014368E+00  7.94258967E+00  8.04786496E+00
  8.27115936E+00  8.48710656E+00  8.63190443E+00  1.35408513E+01  1.47298803E+01
  1.50830203E+01  1.57364132E+01
Alpha MO coefficients                      R   N=       42849
  6.33918661E-05 -2.52685089E-05 -1.09929872E-03  6.67784248E-06 -5.73487752E-05
  4.61719086E-05  0.00000000E+00 -1.22265533E-04 -2.99747523E-04  0.00000000E+00
 -3.48978115E-05 -3.68774870E-04  0.00000000E+00  4.29150238E-05  0.00000000E+00
  0.00000000E+00 -2.44702520E-05  1.72577376E-06  2.24454655E-04  0.00000000E+00
  0.00000000E+00 -3.25458014E-05 -2.00589729E-04  3.00861123E-03 -1.33422741E-04
 -8.19802387E-05  3.28870762E-03  2.36392819E-03  9.50382898E-05 -5.06348612E-05
  0.00000000E+00 -6.35533712E-04  2.37052795E-04  0.00000000E+00 -1.81517877E-03
  1.06099300E-03  0.00000000E+00 -5.05731539E-04  2.50263149E-05  0.00000000E+00
  2.63239447E-05  0.00000000E+00  0.00000000E+00 -1.46248827E-05  5.45093710E-05
 -4.21092478E-04  0.00000000E+00  0.00000000E+00  3.85139983E-04 -6.48111392E-04
 -3.47724825E-04  0.00000000E+00  0.00000000E+00  5.07707558E-04 -7.44385900E-04
  0.00000000E+00  6.99156741E-05 -5.03229197E-05  0.00000000E+00  0.00000000E+00
 -2.43681353E-05  1.03274348E-04  0.00000000E+00  2.04882519E-04 -5.77518358E-05
  0.00000000E+00  0.00000000E+00 -1.66753690E-04  3.17052513E-04  9.76917890E-01
 -9.17119265E-03  4.33726162E-02  7.69734932E-04 -2.10280426E-03  3.84487189E-04
 -2.12880561E-03  0.00000000E+00 -2.27164460E-04  2.22706702E-03  0.00000000E+00
 -2.17294927E-03 -5.28873264E-04  0.00000000E+00 -1.93798646E-04  9.34005941E-05
  0.00000000E+00  1.23887681E-05  0.00000000E+00  0.00000000E+00 -1.05472241E-05
  4.47860542E-05  8.02715802E-04  0.00000000E+00  0.00000000E+00 -4.41990890E-04
 -1.99957068E-04 -1.58122492E-04  0.00000000E+00  0.00000000E+00 -5.21361782E-04
  3.35529581E-04  0.00000000E+00 -1.08805642E-05 -7.81501546E-05  0.00000000E+00
  0.00000000E+00 -6.43073395E-06  4.46560438E-05  0.00000000E+00  8.29183641E-05
  4.91134456E-06  0.00000000E+00  0.00000000E+00 -3.28851806E-04  3.67211345E-04
  1.04431382E-04  4.56881373E-04 -3.26148857E-04 -8.23914324E-04  3.95089021E-04
 -4.62779259E-05 -1.00198625E-04  0.00000000E+00  7.07999073E-04  1.10537552E-03
  0.00000000E+00 -7.59789324E-04 -6.36513071E-04  0.00000000E+00  2.05888249E-04
  2.18251867E-04  0.00000000E+00 -5.26890415E-05  0.00000000E+00  0.00000000E+00
  2.01208874E-05  9.23516407E-05 -4.18302960E-04  0.00000000E+00  0.00000000E+00
  6.30632049E-05  1.08802855E-03  2.66743964E-05  0.00000000E+00  0.00000000E+00
 -3.13300007E-04  4.27297505E-05  0.00000000E+00 -8.07610760E-05 -1.13667839E-04
  0.00000000E+00  0.00000000E+00 -9.36066220E-05  1.09706188E-04  0.00000000E+00
 -1.24324091E-04  4.51760102E-05  0.00000000E+00  0.00000000E+00  2.90726634E-05
  5.26044986E-04 -7.02480672E-04  5.36070160E-05 -7.00706339E-05  2.03816679E-04
 -2.18133740E-04 -2.92511690E-05 -4.13228404E-05  0.00000000E+00  1.71184766E-04
  2.55903921E-04  0.00000000E+00  5.16113564E-04  3.18383050E-04  0.00000000E+00
 -2.29650444E-04 -7.00875368E-05  0.00000000E+00 -1.32988453E-05  0.00000000E+00
  0.00000000E+00  3.78419821E-06  1.54178953E-05 -8.16439971E-07  0.00000000E+00
  0.00000000E+00 -1.67017824E-04  1.17131208E-05 -1.80188722E-05  0.00000000E+00
  0.00000000E+00 -1.75912253E-04 -4.26654891E-05  0.00000000E+00 -6.14770990E-06
 -9.11802572E-06  0.00000000E+00  0.00000000E+00 -2.18744393E-05  9.80174119E-06
  0.00000000E+00  4.16776623E-05  6.17799375E-05  0.00000000E+00  0.00000000E+00
  1.55934023E-04 -1.08356651E-04  4.12210086E-05  5.60412915E-05 -1.27312775E-04
 -2.86117439E-05  1.50380011E-05  9.25417360E-06  0.00000000E+00  2.39032894E-04
  5.47565859E-05  0.00000000E+00  1.33120481E-04  2.30384524E-05  0.00000000E+00
  1.51320553E-05  0.00000000E+00  0.00000000E+00 -1.35555407E-05  1.53253497E-05
  2.48374189E-05  0.00000000E+00  0.00000000E+00 -9.57765699E-05  6.26412128E-05
 -2.91771536E-04  2.80301193E-05 -1.68682656E-05 -5.14547327E-04  1.63755867E-04
  7.34222121E-06  1.35052746E-05  0.00000000E+00 -2.62780202E-06 -3.94856011E-05
  0.00000000E+00  1.65560130E-04  1.15540593E-04  0.00000000E+00 -4.99011392E-05
  4.98648848E-05  0.00000000E+00 -1.23510435E-06  0.00000000E+00  0.00000000E+00
 -8.42647326E-06 -1.18869338E-05  1.92869476E-05  0.00000000E+00  0.00000000E+00
  4.88996892E-05  1.05453574E-04  5.90827441E-05  0.00000000E+00  0.00000000E+00
 -2.44562495E-05 -6.90706309E-05  0.00000000E+00  7.73904808E-06  1.01260518E-05
  0.00000000E+00  0.00000000E+00 -1.09649667E-06 -2.34419709E-05  0.00000000E+00
 -1.46773098E-05 -3.32384285E-05  0.00000000E+00  0.00000000E+00 -3.90353237E-06
 -2.04760349E-05  7.32211933E-04  2.46988779E-05 -1.80615873E-05  2.71254356E-04
 -3.90667572E-04  1.69039115E-05  2.70177986E-05  0.00000000E+00 -6.77665146E-05
 -1.51729771E-04  0.00000000E+00  1.37468018E-04 -1.79445787E-04  0.00000000E+00
 -1.57442570E-04  1.42813144E-04  0.00000000E+00 -4.21495619E-06  0.00000000E+00
  0.00000000E+00 -2.91720108E-05 -9.09507122E-06 -4.93720624E-05  0.00000000E+00
  0.00000000E+00  7.82548450E-05  1.19170612E-04 -6.23950686E-05  0.00000000E+00
  0.00000000E+00  5.11289995E-05  3.25662710E-05  0.00000000E+00  3.16712432E-06
  3.43803938E-06  0.00000000E+00  0.00000000E+00 -8.32946899E-06 -1.94602191E-06
  0.00000000E+00  4.10177229E-06 -2.57496734E-05  0.00000000E+00  0.00000000E+00
  8.99827356E-05 -1.55204725E-04  2.37493622E-04  1.35969894E-03 -1.48111586E-04
 -6.85974713E-04  8.96547507E-04  6.25981427E-05 -7.16170330E-05  0.00000000E+00
  5.61928312E-04 -2.08218804E-03  0.00000000E+00  1.22136858E-04  4.84261724E-04
  0.00000000E+00  1.82469236E-04 -3.08304247E-04  0.00000000E+00 -1.27894504E-04
  0.00000000E+00  0.00000000E+00 -2.05508743E-04 -1.56119714E-04 -4.60720721E-04
  0.00000000E+00  0.00000000E+00 -6.13734205E-04 -9.07919816E-04 -4.20228209E-05
  0.00000000E+00  0.00000000E+00  6.40516919E-05  1.12841190E-04  0.00000000E+00
  8.56466780E-06  3.65135893E-05  0.00000000E+00  0.00000000E+00 -2.43326479E-05
 -3.65161474E-06  0.00000000E+00 -1.33287235E-04  1.59937223E-04  0.00000000E+00
  0.00000000E+00 -3.15377602E-04 -2.34310295E-05  9.76646360E-01 -9.88612670E-03
  4.35748379E-02  3.68099858E-03 -8.88947138E-04 -4.41258537E-04  2.13118320E-03
  0.00000000E+00  5.02472523E-04 -2.50513430E-03  0.00000000E+00 -6.55088838E-05
  8.11458824E-04  0.00000000E+00  1.04883570E-04 -6.46379902E-05  0.00000000E+00
 -1.94462056E-04  0.00000000E+00  0.00000000E+00 -7.44280458E-05 -4.22599225E-05
  4.08347789E-04  0.00000000E+00  0.00000000E+00  8.62146903E-04  4.74818658E-04
 -2.07172035E-04  0.00000000E+00  0.00000000E+00 -1.37974040E-04 -3.90732459E-05
  0.00000000E+00 -4.29650992E-06  7.02927804E-05  0.00000000E+00  0.00000000E+00
 -2.95662313E-05  1.08998870E-05  0.00000000E+00 -8.85635858E-05  9.22702186E-05
  0.00000000E+00  0.00000000E+00 -1.60162812E-04  2.06608992E-04  3.80848814E-04
  2.03376875E-03  1.31783842E-03 -1.07456285E-05  5.30520019E-05  2.77084320E-04
  0.00000000E+00  3.83020260E-04  1.05596650E-03  0.00000000E+00 -9.71344121E-05
  2.48792388E-04  0.00000000E+00 -2.56021704E-05  0.00000000E+00  0.00000000E+00
  2.46271614E-05 -2.84061413E-05 -2.14539481E-04  0.00000000E+00  0.00000000E+00
 -3.50380791E-04  3.96169229E-04  9.76851274E-01 -9.18602824E-03  4.34262780E-02
  3.23330689E-04 -1.75684205E-03 -2.00329412E-03 -8.54142568E-04  0.00000000E+00
  2.01616581E-03  8.12857841E-04  0.00000000E+00 -5.22928109E-04  6.84037666E-04
  0.00000000E+00  1.93980365E-04 -2.78184647E-04  0.00000000E+00  3.71006020E-05
  0.00000000E+00  0.00000000E+00 -8.20520922E-05  6.96055514E-05  7.43992912E-04
  0.00000000E+00  0.00000000E+00 -1.57583998E-04  3.17053189E-04 -2.54573226E-04
  0.00000000E+00  0.00000000E+00  3.68168735E-04 -2.14554749E-05  0.00000000E+00
 -7.71221531E-05 -1.94125361E-06  0.00000000E+00  0.00000000E+00  1.20934188E-05