 Entering Gaussian System, Link 0=g16
 Input=hoono_r4_1p166765.gjf
 Output=hoono_r4_1p166765.log
 Initial command:
 /sw/contrib/gaussian/g16/B01/g16/l1.exe "/scr/Gau-21820.inp" -scrdir="/scr/"
 Entering Link 1 = /sw/contrib/gaussian/g16/B01/g16/l1.exe PID=     21821.
  
 Copyright (c) 1988-2017, Gaussian, Inc.  All Rights Reserved.
  
 This is part of the Gaussian(R) 16 program.  It is based on
 the Gaussian(R) 09 system (copyright 2009, Gaussian, Inc.),
 the Gaussian(R) 03 system (copyright 2003, Gaussian, Inc.),
 the Gaussian(R) 98 system (copyright 1998, Gaussian, Inc.),
 the Gaussian(R) 94 system (copyright 1995, Gaussian, Inc.),
 the Gaussian 92(TM) system (copyright 1992, Gaussian, Inc.),
 the Gaussian 90(TM) system (copyright 1990, Gaussian, Inc.),
 the Gaussian 88(TM) system (copyright 1988, Gaussian, Inc.),
 the Gaussian 86(TM) system (copyright 1986, Carnegie Mellon
 University), and the Gaussian 82(TM) system (copyright 1983,
 Carnegie Mellon University). Gaussian is a federally registered
 trademark of Gaussian, Inc.
  
 This software contains proprietary and confidential information,
 including trade secrets, belonging to Gaussian, Inc.
  
 This software is provided under written license and may be
 used, copied, transmitted, or stored only in accord with that
 written license.
  
 The following legend is applicable only to US Government
 contracts under FAR:
  
                    RESTRICTED RIGHTS LEGEND
  
 Use, reproduction and disclosure by the US Government is
 subject to restrictions as set forth in subparagraphs (a)
 and (c) of the Commercial Computer Software - Restricted
 Rights clause in FAR 52.227-19.
  
 Gaussian, Inc.
 340 Quinnipiac St., Bldg. 40, Wallingford CT 06492
  
  
 ---------------------------------------------------------------
 Warning -- This program may not be used in any manner that
 competes with the business of Gaussian, Inc. or will provide
 assistance to any competitor of Gaussian, Inc.  The licensee
 of this program is prohibited from giving any competitor of
 Gaussian, Inc. access to this program.  By using this program,
 the user acknowledges that Gaussian, Inc. is engaged in the
 business of creating and licensing software in the field of
 computational chemistry and represents and warrants to the
 licensee that it is not a competitor of Gaussian, Inc. and that
 it will not use this program in any manner prohibited above.
 ---------------------------------------------------------------
  

 Cite this work as:
 Gaussian 16, Revision B.01,
 M. J. Frisch, G. W. Trucks, H. B. Schlegel, G. E. Scuseria, 
 M. A. Robb, J. R. Cheeseman, G. Scalmani, V. Barone, 
 G. A. Petersson, H. Nakatsuji, X. Li, M. Caricato, A. V. Marenich, 
 J. Bloino, B. G. Janesko, R. Gomperts, B. Mennucci, H. P. Hratchian, 
 J. V. Ortiz, A. F. Izmaylov, J. L. Sonnenberg, D. Williams-Young, 
 F. Ding, F. Lipparini, F. Egidi, J. Goings, B. Peng, A. Petrone, 
 T. Henderson, D. Ranasinghe, V. G. Zakrzewski, J. Gao, N. Rega, 
 G. Zheng, W. Liang, M. Hada, M. Ehara, K. Toyota, R. Fukuda, 
 J. Hasegawa, M. Ishida, T. Nakajima, Y. Honda, O. Kitao, H. Nakai, 
 T. Vreven, K. Throssell, J. A. Montgomery, Jr., J. E. Peralta, 
 F. Ogliaro, M. J. Bearpark, J. J. Heyd, E. N. Brothers, K. N. Kudin, 
 V. N. Staroverov, T. A. Keith, R. Kobayashi, J. Normand, 
 K. Raghavachari, A. P. Rendell, J. C. Burant, S. S. Iyengar, 
 J. Tomasi, M. Cossi, J. M. Millam, M. Klene, C. Adamo, R. Cammi, 
 J. W. Ochterski, R. L. Martin, K. Morokuma, O. Farkas, 
 J. B. Foresman, and D. J. Fox, Gaussian, Inc., Wallingford CT, 2016.
 
 ******************************************
 Gaussian 16:  ES64L-G16RevB.01 20-Dec-2017
                21-Feb-2022 
 ******************************************
 %nproc=28
 Will use up to   28 processors via shared memory.
 %mem=120GB
 %chk=hoono_r4_1p166765.chk
 ---------------------------------------
 #p freq mp2/aug-cc-pvtz density=current
 ---------------------------------------
 1/10=4,30=1,38=1/1,3;
 2/12=2,17=6,18=5,40=1/2;
 3/5=16,6=1,7=10,11=9,25=1,30=1,71=2,140=1/1,2,3;
 4//1;
 5/5=2,38=5,98=1/2;
 8/6=3,8=1,10=1,19=11,30=-1/1;
 9/15=3,16=-3/6;
 11/6=1,8=1,15=11,17=12,24=-1,27=1,28=-2,29=300,32=6,42=3/1,2,10;
 10/6=2,21=1/2;
 8/6=4,8=1,10=1,19=11,30=-1/11,4;
 10/5=1,20=4/2;
 11/12=2,14=11,16=1,17=2,28=-2,42=3,76=2/2,10,12;
 6/7=2,8=2,9=2,10=2,22=-1/1;
 7/8=1,10=1,12=2,25=1,44=2/1,2,3,16;
 1/10=4,30=1/3;
 99//99;
 Leave Link    1 at Mon Feb 21 20:28:21 2022, MaxMem= 16106127360 cpu:               2.5 elap:               0.1
 (Enter /sw/contrib/gaussian/g16/B01/g16/l101.exe)
 -----
 title
 -----
 Symbolic Z-matrix:
 Charge =  0 Multiplicity = 1
 H
 O                    1    r1
 O                    2    r2       1    a1
 N                    3    r3       2    a2       1    d1       0
 O                    4    r4       3    a3       2    d2       0
       Variables:
  r1                    0.96898                  
  r2                    1.45492                  
  r3                    1.45878                  
  r4                    1.16677                  
  a1                   97.59495                  
  a2                  102.29752                  
  a3                  109.06955                  
  d1                  180.                       
  d2                  180.                       
 
 ITRead=  0  0  0  0  0
 MicOpt= -1 -1 -1 -1 -1
 NAtoms=      5 NQM=        5 NQMF=       0 NMMI=      0 NMMIF=      0
                NMic=       0 NMicF=      0.
                    Isotopes and Nuclear Properties:
 (Nuclear quadrupole moments (NQMom) in fm**2, nuclear magnetic moments (NMagM)
  in nuclear magnetons)

  Atom         1           2           3           4           5
 IAtWgt=           1          16          16          14          16
 AtmWgt=   1.0078250  15.9949146  15.9949146  14.0030740  15.9949146
 NucSpn=           1           0           0           2           0
 AtZEff=  -0.0000000  -0.0000000  -0.0000000  -0.0000000  -0.0000000
 NQMom=    0.0000000   0.0000000   0.0000000   2.0440000   0.0000000
 NMagM=    2.7928460   0.0000000   0.0000000   0.4037610   0.0000000
 AtZNuc=   1.0000000   8.0000000   8.0000000   7.0000000   8.0000000
 Leave Link  101 at Mon Feb 21 20:28:22 2022, MaxMem= 16106127360 cpu:               3.2 elap:               0.2
 (Enter /sw/contrib/gaussian/g16/B01/g16/l103.exe)

 GradGradGradGradGradGradGradGradGradGradGradGradGradGradGradGradGradGrad
 Berny optimization.
 Initialization pass.
                       ----------------------------
                       !    Initial Parameters    !
                       ! (Angstroms and Degrees)  !
 ----------------------                            ----------------------
 !      Name          Value   Derivative information (Atomic Units)     !
 ------------------------------------------------------------------------
 !       r1          0.969    calculate D2E/DX2 analytically            !
 !       r2          1.4549   calculate D2E/DX2 analytically            !
 !       r3          1.4588   calculate D2E/DX2 analytically            !
 !       r4          1.1668   calculate D2E/DX2 analytically            !
 !       a1         97.5949   calculate D2E/DX2 analytically            !
 !       a2        102.2975   calculate D2E/DX2 analytically            !
 !       a3        109.0696   calculate D2E/DX2 analytically            !
 !       d1        180.0      calculate D2E/DX2 analytically            !
 !       d2        180.0      calculate D2E/DX2 analytically            !
 ------------------------------------------------------------------------
 Trust Radius=3.00D-01 FncErr=1.00D-07 GrdErr=1.00D-07 EigMax=2.50D+02 EigMin=1.00D-04
 Number of steps in this run=      2 maximum allowed number of steps=      2.
 GradGradGradGradGradGradGradGradGradGradGradGradGradGradGradGradGradGrad

 Leave Link  103 at Mon Feb 21 20:28:22 2022, MaxMem= 16106127360 cpu:               0.5 elap:               0.0
 (Enter /sw/contrib/gaussian/g16/B01/g16/l202.exe)
                          Input orientation:                          
 ---------------------------------------------------------------------
 Center     Atomic      Atomic             Coordinates (Angstroms)
 Number     Number       Type             X           Y           Z
 ---------------------------------------------------------------------
      1          1           0        0.000000    0.000000    0.000000
      2          8           0        0.000000    0.000000    0.968976
      3          8           0        1.442156    0.000000    1.161271
      4          7           0        1.561752    0.000000    2.615144
      5          8           0        2.692028    0.000000    2.904655
 ---------------------------------------------------------------------
                    Distance matrix (angstroms):
                    1          2          3          4          5
     1  H    0.000000
     2  O    0.968976   0.000000
     3  O    1.851584   1.454919   0.000000
     4  N    3.045989   2.269127   1.458784   0.000000
     5  O    3.960308   3.315700   2.145127   1.166765   0.000000
 Stoichiometry    HNO3
 Framework group  CS[SG(HNO3)]
 Deg. of freedom     7
 Full point group                 CS      NOp   2
 Largest Abelian subgroup         CS      NOp   2
 Largest concise Abelian subgroup C1      NOp   1
                         Standard orientation:                         
 ---------------------------------------------------------------------
 Center     Atomic      Atomic             Coordinates (Angstroms)
 Number     Number       Type             X           Y           Z
 ---------------------------------------------------------------------
      1          1           0        1.550586    1.684810   -0.000000
      2          8           0        1.454134    0.720647   -0.000000
      3          8           0        0.000000    0.672859   -0.000000
      4          7           0       -0.263721   -0.761889    0.000000
      5          8           0       -1.417202   -0.937454    0.000000
 ---------------------------------------------------------------------
 Rotational constants (GHZ):          54.9817685           5.0204725           4.6004024
 Leave Link  202 at Mon Feb 21 20:28:22 2022, MaxMem= 16106127360 cpu:               1.1 elap:               0.1
 (Enter /sw/contrib/gaussian/g16/B01/g16/l301.exe)
 Standard basis: Aug-CC-pVTZ (5D, 7F)
 Ernie: Thresh=  0.10000D-02 Tol=  0.10000D-05 Strict=F.
 Ernie:  12 primitive shells out of 131 were deleted.
 There are   166 symmetry adapted cartesian basis functions of A'  symmetry.
 There are    79 symmetry adapted cartesian basis functions of A"  symmetry.
 There are   136 symmetry adapted basis functions of A'  symmetry.
 There are    71 symmetry adapted basis functions of A"  symmetry.
   207 basis functions,   315 primitive gaussians,   245 cartesian basis functions
    16 alpha electrons       16 beta electrons
       nuclear repulsion energy       116.9925923903 Hartrees.
 IExCor=    0 DFT=F Ex=HF Corr=None ExCW=0 ScaHFX=  1.000000
 ScaDFX=  1.000000  1.000000  1.000000  1.000000 ScalE2=  1.000000  1.000000
 IRadAn=      5 IRanWt=     -1 IRanGd=            0 ICorTp=0 IEmpDi=  4
 NAtoms=    5 NActive=    5 NUniq=    5 SFac= 1.00D+00 NAtFMM=   60 NAOKFM=F Big=F
 Integral buffers will be    131072 words long.
 Raffenetti 1 integral format.
 Two-electron integral symmetry is turned on.
 Leave Link  301 at Mon Feb 21 20:28:22 2022, MaxMem= 16106127360 cpu:               1.6 elap:               0.1
 (Enter /sw/contrib/gaussian/g16/B01/g16/l302.exe)
 NPDir=0 NMtPBC=     1 NCelOv=     1 NCel=       1 NClECP=     1 NCelD=      1
         NCelK=      1 NCelE2=     1 NClLst=     1 CellRange=     0.0.
 One-electron integrals computed using PRISM.
 One-electron integral symmetry used in STVInt
 NBasis=   207 RedAO= T EigKep=  1.81D-04  NBF=   136    71
 NBsUse=   207 1.00D-06 EigRej= -1.00D+00 NBFU=   136    71
 Leave Link  302 at Mon Feb 21 20:28:22 2022, MaxMem= 16106127360 cpu:               4.6 elap:               0.2
 (Enter /sw/contrib/gaussian/g16/B01/g16/l303.exe)
 DipDrv:  MaxL=1.
 Leave Link  303 at Mon Feb 21 20:28:22 2022, MaxMem= 16106127360 cpu:               0.8 elap:               0.1
 (Enter /sw/contrib/gaussian/g16/B01/g16/l401.exe)
 ExpMin= 2.53D-02 ExpMax= 1.53D+04 ExpMxC= 5.22D+02 IAcc=3 IRadAn=         5 AccDes= 0.00D+00
 Harris functional with IExCor=  205 and IRadAn=       5 diagonalized for initial guess.
 HarFok:  IExCor=  205 AccDes= 0.00D+00 IRadAn=         5 IDoV= 1 UseB2=F ITyADJ=14
 ICtDFT=  3500011 ScaDFX=  1.000000  1.000000  1.000000  1.000000
 FoFCou: FMM=F IPFlag=           0 FMFlag=      100000 FMFlg1=           0
         NFxFlg=           0 DoJE=T BraDBF=F KetDBF=T FulRan=T
         wScrn=  0.000000 ICntrl=       500 IOpCl=  0 I1Cent=   200000004 NGrid=           0
         NMat0=    1 NMatS0=      1 NMatT0=    0 NMatD0=    1 NMtDS0=    0 NMtDT0=    0
 Petite list used in FoFCou.
 Harris En= -279.628625301549    
 JPrj=0 DoOrth=F DoCkMO=F.
 Initial guess orbital symmetries:
       Occupied  (A') (A') (A') (A') (A') (A') (A') (A') (A') (A')
                 (A") (A') (A') (A") (A") (A')
       Virtual   (A") (A') (A') (A') (A') (A') (A") (A') (A') (A')
                 (A") (A') (A") (A') (A') (A") (A') (A") (A') (A')
                 (A') (A') (A') (A') (A') (A") (A') (A") (A') (A')
                 (A") (A') (A") (A') (A') (A") (A') (A") (A') (A')
                 (A") (A') (A") (A') (A") (A') (A') (A') (A") (A")
                 (A') (A') (A') (A') (A") (A') (A") (A') (A") (A')
                 (A') (A') (A") (A') (A') (A") (A') (A") (A') (A')
                 (A") (A') (A') (A") (A") (A') (A') (A") (A') (A')
                 (A') (A") (A') (A") (A') (A") (A') (A") (A') (A')
                 (A') (A") (A') (A") (A') (A") (A") (A') (A') (A")
                 (A') (A') (A") (A') (A') (A') (A') (A") (A") (A')
                 (A") (A') (A') (A') (A") (A') (A') (A') (A") (A')
                 (A") (A') (A") (A') (A") (A') (A') (A") (A") (A')
                 (A') (A') (A') (A") (A") (A') (A") (A') (A') (A')
                 (A') (A") (A") (A') (A') (A") (A') (A') (A') (A')
                 (A") (A') (A') (A") (A') (A") (A') (A") (A') (A")
                 (A') (A") (A') (A") (A') (A") (A") (A") (A') (A')
                 (A") (A') (A") (A') (A") (A') (A") (A") (A') (A')
                 (A') (A') (A') (A') (A') (A') (A') (A') (A') (A')
                 (A')
 The electronic state of the initial guess is 1-A'.
 Leave Link  401 at Mon Feb 21 20:28:22 2022, MaxMem= 16106127360 cpu:               6.6 elap:               0.3
 (Enter /sw/contrib/gaussian/g16/B01/g16/l502.exe)
 Keep R1 ints in memory in symmetry-blocked form, NReq=348887737.
 FoFCou: FMM=F IPFlag=           0 FMFlag=           0 FMFlg1=           0
         NFxFlg=           0 DoJE=F BraDBF=F KetDBF=F FulRan=T
         wScrn=  0.000000 ICntrl=       600 IOpCl=  0 I1Cent=           0 NGrid=           0
         NMat0=    1 NMatS0=  21528 NMatT0=    0 NMatD0=    1 NMtDS0=    0 NMtDT0=    0
 Petite list used in FoFCou.
 Closed shell SCF:
 Using DIIS extrapolation, IDIIS=  1040.
 NGot= 16106127360 LenX= 15988850015 LenY= 15988789549
 Requested convergence on RMS density matrix=1.00D-08 within 128 cycles.
 Requested convergence on MAX density matrix=1.00D-06.
 Requested convergence on             energy=1.00D-06.
 No special actions if energy rises.

 Cycle   1  Pass 1  IDiag  1:
 E= -279.371915345750    
 DIIS: error= 2.68D-02 at cycle   1 NSaved=   1.
 NSaved= 1 IEnMin= 1 EnMin= -279.371915345750     IErMin= 1 ErrMin= 2.68D-02
 ErrMax= 2.68D-02  0.00D+00 EMaxC= 1.00D-01 BMatC= 4.38D-01 BMatP= 4.38D-01
 IDIUse=3 WtCom= 7.32D-01 WtEn= 2.68D-01
 Coeff-Com:  0.100D+01
 Coeff-En:   0.100D+01
 Coeff:      0.100D+01
 Gap=     0.514 Goal=   None    Shift=    0.000
 GapD=    0.514 DampG=2.000 DampE=0.500 DampFc=1.0000 IDamp=-1.
 RMSDP=1.62D-03 MaxDP=9.89D-02              OVMax= 1.11D-01

 Cycle   2  Pass 1  IDiag  1:
 E= -279.454203463963     Delta-E=       -0.082288118213 Rises=F Damp=F
 DIIS: error= 1.78D-02 at cycle   2 NSaved=   2.
 NSaved= 2 IEnMin= 2 EnMin= -279.454203463963     IErMin= 2 ErrMin= 1.78D-02
 ErrMax= 1.78D-02  0.00D+00 EMaxC= 1.00D-01 BMatC= 7.02D-02 BMatP= 4.38D-01
 IDIUse=3 WtCom= 8.22D-01 WtEn= 1.78D-01
 Coeff-Com:  0.192D+00 0.808D+00
 Coeff-En:   0.000D+00 0.100D+01
 Coeff:      0.158D+00 0.842D+00
 Gap=     0.528 Goal=   None    Shift=    0.000
 RMSDP=8.92D-04 MaxDP=3.70D-02 DE=-8.23D-02 OVMax= 6.87D-02

 Cycle   3  Pass 1  IDiag  1:
 E= -279.482617645445     Delta-E=       -0.028414181481 Rises=F Damp=F
 DIIS: error= 1.03D-02 at cycle   3 NSaved=   3.
 NSaved= 3 IEnMin= 3 EnMin= -279.482617645445     IErMin= 3 ErrMin= 1.03D-02
 ErrMax= 1.03D-02  0.00D+00 EMaxC= 1.00D-01 BMatC= 2.82D-02 BMatP= 7.02D-02
 IDIUse=3 WtCom= 8.97D-01 WtEn= 1.03D-01
 Coeff-Com: -0.329D-01 0.378D+00 0.654D+00
 Coeff-En:   0.000D+00 0.240D+00 0.760D+00
 Coeff:     -0.295D-01 0.364D+00 0.665D+00
 Gap=     0.509 Goal=   None    Shift=    0.000
 RMSDP=3.73D-04 MaxDP=1.52D-02 DE=-2.84D-02 OVMax= 3.75D-02

 Cycle   4  Pass 1  IDiag  1:
 E= -279.501279755378     Delta-E=       -0.018662109934 Rises=F Damp=F
 DIIS: error= 1.29D-03 at cycle   4 NSaved=   4.
 NSaved= 4 IEnMin= 4 EnMin= -279.501279755378     IErMin= 4 ErrMin= 1.29D-03
 ErrMax= 1.29D-03  0.00D+00 EMaxC= 1.00D-01 BMatC= 4.89D-04 BMatP= 2.82D-02
 IDIUse=3 WtCom= 9.87D-01 WtEn= 1.29D-02
 Coeff-Com: -0.117D-01 0.583D-01 0.160D+00 0.794D+00
 Coeff-En:   0.000D+00 0.000D+00 0.000D+00 0.100D+01
 Coeff:     -0.115D-01 0.575D-01 0.158D+00 0.796D+00
 Gap=     0.501 Goal=   None    Shift=    0.000
 RMSDP=8.96D-05 MaxDP=2.77D-03 DE=-1.87D-02 OVMax= 1.11D-02

 Cycle   5  Pass 1  IDiag  1:
 E= -279.501945638566     Delta-E=       -0.000665883188 Rises=F Damp=F
 DIIS: error= 7.33D-04 at cycle   5 NSaved=   5.
 NSaved= 5 IEnMin= 5 EnMin= -279.501945638566     IErMin= 5 ErrMin= 7.33D-04
 ErrMax= 7.33D-04  0.00D+00 EMaxC= 1.00D-01 BMatC= 8.61D-05 BMatP= 4.89D-04
 IDIUse=3 WtCom= 9.93D-01 WtEn= 7.33D-03
 Coeff-Com:  0.608D-02-0.723D-01-0.118D+00 0.209D-01 0.116D+01
 Coeff-En:   0.000D+00 0.000D+00 0.000D+00 0.000D+00 0.100D+01
 Coeff:      0.604D-02-0.717D-01-0.117D+00 0.208D-01 0.116D+01
 Gap=     0.501 Goal=   None    Shift=    0.000
 RMSDP=7.56D-05 MaxDP=2.08D-03 DE=-6.66D-04 OVMax= 1.10D-02

 Cycle   6  Pass 1  IDiag  1:
 E= -279.502255914181     Delta-E=       -0.000310275615 Rises=F Damp=F
 DIIS: error= 2.81D-04 at cycle   6 NSaved=   6.
 NSaved= 6 IEnMin= 6 EnMin= -279.502255914181     IErMin= 6 ErrMin= 2.81D-04
 ErrMax= 2.81D-04  0.00D+00 EMaxC= 1.00D-01 BMatC= 1.65D-05 BMatP= 8.61D-05
 IDIUse=3 WtCom= 9.97D-01 WtEn= 2.81D-03
 Coeff-Com:  0.667D-03 0.705D-03 0.283D-02-0.129D+00-0.219D+00 0.134D+01
 Coeff-En:   0.000D+00 0.000D+00 0.000D+00 0.000D+00 0.000D+00 0.100D+01
 Coeff:      0.665D-03 0.703D-03 0.282D-02-0.128D+00-0.218D+00 0.134D+01
 Gap=     0.502 Goal=   None    Shift=    0.000
 RMSDP=4.48D-05 MaxDP=1.23D-03 DE=-3.10D-04 OVMax= 5.46D-03

 Cycle   7  Pass 1  IDiag  1:
 E= -279.502327339348     Delta-E=       -0.000071425167 Rises=F Damp=F
 DIIS: error= 1.23D-04 at cycle   7 NSaved=   7.
 NSaved= 7 IEnMin= 7 EnMin= -279.502327339348     IErMin= 7 ErrMin= 1.23D-04
 ErrMax= 1.23D-04  0.00D+00 EMaxC= 1.00D-01 BMatC= 4.62D-06 BMatP= 1.65D-05
 IDIUse=3 WtCom= 9.99D-01 WtEn= 1.23D-03
 Coeff-Com: -0.928D-03 0.136D-01 0.265D-01-0.254D-01-0.291D+00 0.404D+00
 Coeff-Com:  0.873D+00
 Coeff-En:   0.000D+00 0.000D+00 0.000D+00 0.000D+00 0.000D+00 0.000D+00
 Coeff-En:   0.100D+01
 Coeff:     -0.927D-03 0.136D-01 0.265D-01-0.254D-01-0.291D+00 0.404D+00
 Coeff:      0.873D+00
 Gap=     0.502 Goal=   None    Shift=    0.000
 RMSDP=1.33D-05 MaxDP=3.78D-04 DE=-7.14D-05 OVMax= 1.54D-03

 Cycle   8  Pass 1  IDiag  1:
 E= -279.502336310467     Delta-E=       -0.000008971120 Rises=F Damp=F
 DIIS: error= 5.59D-05 at cycle   8 NSaved=   8.
 NSaved= 8 IEnMin= 8 EnMin= -279.502336310467     IErMin= 8 ErrMin= 5.59D-05
 ErrMax= 5.59D-05  0.00D+00 EMaxC= 1.00D-01 BMatC= 5.91D-07 BMatP= 4.62D-06
 IDIUse=1 WtCom= 1.00D+00 WtEn= 0.00D+00
 Coeff-Com: -0.450D-03 0.352D-02 0.772D-02 0.272D-01-0.423D-01-0.193D+00
 Coeff-Com:  0.154D+00 0.104D+01
 Coeff:     -0.450D-03 0.352D-02 0.772D-02 0.272D-01-0.423D-01-0.193D+00
 Coeff:      0.154D+00 0.104D+01
 Gap=     0.501 Goal=   None    Shift=    0.000
 RMSDP=6.92D-06 MaxDP=2.02D-04 DE=-8.97D-06 OVMax= 7.50D-04

 Cycle   9  Pass 1  IDiag  1:
 E= -279.502338066086     Delta-E=       -0.000001755619 Rises=F Damp=F
 DIIS: error= 1.53D-05 at cycle   9 NSaved=   9.
 NSaved= 9 IEnMin= 9 EnMin= -279.502338066086     IErMin= 9 ErrMin= 1.53D-05
 ErrMax= 1.53D-05  0.00D+00 EMaxC= 1.00D-01 BMatC= 6.58D-08 BMatP= 5.91D-07
 IDIUse=1 WtCom= 1.00D+00 WtEn= 0.00D+00
 Coeff-Com:  0.118D-03-0.169D-02-0.301D-02-0.182D-02 0.336D-01-0.135D-02
 Coeff-Com: -0.159D+00-0.104D+00 0.124D+01
 Coeff:      0.118D-03-0.169D-02-0.301D-02-0.182D-02 0.336D-01-0.135D-02
 Coeff:     -0.159D+00-0.104D+00 0.124D+01
 Gap=     0.501 Goal=   None    Shift=    0.000
 RMSDP=1.89D-06 MaxDP=6.40D-05 DE=-1.76D-06 OVMax= 1.68D-04

 Cycle  10  Pass 1  IDiag  1:
 E= -279.502338217388     Delta-E=       -0.000000151302 Rises=F Damp=F
 DIIS: error= 4.04D-06 at cycle  10 NSaved=  10.
 NSaved=10 IEnMin=10 EnMin= -279.502338217388     IErMin=10 ErrMin= 4.04D-06
 ErrMax= 4.04D-06  0.00D+00 EMaxC= 1.00D-01 BMatC= 5.25D-09 BMatP= 6.58D-08
 IDIUse=1 WtCom= 1.00D+00 WtEn= 0.00D+00
 Coeff-Com:  0.323D-04-0.263D-03-0.367D-03-0.267D-02 0.204D-02 0.193D-01
 Coeff-Com: -0.133D-01-0.768D-01-0.678D-01 0.114D+01
 Coeff:      0.323D-04-0.263D-03-0.367D-03-0.267D-02 0.204D-02 0.193D-01
 Coeff:     -0.133D-01-0.768D-01-0.678D-01 0.114D+01
 Gap=     0.501 Goal=   None    Shift=    0.000
 RMSDP=4.90D-07 MaxDP=2.03D-05 DE=-1.51D-07 OVMax= 3.93D-05

 Cycle  11  Pass 1  IDiag  1:
 E= -279.502338229031     Delta-E=       -0.000000011643 Rises=F Damp=F
 DIIS: error= 1.94D-06 at cycle  11 NSaved=  11.
 NSaved=11 IEnMin=11 EnMin= -279.502338229031     IErMin=11 ErrMin= 1.94D-06
 ErrMax= 1.94D-06  0.00D+00 EMaxC= 1.00D-01 BMatC= 6.14D-10 BMatP= 5.25D-09
 IDIUse=1 WtCom= 1.00D+00 WtEn= 0.00D+00
 Coeff-Com: -0.206D-04 0.238D-03 0.477D-03 0.504D-03-0.420D-02-0.331D-02
 Coeff-Com:  0.196D-01 0.311D-01-0.136D+00-0.179D+00 0.127D+01
 Coeff:     -0.206D-04 0.238D-03 0.477D-03 0.504D-03-0.420D-02-0.331D-02
 Coeff:      0.196D-01 0.311D-01-0.136D+00-0.179D+00 0.127D+01
 Gap=     0.501 Goal=   None    Shift=    0.000
 RMSDP=1.70D-07 MaxDP=6.23D-06 DE=-1.16D-08 OVMax= 1.68D-05

 Cycle  12  Pass 1  IDiag  1:
 E= -279.502338230686     Delta-E=       -0.000000001655 Rises=F Damp=F
 DIIS: error= 5.71D-07 at cycle  12 NSaved=  12.
 NSaved=12 IEnMin=12 EnMin= -279.502338230686     IErMin=12 ErrMin= 5.71D-07
 ErrMax= 5.71D-07  0.00D+00 EMaxC= 1.00D-01 BMatC= 6.66D-11 BMatP= 6.14D-10
 IDIUse=1 WtCom= 1.00D+00 WtEn= 0.00D+00
 Coeff-Com:  0.111D-05-0.273D-04-0.596D-04 0.173D-03 0.104D-02-0.220D-02
 Coeff-Com: -0.396D-02 0.530D-02 0.406D-01-0.108D+00-0.291D+00 0.136D+01
 Coeff:      0.111D-05-0.273D-04-0.596D-04 0.173D-03 0.104D-02-0.220D-02
 Coeff:     -0.396D-02 0.530D-02 0.406D-01-0.108D+00-0.291D+00 0.136D+01
 Gap=     0.501 Goal=   None    Shift=    0.000
 RMSDP=6.87D-08 MaxDP=2.71D-06 DE=-1.65D-09 OVMax= 6.50D-06

 Cycle  13  Pass 1  IDiag  1:
 E= -279.502338230897     Delta-E=       -0.000000000211 Rises=F Damp=F
 DIIS: error= 1.62D-07 at cycle  13 NSaved=  13.
 NSaved=13 IEnMin=13 EnMin= -279.502338230897     IErMin=13 ErrMin= 1.62D-07
 ErrMax= 1.62D-07  0.00D+00 EMaxC= 1.00D-01 BMatC= 3.74D-12 BMatP= 6.66D-11
 IDIUse=1 WtCom= 1.00D+00 WtEn= 0.00D+00
 Coeff-Com:  0.125D-05-0.138D-04-0.223D-04-0.853D-04 0.123D-03 0.728D-03
 Coeff-Com: -0.753D-03-0.326D-02 0.497D-03 0.401D-01-0.315D-01-0.333D+00
 Coeff-Com:  0.133D+01
 Coeff:      0.125D-05-0.138D-04-0.223D-04-0.853D-04 0.123D-03 0.728D-03
 Coeff:     -0.753D-03-0.326D-02 0.497D-03 0.401D-01-0.315D-01-0.333D+00
 Coeff:      0.133D+01
 Gap=     0.501 Goal=   None    Shift=    0.000
 RMSDP=1.85D-08 MaxDP=5.40D-07 DE=-2.11D-10 OVMax= 1.52D-06

 Cycle  14  Pass 1  IDiag  1:
 E= -279.502338230909     Delta-E=       -0.000000000011 Rises=F Damp=F
 DIIS: error= 2.36D-08 at cycle  14 NSaved=  14.
 NSaved=14 IEnMin=14 EnMin= -279.502338230909     IErMin=14 ErrMin= 2.36D-08
 ErrMax= 2.36D-08  0.00D+00 EMaxC= 1.00D-01 BMatC= 1.82D-13 BMatP= 3.74D-12
 IDIUse=1 WtCom= 1.00D+00 WtEn= 0.00D+00
 Coeff-Com: -0.186D-06 0.306D-05 0.551D-05 0.455D-05-0.809D-04 0.430D-04
 Coeff-Com:  0.269D-03 0.234D-03-0.240D-02 0.126D-02 0.173D-01-0.253D-01
 Coeff-Com: -0.202D+00 0.121D+01
 Coeff:     -0.186D-06 0.306D-05 0.551D-05 0.455D-05-0.809D-04 0.430D-04
 Coeff:      0.269D-03 0.234D-03-0.240D-02 0.126D-02 0.173D-01-0.253D-01
 Coeff:     -0.202D+00 0.121D+01
 Gap=     0.501 Goal=   None    Shift=    0.000
 RMSDP=3.68D-09 MaxDP=8.83D-08 DE=-1.11D-11 OVMax= 3.30D-07

 SCF Done:  E(RHF) =  -279.502338231     A.U. after   14 cycles
            NFock= 14  Conv=0.37D-08     -V/T= 2.0023
 KE= 2.788648705703D+02 PE=-8.953272881322D+02 EE= 2.199674869407D+02
 Leave Link  502 at Mon Feb 21 20:28:26 2022, MaxMem= 16106127360 cpu:              56.7 elap:               3.7
 (Enter /sw/contrib/gaussian/g16/B01/g16/l801.exe)
 ExpMin= 2.53D-02 ExpMax= 1.53D+04 ExpMxC= 5.22D+02 IAcc=3 IRadAn=         5 AccDes= 0.00D+00
 HarFok:  IExCor=  205 AccDes= 0.00D+00 IRadAn=         5 IDoV=-2 UseB2=F ITyADJ=14
 ICtDFT= 12500011 ScaDFX=  1.000000  1.000000  1.000000  1.000000
 Largest valence mixing into a core orbital is  2.08D-04
 Largest core mixing into a valence orbital is  3.62D-05
 Range of M.O.s used for correlation:     5   207
 NBasis=   207 NAE=    16 NBE=    16 NFC=     4 NFV=     0
 NROrb=    203 NOA=    12 NOB=    12 NVA=   191 NVB=   191

 **** Warning!!: The largest alpha MO coefficient is  0.17658055D+02

 Leave Link  801 at Mon Feb 21 20:28:26 2022, MaxMem= 16106127360 cpu:               2.0 elap:               0.1
 (Enter /sw/contrib/gaussian/g16/B01/g16/l906.exe)
 Frozen-core derivative calculation, NFC=   4 NFV=   0.
 FulOut=F Deriv=T AODrv=T NAtomX=     5
   MMem=           0  MDisk=          12 MDiskD=          12
  W3Min=      811440 MinDsk=     2425030 NBas6D=         245
 NBas2D=       30762    NTT=       30135    LW2=     7400000
    MDV= 16105574283 MDiskM=      328644 NBas2p=       30702
 Disk-based method using ON**2 memory for 12 occupieds at a time.
 Permanent disk used for amplitudes=    11516536 words.
 Estimated scratch disk usage=   321251614 words.
 IMap=   1   2   3   4   5   6   7   8   9  10  11  12  13  14  15  16
 Actual    scratch disk usage=   310331678 words.
 JobTyp=1 Pass  1:  I=   5 to  16 NPSUse= 28 ParTrn=T ParDer=T DoDerP=T.
 (rs|ai) integrals will be sorted in core.
 Spin components of T(2) and E(2):
     alpha-alpha T2 =       0.3394338462D-01 E2=     -0.1223197815D+00
     alpha-beta  T2 =       0.1863928683D+00 E2=     -0.6997310833D+00
     beta-beta   T2 =       0.3394338462D-01 E2=     -0.1223197815D+00
 The integrals were generated   1 times.
 ANorm=    0.1119946265D+01
 E2 =    -0.9443706464D+00 EUMP2 =    -0.28044670887728D+03
 Leave Link  906 at Mon Feb 21 20:30:02 2022, MaxMem= 16106127360 cpu:            2691.5 elap:              96.2
 (Enter /sw/contrib/gaussian/g16/B01/g16/l1101.exe)
 Using compressed Sx but separate Hx and Fx, NAtomX=     5.
 Will process      6 centers per pass.
 Leave Link 1101 at Mon Feb 21 20:30:03 2022, MaxMem= 16106127360 cpu:               5.2 elap:               0.2
 (Enter /sw/contrib/gaussian/g16/B01/g16/l1102.exe)
 Leave Link 1102 at Mon Feb 21 20:30:03 2022, MaxMem= 16106127360 cpu:               0.6 elap:               0.0
 (Enter /sw/contrib/gaussian/g16/B01/g16/l1110.exe)
 Forming Gx(P) for the SCF density, NAtomX=     5.
 Integral derivatives from FoFJK, PRISM(SPDF).
 Do as many integral derivatives as possible in FoFJK.
 G2DrvN: MDV=   16106126844.
 G2DrvN: will do     6 centers at a time, making    1 passes.
 Calling FoFCou, ICntrl=  3107 FMM=F I1Cent=   0 AccDes= 0.00D+00.
 FoFJK:  IHMeth= 1 ICntrl=    3107 DoSepK=F KAlg= 0 I1Cent=           0 FoldK=F
 IRaf=         0 NMat=       1 IRICut=       1 DoRegI=T DoRafI=F ISym2E= 1 IDoP0=0 IntGTp=1.
 FoFCou: FMM=F IPFlag=           0 FMFlag=      100000 FMFlg1=           0
         NFxFlg=           0 DoJE=F BraDBF=F KetDBF=F FulRan=T
         wScrn=  0.000000 ICntrl=      3107 IOpCl=  0 I1Cent=           0 NGrid=           0
         NMat0=    1 NMatS0=      1 NMatT0=    0 NMatD0=    1 NMtDS0=    0 NMtDT0=    0
 Petite list used in FoFCou.
 End of G2Drv F.D. properties file   721 does not exist.
 End of G2Drv F.D. properties file   722 does not exist.
 End of G2Drv F.D. properties file   788 does not exist.
 Leave Link 1110 at Mon Feb 21 20:30:06 2022, MaxMem= 16106127360 cpu:              83.0 elap:               3.0
 (Enter /sw/contrib/gaussian/g16/B01/g16/l1002.exe)
 Minotr:  Closed shell wavefunction.
          IDoAtm=11111
          Frozen-core window.
          Direct CPHF calculation.
          Differentiating once with respect to electric field.
                with respect to dipole field.
          Differentiating once with respect to nuclear coordinates.
          Requested convergence is 1.0D-08 RMS, and 1.0D-07 maximum.
          Secondary convergence is 1.0D-12 RMS, and 1.0D-12 maximum.
          NewPWx=T KeepS1=T KeepF1=T KeepIn=T MapXYZ=F SortEE=F KeepMc=T.
 Keep R1 ints in memory in symmetry-blocked form, NReq=348888983.
 FoFCou: FMM=F IPFlag=           0 FMFlag=           0 FMFlg1=           0
         NFxFlg=           0 DoJE=F BraDBF=F KetDBF=F FulRan=T
         wScrn=  0.000000 ICntrl=       600 IOpCl=  0 I1Cent=           0 NGrid=           0
         NMat0=    1 NMatS0=  21528 NMatT0=    0 NMatD0=    1 NMtDS0=    0 NMtDT0=    0
 Petite list used in FoFCou.
          MDV=   16106127360 using IRadAn=       1.
          Solving linear equations simultaneously, MaxMat=       0.
          There are    18 degrees of freedom in the 1st order CPHF.  IDoFFX=6 NUNeed=    18.
     15 vectors produced by pass  0 Test12= 1.70D-14 5.56D-09 XBig12= 8.25D+00 1.07D+00.
 AX will form    15 AO Fock derivatives at one time.
     15 vectors produced by pass  1 Test12= 1.70D-14 5.56D-09 XBig12= 1.32D+00 2.61D-01.
     15 vectors produced by pass  2 Test12= 1.70D-14 5.56D-09 XBig12= 1.39D-01 9.60D-02.
     15 vectors produced by pass  3 Test12= 1.70D-14 5.56D-09 XBig12= 4.84D-03 1.07D-02.
     15 vectors produced by pass  4 Test12= 1.70D-14 5.56D-09 XBig12= 9.51D-05 1.84D-03.
     15 vectors produced by pass  5 Test12= 1.70D-14 5.56D-09 XBig12= 1.36D-06 1.72D-04.
     15 vectors produced by pass  6 Test12= 1.70D-14 5.56D-09 XBig12= 1.08D-08 1.47D-05.
     13 vectors produced by pass  7 Test12= 1.70D-14 5.56D-09 XBig12= 7.89D-11 1.23D-06.
      3 vectors produced by pass  8 Test12= 1.70D-14 5.56D-09 XBig12= 5.51D-13 1.19D-07.
      2 vectors produced by pass  9 Test12= 1.70D-14 5.56D-09 XBig12= 3.58D-15 1.02D-08.
 InvSVY:  IOpt=1 It=  1 EMax= 8.88D-16
 Solved reduced A of dimension   123 with    15 vectors.
 FullF1:  Do perturbations      1 to      18.
 Saving first derivative matrices.
 End of Minotr F.D. properties file   721 does not exist.
 End of Minotr F.D. properties file   722 does not exist.
 End of Minotr F.D. properties file   788 does not exist.
 Leave Link 1002 at Mon Feb 21 20:30:09 2022, MaxMem= 16106127360 cpu:              80.1 elap:               2.9
 (Enter /sw/contrib/gaussian/g16/B01/g16/l811.exe)
 MDV= 16106127360.
 Form MO integral derivatives with frozen-active canonical formalism.
 MOERI=1 MOERIx=1 NAtoms=     5 NAtomX=     5.
 Discarding MO integrals.
 MO basis two electron integral derivatives will not be stored on disk.
 IAlg= 3 DoFC=T DoPWx=T Debug=F.
 Frozen-core window:  NFC=   4 NFV=   0.
 Reordered first order wavefunction length =     18678272
 In DefCFB: NBatch=  1 ICI= 16 ICA=191 LFMax= 96
            Large arrays: LIAPS=   619940160 LIARS=   288257200 words.
 In StABat: MaxSiz= 55 MinSiz= 25 NAtomB=  5
 DoIAMN: NPSUse= 28.
 Leave Link  811 at Mon Feb 21 20:31:30 2022, MaxMem= 16106127360 cpu:            2271.6 elap:              81.3
 (Enter /sw/contrib/gaussian/g16/B01/g16/l804.exe)
 Frozen-core window:  NFC=   4 NFV=   0.
 Closed-shell transformation, MDV= 16106127360 ITran=4 ISComp=1.
 Semi-Direct transformation.
 ModeAB=           2 MOrb=            16 LenV=   16104923051
 LASXX=     67341636 LTotXX=    67341636 LenRXX=    67341636
 LTotAB=    68301760 MaxLAS=    99807120 LenRXY=    99807120
 NonZer=   134683272 LenScr=   202817536 LnRSAI=           0
 LnScr1=           0 LExtra=           0 Total=    369966292
 MaxDsk=          -1 SrtSym=           F ITran=            4
 DoSDTr:  NPSUse= 28
 JobTyp=0 Pass  1:  I=   1 to  16.
 (rs|ai) integrals will be sorted in core.
 Complete sort for first half transformation.
 First half transformation complete.
 Begin second half transformation for I=  10.
 Begin second half transformation for I=  10.
 Complete sort for second half transformation.
 Second half transformation complete.
 Spin components of T(2) and E(2):
     alpha-alpha T2 =       0.3394338462D-01 E2=     -0.1223197815D+00
     alpha-beta  T2 =       0.1863928683D+00 E2=     -0.6997310833D+00
     beta-beta   T2 =       0.3394338462D-01 E2=     -0.1223197815D+00
 ANorm=    0.1583843198D+01
 E2 =    -0.9443706464D+00 EUMP2 =    -0.28044670887728D+03
 Leave Link  804 at Mon Feb 21 20:31:46 2022, MaxMem= 16106127360 cpu:             440.3 elap:              15.8
 (Enter /sw/contrib/gaussian/g16/B01/g16/l1002.exe)
 Minotr:  Closed shell wavefunction.
          Computing MP2/KS-MP2 derivatives.
          Using Z-Vector for PSCF gradient.
          Skipping F1 and S1 gradient terms here.
          IDoAtm=11111
          Frozen-core window.
          Using MO integrals in the linear equations.
          Forming densities via direct SCF.
          Differentiating once with respect to electric field.
                with respect to dipole field.
          Differentiating once with respect to nuclear coordinates.
          Using symmetry in CPHF.
          Requested convergence is 1.0D-10 RMS, and 1.0D-09 maximum.
          NewPWx=F KeepS1=T KeepF1=T KeepIn=T MapXYZ=F SortEE=F KeepMc=T.
          MDV=   16106127360 using IRadAn=       5.
          Solving linear equations separately, MaxMat=       0.
          There are     1 degrees of freedom in the 1st order CPHF.  IDoFFX=0 NUNeed=     1.
 FoFJK:  IHMeth= 1 ICntrl=       0 DoSepK=F KAlg= 0 I1Cent=           0 FoldK=F
 IRaf=         0 NMat=       1 IRICut=       1 DoRegI=T DoRafI=F ISym2E= 0 IDoP0=0 IntGTp=1.
 FoFCou: FMM=F IPFlag=           0 FMFlag=      100000 FMFlg1=           0
         NFxFlg=           0 DoJE=F BraDBF=F KetDBF=F FulRan=T
         wScrn=  0.000000 ICntrl=         0 IOpCl=  0 I1Cent=           0 NGrid=           0
         NMat0=    1 NMatS0=      1 NMatT0=    0 NMatD0=    1 NMtDS0=    0 NMtDT0=    0
 Symmetry not used in FoFCou.
 LinEq1:  Iter=  0 NonCon=     1 RMS=5.94D-03 Max=1.31D-01 NDo=     1
 LinEq1:  Iter=  1 NonCon=     1 RMS=1.89D-03 Max=3.77D-02 NDo=     1
 LinEq1:  Iter=  2 NonCon=     1 RMS=8.60D-04 Max=1.40D-02 NDo=     1
 LinEq1:  Iter=  3 NonCon=     1 RMS=3.82D-04 Max=7.62D-03 NDo=     1
 LinEq1:  Iter=  4 NonCon=     1 RMS=1.18D-04 Max=1.88D-03 NDo=     1
 LinEq1:  Iter=  5 NonCon=     1 RMS=4.42D-05 Max=7.01D-04 NDo=     1
 LinEq1:  Iter=  6 NonCon=     1 RMS=1.98D-05 Max=2.33D-04 NDo=     1
 LinEq1:  Iter=  7 NonCon=     1 RMS=7.93D-06 Max=1.57D-04 NDo=     1
 LinEq1:  Iter=  8 NonCon=     1 RMS=3.38D-06 Max=3.36D-05 NDo=     1
 LinEq1:  Iter=  9 NonCon=     1 RMS=9.22D-07 Max=1.30D-05 NDo=     1
 LinEq1:  Iter= 10 NonCon=     1 RMS=1.81D-07 Max=1.96D-06 NDo=     1
 LinEq1:  Iter= 11 NonCon=     1 RMS=3.39D-08 Max=3.50D-07 NDo=     1
 LinEq1:  Iter= 12 NonCon=     1 RMS=8.14D-09 Max=1.27D-07 NDo=     1
 LinEq1:  Iter= 13 NonCon=     1 RMS=1.47D-09 Max=2.54D-08 NDo=     1
 LinEq1:  Iter= 14 NonCon=     1 RMS=2.66D-10 Max=3.74D-09 NDo=     1
 LinEq1:  Iter= 15 NonCon=     0 RMS=4.84D-11 Max=5.51D-10 NDo=     1
 Linear equations converged to 1.000D-10 1.000D-09 after    15 iterations.
 End of Minotr F.D. properties file   721 does not exist.
 End of Minotr F.D. properties file   722 does not exist.
 End of Minotr F.D. properties file   788 does not exist.
 Leave Link 1002 at Mon Feb 21 20:31:48 2022, MaxMem= 16106127360 cpu:              64.6 elap:               2.4
 (Enter /sw/contrib/gaussian/g16/B01/g16/l1102.exe)
 Use density number 2.
 Symmetrizing basis deriv contribution to polar:
 IMax=3 JMax=2 DiffMx= 0.00D+00
 Leave Link 1102 at Mon Feb 21 20:31:48 2022, MaxMem= 16106127360 cpu:               3.1 elap:               0.2
 (Enter /sw/contrib/gaussian/g16/B01/g16/l1110.exe)
 Forming Gx(P) for generalized density number  2 NAtomX=     5.
 Integral derivatives from FoFJK, PRISM(SPDF).
 Do as many integral derivatives as possible in FoFJK.
 G2DrvN: MDV=   16106126844.
 G2DrvN: will do     6 centers at a time, making    1 passes.
 Calling FoFCou, ICntrl=  3107 FMM=F I1Cent=   0 AccDes= 0.00D+00.
 FoFJK:  IHMeth= 1 ICntrl=    3107 DoSepK=F KAlg= 0 I1Cent=           0 FoldK=F
 IRaf=         0 NMat=       1 IRICut=       1 DoRegI=T DoRafI=F ISym2E= 1 IDoP0=0 IntGTp=1.
 FoFCou: FMM=F IPFlag=           0 FMFlag=      100000 FMFlg1=           0
         NFxFlg=           0 DoJE=F BraDBF=F KetDBF=F FulRan=T
         wScrn=  0.000000 ICntrl=      3107 IOpCl=  0 I1Cent=           0 NGrid=           0
         NMat0=    1 NMatS0=      1 NMatT0=    0 NMatD0=    1 NMtDS0=    0 NMtDT0=    0
 Petite list used in FoFCou.
 End of G2Drv F.D. properties file   721 does not exist.
 End of G2Drv F.D. properties file   722 does not exist.
 End of G2Drv F.D. properties file   788 does not exist.
 Leave Link 1110 at Mon Feb 21 20:31:51 2022, MaxMem= 16106127360 cpu:              83.9 elap:               3.0
 (Enter /sw/contrib/gaussian/g16/B01/g16/l1112.exe)
 MP22nd: MDV=   16106127360
 This link is doing NAtomX=     5 total of    18 degrees of freedom.
 Using ON3 I/O method in MakUI.
 Frozen-core window:  NFC=   4 NFV=   0.
 Using Ix for Sx.
 Use MO integrals over full window.
 Using OV2 memory method for fx*t*t/D, MaxI=    16 DoOO2=F NP=  28.
 R2 and R3 integrals will be kept in memory, NReq=   915591705.
 FoFCou: FMM=F IPFlag=           0 FMFlag=           0 FMFlg1=           0
         NFxFlg=           0 DoJE=F BraDBF=F KetDBF=F FulRan=T
         wScrn=  0.000000 ICntrl=       600 IOpCl=  0 I1Cent=           0 NGrid=           0
         NMat0=    1 NMatS0=      1 NMatT0=    0 NMatD0=    1 NMtDS0=    0 NMtDT0=    0
 Symmetry not used in FoFCou.
 DD1Dir will call FoFMem   1 times, MxPair=       272
 NAB=   136 NAA=     0 NBB=     0.
 Symmetry is being used.
 FoFJK:  IHMeth= 1 ICntrl=       0 DoSepK=F KAlg= 0 I1Cent=           0 FoldK=F
 IRaf=         0 NMat=      18 IRICut=      45 DoRegI=T DoRafI=T ISym2E= 2 IDoP0=3 IntGTp=3.
 Discarding MO integrals.
 Leave Link 1112 at Mon Feb 21 20:32:27 2022, MaxMem= 16106127360 cpu:             982.1 elap:              35.5
 (Enter /sw/contrib/gaussian/g16/B01/g16/l601.exe)
 Copying SCF densities to generalized density rwf, IOpCl= 0 IROHF=0.

 **********************************************************************

            Population analysis using the MP2 Density.

 **********************************************************************

 Orbital symmetries:
       Occupied  (A') (A') (A') (A') (A') (A') (A') (A') (A') (A')
                 (A") (A') (A") (A') (A") (A')
       Virtual   (A') (A") (A') (A') (A") (A') (A') (A') (A") (A')
                 (A") (A') (A') (A') (A") (A') (A') (A") (A') (A')
                 (A') (A') (A') (A') (A") (A') (A') (A") (A') (A')
                 (A") (A') (A") (A') (A') (A") (A') (A') (A") (A')
                 (A") (A') (A") (A') (A') (A") (A') (A') (A") (A')
                 (A") (A') (A') (A') (A") (A') (A") (A') (A") (A')
                 (A') (A') (A") (A') (A') (A") (A') (A") (A') (A')
                 (A") (A') (A') (A") (A") (A') (A') (A") (A') (A')
                 (A') (A") (A') (A") (A") (A') (A') (A") (A') (A')
                 (A") (A') (A') (A") (A') (A") (A') (A") (A') (A')
                 (A") (A') (A") (A') (A') (A") (A') (A') (A") (A')
                 (A") (A') (A') (A') (A") (A') (A') (A') (A") (A')
                 (A") (A') (A") (A') (A') (A") (A") (A') (A") (A')
                 (A') (A') (A') (A") (A") (A") (A') (A') (A') (A')
                 (A") (A') (A") (A') (A') (A") (A') (A') (A') (A')
                 (A") (A') (A') (A") (A') (A") (A') (A") (A') (A")
                 (A') (A") (A') (A') (A") (A") (A") (A') (A") (A')
                 (A") (A') (A") (A') (A") (A') (A") (A") (A') (A')
                 (A') (A') (A') (A') (A') (A') (A') (A') (A') (A')
                 (A')
 The electronic state is 1-A'.
 Alpha  occ. eigenvalues --  -20.68995 -20.68446 -20.65947 -15.81226  -1.62727
 Alpha  occ. eigenvalues --   -1.49579  -1.25401  -0.94753  -0.77325  -0.76023
 Alpha  occ. eigenvalues --   -0.71262  -0.67984  -0.62125  -0.58917  -0.48489
 Alpha  occ. eigenvalues --   -0.47173
 Alpha virt. eigenvalues --    0.02974   0.07290   0.08588   0.10172   0.13388
 Alpha virt. eigenvalues --    0.13401   0.14416   0.15463   0.17833   0.19413
 Alpha virt. eigenvalues --    0.19995   0.20637   0.22095   0.23576   0.23741
 Alpha virt. eigenvalues --    0.26609   0.29383   0.30404   0.31065   0.34339
 Alpha virt. eigenvalues --    0.34987   0.38738   0.42219   0.43170   0.52726
 Alpha virt. eigenvalues --    0.52979   0.55873   0.58174   0.62810   0.63813
 Alpha virt. eigenvalues --    0.67324   0.68476   0.70643   0.71124   0.72425
 Alpha virt. eigenvalues --    0.72964   0.74466   0.79177   0.79230   0.81018
 Alpha virt. eigenvalues --    0.81308   0.83164   0.86857   0.90867   0.92232
 Alpha virt. eigenvalues --    0.92669   0.95682   0.97838   0.98497   1.01666
 Alpha virt. eigenvalues --    1.05226   1.05516   1.08319   1.11821   1.14158
 Alpha virt. eigenvalues --    1.18974   1.22134   1.23326   1.33915   1.35072
 Alpha virt. eigenvalues --    1.38688   1.45370   1.48800   1.50948   1.53815
 Alpha virt. eigenvalues --    1.56693   1.57964   1.61356   1.66513   1.66984
 Alpha virt. eigenvalues --    1.70315   1.79337   1.83094   1.83485   1.87938
 Alpha virt. eigenvalues --    1.91007   1.95514   1.99320   2.00566   2.07790
 Alpha virt. eigenvalues --    2.12112   2.13243   2.15034   2.22466   2.26491
 Alpha virt. eigenvalues --    2.26506   2.28995   2.31482   2.34534   2.38651
 Alpha virt. eigenvalues --    2.42535   2.42980   2.45427   2.46336   2.47734
 Alpha virt. eigenvalues --    2.50208   2.59006   2.59743   2.62171   2.62634
 Alpha virt. eigenvalues --    2.63515   2.66880   2.75909   2.82670   2.85729
 Alpha virt. eigenvalues --    2.88617   2.89503   2.92563   2.95906   3.02605
 Alpha virt. eigenvalues --    3.06752   3.12299   3.20505   3.22774   3.31746
 Alpha virt. eigenvalues --    3.34227   3.51880   3.64380   3.83897   3.84574
 Alpha virt. eigenvalues --    4.14920   4.16368   4.18445   4.26712   4.35213
 Alpha virt. eigenvalues --    4.39389   4.46441   4.52005   4.66675   4.71139
 Alpha virt. eigenvalues --    4.80718   4.82562   4.82996   4.89556   5.02265
 Alpha virt. eigenvalues --    5.07788   5.10506   5.14243   5.18033   5.24402
 Alpha virt. eigenvalues --    5.27253   5.30786   5.33030   5.35908   5.60729
 Alpha virt. eigenvalues --    5.68027   5.77335   5.83076   5.95617   6.16967
 Alpha virt. eigenvalues --    6.30952   6.33871   6.39500   6.49362   6.50546
 Alpha virt. eigenvalues --    6.61434   6.66853   6.70118   6.75844   6.76413
 Alpha virt. eigenvalues --    6.83513   6.89981   7.01483   7.05761   7.05769
 Alpha virt. eigenvalues --    7.09071   7.12640   7.15081   7.18214   7.22800
 Alpha virt. eigenvalues --    7.24264   7.30930   7.33300   7.35026   7.40320
 Alpha virt. eigenvalues --    7.43219   7.48506   7.60885   7.62462   7.63180
 Alpha virt. eigenvalues --    7.66693   7.79273   7.89343   8.09468   8.31632
 Alpha virt. eigenvalues --    8.40969   8.54529  13.39866  14.42536  15.16372
 Alpha virt. eigenvalues --   16.27429
          Condensed to atoms (all electrons):
               1          2          3          4          5
     1  H    0.589636   0.128395   0.020051   0.012443  -0.000651
     2  O    0.128395   8.322140  -0.173695  -0.090453   0.015524
     3  O    0.020051  -0.173695   8.472967  -0.131652  -0.039629
     4  N    0.012443  -0.090453  -0.131652   6.973623  -0.056117
     5  O   -0.000651   0.015524  -0.039629  -0.056117   8.273205
 Mulliken charges:
               1
     1  H    0.250126
     2  O   -0.201910
     3  O   -0.148041
     4  N    0.292156
     5  O   -0.192332
 Sum of Mulliken charges =  -0.00000
 Mulliken charges with hydrogens summed into heavy atoms:
               1
     2  O    0.048216
     3  O   -0.148041
     4  N    0.292156
     5  O   -0.192332
 APT charges:
               1
     1  H    0.298964
     2  O   -0.288193
     3  O   -0.498019
     4  N    0.882219
     5  O   -0.394971
 Sum of APT charges =  -0.00000
 APT charges with hydrogens summed into heavy atoms:
               1
     2  O    0.010771
     3  O   -0.498019
     4  N    0.882219
     5  O   -0.394971
 Electronic spatial extent (au):  <R**2>=            252.5252
 Charge=             -0.0000 electrons
 Dipole moment (field-independent basis, Debye):
    X=              0.4932    Y=              1.3432    Z=             -0.0000  Tot=              1.4309
 Quadrupole moment (field-independent basis, Debye-Ang):
   XX=            -22.4481   YY=            -18.6158   ZZ=            -22.0038
   XY=              3.2694   XZ=             -0.0000   YZ=              0.0000
 Traceless Quadrupole moment (field-independent basis, Debye-Ang):
   XX=             -1.4255   YY=              2.4068   ZZ=             -0.9812
   XY=              3.2694   XZ=             -0.0000   YZ=              0.0000
 Octapole moment (field-independent basis, Debye-Ang**2):
  XXX=              2.8298  YYY=             11.2009  ZZZ=              0.0000  XYY=              7.8739
  XXY=              6.5663  XXZ=             -0.0000  XZZ=             -1.5915  YZZ=             -0.8676
  YYZ=             -0.0000  XYZ=             -0.0000
 Hexadecapole moment (field-independent basis, Debye-Ang**3):
 XXXX=           -158.2960 YYYY=            -89.4699 ZZZZ=            -18.2353 XXXY=            -36.5352
 XXXZ=             -0.0000 YYYX=            -30.6140 YYYZ=              0.0000 ZZZX=              0.0000
 ZZZY=              0.0000 XXYY=            -33.8799 XXZZ=            -30.8477 YYZZ=            -20.6118
 XXYZ=              0.0000 YYXZ=              0.0000 ZZXY=            -15.0104
 N-N= 1.169925923903D+02 E-N=-8.961062044600D+02  KE= 2.802143289448D+02
 Symmetry A'   KE= 2.662412551956D+02
 Symmetry A"   KE= 1.397307374926D+01
  Exact polarizability:  33.960   9.429  30.199  -0.000  -0.000  17.920
 Approx polarizability:  28.921   5.074  23.487   0.000  -0.000  15.505
 No NMR shielding tensors so no spin-rotation constants.
 Leave Link  601 at Mon Feb 21 20:32:27 2022, MaxMem= 16106127360 cpu:               4.2 elap:               0.2
 (Enter /sw/contrib/gaussian/g16/B01/g16/l701.exe)
 ... and contract with generalized density number  2.
 Compute integral second derivatives.
 Leave Link  701 at Mon Feb 21 20:32:27 2022, MaxMem= 16106127360 cpu:               5.7 elap:               0.2
 (Enter /sw/contrib/gaussian/g16/B01/g16/l702.exe)
 L702 exits ... SP integral derivatives will be done elsewhere.
 Leave Link  702 at Mon Feb 21 20:32:27 2022, MaxMem= 16106127360 cpu:               0.4 elap:               0.0
 (Enter /sw/contrib/gaussian/g16/B01/g16/l703.exe)
 Integral derivatives from FoFJK, PRISM(SPDF).
 Compute integral second derivatives, UseDBF=F ICtDFT=           0.
 Calling FoFJK, ICntrl=  10100127 FMM=F ISym2X=1 I1Cent= 0 IOpClX= 0 NMat=1 NMatS=1 NMatT=0.
 FoFJK:  IHMeth= 1 ICntrl=10100127 DoSepK=F KAlg= 0 I1Cent=           0 FoldK=F
 IRaf=         0 NMat=       1 IRICut=       1 DoRegI=T DoRafI=F ISym2E= 1 IDoP0=0 IntGTp=1.
 FoFCou: FMM=F IPFlag=           0 FMFlag=      100000 FMFlg1=         800
         NFxFlg=           0 DoJE=F BraDBF=F KetDBF=F FulRan=T
         wScrn=  0.000000 ICntrl=  10100127 IOpCl=  0 I1Cent=           0 NGrid=           0
         NMat0=    1 NMatS0=      1 NMatT0=    0 NMatD0=    1 NMtDS0=    0 NMtDT0=    0
 Petite list used in FoFCou.
 Leave Link  703 at Mon Feb 21 20:32:43 2022, MaxMem= 16106127360 cpu:             422.0 elap:              15.1
 (Enter /sw/contrib/gaussian/g16/B01/g16/l716.exe)
 Dipole        = 1.94048452D-01 5.28464138D-01-1.23569589D-32
 Polarizability= 3.39598404D+01 9.42860468D+00 3.01994773D+01
                -7.15764252D-32-4.87927298D-31 1.79201393D+01
 Full mass-weighted force constant matrix:
 Low frequencies --- -268.6897  -61.4391  -34.1535  -23.9104   -0.0011    0.0008
 Low frequencies ---    0.0011  216.0632  338.1460
 ******    1 imaginary frequencies (negative Signs) ****** 
 Diagonal vibrational polarizability:
       13.9570299      24.8854395      47.0054629
 Harmonic frequencies (cm**-1), IR intensities (KM/Mole), Raman scattering
 activities (A**4/AMU), depolarization ratios for plane and unpolarized
 incident light, reduced masses (AMU), force constants (mDyne/A),
 and normal coordinates:
                      1                      2                      3
                     A"                     A"                     A'
 Frequencies --   -268.6589               215.0253               338.1053
 Red. masses --      1.1433                10.1568                 8.6618
 Frc consts  --      0.0486                 0.2767                 0.5834
 IR Inten    --    124.4736                 1.0238                 3.7157
  Atom  AN      X      Y      Z        X      Y      Z        X      Y      Z
     1   1     0.00   0.00   1.00     0.00  -0.00  -0.60     0.53  -0.44   0.00
     2   8     0.00   0.00  -0.07     0.00  -0.00  -0.30    -0.09  -0.38   0.00
     3   8     0.00   0.00  -0.04    -0.00   0.00   0.32    -0.15   0.43  -0.00
     4   7    -0.00  -0.00   0.06    -0.00   0.00   0.51     0.05   0.27  -0.00
     5   8    -0.00  -0.00  -0.01     0.00  -0.00  -0.43     0.17  -0.25   0.00
                      4                      5                      6
                     A'                     A'                     A'
 Frequencies --    453.8725               785.1757               967.7033
 Red. masses --     12.2608                12.8303                15.3970
 Frc consts  --      1.4881                 4.6604                 8.4951
 IR Inten    --    200.2742               170.9185                22.1198
  Atom  AN      X      Y      Z        X      Y      Z        X      Y      Z
     1   1     0.42   0.19   0.00    -0.35   0.19  -0.00    -0.17  -0.04   0.00
     2   8     0.32   0.20   0.00     0.42   0.09   0.00    -0.52   0.03   0.00
     3   8     0.17   0.44  -0.00    -0.06  -0.27  -0.00     0.75  -0.02  -0.00
     4   7    -0.35  -0.40  -0.00    -0.14   0.62  -0.00    -0.12   0.24  -0.00
     5   8    -0.22  -0.30   0.00    -0.21  -0.37   0.00    -0.11  -0.22   0.00
                      7                      8                      9
                     A'                     A'                     A'
 Frequencies --   1371.5731              1702.9245              3778.6649
 Red. masses --      1.1317                13.5025                 1.0675
 Frc consts  --      1.2543                23.0705                 8.9807
 IR Inten    --    151.0038               150.0990                82.2386
  Atom  AN      X      Y      Z        X      Y      Z        X      Y      Z
     1   1     0.99  -0.05   0.00    -0.31   0.00  -0.00     0.10   0.99  -0.00
     2   8    -0.03   0.05   0.00    -0.00  -0.04  -0.00    -0.01  -0.06  -0.00
     3   8    -0.02  -0.05  -0.00     0.00   0.15   0.00     0.00   0.00   0.00
     4   7     0.02   0.01  -0.00     0.71  -0.05   0.00    -0.00  -0.00   0.00
     5   8    -0.03  -0.01   0.00    -0.60  -0.07  -0.00     0.00   0.00  -0.00

 -------------------
 - Thermochemistry -
 -------------------
 Temperature   298.150 Kelvin.  Pressure   1.00000 Atm.
 Atom     1 has atomic number  1 and mass   1.00783
 Atom     2 has atomic number  8 and mass  15.99491
 Atom     3 has atomic number  8 and mass  15.99491
 Atom     4 has atomic number  7 and mass  14.00307
 Atom     5 has atomic number  8 and mass  15.99491
 Molecular mass:    62.99564 amu.
 Principal axes and moments of inertia in atomic units:
                           1         2         3
     Eigenvalues --    32.82436 359.47637 392.30072
           X            0.81067  -0.58550   0.00000
           Y            0.58550   0.81067   0.00000
           Z            0.00000  -0.00000   1.00000
 This molecule is an asymmetric top.
 Rotational symmetry number  1.
 Rotational temperatures (Kelvin)      2.63871     0.24094     0.22078
 Rotational constants (GHZ):          54.98177     5.02047     4.60040
    1 imaginary frequencies ignored.
 Zero-point vibrational energy      57498.8 (Joules/Mol)
                                   13.74254 (Kcal/Mol)
 Warning -- explicit consideration of   3 degrees of freedom as
           vibrations may cause significant error
 Vibrational temperatures:    309.37   486.46   653.02  1129.69  1392.31
          (Kelvin)           1973.39  2450.13  5436.66
 
 Zero-point correction=                           0.021900 (Hartree/Particle)
 Thermal correction to Energy=                    0.026040
 Thermal correction to Enthalpy=                  0.026985
 Thermal correction to Gibbs Free Energy=        -0.004256
 Sum of electronic and zero-point Energies=           -280.424809
 Sum of electronic and thermal Energies=              -280.420668
 Sum of electronic and thermal Enthalpies=            -280.419724
 Sum of electronic and thermal Free Energies=         -280.450964
 
                     E (Thermal)             CV                S
                      KCal/Mol        Cal/Mol-Kelvin    Cal/Mol-Kelvin
 Total                   16.341             11.974             65.750
 Electronic               0.000              0.000              0.000
 Translational            0.889              2.981             38.341
 Rotational               0.889              2.981             23.053
 Vibrational             14.563              6.012              4.357
 Vibration     1          0.645              1.818              2.001
 Vibration     2          0.718              1.599              1.221
 Vibration     3          0.812              1.352              0.784
                       Q            Log10(Q)             Ln(Q)
 Total Bot       0.906596D+02          1.957414          4.507111
 Total V=0       0.107341D+13         12.030764         27.701857
 Vib (Bot)       0.189411D-09         -9.722595        -22.387101
 Vib (Bot)    1  0.921807D+00         -0.035360         -0.081419
 Vib (Bot)    2  0.549849D+00         -0.259757         -0.598112
 Vib (Bot)    3  0.376641D+00         -0.424073         -0.976463
 Vib (V=0)       0.224262D+01          0.350756          0.807645
 Vib (V=0)    1  0.154868D+01          0.189961          0.437403
 Vib (V=0)    2  0.124319D+01          0.094538          0.217682
 Vib (V=0)    3  0.112599D+01          0.051533          0.118659
 Electronic      0.100000D+01          0.000000          0.000000
 Translational   0.196526D+08          7.293420         16.793719
 Rotational      0.243550D+05          4.386588         10.100493
 
                                                                title
                                                             IR Spectrum
 
     3                                                                     1          1                                              
     7                                                                     7          3             9     7          4   3   2       
     7                                                                     0          7             6     8          5   3   1       
     9                                                                     3          2             8     5          4   8   5       
 
     X                                                                     X          X             X     X          X   X   X       
     X                                                                     X          X             X     X          X               
     X                                                                     X          X                   X          X               
     X                                                                     X          X                   X          X               
     X                                                                     X          X                   X          X               
     X                                                                     X          X                   X          X               
     X                                                                     X          X                   X          X               
     X                                                                     X          X                   X          X               
                                                                           X          X                   X          X               
                                                                           X          X                   X          X               
                                                                           X          X                   X          X               
                                                                           X          X                   X          X               
                                                                           X          X                   X          X               
                                                                           X          X                   X          X               
                                                                           X          X                   X          X               
                                                                                                          X          X               
                                                                                                          X          X               
                                                                                                                     X               
                                                                                                                     X               
                                                                                                                     X               
 
 ***** Axes restored to original set *****
 -------------------------------------------------------------------
 Center     Atomic                   Forces (Hartrees/Bohr)
 Number     Number              X              Y              Z
 -------------------------------------------------------------------
      1        1           0.000047748    0.000000000    0.000028967
      2        8           0.000153617    0.000000000   -0.000009769
      3        8          -0.000539849   -0.000000000   -0.001058209
      4        7          -0.005951897   -0.000000000   -0.000846979
      5        8           0.006290381    0.000000000    0.001885990
 -------------------------------------------------------------------
 Cartesian Forces:  Max     0.006290381 RMS     0.002319574
 -----------------------------------------------------------------------------------------------
                       Internal Coordinate Forces (Hartree/Bohr or radian)
  Cent   Atom   N1       Length/X         N2         Alpha/Y        N3         Beta/Z          J
 -----------------------------------------------------------------------------------------------
      1  H 
      2  O        1  -0.000029(     1)
      3  O        2  -0.000202(     2)      1  -0.000087(     5)
      4  N        3   0.001063(     3)      2   0.000108(     6)      1  -0.000000(     8)     0
      5  O        4   0.006562(     4)      3   0.000587(     7)      2   0.000000(     9)     0
 -----------------------------------------------------------------------------------------------
 Internal  Forces:  Max     0.006561632 RMS     0.002225883
 Force constants in Cartesian coordinates: 
                1             2             3             4             5 
      1  0.646284D-01
      2  0.000000D+00 -0.233874D-02
      3  0.532145D-02  0.000000D+00  0.512352D+00
      4 -0.357492D-01  0.000000D+00 -0.163367D-01  0.272923D+00
      5  0.000000D+00  0.302682D-02  0.000000D+00  0.000000D+00  0.213436D-02
      6  0.481943D-01  0.000000D+00 -0.508520D+00  0.336508D-01  0.000000D+00
      7 -0.183865D-01  0.000000D+00  0.125621D-01 -0.220374D+00  0.000000D+00
      8  0.000000D+00  0.996029D-03  0.000000D+00  0.000000D+00 -0.659803D-02
      9 -0.531499D-01  0.000000D+00 -0.488464D-03 -0.195817D-01  0.000000D+00
     10 -0.925319D-02  0.000000D+00 -0.489787D-02 -0.171810D-01  0.000000D+00
     11  0.000000D+00 -0.271804D-02  0.000000D+00  0.000000D+00 -0.492455D-02
     12  0.543225D-02  0.000000D+00 -0.474573D-02  0.116352D-01  0.000000D+00
     13 -0.123947D-02  0.000000D+00  0.335098D-02  0.381377D-03  0.000000D+00
     14  0.000000D+00  0.103393D-02  0.000000D+00  0.000000D+00  0.636140D-02
     15 -0.579807D-02  0.000000D+00  0.140184D-02 -0.936761D-02  0.000000D+00
                6             7             8             9            10 
      6  0.594512D+00
      7 -0.212161D-01  0.341832D+00
      8  0.000000D+00  0.000000D+00  0.388495D-02
      9 -0.785049D-01  0.364363D-01  0.000000D+00  0.181875D+00
     10 -0.525105D-01 -0.780944D-01  0.000000D+00  0.176144D+00  0.852655D+00
     11  0.000000D+00  0.000000D+00  0.879382D-02  0.000000D+00  0.000000D+00
     12  0.173800D-01  0.634098D-01  0.000000D+00 -0.820348D-01 -0.129121D-01
     13 -0.811853D-02 -0.249766D-01  0.000000D+00 -0.139849D+00 -0.748126D+00
     14  0.000000D+00  0.000000D+00 -0.707676D-02  0.000000D+00  0.000000D+00
     15 -0.248671D-01 -0.911922D-01  0.000000D+00 -0.208472D-01 -0.105824D+00
               11            12            13            14            15 
     11  0.569161D-02
     12  0.000000D+00  0.186222D+00
     13  0.000000D+00 -0.675651D-01  0.773961D+00
     14 -0.684284D-02  0.000000D+00  0.000000D+00  0.652428D-02
     15  0.000000D+00 -0.116821D+00  0.212181D+00  0.000000D+00  0.161134D+00
 Force constants in internal coordinates: 
                1             2             3             4             5 
      1  0.512352D+00
      2 -0.104121D-01  0.281533D+00
      3  0.345945D-02  0.243959D-02  0.118054D+00
      4 -0.359402D-02  0.593401D-02  0.154796D+00  0.838234D+00
      5  0.979188D-02  0.653683D-01  0.224290D-02  0.483297D-02  0.216642D+00
      6  0.465512D-02  0.590830D-01  0.409427D-01  0.219520D-01  0.311992D-01
      7 -0.116089D-02  0.379226D-01  0.329416D-01  0.851669D-01  0.214362D-01
      8  0.000000D+00  0.000000D+00  0.000000D+00  0.000000D+00  0.000000D+00
      9  0.000000D+00  0.000000D+00  0.000000D+00  0.000000D+00  0.000000D+00
                6             7             8             9 
      6  0.282386D+00
      7  0.964455D-01  0.485347D+00
      8  0.000000D+00  0.000000D+00 -0.774463D-02
      9  0.000000D+00  0.000000D+00 -0.390999D-02  0.410738D-01
 Leave Link  716 at Mon Feb 21 20:32:43 2022, MaxMem= 16106127360 cpu:               2.2 elap:               0.1
 (Enter /sw/contrib/gaussian/g16/B01/g16/l103.exe)

 GradGradGradGradGradGradGradGradGradGradGradGradGradGradGradGradGradGrad
 Berny optimization.
 Search for a local minimum.
 Step number   1 out of a maximum of    2
 All quantities printed in internal units (Hartrees-Bohrs-Radians)
 Second derivative matrix not updated -- analytic derivatives used.
 The second derivative matrix:
                          r1        r2        r3        r4        a1
           r1           0.51235
           r2          -0.01041   0.28153
           r3           0.00346   0.00244   0.11805
           r4          -0.00359   0.00593   0.15480   0.83823
           a1           0.00979   0.06537   0.00224   0.00483   0.21664
           a2           0.00466   0.05908   0.04094   0.02195   0.03120
           a3          -0.00116   0.03792   0.03294   0.08517   0.02144
           d1           0.00000  -0.00000  -0.00000  -0.00000  -0.00000
           d2          -0.00000   0.00000   0.00000   0.00000   0.00000
                          a2        a3        d1        d2
           a2           0.28239
           a3           0.09645   0.48535
           d1          -0.00000  -0.00000  -0.00774
           d2          -0.00000  -0.00000  -0.00391   0.04107
 ITU=  0
     Eigenvalues ---   -0.00806   0.04138   0.07939   0.17526   0.22505
     Eigenvalues ---    0.32527   0.51303   0.52114   0.89541
 Eigenvalue     1 is  -8.06D-03 should be greater than     0.000000 Eigenvector:
                          d1        d2        a3        a2        r3
   1                    0.99685   0.07933   0.00000   0.00000  -0.00000
                          r4        a1        r1        r2
   1                    0.00000  -0.00000  -0.00000  -0.00000
 Angle between quadratic step and forces=  22.20 degrees.
 Linear search not attempted -- first point.
 Variable       Old X    -DE/DX   Delta X   Delta X   Delta X     New X
                                 (Linear)    (Quad)   (Total)
    r1        1.83110  -0.00003   0.00000  -0.00000  -0.00000   1.83110
    r2        2.74940  -0.00020   0.00000  -0.00084  -0.00084   2.74856
    r3        2.75670   0.00106   0.00000  -0.00173  -0.00173   2.75498
    r4        2.20487   0.00656   0.00000   0.00816   0.00816   2.21302
    a1        1.70335  -0.00009   0.00000  -0.00034  -0.00034   1.70301
    a2        1.78543   0.00011   0.00000   0.00024   0.00024   1.78567
    a3        1.90362   0.00059   0.00000  -0.00007  -0.00007   1.90355
    d1        3.14159  -0.00000   0.00000  -0.00000   0.00000   3.14159
    d2        3.14159   0.00000   0.00000   0.00000   0.00000   3.14159
         Item               Value     Threshold  Converged?
 Maximum Force            0.006562     0.000450     NO 
 RMS     Force            0.002226     0.000300     NO 
 Maximum Displacement     0.008156     0.001800     NO 
 RMS     Displacement     0.002796     0.001200     NO 
 Predicted change in Energy=-2.593068D-05
                       ----------------------------
                       ! Non-Optimized Parameters !
                       ! (Angstroms and Degrees)  !
 ----------------------                            ----------------------
 !      Name          Value   Derivative information (Atomic Units)     !
 ------------------------------------------------------------------------
 !       r1          0.969    -DE/DX =    0.0                           !
 !       r2          1.4545   -DE/DX =   -0.0002                        !
 !       r3          1.4579   -DE/DX =    0.0011                        !
 !       r4          1.1711   -DE/DX =    0.0066                        !
 !       a1         97.5753   -DE/DX =   -0.0001                        !
 !       a2        102.3111   -DE/DX =    0.0001                        !
 !       a3        109.0655   -DE/DX =    0.0006                        !
 !       d1        180.0      -DE/DX =    0.0                           !
 !       d2        180.0      -DE/DX =    0.0                           !
 ------------------------------------------------------------------------
 GradGradGradGradGradGradGradGradGradGradGradGradGradGradGradGradGradGrad

 Leave Link  103 at Mon Feb 21 20:32:43 2022, MaxMem= 16106127360 cpu:               0.6 elap:               0.0
 (Enter /sw/contrib/gaussian/g16/B01/g16/l9999.exe)

 ----------------------------------------------------------------------

 Electric dipole moment (input orientation):
 (Debye = 10**-18 statcoulomb cm , SI units = C m)
                  (au)            (Debye)         (10**-30 SI)
   Tot        0.562965D+00      0.143091D+01      0.477301D+01
   x         -0.140481D+00     -0.357068D+00     -0.119105D+01
   y          0.000000D+00      0.000000D+00      0.000000D+00
   z         -0.545155D+00     -0.138565D+01     -0.462202D+01

 Dipole polarizability, Alpha (input orientation).
 (esu units = cm**3 , SI units = C**2 m**2 J**-1)
 Alpha(0;0):
               (au)            (10**-24 esu)      (10**-40 SI)
   iso        0.273598D+02      0.405431D+01      0.451102D+01
   aniso      0.218585D+02      0.323909D+01      0.360398D+01
   xx         0.320549D+02      0.475004D+01      0.528513D+01
   yx         0.000000D+00      0.000000D+00      0.000000D+00
   yy         0.179201D+02      0.265549D+01      0.295463D+01
   zx         0.961421D+01      0.142468D+01      0.158517D+01
   zy         0.000000D+00      0.000000D+00      0.000000D+00
   zz         0.321045D+02      0.475739D+01      0.529331D+01

 ----------------------------------------------------------------------

 Dipole orientation:
     1          0.00000000          0.00000000          0.00000000
     8         -0.45692909          0.00000000         -1.77317153
     8          2.09145710          0.00000000         -2.80512252
     7          1.62472405          0.00000000         -5.52202666
     8          3.55654491          0.00000000         -6.58480797

 Electric dipole moment (dipole orientation):
 (Debye = 10**-18 statcoulomb cm , SI units = C m)
                  (au)            (Debye)         (10**-30 SI)
   Tot        0.562965D+00      0.143091D+01      0.477301D+01
   x          0.000000D+00      0.000000D+00      0.000000D+00
   y          0.000000D+00      0.000000D+00      0.000000D+00
   z          0.562965D+00      0.143091D+01      0.477301D+01

 Dipole polarizability, Alpha (dipole orientation).
 (esu units = cm**3 , SI units = C**2 m**2 J**-1)
 Alpha(0;0):
               (au)            (10**-24 esu)      (10**-40 SI)
   iso        0.273598D+02      0.405431D+01      0.451102D+01
   aniso      0.218585D+02      0.323909D+01      0.360398D+01
   xx         0.274115D+02      0.406197D+01      0.451955D+01
   yx         0.000000D+00      0.000000D+00      0.000000D+00
   yy         0.179201D+02      0.265549D+01      0.295463D+01
   zx        -0.840488D+01     -0.124547D+01     -0.138578D+01
   zy         0.000000D+00      0.000000D+00      0.000000D+00
   zz         0.367478D+02      0.544546D+01      0.605890D+01

 ----------------------------------------------------------------------
 1\1\GINC-N2108\Freq\RMP2-FC\Aug-CC-pVTZ\H1N1O3\CGAVINH\21-Feb-2022\1\\
 #p freq mp2/aug-cc-pvtz density=current\\title\\0,1\H\O,1,r1\O,2,r2,1,
 a1\N,3,r3,2,a2,1,d1,0\O,4,r4,3,a3,2,d2,0\\r1=0.96897556\r2=1.45491931\
 r3=1.45878406\r4=1.16676507\a1=97.59494903\a2=102.29752444\a3=109.0695
 5123\d1=180.\d2=180.\\Version=ES64L-G16RevB.01\State=1-A'\HF=-279.5023
 382\MP2=-280.4467089\RMSD=3.684e-09\RMSF=2.320e-03\ZeroPoint=0.0219001
 \Thermal=0.0260404\Dipole=-0.1404812,0.,-0.5451552\DipoleDeriv=0.26635
 56,0.,0.048227,0.,0.3554217,0.,0.0818807,0.,0.2751155,-0.3273411,0.,-0
 .2061305,0.,-0.3145984,0.,-0.1106957,0.,-0.2226397,-0.049034,0.,0.1473
 688,0.,-0.0884069,0.,-0.7532933,0.,-1.3566153,0.9057743,0.,0.9190246,0
 .,0.0663015,0.,0.9266737,0.,1.6745797,-0.7957547,0.,-0.9084899,0.,-0.0
 18718,0.,-0.1445654,0.,-0.3704403\Polar=32.0548504,0.,17.9201393,9.614
 211,0.,32.1044672\Quadrupole=-1.5131215,-0.7295257,2.2426472,0.,2.1003
 814,0.\PG=CS [SG(H1N1O3)]\NImag=1\\0.06462836,0.,-0.00233874,0.0053214
 5,0.,0.51235194,-0.03574916,0.,-0.01633667,0.27292282,0.,0.00302682,0.
 ,0.,0.00213436,0.04819427,0.,-0.50851959,0.03365082,0.,0.59451163,-0.0
 1838653,0.,0.01256211,-0.22037409,0.,-0.02121607,0.34183163,0.,0.00099
 603,0.,0.,-0.00659803,0.,0.,0.00388495,-0.05314989,0.,-0.00048846,-0.0
 1958172,0.,-0.07850493,0.03643634,0.,0.18187535,-0.00925319,0.,-0.0048
 9787,-0.01718095,0.,-0.05251049,-0.07809443,0.,0.17614407,0.85265468,0
 .,-0.00271804,0.,0.,-0.00492455,0.,0.,0.00879382,0.,0.,0.00569161,0.00
 543225,0.,-0.00474573,0.01163517,0.,0.01738002,0.06340977,0.,-0.082034
 76,-0.01291213,0.,0.18622167,-0.00123947,0.,0.00335098,0.00038138,0.,-
 0.00811853,-0.02497658,0.,-0.13984881,-0.74812611,0.,-0.06756507,0.773
 96079,0.,0.00103393,0.,0.,0.00636140,0.,0.,-0.00707676,0.,0.,-0.006842
 84,0.,0.,0.00652428,-0.00579807,0.,0.00140184,-0.00936761,0.,-0.024867
 14,-0.09119215,0.,-0.02084721,-0.10582359,0.,-0.11682121,0.21218142,0.
 ,0.16113371\\-0.00004775,0.,-0.00002897,-0.00015362,0.,0.00000977,0.00
 053985,0.,0.00105821,0.00595190,0.,0.00084698,-0.00629038,0.,-0.001885
 99\\\@


 THIS CURIOUS WORLD WHICH WE INHABIT IS MORE WONDERFUL THAN IT IS CONVENIENT;
 MORE BEAUTIFUL THAN IT IS USEFUL;
 IT IS MORE TO BE ADMIRED THAN IT IS TO BE USED.

                                                                 -- THOREAU
 Job cpu time:       0 days  2 hours  0 minutes 22.9 seconds.
 Elapsed time:       0 days  0 hours  4 minutes 21.1 seconds.
 File lengths (MBytes):  RWF=   7239 Int=      0 D2E=      0 Chk=      8 Scr=      1
 Normal termination of Gaussian 16 at Mon Feb 21 20:32:44 2022.
