title                                                                   
Freq      RMP2-FC                                                     Aug-CC-pVTZ         
Number of atoms                            I                5
Info1-9                                    I   N=           9
          33          24           0           0           0         100
           6           2           1
Full Title                                 C   N=           1
title       
Route                                      C   N=           4
#p freq mp2/aug-cc-pvtz density=current         
Charge                                     I                0
Multiplicity                               I                1
Number of electrons                        I               32
Number of alpha electrons                  I               16
Number of beta electrons                   I               16
Number of basis functions                  I              207
Number of independent functions            I              207
Number of point charges in /Mol/           I                0
Number of translation vectors              I                0
Atomic numbers                             I   N=           5
           1           8           8           7           8
Nuclear charges                            R   N=           5
  1.00000000E+00  8.00000000E+00  8.00000000E+00  7.00000000E+00  8.00000000E+00
Current cartesian coordinates              R   N=          15
  2.07423160E+00 -1.15077229E+00  0.00000000E+00  2.47855745E+00  6.66893010E-01
  9.86076132E-32 -6.67265939E-17  1.72799252E+00  0.00000000E+00 -1.88732679E+00
 -7.46873901E-02  9.86076132E-32 -1.08642545E+00 -2.18568753E+00 -2.46519033E-32
Number of symbols in /Mol/                 I                0
Force Field                                I                0
Atom Types                                 C   N=           5
                                                            
Int Atom Types                             I   N=           5
           0           0           0           0           0
MM charges                                 R   N=           5
  0.00000000E+00  0.00000000E+00  0.00000000E+00  0.00000000E+00  0.00000000E+00
Integer atomic weights                     I   N=           5
           1          16          16          14          16
Real atomic weights                        R   N=           5
  1.00782504E+00  1.59949146E+01  1.59949146E+01  1.40030740E+01  1.59949146E+01
Atom fragment info                         I   N=           5
           0           0           0           0           0
Atom residue num                           I   N=           5
           0           0           0           0           0
Nuclear spins                              I   N=           5
           1           0           0           2           0
Nuclear ZEff                               R   N=           5
 -1.00000000E+00 -5.60000000E+00 -5.60000000E+00 -4.55000000E+00 -5.60000000E+00
Nuclear ZNuc                               R   N=           5
  1.00000000E+00  8.00000000E+00  8.00000000E+00  7.00000000E+00  8.00000000E+00
Nuclear QMom                               R   N=           5
  0.00000000E+00  0.00000000E+00  0.00000000E+00  2.04400000E+00  0.00000000E+00
Nuclear GFac                               R   N=           5
  2.79284600E+00  0.00000000E+00  0.00000000E+00  4.03761000E-01  0.00000000E+00
MicOpt                                     I   N=           5
          -1          -1          -1          -1          -1
Number of residues                         I                0
Number of secondary structures             I                0
SymInf integers                            I   N=          26
           1           2           1           1           1           1
           1          -1           0           0           0           0
           0           0           0           0           0           0
           0           0           0           0           0           0
           0           0
RotTr to input orientation                 R   N=          12
 -9.76141523E-01  1.26161314E-16  2.17135274E-01  2.17135274E-01 -2.80636268E-17
  9.76141523E-01  1.29244900E-16  1.00000000E+00  0.00000000E+00  2.27461685E+00
  0.00000000E+00  6.72927771E-01
Number of contracted shells                I               65
Number of primitive shells                 I              119
Pure/Cartesian d shells                    I                0
Pure/Cartesian f shells                    I                0
Highest angular momentum                   I                3
Largest degree of contraction              I                7
Shell types                                I   N=          65
           0           0           0           0           1           1
           1          -2          -2           0           0           0
           0           0           1           1           1           1
          -2          -2          -2          -3          -3           0
           0           0           0           0           1           1
           1           1          -2          -2          -2          -3
          -3           0           0           0           0           0
           1           1           1           1          -2          -2
          -2          -3          -3           0           0           0
           0           0           1           1           1           1
          -2          -2          -2          -3          -3
Number of primitives per shell             I   N=          65
           3           1           1           1           1           1
           1           1           1           7           6           1
           1           1           3           1           1           1
           1           1           1           1           1           7
           6           1           1           1           3           1
           1           1           1           1           1           1
           1           7           6           1           1           1
           3           1           1           1           1           1
           1           1           1           7           6           1
           1           1           3           1           1           1
           1           1           1           1           1
Shell to atom map                          I   N=          65
           1           1           1           1           1           1
           1           1           1           2           2           2
           2           2           2           2           2           2
           2           2           2           2           2           3
           3           3           3           3           3           3
           3           3           3           3           3           3
           3           4           4           4           4           4
           4           4           4           4           4           4
           4           4           4           5           5           5
           5           5           5           5           5           5
           5           5           5           5           5
Primitive exponents                        R   N=         119
  3.38700000E+01  5.09500000E+00  1.15900000E+00  3.25800000E-01  1.02700000E-01
  2.52600000E-02  1.40700000E+00  3.88000000E-01  1.02000000E-01  1.05700000E+00
  2.47000000E-01  1.53300000E+04  2.29900000E+03  5.22400000E+02  1.47300000E+02
  4.75500000E+01  1.67600000E+01  6.20700000E+00  5.22400000E+02  1.47300000E+02
  4.75500000E+01  1.67600000E+01  6.20700000E+00  6.88200000E-01  1.75200000E+00
  2.38400000E-01  7.37600000E-02  3.44600000E+01  7.74900000E+00  2.28000000E+00
  7.15600000E-01  2.14000000E-01  5.97400000E-02  2.31400000E+00  6.45000000E-01
  2.14000000E-01  1.42800000E+00  5.00000000E-01  1.53300000E+04  2.29900000E+03
  5.22400000E+02  1.47300000E+02  4.75500000E+01  1.67600000E+01  6.20700000E+00
  5.22400000E+02  1.47300000E+02  4.75500000E+01  1.67600000E+01  6.20700000E+00
  6.88200000E-01  1.75200000E+00  2.38400000E-01  7.37600000E-02  3.44600000E+01
  7.74900000E+00  2.28000000E+00  7.15600000E-01  2.14000000E-01  5.97400000E-02
  2.31400000E+00  6.45000000E-01  2.14000000E-01  1.42800000E+00  5.00000000E-01
  1.14200000E+04  1.71200000E+03  3.89300000E+02  1.10000000E+02  3.55700000E+01
  1.25400000E+01  4.64400000E+00  3.89300000E+02  1.10000000E+02  3.55700000E+01
  1.25400000E+01  4.64400000E+00  5.11800000E-01  1.29300000E+00  1.78700000E-01
  5.76000000E-02  2.66300000E+01  5.94800000E+00  1.74200000E+00  5.55000000E-01
  1.72500000E-01  4.91000000E-02  1.65400000E+00  4.69000000E-01  1.51000000E-01
  1.09300000E+00  3.64000000E-01  1.53300000E+04  2.29900000E+03  5.22400000E+02
  1.47300000E+02  4.75500000E+01  1.67600000E+01  6.20700000E+00  5.22400000E+02
  1.47300000E+02  4.75500000E+01  1.67600000E+01  6.20700000E+00  6.88200000E-01
  1.75200000E+00  2.38400000E-01  7.37600000E-02  3.44600000E+01  7.74900000E+00
  2.28000000E+00  7.15600000E-01  2.14000000E-01  5.97400000E-02  2.31400000E+00
  6.45000000E-01  2.14000000E-01  1.42800000E+00  5.00000000E-01
Contraction coefficients                   R   N=         119
  2.54948632E-02  1.90362766E-01  8.52162022E-01  1.00000000E+00  1.00000000E+00
  1.00000000E+00  1.00000000E+00  1.00000000E+00  1.00000000E+00  1.00000000E+00
  1.00000000E+00  5.19808943E-04  4.02025621E-03  2.07128267E-02  8.10105536E-02
  2.35962985E-01  4.42653446E-01  3.57064423E-01 -4.42115008E-05 -1.22591041E-03
 -1.05517725E-02 -6.74452633E-02 -1.71198607E-01  1.07329856E+00  1.00000000E+00
  1.00000000E+00  1.00000000E+00  4.11634896E-02  2.57762836E-01  8.02419274E-01
  1.00000000E+00  1.00000000E+00  1.00000000E+00  1.00000000E+00  1.00000000E+00
  1.00000000E+00  1.00000000E+00  1.00000000E+00  5.19808943E-04  4.02025621E-03
  2.07128267E-02  8.10105536E-02  2.35962985E-01  4.42653446E-01  3.57064423E-01
 -4.42115008E-05 -1.22591041E-03 -1.05517725E-02 -6.74452633E-02 -1.71198607E-01
  1.07329856E+00  1.00000000E+00  1.00000000E+00  1.00000000E+00  4.11634896E-02
  2.57762836E-01  8.02419274E-01  1.00000000E+00  1.00000000E+00  1.00000000E+00
  1.00000000E+00  1.00000000E+00  1.00000000E+00  1.00000000E+00  1.00000000E+00
  5.34563860E-04  4.13435660E-03  2.12335358E-02  8.25006224E-02  2.38138871E-01
  4.42551547E-01  3.53757422E-01 -4.89867350E-05 -1.19527323E-03 -1.03490714E-02
 -6.48680190E-02 -1.71552477E-01  1.07289568E+00  1.00000000E+00  1.00000000E+00
  1.00000000E+00  3.98072123E-02  2.49002660E-01  8.10479727E-01  1.00000000E+00
  1.00000000E+00  1.00000000E+00  1.00000000E+00  1.00000000E+00  1.00000000E+00
  1.00000000E+00  1.00000000E+00  5.19808943E-04  4.02025621E-03  2.07128267E-02
  8.10105536E-02  2.35962985E-01  4.42653446E-01  3.57064423E-01 -4.42115008E-05
 -1.22591041E-03 -1.05517725E-02 -6.74452633E-02 -1.71198607E-01  1.07329856E+00
  1.00000000E+00  1.00000000E+00  1.00000000E+00  4.11634896E-02  2.57762836E-01
  8.02419274E-01  1.00000000E+00  1.00000000E+00  1.00000000E+00  1.00000000E+00
  1.00000000E+00  1.00000000E+00  1.00000000E+00  1.00000000E+00
Coordinates of each shell                  R   N=         195
  2.07423160E+00 -1.15077229E+00  2.93948816E-32  2.07423160E+00 -1.15077229E+00
  2.93948816E-32  2.07423160E+00 -1.15077229E+00  2.93948816E-32  2.07423160E+00
 -1.15077229E+00  2.93948816E-32  2.07423160E+00 -1.15077229E+00  2.93948816E-32
  2.07423160E+00 -1.15077229E+00  2.93948816E-32  2.07423160E+00 -1.15077229E+00
  2.93948816E-32  2.07423160E+00 -1.15077229E+00  2.93948816E-32  2.07423160E+00
 -1.15077229E+00  2.93948816E-32  2.47855745E+00  6.66893010E-01  2.79973752E-32
  2.47855745E+00  6.66893010E-01  2.79973752E-32  2.47855745E+00  6.66893010E-01
  2.79973752E-32  2.47855745E+00  6.66893010E-01  2.79973752E-32  2.47855745E+00
  6.66893010E-01  2.79973752E-32  2.47855745E+00  6.66893010E-01  2.79973752E-32
  2.47855745E+00  6.66893010E-01  2.79973752E-32  2.47855745E+00  6.66893010E-01
  2.79973752E-32  2.47855745E+00  6.66893010E-01  2.79973752E-32  2.47855745E+00
  6.66893010E-01  2.79973752E-32  2.47855745E+00  6.66893010E-01  2.79973752E-32
  2.47855745E+00  6.66893010E-01  2.79973752E-32  2.47855745E+00  6.66893010E-01
  2.79973752E-32  2.47855745E+00  6.66893010E-01  2.79973752E-32  4.55448905E-18
  1.72799252E+00 -6.03143141E-33  4.55448905E-18  1.72799252E+00 -6.03143141E-33
  4.55448905E-18  1.72799252E+00 -6.03143141E-33  4.55448905E-18  1.72799252E+00
 -6.03143141E-33  4.55448905E-18  1.72799252E+00 -6.03143141E-33  4.55448905E-18
  1.72799252E+00 -6.03143141E-33  4.55448905E-18  1.72799252E+00 -6.03143141E-33
  4.55448905E-18  1.72799252E+00 -6.03143141E-33  4.55448905E-18  1.72799252E+00
 -6.03143141E-33  4.55448905E-18  1.72799252E+00 -6.03143141E-33  4.55448905E-18
  1.72799252E+00 -6.03143141E-33  4.55448905E-18  1.72799252E+00 -6.03143141E-33
  4.55448905E-18  1.72799252E+00 -6.03143141E-33  4.55448905E-18  1.72799252E+00
 -6.03143141E-33 -1.88732679E+00 -7.46873901E-02 -2.28307265E-32 -1.88732679E+00
 -7.46873901E-02 -2.28307265E-32 -1.88732679E+00 -7.46873901E-02 -2.28307265E-32
 -1.88732679E+00 -7.46873901E-02 -2.28307265E-32 -1.88732679E+00 -7.46873901E-02
 -2.28307265E-32 -1.88732679E+00 -7.46873901E-02 -2.28307265E-32 -1.88732679E+00
 -7.46873901E-02 -2.28307265E-32 -1.88732679E+00 -7.46873901E-02 -2.28307265E-32
 -1.88732679E+00 -7.46873901E-02 -2.28307265E-32 -1.88732679E+00 -7.46873901E-02
 -2.28307265E-32 -1.88732679E+00 -7.46873901E-02 -2.28307265E-32 -1.88732679E+00
 -7.46873901E-02 -2.28307265E-32 -1.88732679E+00 -7.46873901E-02 -2.28307265E-32
 -1.88732679E+00 -7.46873901E-02 -2.28307265E-32 -1.08642545E+00 -2.18568753E+00
 -5.66341822E-33 -1.08642545E+00 -2.18568753E+00 -5.66341822E-33 -1.08642545E+00
 -2.18568753E+00 -5.66341822E-33 -1.08642545E+00 -2.18568753E+00 -5.66341822E-33
 -1.08642545E+00 -2.18568753E+00 -5.66341822E-33 -1.08642545E+00 -2.18568753E+00
 -5.66341822E-33 -1.08642545E+00 -2.18568753E+00 -5.66341822E-33 -1.08642545E+00
 -2.18568753E+00 -5.66341822E-33 -1.08642545E+00 -2.18568753E+00 -5.66341822E-33
 -1.08642545E+00 -2.18568753E+00 -5.66341822E-33 -1.08642545E+00 -2.18568753E+00
 -5.66341822E-33 -1.08642545E+00 -2.18568753E+00 -5.66341822E-33 -1.08642545E+00
 -2.18568753E+00 -5.66341822E-33 -1.08642545E+00 -2.18568753E+00 -5.66341822E-33
Num ILSW                                   I              100
ILSW                                       I   N=         100
           0           0           0           0           2           0
           0           0           0           0           0          -1
           5           0           0           0           2           0
           0           0           0           0           1           0
           1           0           0           0           0           0
           0           0      100000           0          -1           0
           0           0           0           0           0           0
           0           0           0           1           1           0
           0 -2000000000           1           0           0           0
           0           0           4          52           0           0
           0           0           0           0           0           0
           0           0           0           5           4           1
           0           0           0           0           0           0
           0           0           0           0           0           0
           0           0           0           0           0           0
           0           0           0           0           0           0
           0           0           0           0
Num RLSW                                   I               52
RLSW                                       R   N=          52
  1.00000000E+00  1.00000000E+00  1.00000000E+00  1.00000000E+00  1.00000000E+00
  0.00000000E+00  0.00000000E+00  1.00000000E+00  0.00000000E+00  0.00000000E+00
  0.00000000E+00  0.00000000E+00  1.00000000E+00  0.00000000E+00  0.00000000E+00
  0.00000000E+00  0.00000000E+00  1.00000000E+00  0.00000000E+00  0.00000000E+00
  0.00000000E+00  0.00000000E+00  1.00000000E+00  0.00000000E+00  0.00000000E+00
  0.00000000E+00  0.00000000E+00  1.00000000E+00  0.00000000E+00  0.00000000E+00
  0.00000000E+00  0.00000000E+00  1.00000000E+00  0.00000000E+00  0.00000000E+00
  0.00000000E+00  0.00000000E+00  0.00000000E+00  1.00000000E+00  1.00000000E+00
  0.00000000E+00  1.00000000E+00  0.00000000E+00  0.00000000E+00  0.00000000E+00
  0.00000000E+00  0.00000000E+00  0.00000000E+00  0.00000000E+00  0.00000000E+00
  0.00000000E+00  0.00000000E+00
MxBond                                     I                2
NBond                                      I   N=           5
           1           2           2           2           1
IBond                                      I   N=          10
           2           0           1           3           2           4
           3           5           4           0
RBond                                      R   N=          10
  1.00000000E+00  0.00000000E+00  1.00000000E+00  1.00000000E+00  1.00000000E+00
  1.00000000E+00  1.00000000E+00  2.00000000E+00  2.00000000E+00  0.00000000E+00
Virial Ratio                               R      2.002182626613757E+00
SCF Energy                                 R     -2.795061337247439E+02
MP2 Energy                                 R     -2.804550335545657E+02
Total Energy                               R     -2.804550335545657E+02
Post-SCF wavefunction norm                 R      1.583656824643297E+00
RMS Force                                  R      3.166443644666609E-03
RMS Density                                R      4.559651464357844E-09
NImag                                      I                0
Job Status                                 I                1
Nuclear derivative order                   I                2
External E-field                           R   N=          35
  0.00000000E+00  0.00000000E+00  0.00000000E+00  0.00000000E+00  0.00000000E+00
  0.00000000E+00  0.00000000E+00  0.00000000E+00  0.00000000E+00  0.00000000E+00
  0.00000000E+00  0.00000000E+00  0.00000000E+00  0.00000000E+00  0.00000000E+00
  0.00000000E+00  0.00000000E+00  0.00000000E+00  0.00000000E+00  0.00000000E+00
  0.00000000E+00  0.00000000E+00  0.00000000E+00  0.00000000E+00  0.00000000E+00
  0.00000000E+00  0.00000000E+00  0.00000000E+00  0.00000000E+00  0.00000000E+00
  0.00000000E+00  0.00000000E+00  0.00000000E+00  0.00000000E+00  0.00000000E+00
IOpCl                                      I                0
IROHF                                      I                0
Alpha Orbital Energies                     R   N=         207
 -2.07183413E+01 -2.06865263E+01 -2.06673149E+01 -1.58269375E+01 -1.64612825E+00
 -1.50312195E+00 -1.29316242E+00 -9.59895713E-01 -8.36643044E-01 -7.59225968E-01
 -7.40238644E-01 -6.35304546E-01 -6.17438150E-01 -6.17402787E-01 -5.07095943E-01
 -4.96710636E-01  3.51885348E-02  5.94205296E-02  9.51190879E-02  1.00149939E-01
  1.19679462E-01  1.22524351E-01  1.49746418E-01  1.52301379E-01  1.77310173E-01
  1.80302460E-01  1.90060717E-01  2.10889887E-01  2.16656432E-01  2.42400170E-01
  2.46360669E-01  2.70004624E-01  3.14456734E-01  3.18376632E-01  3.37833145E-01
  3.44491014E-01  3.48076352E-01  3.92485437E-01  4.51455959E-01  4.88693617E-01
  5.05828078E-01  5.17713333E-01  5.46459796E-01  5.59756437E-01  5.99074090E-01
  6.19264341E-01  6.37670805E-01  6.90005176E-01  7.16626644E-01  7.24698520E-01
  7.48296875E-01  7.62055295E-01  7.66914201E-01  7.95890869E-01  8.08648231E-01
  8.39283486E-01  8.43180205E-01  8.52660196E-01  8.85894074E-01  9.09173688E-01
  9.35073026E-01  9.46251825E-01  9.53623301E-01  1.01893664E+00  1.03304214E+00
  1.06688884E+00  1.07301496E+00  1.09798011E+00  1.14764348E+00  1.15729892E+00
  1.16678392E+00  1.22454352E+00  1.22803592E+00  1.24580215E+00  1.35583329E+00
  1.35681660E+00  1.37407138E+00  1.46693839E+00  1.48744229E+00  1.50252116E+00
  1.54376854E+00  1.59799012E+00  1.60469645E+00  1.60682226E+00  1.62968817E+00
  1.69613839E+00  1.74136058E+00  1.80058337E+00  1.83158419E+00  1.88942158E+00
  1.89394752E+00  1.93077411E+00  1.97800081E+00  1.99060550E+00  2.05500919E+00
  2.12813097E+00  2.13080972E+00  2.16753967E+00  2.18981566E+00  2.24583229E+00
  2.25939824E+00  2.29374203E+00  2.35268834E+00  2.37256109E+00  2.38519665E+00
  2.40360578E+00  2.43312737E+00  2.46909298E+00  2.47902502E+00  2.53307817E+00
  2.53940924E+00  2.55502065E+00  2.56106434E+00  2.62170467E+00  2.63202681E+00
  2.67731775E+00  2.68070499E+00  2.75324509E+00  2.81089950E+00  2.82588286E+00
  2.83792158E+00  2.91955994E+00  2.99864445E+00  3.04495983E+00  3.04718043E+00
  3.11226471E+00  3.12042763E+00  3.17879445E+00  3.21386718E+00  3.31247096E+00
  3.32954998E+00  3.36338305E+00  3.47301054E+00  3.67934442E+00  3.87041010E+00
  3.93844767E+00  4.18949560E+00  4.23179296E+00  4.23444140E+00  4.27186906E+00
  4.37565706E+00  4.49856835E+00  4.55087079E+00  4.55219033E+00  4.59894477E+00
  4.69637857E+00  4.81196720E+00  4.89177825E+00  4.91649974E+00  4.93771953E+00
  5.00346065E+00  5.00672954E+00  5.10559734E+00  5.13245069E+00  5.18437188E+00
  5.25393762E+00  5.26301994E+00  5.32145824E+00  5.34958075E+00  5.37017704E+00
  5.55312646E+00  5.64704514E+00  5.71326405E+00  5.89509015E+00  5.99114568E+00
  6.26589409E+00  6.29534205E+00  6.36372319E+00  6.37778364E+00  6.59782939E+00
  6.66127796E+00  6.67285513E+00  6.69815467E+00  6.73031289E+00  6.78217800E+00
  6.80137225E+00  6.87164049E+00  6.96577844E+00  7.02176189E+00  7.06634478E+00
  7.08002307E+00  7.13514331E+00  7.17431760E+00  7.19379818E+00  7.20470861E+00
  7.24805036E+00  7.25143264E+00  7.27375859E+00  7.35060476E+00  7.39110286E+00
  7.43499386E+00  7.44240312E+00  7.46492565E+00  7.56156306E+00  7.66351529E+00
  7.68926823E+00  7.79613213E+00  7.88433016E+00  7.95409242E+00  8.08003684E+00
  8.31140902E+00  8.49740643E+00  8.65278814E+00  1.36255265E+01  1.47639976E+01
  1.51128241E+01  1.58147514E+01
Alpha MO coefficients                      R   N=       42849
  6.26978178E-05  1.71752168E-05 -1.11429959E-03  1.70987039E-05 -5.07777650E-05
  4.16752696E-05  0.00000000E+00 -9.81831039E-05 -2.69766785E-04  0.00000000E+00
 -4.26954516E-06 -3.53880117E-04  0.00000000E+00  4.09387384E-05  0.00000000E+00
  0.00000000E+00 -2.50992359E-05  1.12566965E-05  2.32920930E-04  0.00000000E+00
  0.00000000E+00 -4.48090602E-05 -2.16445063E-04  3.10535847E-03 -9.59179833E-05
 -9.65070658E-05  3.48775724E-03  2.47945138E-03  1.00877764E-04 -5.46083798E-05
  0.00000000E+00 -7.19466311E-04  2.95587431E-04  0.00000000E+00 -1.93615141E-03
  1.13944738E-03  0.00000000E+00 -5.38958591E-04  3.91003161E-05  0.00000000E+00
  2.03753488E-05  0.00000000E+00  0.00000000E+00 -8.36856776E-06  4.41259286E-05
 -4.40517047E-04  0.00000000E+00  0.00000000E+00  4.18319540E-04 -6.68989514E-04
 -3.61425947E-04  0.00000000E+00  0.00000000E+00  5.29685522E-04 -7.54547251E-04
  0.00000000E+00  7.28542306E-05 -5.34103652E-05  0.00000000E+00  0.00000000E+00
 -2.56665023E-05  1.09287861E-04  0.00000000E+00  2.08245462E-04 -5.02614522E-05
  0.00000000E+00  0.00000000E+00 -1.62912629E-04  3.02059082E-04  9.76899989E-01
 -9.17745149E-03  4.34120933E-02  4.76825795E-04 -2.20376652E-03  4.25028004E-04
 -2.15163430E-03  0.00000000E+00 -2.96410452E-04  2.25684220E-03  0.00000000E+00
 -2.28466486E-03 -4.80852656E-04  0.00000000E+00 -2.21396443E-04  9.68199800E-05
  0.00000000E+00  6.30807833E-06  0.00000000E+00  0.00000000E+00 -5.59280818E-06
  3.81862556E-05  8.25675858E-04  0.00000000E+00  0.00000000E+00 -4.77420239E-04
 -1.62873268E-04 -1.47309517E-04  0.00000000E+00  0.00000000E+00 -5.55908548E-04
  3.53557474E-04  0.00000000E+00 -6.72345666E-06 -8.01586980E-05  0.00000000E+00
  0.00000000E+00 -8.41170389E-06  4.73514994E-05  0.00000000E+00  9.03127805E-05
  3.31793290E-06  0.00000000E+00  0.00000000E+00 -3.24854782E-04  3.87297482E-04
  1.04537177E-04  4.56999471E-04 -3.24648278E-04 -8.42429453E-04  3.39214183E-04
 -4.66332435E-05 -9.90514297E-05  0.00000000E+00  7.04620280E-04  1.10278465E-03
  0.00000000E+00 -7.09162952E-04 -5.54068070E-04  0.00000000E+00  2.01179589E-04
  2.16482607E-04  0.00000000E+00 -5.26747955E-05  0.00000000E+00  0.00000000E+00
  1.82013431E-05  9.42949819E-05 -4.16765992E-04  0.00000000E+00  0.00000000E+00
  6.53057154E-05  1.06996765E-03  2.61402968E-05  0.00000000E+00  0.00000000E+00
 -2.86560758E-04  3.63568117E-05  0.00000000E+00 -7.99690968E-05 -1.11847371E-04
  0.00000000E+00  0.00000000E+00 -9.49125191E-05  1.07257479E-04  0.00000000E+00
 -1.30126916E-04  4.19427759E-05  0.00000000E+00  0.00000000E+00  1.95563027E-05
  5.09490806E-04 -7.35044216E-04  6.94520766E-05 -6.73900600E-05  2.78669385E-04
 -1.80347521E-04 -2.69730281E-05 -3.89172559E-05  0.00000000E+00  1.57979686E-04
  2.55737086E-04  0.00000000E+00  4.61136140E-04  3.02459775E-04  0.00000000E+00
 -2.35230738E-04 -6.11104901E-05  0.00000000E+00 -1.42978616E-05  0.00000000E+00
  0.00000000E+00  1.47368829E-06  1.85385854E-05  6.88387618E-06  0.00000000E+00
  0.00000000E+00 -1.52114878E-04 -1.55413018E-05 -7.32320426E-06  0.00000000E+00
  0.00000000E+00 -1.64102427E-04 -8.12988024E-05  0.00000000E+00 -4.91916381E-06
 -6.34823766E-06  0.00000000E+00  0.00000000E+00 -1.92230470E-05  1.13374608E-05
  0.00000000E+00  3.91142141E-05  6.37718109E-05  0.00000000E+00  0.00000000E+00
  1.70293703E-04 -1.00886688E-04  3.60063007E-05  7.42734877E-05 -7.77549038E-05
 -2.93016808E-05  2.66631013E-05  1.79300311E-05  0.00000000E+00  2.16794029E-04
  3.00490326E-05  0.00000000E+00  1.07323975E-04  1.04647419E-05  0.00000000E+00
  8.39993692E-06  0.00000000E+00  0.00000000E+00 -4.73045474E-06  2.25199751E-05
  1.52294815E-05  0.00000000E+00  0.00000000E+00 -7.37075683E-05  7.71076782E-05
 -2.71523408E-04  3.94138744E-05 -1.45618267E-05 -5.32651176E-04  1.52420567E-04
  7.00990390E-06  1.32445871E-05  0.00000000E+00 -3.39877980E-06 -4.62369219E-05
  0.00000000E+00  1.78657898E-04  1.54133173E-04  0.00000000E+00 -4.05338781E-05
  5.34620820E-05  0.00000000E+00 -2.86688253E-06  0.00000000E+00  0.00000000E+00
 -7.70948708E-06 -9.76886068E-06  2.84113340E-05  0.00000000E+00  0.00000000E+00
  4.98087329E-05  1.06082141E-04  6.86972058E-05  0.00000000E+00  0.00000000E+00
 -3.11484347E-05 -8.43909806E-05  0.00000000E+00  7.32671915E-06  9.41445293E-06
  0.00000000E+00  0.00000000E+00 -4.75726228E-07 -2.78011100E-05  0.00000000E+00
 -1.65628033E-05 -4.15836313E-05  0.00000000E+00  0.00000000E+00 -9.21243189E-07
 -1.59520843E-05  7.66917560E-04  2.51013181E-05 -1.30280940E-05  2.77759379E-04
 -4.12360387E-04  1.50249407E-05  2.32141959E-05  0.00000000E+00 -6.00948070E-05
 -1.39204430E-04  0.00000000E+00  1.17918193E-04 -1.80871223E-04  0.00000000E+00
 -1.59777708E-04  1.41150142E-04  0.00000000E+00 -4.28526755E-06  0.00000000E+00
  0.00000000E+00 -3.20198100E-05 -8.42029652E-06 -4.56489775E-05  0.00000000E+00
  0.00000000E+00  9.89893934E-05  1.09346847E-04 -6.11468762E-05  0.00000000E+00
  0.00000000E+00  4.82981511E-05  3.37335224E-05  0.00000000E+00  1.66666975E-06
  1.54126091E-07  0.00000000E+00  0.00000000E+00 -1.03813438E-05 -4.55201095E-06
  0.00000000E+00  5.18155299E-06 -2.31056664E-05  0.00000000E+00  0.00000000E+00
  8.50390501E-05 -1.62171851E-04  2.36294937E-04  1.34921464E-03 -1.49894855E-04
 -7.22608296E-04  9.10968380E-04  6.23621908E-05 -7.25078588E-05  0.00000000E+00
  6.03458887E-04 -2.05362063E-03  0.00000000E+00  1.05480887E-04  4.80784068E-04
  0.00000000E+00  1.96006862E-04 -2.97967334E-04  0.00000000E+00 -1.26997699E-04
  0.00000000E+00  0.00000000E+00 -2.00326954E-04 -1.64640534E-04 -4.63775229E-04
  0.00000000E+00  0.00000000E+00 -5.62886979E-04 -9.23644088E-04 -4.35250661E-05
  0.00000000E+00  0.00000000E+00  6.67089761E-05  1.18644004E-04  0.00000000E+00
  7.03707621E-06  3.48210323E-05  0.00000000E+00  0.00000000E+00 -2.37356209E-05
 -4.78309419E-06  0.00000000E+00 -1.40375419E-04  1.60787068E-04  0.00000000E+00
  0.00000000E+00 -3.04335109E-04 -3.67380978E-05  9.76641938E-01 -9.88019382E-03
  4.35826701E-02  3.69273150E-03 -8.98576367E-04 -4.92201662E-04  2.11614469E-03
  0.00000000E+00  5.67691491E-04 -2.48399297E-03  0.00000000E+00 -1.05759060E-04
  8.38012111E-04  0.00000000E+00  9.89038779E-05 -6.42808123E-05  0.00000000E+00
 -1.95059017E-04  0.00000000E+00  0.00000000E+00 -7.24831429E-05 -4.32693171E-05
  4.07898157E-04  0.00000000E+00  0.00000000E+00  8.30406499E-04  5.13709563E-04
 -2.05397129E-04  0.00000000E+00  0.00000000E+00 -1.58182680E-04 -4.23547736E-05
  0.00000000E+00 -6.39142800E-06  6.99797583E-05  0.00000000E+00  0.00000000E+00
 -2.76553635E-05  9.35511063E-06  0.00000000E+00 -8.91843971E-05  8.95974900E-05
  0.00000000E+00  0.00000000E+00 -1.78216282E-04  1.90243196E-04  3.69183153E-04
  2.02143947E-03  1.43300976E-03 -1.45195982E-05  5.47021132E-05  2.67682786E-04
  0.00000000E+00  3.55089307E-04  1.01922480E-03  0.00000000E+00 -1.44016886E-04
  2.33331918E-04  0.00000000E+00 -2.50622714E-05  0.00000000E+00  0.00000000E+00
  3.44585891E-05 -3.10806590E-05 -2.19463129E-04  0.00000000E+00  0.00000000E+00
 -3.45694058E-04  4.13515325E-04  9.76833346E-01 -9.18817692E-03  4.34676000E-02
  1.05132438E-04 -1.90964623E-03 -2.04926217E-03 -8.14005751E-04  0.00000000E+00
  2.09202753E-03  7.52071615E-04  0.00000000E+00 -3.72804142E-04  6.35387618E-04
  0.00000000E+00  2.22552519E-04 -3.02439226E-04  0.00000000E+00  2.99844130E-05
  0.00000000E+00  0.00000000E+00 -7.50703892E-05  6.54031442E-05  7.66320184E-04
  0.00000000E+00  0.00000000E+00 -2.08164162E-04  3.54026538E-04 -2.41405268E-04
  0.00000000E+00  0.00000000E+00  3.24572915E-04 -9.63053264E-07  0.00000000E+00
 -8.12101313E-05  1.57773205E-06  0.00000000E+00  0.00000000E+00  1.47559661E-05