title                                                                   
Freq      RMP2-FC                                                     Aug-CC-pVTZ         
Number of atoms                            I                5
Info1-9                                    I   N=           9
          33          24           0           0           0         100
           6           2           1
Full Title                                 C   N=           1
title       
Route                                      C   N=           4
#p freq mp2/aug-cc-pvtz density=current         
Charge                                     I                0
Multiplicity                               I                1
Number of electrons                        I               32
Number of alpha electrons                  I               16
Number of beta electrons                   I               16
Number of basis functions                  I              207
Number of independent functions            I              207
Number of point charges in /Mol/           I                0
Number of translation vectors              I                0
Atomic numbers                             I   N=           5
           1           8           8           7           8
Nuclear charges                            R   N=           5
  1.00000000E+00  8.00000000E+00  8.00000000E+00  7.00000000E+00  8.00000000E+00
Current cartesian coordinates              R   N=          15
  2.08293074E+00 -1.11439615E+00  0.00000000E+00  2.46617181E+00  7.07831281E-01
  0.00000000E+00  1.04519078E-16  1.72998595E+00  0.00000000E+00 -1.86631609E+00
 -9.44376687E-02  0.00000000E+00 -1.09351157E+00 -2.21588475E+00  0.00000000E+00
Number of symbols in /Mol/                 I                0
Force Field                                I                0
Atom Types                                 C   N=           5
                                                            
Int Atom Types                             I   N=           5
           0           0           0           0           0
MM charges                                 R   N=           5
  0.00000000E+00  0.00000000E+00  0.00000000E+00  0.00000000E+00  0.00000000E+00
Integer atomic weights                     I   N=           5
           1          16          16          14          16
Real atomic weights                        R   N=           5
  1.00782504E+00  1.59949146E+01  1.59949146E+01  1.40030740E+01  1.59949146E+01
Atom fragment info                         I   N=           5
           0           0           0           0           0
Atom residue num                           I   N=           5
           0           0           0           0           0
Nuclear spins                              I   N=           5
           1           0           0           2           0
Nuclear ZEff                               R   N=           5
 -1.00000000E+00 -5.60000000E+00 -5.60000000E+00 -4.55000000E+00 -5.60000000E+00
Nuclear ZNuc                               R   N=           5
  1.00000000E+00  8.00000000E+00  8.00000000E+00  7.00000000E+00  8.00000000E+00
Nuclear QMom                               R   N=           5
  0.00000000E+00  0.00000000E+00  0.00000000E+00  2.04400000E+00  0.00000000E+00
Nuclear GFac                               R   N=           5
  2.79284600E+00  0.00000000E+00  0.00000000E+00  4.03761000E-01  0.00000000E+00
MicOpt                                     I   N=           5
          -1          -1          -1          -1          -1
Number of residues                         I                0
Number of secondary structures             I                0
SymInf integers                            I   N=          26
           1           2           1           1           1           1
           1          -1           0           0           0           0
           0           0           0           0           0           0
           0           0           0           0           0           0
           0           0
RotTr to input orientation                 R   N=          12
 -9.78591528E-01  0.00000000E+00  2.05812104E-01  2.05812104E-01  0.00000000E+00
  9.78591528E-01  0.00000000E+00  1.00000000E+00  0.00000000E+00  2.26769459E+00
  0.00000000E+00  6.61846277E-01
Number of contracted shells                I               65
Number of primitive shells                 I              119
Pure/Cartesian d shells                    I                0
Pure/Cartesian f shells                    I                0
Highest angular momentum                   I                3
Largest degree of contraction              I                7
Shell types                                I   N=          65
           0           0           0           0           1           1
           1          -2          -2           0           0           0
           0           0           1           1           1           1
          -2          -2          -2          -3          -3           0
           0           0           0           0           1           1
           1           1          -2          -2          -2          -3
          -3           0           0           0           0           0
           1           1           1           1          -2          -2
          -2          -3          -3           0           0           0
           0           0           1           1           1           1
          -2          -2          -2          -3          -3
Number of primitives per shell             I   N=          65
           3           1           1           1           1           1
           1           1           1           7           6           1
           1           1           3           1           1           1
           1           1           1           1           1           7
           6           1           1           1           3           1
           1           1           1           1           1           1
           1           7           6           1           1           1
           3           1           1           1           1           1
           1           1           1           7           6           1
           1           1           3           1           1           1
           1           1           1           1           1
Shell to atom map                          I   N=          65
           1           1           1           1           1           1
           1           1           1           2           2           2
           2           2           2           2           2           2
           2           2           2           2           2           3
           3           3           3           3           3           3
           3           3           3           3           3           3
           3           4           4           4           4           4
           4           4           4           4           4           4
           4           4           4           5           5           5
           5           5           5           5           5           5
           5           5           5           5           5
Primitive exponents                        R   N=         119
  3.38700000E+01  5.09500000E+00  1.15900000E+00  3.25800000E-01  1.02700000E-01
  2.52600000E-02  1.40700000E+00  3.88000000E-01  1.02000000E-01  1.05700000E+00
  2.47000000E-01  1.53300000E+04  2.29900000E+03  5.22400000E+02  1.47300000E+02
  4.75500000E+01  1.67600000E+01  6.20700000E+00  5.22400000E+02  1.47300000E+02
  4.75500000E+01  1.67600000E+01  6.20700000E+00  6.88200000E-01  1.75200000E+00
  2.38400000E-01  7.37600000E-02  3.44600000E+01  7.74900000E+00  2.28000000E+00
  7.15600000E-01  2.14000000E-01  5.97400000E-02  2.31400000E+00  6.45000000E-01
  2.14000000E-01  1.42800000E+00  5.00000000E-01  1.53300000E+04  2.29900000E+03
  5.22400000E+02  1.47300000E+02  4.75500000E+01  1.67600000E+01  6.20700000E+00
  5.22400000E+02  1.47300000E+02  4.75500000E+01  1.67600000E+01  6.20700000E+00
  6.88200000E-01  1.75200000E+00  2.38400000E-01  7.37600000E-02  3.44600000E+01
  7.74900000E+00  2.28000000E+00  7.15600000E-01  2.14000000E-01  5.97400000E-02
  2.31400000E+00  6.45000000E-01  2.14000000E-01  1.42800000E+00  5.00000000E-01
  1.14200000E+04  1.71200000E+03  3.89300000E+02  1.10000000E+02  3.55700000E+01
  1.25400000E+01  4.64400000E+00  3.89300000E+02  1.10000000E+02  3.55700000E+01
  1.25400000E+01  4.64400000E+00  5.11800000E-01  1.29300000E+00  1.78700000E-01
  5.76000000E-02  2.66300000E+01  5.94800000E+00  1.74200000E+00  5.55000000E-01
  1.72500000E-01  4.91000000E-02  1.65400000E+00  4.69000000E-01  1.51000000E-01
  1.09300000E+00  3.64000000E-01  1.53300000E+04  2.29900000E+03  5.22400000E+02
  1.47300000E+02  4.75500000E+01  1.67600000E+01  6.20700000E+00  5.22400000E+02
  1.47300000E+02  4.75500000E+01  1.67600000E+01  6.20700000E+00  6.88200000E-01
  1.75200000E+00  2.38400000E-01  7.37600000E-02  3.44600000E+01  7.74900000E+00
  2.28000000E+00  7.15600000E-01  2.14000000E-01  5.97400000E-02  2.31400000E+00
  6.45000000E-01  2.14000000E-01  1.42800000E+00  5.00000000E-01
Contraction coefficients                   R   N=         119
  2.54948632E-02  1.90362766E-01  8.52162022E-01  1.00000000E+00  1.00000000E+00
  1.00000000E+00  1.00000000E+00  1.00000000E+00  1.00000000E+00  1.00000000E+00
  1.00000000E+00  5.19808943E-04  4.02025621E-03  2.07128267E-02  8.10105536E-02
  2.35962985E-01  4.42653446E-01  3.57064423E-01 -4.42115008E-05 -1.22591041E-03
 -1.05517725E-02 -6.74452633E-02 -1.71198607E-01  1.07329856E+00  1.00000000E+00
  1.00000000E+00  1.00000000E+00  4.11634896E-02  2.57762836E-01  8.02419274E-01
  1.00000000E+00  1.00000000E+00  1.00000000E+00  1.00000000E+00  1.00000000E+00
  1.00000000E+00  1.00000000E+00  1.00000000E+00  5.19808943E-04  4.02025621E-03
  2.07128267E-02  8.10105536E-02  2.35962985E-01  4.42653446E-01  3.57064423E-01
 -4.42115008E-05 -1.22591041E-03 -1.05517725E-02 -6.74452633E-02 -1.71198607E-01
  1.07329856E+00  1.00000000E+00  1.00000000E+00  1.00000000E+00  4.11634896E-02
  2.57762836E-01  8.02419274E-01  1.00000000E+00  1.00000000E+00  1.00000000E+00
  1.00000000E+00  1.00000000E+00  1.00000000E+00  1.00000000E+00  1.00000000E+00
  5.34563860E-04  4.13435660E-03  2.12335358E-02  8.25006224E-02  2.38138871E-01
  4.42551547E-01  3.53757422E-01 -4.89867350E-05 -1.19527323E-03 -1.03490714E-02
 -6.48680190E-02 -1.71552477E-01  1.07289568E+00  1.00000000E+00  1.00000000E+00
  1.00000000E+00  3.98072123E-02  2.49002660E-01  8.10479727E-01  1.00000000E+00
  1.00000000E+00  1.00000000E+00  1.00000000E+00  1.00000000E+00  1.00000000E+00
  1.00000000E+00  1.00000000E+00  5.19808943E-04  4.02025621E-03  2.07128267E-02
  8.10105536E-02  2.35962985E-01  4.42653446E-01  3.57064423E-01 -4.42115008E-05
 -1.22591041E-03 -1.05517725E-02 -6.74452633E-02 -1.71198607E-01  1.07329856E+00
  1.00000000E+00  1.00000000E+00  1.00000000E+00  4.11634896E-02  2.57762836E-01
  8.02419274E-01  1.00000000E+00  1.00000000E+00  1.00000000E+00  1.00000000E+00
  1.00000000E+00  1.00000000E+00  1.00000000E+00  1.00000000E+00
Coordinates of each shell                  R   N=         195
  2.08293074E+00 -1.11439615E+00  0.00000000E+00  2.08293074E+00 -1.11439615E+00
  0.00000000E+00  2.08293074E+00 -1.11439615E+00  0.00000000E+00  2.08293074E+00
 -1.11439615E+00  0.00000000E+00  2.08293074E+00 -1.11439615E+00  0.00000000E+00
  2.08293074E+00 -1.11439615E+00  0.00000000E+00  2.08293074E+00 -1.11439615E+00
  0.00000000E+00  2.08293074E+00 -1.11439615E+00  0.00000000E+00  2.08293074E+00
 -1.11439615E+00  0.00000000E+00  2.46617181E+00  7.07831281E-01  0.00000000E+00
  2.46617181E+00  7.07831281E-01  0.00000000E+00  2.46617181E+00  7.07831281E-01
  0.00000000E+00  2.46617181E+00  7.07831281E-01  0.00000000E+00  2.46617181E+00
  7.07831281E-01  0.00000000E+00  2.46617181E+00  7.07831281E-01  0.00000000E+00
  2.46617181E+00  7.07831281E-01  0.00000000E+00  2.46617181E+00  7.07831281E-01
  0.00000000E+00  2.46617181E+00  7.07831281E-01  0.00000000E+00  2.46617181E+00
  7.07831281E-01  0.00000000E+00  2.46617181E+00  7.07831281E-01  0.00000000E+00
  2.46617181E+00  7.07831281E-01  0.00000000E+00  2.46617181E+00  7.07831281E-01
  0.00000000E+00  2.46617181E+00  7.07831281E-01  0.00000000E+00 -3.50277383E-17
  1.72998595E+00  0.00000000E+00 -3.50277383E-17  1.72998595E+00  0.00000000E+00
 -3.50277383E-17  1.72998595E+00  0.00000000E+00 -3.50277383E-17  1.72998595E+00
  0.00000000E+00 -3.50277383E-17  1.72998595E+00  0.00000000E+00 -3.50277383E-17
  1.72998595E+00  0.00000000E+00 -3.50277383E-17  1.72998595E+00  0.00000000E+00
 -3.50277383E-17  1.72998595E+00  0.00000000E+00 -3.50277383E-17  1.72998595E+00
  0.00000000E+00 -3.50277383E-17  1.72998595E+00  0.00000000E+00 -3.50277383E-17
  1.72998595E+00  0.00000000E+00 -3.50277383E-17  1.72998595E+00  0.00000000E+00
 -3.50277383E-17  1.72998595E+00  0.00000000E+00 -3.50277383E-17  1.72998595E+00
  0.00000000E+00 -1.86631609E+00 -9.44376687E-02  0.00000000E+00 -1.86631609E+00
 -9.44376687E-02  0.00000000E+00 -1.86631609E+00 -9.44376687E-02  0.00000000E+00
 -1.86631609E+00 -9.44376687E-02  0.00000000E+00 -1.86631609E+00 -9.44376687E-02
  0.00000000E+00 -1.86631609E+00 -9.44376687E-02  0.00000000E+00 -1.86631609E+00
 -9.44376687E-02  0.00000000E+00 -1.86631609E+00 -9.44376687E-02  0.00000000E+00
 -1.86631609E+00 -9.44376687E-02  0.00000000E+00 -1.86631609E+00 -9.44376687E-02
  0.00000000E+00 -1.86631609E+00 -9.44376687E-02  0.00000000E+00 -1.86631609E+00
 -9.44376687E-02  0.00000000E+00 -1.86631609E+00 -9.44376687E-02  0.00000000E+00
 -1.86631609E+00 -9.44376687E-02  0.00000000E+00 -1.09351157E+00 -2.21588475E+00
  0.00000000E+00 -1.09351157E+00 -2.21588475E+00  0.00000000E+00 -1.09351157E+00
 -2.21588475E+00  0.00000000E+00 -1.09351157E+00 -2.21588475E+00  0.00000000E+00
 -1.09351157E+00 -2.21588475E+00  0.00000000E+00 -1.09351157E+00 -2.21588475E+00
  0.00000000E+00 -1.09351157E+00 -2.21588475E+00  0.00000000E+00 -1.09351157E+00
 -2.21588475E+00  0.00000000E+00 -1.09351157E+00 -2.21588475E+00  0.00000000E+00
 -1.09351157E+00 -2.21588475E+00  0.00000000E+00 -1.09351157E+00 -2.21588475E+00
  0.00000000E+00 -1.09351157E+00 -2.21588475E+00  0.00000000E+00 -1.09351157E+00
 -2.21588475E+00  0.00000000E+00 -1.09351157E+00 -2.21588475E+00  0.00000000E+00
Num ILSW                                   I              100
ILSW                                       I   N=         100
           0           0           0           0           2           0
           0           0           0           0           0          -1
           5           0           0           0           2           0
           0           0           0           0           1           0
           1           0           0           0           0           0
           0           0      100000           0          -1           0
           0           0           0           0           0           0
           0           0           0           1           1           0
           0 -2000000000           1           0           0           0
           0           0           4          52           0           0
           0           0           0           0           0           0
           0           0           0           5           4           1
           0           0           0           0           0           0
           0           0           0           0           0           0
           0           0           0           0           0           0
           0           0           0           0           0           0
           0           0           0           0
Num RLSW                                   I               52
RLSW                                       R   N=          52
  1.00000000E+00  1.00000000E+00  1.00000000E+00  1.00000000E+00  1.00000000E+00
  0.00000000E+00  0.00000000E+00  1.00000000E+00  0.00000000E+00  0.00000000E+00
  0.00000000E+00  0.00000000E+00  1.00000000E+00  0.00000000E+00  0.00000000E+00
  0.00000000E+00  0.00000000E+00  1.00000000E+00  0.00000000E+00  0.00000000E+00
  0.00000000E+00  0.00000000E+00  1.00000000E+00  0.00000000E+00  0.00000000E+00
  0.00000000E+00  0.00000000E+00  1.00000000E+00  0.00000000E+00  0.00000000E+00
  0.00000000E+00  0.00000000E+00  1.00000000E+00  0.00000000E+00  0.00000000E+00
  0.00000000E+00  0.00000000E+00  0.00000000E+00  1.00000000E+00  1.00000000E+00
  0.00000000E+00  1.00000000E+00  0.00000000E+00  0.00000000E+00  0.00000000E+00
  0.00000000E+00  0.00000000E+00  0.00000000E+00  0.00000000E+00  0.00000000E+00
  0.00000000E+00  0.00000000E+00
MxBond                                     I                2
NBond                                      I   N=           5
           1           2           2           2           1
IBond                                      I   N=          10
           2           0           1           3           2           4
           3           5           4           0
RBond                                      R   N=          10
  1.00000000E+00  0.00000000E+00  1.00000000E+00  1.00000000E+00  1.00000000E+00
  1.00000000E+00  1.00000000E+00  2.00000000E+00  2.00000000E+00  0.00000000E+00
Virial Ratio                               R      2.002136512505230E+00
SCF Energy                                 R     -2.795071596445544E+02
MP2 Energy                                 R     -2.804551430444543E+02
Total Energy                               R     -2.804551430444543E+02
Post-SCF wavefunction norm                 R      1.583051118071333E+00
RMS Force                                  R      2.417970463209459E-03
RMS Density                                R      4.180625241497212E-09
NImag                                      I                0
Job Status                                 I                1
Nuclear derivative order                   I                2
External E-field                           R   N=          35
  0.00000000E+00  0.00000000E+00  0.00000000E+00  0.00000000E+00  0.00000000E+00
  0.00000000E+00  0.00000000E+00  0.00000000E+00  0.00000000E+00  0.00000000E+00
  0.00000000E+00  0.00000000E+00  0.00000000E+00  0.00000000E+00  0.00000000E+00
  0.00000000E+00  0.00000000E+00  0.00000000E+00  0.00000000E+00  0.00000000E+00
  0.00000000E+00  0.00000000E+00  0.00000000E+00  0.00000000E+00  0.00000000E+00
  0.00000000E+00  0.00000000E+00  0.00000000E+00  0.00000000E+00  0.00000000E+00
  0.00000000E+00  0.00000000E+00  0.00000000E+00  0.00000000E+00  0.00000000E+00
IOpCl                                      I                0
IROHF                                      I                0
Alpha Orbital Energies                     R   N=         207
 -2.07198925E+01 -2.06874713E+01 -2.06669561E+01 -1.58258198E+01 -1.64666311E+00
 -1.50996568E+00 -1.29196911E+00 -9.61146447E-01 -8.37278638E-01 -7.59948315E-01
 -7.42007906E-01 -6.35385273E-01 -6.22011674E-01 -6.19835966E-01 -5.05204933E-01
 -4.95096264E-01  3.52262182E-02  6.01868661E-02  9.51366317E-02  1.00520400E-01
  1.19611384E-01  1.22886210E-01  1.49664371E-01  1.53380659E-01  1.77486596E-01
  1.80136765E-01  1.89691226E-01  2.11079413E-01  2.16845851E-01  2.46368509E-01
  2.49272325E-01  2.68868452E-01  3.13630792E-01  3.17118864E-01  3.38293746E-01
  3.44363790E-01  3.48041517E-01  3.92381060E-01  4.49345901E-01  4.89619232E-01
  5.05345409E-01  5.18665624E-01  5.44527519E-01  5.61137031E-01  5.99206775E-01
  6.20661339E-01  6.39007914E-01  6.90015363E-01  7.16928679E-01  7.23808034E-01
  7.44620429E-01  7.64366519E-01  7.68632846E-01  7.94808441E-01  8.06672296E-01
  8.38946258E-01  8.43356561E-01  8.51459025E-01  8.85849704E-01  9.09173871E-01
  9.32584900E-01  9.48098377E-01  9.53483550E-01  1.01896298E+00  1.03350297E+00
  1.06540290E+00  1.06632166E+00  1.09691939E+00  1.14552747E+00  1.15717797E+00
  1.16939649E+00  1.22326396E+00  1.22735719E+00  1.24681928E+00  1.35610504E+00
  1.35954150E+00  1.37205551E+00  1.46783150E+00  1.48451145E+00  1.50435954E+00
  1.54297147E+00  1.59762928E+00  1.59782946E+00  1.60590284E+00  1.63018551E+00
  1.69637832E+00  1.74276143E+00  1.80120125E+00  1.82988456E+00  1.88850712E+00
  1.90013717E+00  1.93083603E+00  1.98153429E+00  1.99017913E+00  2.05231832E+00
  2.12518828E+00  2.13111293E+00  2.16759005E+00  2.18831346E+00  2.24359628E+00
  2.26563145E+00  2.29662244E+00  2.35533136E+00  2.36745584E+00  2.38704073E+00
  2.40163849E+00  2.44091813E+00  2.47071612E+00  2.48190677E+00  2.52987816E+00
  2.53901322E+00  2.55235354E+00  2.55964520E+00  2.61729124E+00  2.63437347E+00
  2.67703045E+00  2.67760409E+00  2.76190260E+00  2.81366226E+00  2.81899958E+00
  2.84386516E+00  2.92238578E+00  2.98718778E+00  3.05065679E+00  3.05421665E+00
  3.11704345E+00  3.12091036E+00  3.18007467E+00  3.22140603E+00  3.31437754E+00
  3.33607092E+00  3.36321701E+00  3.49221199E+00  3.67822810E+00  3.87130248E+00
  3.93600924E+00  4.18856755E+00  4.22685325E+00  4.22801811E+00  4.27168984E+00
  4.37143449E+00  4.51295911E+00  4.53567309E+00  4.56123131E+00  4.60353013E+00
  4.69191093E+00  4.81335031E+00  4.90018011E+00  4.91541545E+00  4.94314817E+00
  4.99908760E+00  5.00524949E+00  5.10786419E+00  5.13620888E+00  5.17919575E+00
  5.25145203E+00  5.25852214E+00  5.32066133E+00  5.35035193E+00  5.36557721E+00
  5.54516114E+00  5.64513494E+00  5.70955219E+00  5.90894772E+00  6.00413327E+00
  6.24145604E+00  6.29846271E+00  6.37031358E+00  6.37198264E+00  6.59339607E+00
  6.64986246E+00  6.66173590E+00  6.68974944E+00  6.72433424E+00  6.79695301E+00
  6.80891398E+00  6.84860707E+00  6.97022899E+00  7.03081630E+00  7.07306307E+00
  7.08693162E+00  7.14518008E+00  7.18169581E+00  7.18337752E+00  7.21847075E+00
  7.25071167E+00  7.25847108E+00  7.27394624E+00  7.35364872E+00  7.40185587E+00
  7.43916041E+00  7.44262282E+00  7.47193851E+00  7.56285943E+00  7.67339069E+00
  7.67615277E+00  7.80644814E+00  7.89862222E+00  7.95935979E+00  8.07722083E+00
  8.33049434E+00  8.50898320E+00  8.66776423E+00  1.36745361E+01  1.47874634E+01
  1.51268410E+01  1.57867683E+01
Alpha MO coefficients                      R   N=       42849
  6.45129172E-05 -1.64028674E-05 -1.12141728E-03  1.68925482E-05 -4.70779892E-05
  3.92012747E-05  0.00000000E+00 -6.76263472E-05 -2.78129687E-04  0.00000000E+00
  2.17471017E-05 -3.36644753E-04  0.00000000E+00  4.13634353E-05  0.00000000E+00
  0.00000000E+00 -2.56601368E-05  1.97023346E-05  2.30748012E-04  0.00000000E+00
  0.00000000E+00 -4.52446362E-05 -2.15706797E-04  3.11967889E-03 -6.58107600E-05
 -1.10201154E-04  3.71841180E-03  2.55976841E-03  1.07010451E-04 -5.47299123E-05
  0.00000000E+00 -7.95777727E-04  3.20221189E-04  0.00000000E+00 -2.08639541E-03
  1.14454571E-03  0.00000000E+00 -5.59390517E-04  4.79305945E-05  0.00000000E+00
  1.61096020E-05  0.00000000E+00  0.00000000E+00 -4.37804813E-06  3.65840515E-05
 -4.57422587E-04  0.00000000E+00  0.00000000E+00  4.57462254E-04 -6.69654314E-04
 -3.74002064E-04  0.00000000E+00  0.00000000E+00  5.67384849E-04 -7.39593230E-04
  0.00000000E+00  7.63453384E-05 -5.35965508E-05  0.00000000E+00  0.00000000E+00
 -2.96794056E-05  1.10511596E-04  0.00000000E+00  2.09167487E-04 -4.56207606E-05
  0.00000000E+00  0.00000000E+00 -1.71488692E-04  2.88123647E-04  9.76893829E-01
 -9.17657000E-03  4.34309758E-02  3.09150490E-04 -2.28228119E-03  4.93558101E-04
 -2.16037350E-03  0.00000000E+00 -3.83600633E-04  2.27128601E-03  0.00000000E+00
 -2.41983612E-03 -4.55025250E-04  0.00000000E+00 -2.43353277E-04  9.98560580E-05
  0.00000000E+00  3.55907203E-06  0.00000000E+00  0.00000000E+00 -1.09723113E-06
  3.31676433E-05  8.43789134E-04  0.00000000E+00  0.00000000E+00 -4.97317914E-04
 -1.51637033E-04 -1.25579531E-04  0.00000000E+00  0.00000000E+00 -5.70966298E-04
  3.68994061E-04  0.00000000E+00 -3.38353757E-06 -8.01041417E-05  0.00000000E+00
  0.00000000E+00 -1.08614244E-05  5.04313923E-05  0.00000000E+00  9.89238361E-05
 -2.19528025E-06  0.00000000E+00  0.00000000E+00 -3.41981738E-04  3.88981685E-04
  1.04400477E-04  4.58427288E-04 -3.21776529E-04 -8.38547669E-04  3.25601308E-04
 -4.28460393E-05 -9.98305732E-05  0.00000000E+00  6.90806855E-04  1.11469265E-03
  0.00000000E+00 -7.73708604E-04 -6.75634770E-04  0.00000000E+00  1.88130845E-04
  2.07934725E-04  0.00000000E+00 -5.23361544E-05  0.00000000E+00  0.00000000E+00
  1.84561030E-05  9.38531796E-05 -4.14134639E-04  0.00000000E+00  0.00000000E+00
  2.58642436E-05  1.07556851E-03  2.73549800E-05  0.00000000E+00  0.00000000E+00
 -3.20167461E-04  1.82467107E-05  0.00000000E+00 -7.72244417E-05 -1.13515622E-04
  0.00000000E+00  0.00000000E+00 -9.83232912E-05  1.03708543E-04  0.00000000E+00
 -1.24411296E-04  4.80606076E-05  0.00000000E+00  0.00000000E+00  6.33571924E-06
  5.17062240E-04 -7.08336025E-04  4.05547367E-05 -7.05164729E-05  2.19696509E-04
 -1.52920271E-04 -2.87963327E-05 -4.15431884E-05  0.00000000E+00  1.67647478E-04
  2.52002084E-04  0.00000000E+00  5.42029075E-04  3.30806915E-04  0.00000000E+00
 -2.10891427E-04 -5.76401110E-05  0.00000000E+00 -1.27611099E-05  0.00000000E+00
  0.00000000E+00  3.07266621E-06  1.51005937E-05 -3.01393555E-06  0.00000000E+00
  0.00000000E+00 -1.62279862E-04  9.27951474E-06 -2.46089186E-05  0.00000000E+00
  0.00000000E+00 -1.67653882E-04 -4.08352111E-05  0.00000000E+00 -5.77069191E-06
 -9.06106931E-06  0.00000000E+00  0.00000000E+00 -2.11702260E-05  9.28479296E-06
  0.00000000E+00  3.91964745E-05  6.03409043E-05  0.00000000E+00  0.00000000E+00
  1.57804189E-04 -1.00854555E-04  3.88678432E-05  6.93531605E-05 -1.02266616E-04
 -3.07730318E-05  2.15917032E-05  1.26680249E-05  0.00000000E+00  2.38554357E-04
  6.26797589E-05  0.00000000E+00  1.19144700E-04  2.39286513E-05  0.00000000E+00
  1.17427151E-05  0.00000000E+00  0.00000000E+00 -1.09457991E-05  1.76557456E-05
  1.89942050E-05  0.00000000E+00  0.00000000E+00 -9.54841467E-05  6.58075758E-05
 -2.41518296E-04  2.51592382E-05 -1.42456302E-05 -5.80970339E-04  1.53278907E-04
  7.44512414E-06  1.37111664E-05  0.00000000E+00  7.51801784E-07 -4.37430208E-05
  0.00000000E+00  1.96647192E-04  1.43488386E-04  0.00000000E+00 -4.28024859E-05
  4.89847105E-05  0.00000000E+00 -1.64794620E-06  0.00000000E+00  0.00000000E+00
 -8.31477371E-06 -1.15600061E-05  2.29316416E-05  0.00000000E+00  0.00000000E+00
  5.09208702E-05  1.11487825E-04  6.39449727E-05  0.00000000E+00  0.00000000E+00
 -3.25282637E-05 -8.36136941E-05  0.00000000E+00  7.75882378E-06  1.03112018E-05
  0.00000000E+00  0.00000000E+00 -9.17965377E-07 -2.60026226E-05  0.00000000E+00
 -1.35179008E-05 -3.80799300E-05  0.00000000E+00  0.00000000E+00 -1.61171163E-06
 -1.90573312E-05  7.35198603E-04  2.12865831E-05 -1.96901896E-05  3.20618924E-04
 -3.93922297E-04  1.62331053E-05  2.74174031E-05  0.00000000E+00 -6.45717156E-05
 -1.54756619E-04  0.00000000E+00  1.64877963E-04 -2.23687891E-04  0.00000000E+00
 -1.56431416E-04  1.41920768E-04  0.00000000E+00 -3.94596237E-06  0.00000000E+00
  0.00000000E+00 -2.97748391E-05 -1.04339757E-05 -5.30679594E-05  0.00000000E+00
  0.00000000E+00  8.12536371E-05  1.24090464E-04 -6.69291524E-05  0.00000000E+00
  0.00000000E+00  3.45043532E-05  2.38583536E-05  0.00000000E+00  2.85714109E-06
  3.23872331E-06  0.00000000E+00  0.00000000E+00 -7.52127649E-06 -2.58365502E-06
  0.00000000E+00  3.70815933E-06 -2.45190305E-05  0.00000000E+00  0.00000000E+00
  1.00272815E-04 -1.54295197E-04  2.36837111E-04  1.35638091E-03 -1.46389387E-04
 -7.05165878E-04  9.11210216E-04  6.35766546E-05 -7.06176859E-05  0.00000000E+00
  5.78087271E-04 -2.08429683E-03  0.00000000E+00  1.01320972E-04  5.10718108E-04
  0.00000000E+00  1.88119562E-04 -3.06242129E-04  0.00000000E+00 -1.27740186E-04
  0.00000000E+00  0.00000000E+00 -2.03052711E-04 -1.59947732E-04 -4.59829262E-04
  0.00000000E+00  0.00000000E+00 -5.94812969E-04 -9.29364758E-04 -4.19571668E-05
  0.00000000E+00  0.00000000E+00  5.57597052E-05  1.20999647E-04  0.00000000E+00
  8.28833260E-06  3.71459751E-05  0.00000000E+00  0.00000000E+00 -2.44844653E-05
 -4.60007850E-06  0.00000000E+00 -1.36711425E-04  1.56840363E-04  0.00000000E+00
  0.00000000E+00 -3.15283967E-04 -4.13267338E-05  9.76645780E-01 -9.88610550E-03
  4.35758052E-02  3.69711977E-03 -8.99779401E-04 -4.52076824E-04  2.13216111E-03
  0.00000000E+00  5.19390964E-04 -2.50672682E-03  0.00000000E+00 -7.74342222E-05
  8.22352914E-04  0.00000000E+00  1.04576805E-04 -6.47760288E-05  0.00000000E+00
 -1.93501000E-04  0.00000000E+00  0.00000000E+00 -7.43283671E-05 -4.43288571E-05
  4.09423468E-04  0.00000000E+00  0.00000000E+00  8.57214583E-04  4.89516773E-04
 -2.04821442E-04  0.00000000E+00  0.00000000E+00 -1.43640299E-04 -3.53152938E-05
  0.00000000E+00 -5.17381832E-06  7.03783923E-05  0.00000000E+00  0.00000000E+00
 -2.85225508E-05  1.04087526E-05  0.00000000E+00 -8.93072062E-05  9.12512172E-05
  0.00000000E+00  0.00000000E+00 -1.70373018E-04  2.04212200E-04  3.70992987E-04
  1.96985706E-03  1.41890854E-03 -2.40409311E-05  4.94850262E-05  2.62769290E-04
  0.00000000E+00  3.79035867E-04  1.00858460E-03  0.00000000E+00 -1.47368479E-04
  2.29904751E-04  0.00000000E+00 -2.24359027E-05  0.00000000E+00  0.00000000E+00
  3.79867053E-05 -2.94430860E-05 -2.18486640E-04  0.00000000E+00  0.00000000E+00
 -3.46499494E-04  4.12238035E-04  9.76822252E-01 -9.18928770E-03  4.34930657E-02
  3.71332008E-06 -2.01788237E-03 -2.07214476E-03 -8.22349776E-04  0.00000000E+00
  2.12869106E-03  7.43414341E-04  0.00000000E+00 -3.17720216E-04  6.24217796E-04
  0.00000000E+00  2.46211543E-04 -3.13026449E-04  0.00000000E+00  2.64221699E-05
  0.00000000E+00  0.00000000E+00 -6.93141872E-05  5.91881950E-05  7.81270473E-04
  0.00000000E+00  0.00000000E+00 -2.44913686E-04  3.76081723E-04 -2.26352033E-04
  0.00000000E+00  0.00000000E+00  3.11668569E-04  1.66902990E-05  0.00000000E+00
 -8.30869823E-05  4.02446908E-06  0.00000000E+00  0.00000000E+00  1.86405512E-05