 Entering Gaussian System, Link 0=g16
 Input=hoono_a3_115p7584.gjf
 Output=hoono_a3_115p7584.log
 Initial command:
 /sw/contrib/gaussian/g16/B01/g16/l1.exe "/scr/Gau-2136.inp" -scrdir="/scr/"
 Entering Link 1 = /sw/contrib/gaussian/g16/B01/g16/l1.exe PID=      2137.
  
 Copyright (c) 1988-2017, Gaussian, Inc.  All Rights Reserved.
  
 This is part of the Gaussian(R) 16 program.  It is based on
 the Gaussian(R) 09 system (copyright 2009, Gaussian, Inc.),
 the Gaussian(R) 03 system (copyright 2003, Gaussian, Inc.),
 the Gaussian(R) 98 system (copyright 1998, Gaussian, Inc.),
 the Gaussian(R) 94 system (copyright 1995, Gaussian, Inc.),
 the Gaussian 92(TM) system (copyright 1992, Gaussian, Inc.),
 the Gaussian 90(TM) system (copyright 1990, Gaussian, Inc.),
 the Gaussian 88(TM) system (copyright 1988, Gaussian, Inc.),
 the Gaussian 86(TM) system (copyright 1986, Carnegie Mellon
 University), and the Gaussian 82(TM) system (copyright 1983,
 Carnegie Mellon University). Gaussian is a federally registered
 trademark of Gaussian, Inc.
  
 This software contains proprietary and confidential information,
 including trade secrets, belonging to Gaussian, Inc.
  
 This software is provided under written license and may be
 used, copied, transmitted, or stored only in accord with that
 written license.
  
 The following legend is applicable only to US Government
 contracts under FAR:
  
                    RESTRICTED RIGHTS LEGEND
  
 Use, reproduction and disclosure by the US Government is
 subject to restrictions as set forth in subparagraphs (a)
 and (c) of the Commercial Computer Software - Restricted
 Rights clause in FAR 52.227-19.
  
 Gaussian, Inc.
 340 Quinnipiac St., Bldg. 40, Wallingford CT 06492
  
  
 ---------------------------------------------------------------
 Warning -- This program may not be used in any manner that
 competes with the business of Gaussian, Inc. or will provide
 assistance to any competitor of Gaussian, Inc.  The licensee
 of this program is prohibited from giving any competitor of
 Gaussian, Inc. access to this program.  By using this program,
 the user acknowledges that Gaussian, Inc. is engaged in the
 business of creating and licensing software in the field of
 computational chemistry and represents and warrants to the
 licensee that it is not a competitor of Gaussian, Inc. and that
 it will not use this program in any manner prohibited above.
 ---------------------------------------------------------------
  

 Cite this work as:
 Gaussian 16, Revision B.01,
 M. J. Frisch, G. W. Trucks, H. B. Schlegel, G. E. Scuseria, 
 M. A. Robb, J. R. Cheeseman, G. Scalmani, V. Barone, 
 G. A. Petersson, H. Nakatsuji, X. Li, M. Caricato, A. V. Marenich, 
 J. Bloino, B. G. Janesko, R. Gomperts, B. Mennucci, H. P. Hratchian, 
 J. V. Ortiz, A. F. Izmaylov, J. L. Sonnenberg, D. Williams-Young, 
 F. Ding, F. Lipparini, F. Egidi, J. Goings, B. Peng, A. Petrone, 
 T. Henderson, D. Ranasinghe, V. G. Zakrzewski, J. Gao, N. Rega, 
 G. Zheng, W. Liang, M. Hada, M. Ehara, K. Toyota, R. Fukuda, 
 J. Hasegawa, M. Ishida, T. Nakajima, Y. Honda, O. Kitao, H. Nakai, 
 T. Vreven, K. Throssell, J. A. Montgomery, Jr., J. E. Peralta, 
 F. Ogliaro, M. J. Bearpark, J. J. Heyd, E. N. Brothers, K. N. Kudin, 
 V. N. Staroverov, T. A. Keith, R. Kobayashi, J. Normand, 
 K. Raghavachari, A. P. Rendell, J. C. Burant, S. S. Iyengar, 
 J. Tomasi, M. Cossi, J. M. Millam, M. Klene, C. Adamo, R. Cammi, 
 J. W. Ochterski, R. L. Martin, K. Morokuma, O. Farkas, 
 J. B. Foresman, and D. J. Fox, Gaussian, Inc., Wallingford CT, 2016.
 
 ******************************************
 Gaussian 16:  ES64L-G16RevB.01 20-Dec-2017
                 6-Mar-2022 
 ******************************************
 %nproc=28
 Will use up to   28 processors via shared memory.
 %mem=120GB
 %chk=hoono_a3_115p7584.chk
 ---------------------------------------
 #p freq mp2/aug-cc-pvtz density=current
 ---------------------------------------
 1/10=4,30=1,38=1/1,3;
 2/12=2,17=6,18=5,40=1/2;
 3/5=16,6=1,7=10,11=9,25=1,30=1,71=2,140=1/1,2,3;
 4//1;
 5/5=2,38=5,98=1/2;
 8/6=3,8=1,10=1,19=11,30=-1/1;
 9/15=3,16=-3/6;
 11/6=1,8=1,15=11,17=12,24=-1,27=1,28=-2,29=300,32=6,42=3/1,2,10;
 10/6=2,21=1/2;
 8/6=4,8=1,10=1,19=11,30=-1/11,4;
 10/5=1,20=4/2;
 11/12=2,14=11,16=1,17=2,28=-2,42=3,76=2/2,10,12;
 6/7=2,8=2,9=2,10=2,22=-1/1;
 7/8=1,10=1,12=2,25=1,44=2/1,2,3,16;
 1/10=4,30=1/3;
 99//99;
 Leave Link    1 at Sun Mar  6 19:40:04 2022, MaxMem= 16106127360 cpu:               2.7 elap:               0.1
 (Enter /sw/contrib/gaussian/g16/B01/g16/l101.exe)
 -----
 title
 -----
 Symbolic Z-matrix:
 Charge =  0 Multiplicity = 1
 H
 O                    1    r1
 O                    2    r2       1    a1
 N                    3    r3       2    a2       1    d1       0
 O                    4    r4       3    a3       2    d2       0
       Variables:
  r1                    0.98538                  
  r2                    1.42674                  
  r3                    1.38111                  
  r4                    1.19479                  
  a1                  100.63551                  
  a2                  113.13777                  
  a3                  115.7584                   
  d1                    0.                       
  d2                    0.                       
 
 ITRead=  0  0  0  0  0
 MicOpt= -1 -1 -1 -1 -1
 NAtoms=      5 NQM=        5 NQMF=       0 NMMI=      0 NMMIF=      0
                NMic=       0 NMicF=      0.
                    Isotopes and Nuclear Properties:
 (Nuclear quadrupole moments (NQMom) in fm**2, nuclear magnetic moments (NMagM)
  in nuclear magnetons)

  Atom         1           2           3           4           5
 IAtWgt=           1          16          16          14          16
 AtmWgt=   1.0078250  15.9949146  15.9949146  14.0030740  15.9949146
 NucSpn=           1           0           0           2           0
 AtZEff=  -0.0000000  -0.0000000  -0.0000000  -0.0000000  -0.0000000
 NQMom=    0.0000000   0.0000000   0.0000000   2.0440000   0.0000000
 NMagM=    2.7928460   0.0000000   0.0000000   0.4037610   0.0000000
 AtZNuc=   1.0000000   8.0000000   8.0000000   7.0000000   8.0000000
 Leave Link  101 at Sun Mar  6 19:40:04 2022, MaxMem= 16106127360 cpu:               2.8 elap:               0.1
 (Enter /sw/contrib/gaussian/g16/B01/g16/l103.exe)

 GradGradGradGradGradGradGradGradGradGradGradGradGradGradGradGradGradGrad
 Berny optimization.
 Initialization pass.
                       ----------------------------
                       !    Initial Parameters    !
                       ! (Angstroms and Degrees)  !
 ----------------------                            ----------------------
 !      Name          Value   Derivative information (Atomic Units)     !
 ------------------------------------------------------------------------
 !       r1          0.9854   calculate D2E/DX2 analytically            !
 !       r2          1.4267   calculate D2E/DX2 analytically            !
 !       r3          1.3811   calculate D2E/DX2 analytically            !
 !       r4          1.1948   calculate D2E/DX2 analytically            !
 !       a1        100.6355   calculate D2E/DX2 analytically            !
 !       a2        113.1378   calculate D2E/DX2 analytically            !
 !       a3        115.7584   calculate D2E/DX2 analytically            !
 !       d1          0.0      calculate D2E/DX2 analytically            !
 !       d2          0.0      calculate D2E/DX2 analytically            !
 ------------------------------------------------------------------------
 Trust Radius=3.00D-01 FncErr=1.00D-07 GrdErr=1.00D-07 EigMax=2.50D+02 EigMin=1.00D-04
 Number of steps in this run=      2 maximum allowed number of steps=      2.
 GradGradGradGradGradGradGradGradGradGradGradGradGradGradGradGradGradGrad

 Leave Link  103 at Sun Mar  6 19:40:04 2022, MaxMem= 16106127360 cpu:               1.2 elap:               0.1
 (Enter /sw/contrib/gaussian/g16/B01/g16/l202.exe)
                          Input orientation:                          
 ---------------------------------------------------------------------
 Center     Atomic      Atomic             Coordinates (Angstroms)
 Number     Number       Type             X           Y           Z
 ---------------------------------------------------------------------
      1          1           0        0.000000    0.000000    0.000000
      2          8           0        0.000000    0.000000    0.985377
      3          8           0        1.402227    0.000000    1.248696
      4          7           0        2.169996    0.000000    0.100659
      5          8           0        1.564164    0.000000   -0.929141
 ---------------------------------------------------------------------
                    Distance matrix (angstroms):
                    1          2          3          4          5
     1  H    0.000000
     2  O    0.985377   0.000000
     3  O    1.877627   1.426737   0.000000
     4  N    2.172329   2.343418   1.381108   0.000000
     5  O    1.819316   2.472243   2.183849   1.194788   0.000000
 Stoichiometry    HNO3
 Framework group  CS[SG(HNO3)]
 Deg. of freedom     7
 Full point group                 CS      NOp   2
 Largest Abelian subgroup         CS      NOp   2
 Largest concise Abelian subgroup C1      NOp   1
                         Standard orientation:                         
 ---------------------------------------------------------------------
 Center     Atomic      Atomic             Coordinates (Angstroms)
 Number     Number       Type             X           Y           Z
 ---------------------------------------------------------------------
      1          1           0        1.120724   -0.587030    0.000000
      2          8           0        1.320001    0.377986    0.000000
      3          8           0        0.000000    0.919442    0.000000
      4          7           0       -0.984077   -0.049604    0.000000
      5          8           0       -0.599024   -1.180645    0.000000
 ---------------------------------------------------------------------
 Rotational constants (GHZ):          21.5097658           7.9713574           5.8159938
 Leave Link  202 at Sun Mar  6 19:40:04 2022, MaxMem= 16106127360 cpu:               0.7 elap:               0.1
 (Enter /sw/contrib/gaussian/g16/B01/g16/l301.exe)
 Standard basis: Aug-CC-pVTZ (5D, 7F)
 Ernie: Thresh=  0.10000D-02 Tol=  0.10000D-05 Strict=F.
 Ernie:  12 primitive shells out of 131 were deleted.
 There are   166 symmetry adapted cartesian basis functions of A'  symmetry.
 There are    79 symmetry adapted cartesian basis functions of A"  symmetry.
 There are   136 symmetry adapted basis functions of A'  symmetry.
 There are    71 symmetry adapted basis functions of A"  symmetry.
   207 basis functions,   315 primitive gaussians,   245 cartesian basis functions
    16 alpha electrons       16 beta electrons
       nuclear repulsion energy       122.4326696969 Hartrees.
 IExCor=    0 DFT=F Ex=HF Corr=None ExCW=0 ScaHFX=  1.000000
 ScaDFX=  1.000000  1.000000  1.000000  1.000000 ScalE2=  1.000000  1.000000
 IRadAn=      5 IRanWt=     -1 IRanGd=            0 ICorTp=0 IEmpDi=  4
 NAtoms=    5 NActive=    5 NUniq=    5 SFac= 1.00D+00 NAtFMM=   60 NAOKFM=F Big=F
 Integral buffers will be    131072 words long.
 Raffenetti 1 integral format.
 Two-electron integral symmetry is turned on.
 Leave Link  301 at Sun Mar  6 19:40:05 2022, MaxMem= 16106127360 cpu:               1.7 elap:               0.1
 (Enter /sw/contrib/gaussian/g16/B01/g16/l302.exe)
 NPDir=0 NMtPBC=     1 NCelOv=     1 NCel=       1 NClECP=     1 NCelD=      1
         NCelK=      1 NCelE2=     1 NClLst=     1 CellRange=     0.0.
 One-electron integrals computed using PRISM.
 One-electron integral symmetry used in STVInt
 NBasis=   207 RedAO= T EigKep=  1.31D-04  NBF=   136    71
 NBsUse=   207 1.00D-06 EigRej= -1.00D+00 NBFU=   136    71
 Leave Link  302 at Sun Mar  6 19:40:05 2022, MaxMem= 16106127360 cpu:               4.7 elap:               0.2
 (Enter /sw/contrib/gaussian/g16/B01/g16/l303.exe)
 DipDrv:  MaxL=1.
 Leave Link  303 at Sun Mar  6 19:40:05 2022, MaxMem= 16106127360 cpu:               0.8 elap:               0.1
 (Enter /sw/contrib/gaussian/g16/B01/g16/l401.exe)
 ExpMin= 2.53D-02 ExpMax= 1.53D+04 ExpMxC= 5.22D+02 IAcc=3 IRadAn=         5 AccDes= 0.00D+00
 Harris functional with IExCor=  205 and IRadAn=       5 diagonalized for initial guess.
 HarFok:  IExCor=  205 AccDes= 0.00D+00 IRadAn=         5 IDoV= 1 UseB2=F ITyADJ=14
 ICtDFT=  3500011 ScaDFX=  1.000000  1.000000  1.000000  1.000000
 FoFCou: FMM=F IPFlag=           0 FMFlag=      100000 FMFlg1=           0
         NFxFlg=           0 DoJE=T BraDBF=F KetDBF=T FulRan=T
         wScrn=  0.000000 ICntrl=       500 IOpCl=  0 I1Cent=   200000004 NGrid=           0
         NMat0=    1 NMatS0=      1 NMatT0=    0 NMatD0=    1 NMtDS0=    0 NMtDT0=    0
 Petite list used in FoFCou.
 Harris En= -279.644624459494    
 JPrj=0 DoOrth=F DoCkMO=F.
 Initial guess orbital symmetries:
       Occupied  (A') (A') (A') (A') (A') (A') (A') (A') (A') (A')
                 (A") (A') (A") (A') (A") (A')
       Virtual   (A") (A') (A') (A') (A') (A") (A') (A') (A') (A')
                 (A") (A') (A") (A') (A') (A") (A') (A') (A") (A')
                 (A') (A') (A') (A') (A") (A') (A') (A') (A") (A')
                 (A') (A") (A') (A") (A') (A") (A') (A") (A') (A")
                 (A') (A") (A') (A") (A') (A') (A') (A') (A") (A')
                 (A') (A") (A') (A") (A') (A") (A') (A') (A') (A")
                 (A') (A') (A") (A') (A') (A') (A") (A") (A') (A')
                 (A") (A') (A") (A") (A') (A') (A") (A') (A') (A')
                 (A") (A') (A') (A") (A') (A") (A') (A") (A') (A')
                 (A') (A") (A') (A") (A') (A') (A") (A') (A") (A')
                 (A") (A') (A') (A") (A") (A') (A') (A') (A") (A')
                 (A") (A') (A') (A') (A") (A') (A') (A') (A") (A')
                 (A") (A') (A') (A") (A") (A") (A") (A') (A') (A')
                 (A') (A') (A') (A") (A') (A") (A') (A") (A') (A')
                 (A") (A") (A') (A') (A') (A") (A') (A') (A') (A")
                 (A') (A') (A') (A") (A') (A") (A") (A') (A") (A')
                 (A') (A") (A") (A') (A") (A') (A') (A") (A") (A')
                 (A") (A") (A") (A') (A') (A") (A') (A') (A') (A")
                 (A') (A') (A') (A') (A') (A') (A') (A') (A') (A')
                 (A')
 The electronic state of the initial guess is 1-A'.
 Leave Link  401 at Sun Mar  6 19:40:05 2022, MaxMem= 16106127360 cpu:               6.8 elap:               0.3
 (Enter /sw/contrib/gaussian/g16/B01/g16/l502.exe)
 Keep R1 ints in memory in symmetry-blocked form, NReq=348887737.
 FoFCou: FMM=F IPFlag=           0 FMFlag=           0 FMFlg1=           0
         NFxFlg=           0 DoJE=F BraDBF=F KetDBF=F FulRan=T
         wScrn=  0.000000 ICntrl=       600 IOpCl=  0 I1Cent=           0 NGrid=           0
         NMat0=    1 NMatS0=  21528 NMatT0=    0 NMatD0=    1 NMtDS0=    0 NMtDT0=    0
 Petite list used in FoFCou.
 Closed shell SCF:
 Using DIIS extrapolation, IDIIS=  1040.
 NGot= 16106127360 LenX= 15988850015 LenY= 15988789549
 Requested convergence on RMS density matrix=1.00D-08 within 128 cycles.
 Requested convergence on MAX density matrix=1.00D-06.
 Requested convergence on             energy=1.00D-06.
 No special actions if energy rises.

 Cycle   1  Pass 1  IDiag  1:
 E= -279.363890630849    
 DIIS: error= 2.70D-02 at cycle   1 NSaved=   1.
 NSaved= 1 IEnMin= 1 EnMin= -279.363890630849     IErMin= 1 ErrMin= 2.70D-02
 ErrMax= 2.70D-02  0.00D+00 EMaxC= 1.00D-01 BMatC= 4.50D-01 BMatP= 4.50D-01
 IDIUse=3 WtCom= 7.30D-01 WtEn= 2.70D-01
 Coeff-Com:  0.100D+01
 Coeff-En:   0.100D+01
 Coeff:      0.100D+01
 Gap=     0.499 Goal=   None    Shift=    0.000
 GapD=    0.499 DampG=2.000 DampE=0.500 DampFc=1.0000 IDamp=-1.
 RMSDP=1.67D-03 MaxDP=8.54D-02              OVMax= 1.22D-01

 Cycle   2  Pass 1  IDiag  1:
 E= -279.446020258743     Delta-E=       -0.082129627894 Rises=F Damp=F
 DIIS: error= 1.91D-02 at cycle   2 NSaved=   2.
 NSaved= 2 IEnMin= 2 EnMin= -279.446020258743     IErMin= 2 ErrMin= 1.91D-02
 ErrMax= 1.91D-02  0.00D+00 EMaxC= 1.00D-01 BMatC= 8.60D-02 BMatP= 4.50D-01
 IDIUse=3 WtCom= 8.09D-01 WtEn= 1.91D-01
 Coeff-Com:  0.219D+00 0.781D+00
 Coeff-En:   0.759D-01 0.924D+00
 Coeff:      0.191D+00 0.809D+00
 Gap=     0.562 Goal=   None    Shift=    0.000
 RMSDP=9.67D-04 MaxDP=3.69D-02 DE=-8.21D-02 OVMax= 9.08D-02

 Cycle   3  Pass 1  IDiag  1:
 E= -279.483748462947     Delta-E=       -0.037728204204 Rises=F Damp=F
 DIIS: error= 1.12D-02 at cycle   3 NSaved=   3.
 NSaved= 3 IEnMin= 3 EnMin= -279.483748462947     IErMin= 3 ErrMin= 1.12D-02
 ErrMax= 1.12D-02  0.00D+00 EMaxC= 1.00D-01 BMatC= 3.11D-02 BMatP= 8.60D-02
 IDIUse=3 WtCom= 8.88D-01 WtEn= 1.12D-01
 Coeff-Com: -0.347D-01 0.365D+00 0.670D+00
 Coeff-En:   0.000D+00 0.219D+00 0.781D+00
 Coeff:     -0.308D-01 0.349D+00 0.682D+00
 Gap=     0.542 Goal=   None    Shift=    0.000
 RMSDP=4.10D-04 MaxDP=1.55D-02 DE=-3.77D-02 OVMax= 3.93D-02

 Cycle   4  Pass 1  IDiag  1:
 E= -279.504984309304     Delta-E=       -0.021235846358 Rises=F Damp=F
 DIIS: error= 1.68D-03 at cycle   4 NSaved=   4.
 NSaved= 4 IEnMin= 4 EnMin= -279.504984309304     IErMin= 4 ErrMin= 1.68D-03
 ErrMax= 1.68D-03  0.00D+00 EMaxC= 1.00D-01 BMatC= 6.04D-04 BMatP= 3.11D-02
 IDIUse=3 WtCom= 9.83D-01 WtEn= 1.68D-02
 Coeff-Com: -0.120D-01 0.468D-01 0.154D+00 0.811D+00
 Coeff-En:   0.000D+00 0.000D+00 0.000D+00 0.100D+01
 Coeff:     -0.118D-01 0.460D-01 0.151D+00 0.815D+00
 Gap=     0.529 Goal=   None    Shift=    0.000
 RMSDP=9.94D-05 MaxDP=2.31D-03 DE=-2.12D-02 OVMax= 1.18D-02

 Cycle   5  Pass 1  IDiag  1:
 E= -279.505802533858     Delta-E=       -0.000818224554 Rises=F Damp=F
 DIIS: error= 1.09D-03 at cycle   5 NSaved=   5.
 NSaved= 5 IEnMin= 5 EnMin= -279.505802533858     IErMin= 5 ErrMin= 1.09D-03
 ErrMax= 1.09D-03  0.00D+00 EMaxC= 1.00D-01 BMatC= 1.03D-04 BMatP= 6.04D-04
 IDIUse=3 WtCom= 9.89D-01 WtEn= 1.09D-02
 Coeff-Com:  0.540D-02-0.661D-01-0.111D+00 0.597D-01 0.111D+01
 Coeff-En:   0.000D+00 0.000D+00 0.000D+00 0.000D+00 0.100D+01
 Coeff:      0.534D-02-0.654D-01-0.110D+00 0.591D-01 0.111D+01
 Gap=     0.533 Goal=   None    Shift=    0.000
 RMSDP=8.00D-05 MaxDP=2.12D-03 DE=-8.18D-04 OVMax= 1.29D-02

 Cycle   6  Pass 1  IDiag  1:
 E= -279.506166316451     Delta-E=       -0.000363782592 Rises=F Damp=F
 DIIS: error= 3.39D-04 at cycle   6 NSaved=   6.
 NSaved= 6 IEnMin= 6 EnMin= -279.506166316451     IErMin= 6 ErrMin= 3.39D-04
 ErrMax= 3.39D-04  0.00D+00 EMaxC= 1.00D-01 BMatC= 2.39D-05 BMatP= 1.03D-04
 IDIUse=3 WtCom= 9.97D-01 WtEn= 3.39D-03
 Coeff-Com:  0.188D-02-0.695D-02-0.176D-01-0.181D+00 0.106D-01 0.119D+01
 Coeff-En:   0.000D+00 0.000D+00 0.000D+00 0.000D+00 0.000D+00 0.100D+01
 Coeff:      0.187D-02-0.693D-02-0.175D-01-0.181D+00 0.105D-01 0.119D+01
 Gap=     0.533 Goal=   None    Shift=    0.000
 RMSDP=4.67D-05 MaxDP=1.08D-03 DE=-3.64D-04 OVMax= 6.05D-03

 Cycle   7  Pass 1  IDiag  1:
 E= -279.506252019651     Delta-E=       -0.000085703200 Rises=F Damp=F
 DIIS: error= 1.31D-04 at cycle   7 NSaved=   7.
 NSaved= 7 IEnMin= 7 EnMin= -279.506252019651     IErMin= 7 ErrMin= 1.31D-04
 ErrMax= 1.31D-04  0.00D+00 EMaxC= 1.00D-01 BMatC= 3.56D-06 BMatP= 2.39D-05
 IDIUse=3 WtCom= 9.99D-01 WtEn= 1.31D-03
 Coeff-Com: -0.110D-02 0.115D-01 0.251D-01 0.180D-01-0.182D+00-0.160D+00
 Coeff-Com:  0.129D+01
 Coeff-En:   0.000D+00 0.000D+00 0.000D+00 0.000D+00 0.000D+00 0.000D+00
 Coeff-En:   0.100D+01
 Coeff:     -0.110D-02 0.115D-01 0.251D-01 0.180D-01-0.182D+00-0.159D+00
 Coeff:      0.129D+01
 Gap=     0.533 Goal=   None    Shift=    0.000
 RMSDP=1.76D-05 MaxDP=5.14D-04 DE=-8.57D-05 OVMax= 2.32D-03

 Cycle   8  Pass 1  IDiag  1:
 E= -279.506264028722     Delta-E=       -0.000012009071 Rises=F Damp=F
 DIIS: error= 4.70D-05 at cycle   8 NSaved=   8.
 NSaved= 8 IEnMin= 8 EnMin= -279.506264028722     IErMin= 8 ErrMin= 4.70D-05
 ErrMax= 4.70D-05  0.00D+00 EMaxC= 1.00D-01 BMatC= 5.88D-07 BMatP= 3.56D-06
 IDIUse=1 WtCom= 1.00D+00 WtEn= 0.00D+00
 Coeff-Com: -0.552D-03 0.402D-02 0.954D-02 0.245D-01-0.563D-01-0.191D+00
 Coeff-Com:  0.354D+00 0.856D+00
 Coeff:     -0.552D-03 0.402D-02 0.954D-02 0.245D-01-0.563D-01-0.191D+00
 Coeff:      0.354D+00 0.856D+00
 Gap=     0.533 Goal=   None    Shift=    0.000
 RMSDP=5.36D-06 MaxDP=1.53D-04 DE=-1.20D-05 OVMax= 6.33D-04

 Cycle   9  Pass 1  IDiag  1:
 E= -279.506265375639     Delta-E=       -0.000001346917 Rises=F Damp=F
 DIIS: error= 2.45D-05 at cycle   9 NSaved=   9.
 NSaved= 9 IEnMin= 9 EnMin= -279.506265375639     IErMin= 9 ErrMin= 2.45D-05
 ErrMax= 2.45D-05  0.00D+00 EMaxC= 1.00D-01 BMatC= 1.17D-07 BMatP= 5.88D-07
 IDIUse=1 WtCom= 1.00D+00 WtEn= 0.00D+00
 Coeff-Com:  0.241D-03-0.256D-02-0.531D-02-0.559D-02 0.470D-01 0.488D-01
 Coeff-Com: -0.341D+00 0.403D-01 0.122D+01
 Coeff:      0.241D-03-0.256D-02-0.531D-02-0.559D-02 0.470D-01 0.488D-01
 Coeff:     -0.341D+00 0.403D-01 0.122D+01
 Gap=     0.533 Goal=   None    Shift=    0.000
 RMSDP=2.44D-06 MaxDP=6.62D-05 DE=-1.35D-06 OVMax= 2.57D-04

 Cycle  10  Pass 1  IDiag  1:
 E= -279.506265638361     Delta-E=       -0.000000262722 Rises=F Damp=F
 DIIS: error= 5.87D-06 at cycle  10 NSaved=  10.
 NSaved=10 IEnMin=10 EnMin= -279.506265638361     IErMin=10 ErrMin= 5.87D-06
 ErrMax= 5.87D-06  0.00D+00 EMaxC= 1.00D-01 BMatC= 8.27D-09 BMatP= 1.17D-07
 IDIUse=1 WtCom= 1.00D+00 WtEn= 0.00D+00
 Coeff-Com: -0.389D-04 0.502D-03 0.121D-02-0.184D-02-0.111D-01 0.528D-02
 Coeff-Com:  0.739D-01-0.571D-01-0.439D+00 0.143D+01
 Coeff:     -0.389D-04 0.502D-03 0.121D-02-0.184D-02-0.111D-01 0.528D-02
 Coeff:      0.739D-01-0.571D-01-0.439D+00 0.143D+01
 Gap=     0.533 Goal=   None    Shift=    0.000
 RMSDP=7.08D-07 MaxDP=2.57D-05 DE=-2.63D-07 OVMax= 7.58D-05

 Cycle  11  Pass 1  IDiag  1:
 E= -279.506265663329     Delta-E=       -0.000000024967 Rises=F Damp=F
 DIIS: error= 2.22D-06 at cycle  11 NSaved=  11.
 NSaved=11 IEnMin=11 EnMin= -279.506265663329     IErMin=11 ErrMin= 2.22D-06
 ErrMax= 2.22D-06  0.00D+00 EMaxC= 1.00D-01 BMatC= 8.13D-10 BMatP= 8.27D-09
 IDIUse=1 WtCom= 1.00D+00 WtEn= 0.00D+00
 Coeff-Com: -0.154D-04 0.153D-03 0.315D-03 0.903D-03-0.192D-02-0.712D-02
 Coeff-Com:  0.172D-01 0.197D-01-0.389D-01-0.346D+00 0.136D+01
 Coeff:     -0.154D-04 0.153D-03 0.315D-03 0.903D-03-0.192D-02-0.712D-02
 Coeff:      0.172D-01 0.197D-01-0.389D-01-0.346D+00 0.136D+01
 Gap=     0.533 Goal=   None    Shift=    0.000
 RMSDP=2.42D-07 MaxDP=8.99D-06 DE=-2.50D-08 OVMax= 2.83D-05

 Cycle  12  Pass 1  IDiag  1:
 E= -279.506265666264     Delta-E=       -0.000000002935 Rises=F Damp=F
 DIIS: error= 6.81D-07 at cycle  12 NSaved=  12.
 NSaved=12 IEnMin=12 EnMin= -279.506265666264     IErMin=12 ErrMin= 6.81D-07
 ErrMax= 6.81D-07  0.00D+00 EMaxC= 1.00D-01 BMatC= 8.31D-11 BMatP= 8.13D-10
 IDIUse=1 WtCom= 1.00D+00 WtEn= 0.00D+00
 Coeff-Com:  0.273D-05-0.462D-04-0.984D-04 0.112D-03 0.112D-02-0.614D-03
 Coeff-Com: -0.735D-02 0.623D-02 0.399D-01-0.105D+00-0.193D+00 0.126D+01
 Coeff:      0.273D-05-0.462D-04-0.984D-04 0.112D-03 0.112D-02-0.614D-03
 Coeff:     -0.735D-02 0.623D-02 0.399D-01-0.105D+00-0.193D+00 0.126D+01
 Gap=     0.533 Goal=   None    Shift=    0.000
 RMSDP=8.23D-08 MaxDP=2.68D-06 DE=-2.94D-09 OVMax= 9.52D-06

 Cycle  13  Pass 1  IDiag  1:
 E= -279.506265666555     Delta-E=       -0.000000000291 Rises=F Damp=F
 DIIS: error= 1.65D-07 at cycle  13 NSaved=  13.
 NSaved=13 IEnMin=13 EnMin= -279.506265666555     IErMin=13 ErrMin= 1.65D-07
 ErrMax= 1.65D-07  0.00D+00 EMaxC= 1.00D-01 BMatC= 6.88D-12 BMatP= 8.31D-11
 IDIUse=1 WtCom= 1.00D+00 WtEn= 0.00D+00
 Coeff-Com:  0.123D-05-0.113D-04-0.158D-04-0.118D-03 0.292D-04 0.907D-03
 Coeff-Com: -0.918D-03-0.249D-02-0.271D-02 0.549D-01-0.127D+00-0.151D+00
 Coeff-Com:  0.123D+01
 Coeff:      0.123D-05-0.113D-04-0.158D-04-0.118D-03 0.292D-04 0.907D-03
 Coeff:     -0.918D-03-0.249D-02-0.271D-02 0.549D-01-0.127D+00-0.151D+00
 Coeff:      0.123D+01
 Gap=     0.533 Goal=   None    Shift=    0.000
 RMSDP=2.17D-08 MaxDP=6.41D-07 DE=-2.91D-10 OVMax= 1.99D-06

 Cycle  14  Pass 1  IDiag  1:
 E= -279.506265666574     Delta-E=       -0.000000000020 Rises=F Damp=F
 DIIS: error= 4.04D-08 at cycle  14 NSaved=  14.
 NSaved=14 IEnMin=14 EnMin= -279.506265666574     IErMin=14 ErrMin= 4.04D-08
 ErrMax= 4.04D-08  0.00D+00 EMaxC= 1.00D-01 BMatC= 4.78D-13 BMatP= 6.88D-12
 IDIUse=1 WtCom= 1.00D+00 WtEn= 0.00D+00
 Coeff-Com: -0.309D-06 0.454D-05 0.895D-05-0.275D-05-0.112D-03 0.514D-04
 Coeff-Com:  0.650D-03-0.316D-03-0.354D-02 0.770D-02 0.169D-01-0.903D-01
 Coeff-Com: -0.173D-01 0.109D+01
 Coeff:     -0.309D-06 0.454D-05 0.895D-05-0.275D-05-0.112D-03 0.514D-04
 Coeff:      0.650D-03-0.316D-03-0.354D-02 0.770D-02 0.169D-01-0.903D-01
 Coeff:     -0.173D-01 0.109D+01
 Gap=     0.533 Goal=   None    Shift=    0.000
 RMSDP=4.27D-09 MaxDP=1.07D-07 DE=-1.96D-11 OVMax= 4.44D-07

 SCF Done:  E(RHF) =  -279.506265667     A.U. after   14 cycles
            NFock= 14  Conv=0.43D-08     -V/T= 2.0023
 KE= 2.788743950379D+02 PE=-9.057148087874D+02 EE= 2.249014783860D+02
 Leave Link  502 at Sun Mar  6 19:40:09 2022, MaxMem= 16106127360 cpu:              55.8 elap:               3.6
 (Enter /sw/contrib/gaussian/g16/B01/g16/l801.exe)
 ExpMin= 2.53D-02 ExpMax= 1.53D+04 ExpMxC= 5.22D+02 IAcc=3 IRadAn=         5 AccDes= 0.00D+00
 HarFok:  IExCor=  205 AccDes= 0.00D+00 IRadAn=         5 IDoV=-2 UseB2=F ITyADJ=14
 ICtDFT= 12500011 ScaDFX=  1.000000  1.000000  1.000000  1.000000
 Largest valence mixing into a core orbital is  2.07D-04
 Largest core mixing into a valence orbital is  3.08D-05
 Range of M.O.s used for correlation:     5   207
 NBasis=   207 NAE=    16 NBE=    16 NFC=     4 NFV=     0
 NROrb=    203 NOA=    12 NOB=    12 NVA=   191 NVB=   191

 **** Warning!!: The largest alpha MO coefficient is  0.15740755D+02

 Leave Link  801 at Sun Mar  6 19:40:09 2022, MaxMem= 16106127360 cpu:               2.0 elap:               0.1
 (Enter /sw/contrib/gaussian/g16/B01/g16/l906.exe)
 Frozen-core derivative calculation, NFC=   4 NFV=   0.
 FulOut=F Deriv=T AODrv=T NAtomX=     5
   MMem=           0  MDisk=          12 MDiskD=          12
  W3Min=      811440 MinDsk=     2425030 NBas6D=         245
 NBas2D=       30762    NTT=       30135    LW2=     7400000
    MDV= 16105571588 MDiskM=      328644 NBas2p=       30759
 Disk-based method using ON**2 memory for 12 occupieds at a time.
 Permanent disk used for amplitudes=    11516536 words.
 Estimated scratch disk usage=   321863743 words.
 IMap=   1   2   3   4   5   6   7   8   9  10  11  12  13  14  15  16
 Actual    scratch disk usage=   310892607 words.
 JobTyp=1 Pass  1:  I=   5 to  16 NPSUse= 28 ParTrn=T ParDer=T DoDerP=T.
 (rs|ai) integrals will be sorted in core.
 Spin components of T(2) and E(2):
     alpha-alpha T2 =       0.3480539636D-01 E2=     -0.1245066940D+00
     alpha-beta  T2 =       0.1846336842D+00 E2=     -0.6997574997D+00
     beta-beta   T2 =       0.3480539636D-01 E2=     -0.1245066940D+00
 The integrals were generated   1 times.
 ANorm=    0.1119930568D+01
 E2 =    -0.9487708876D+00 EUMP2 =    -0.28045503655415D+03
 Leave Link  906 at Sun Mar  6 19:41:46 2022, MaxMem= 16106127360 cpu:            2713.6 elap:              97.1
 (Enter /sw/contrib/gaussian/g16/B01/g16/l1101.exe)
 Using compressed Sx but separate Hx and Fx, NAtomX=     5.
 Will process      6 centers per pass.
 Leave Link 1101 at Sun Mar  6 19:41:46 2022, MaxMem= 16106127360 cpu:               5.2 elap:               0.2
 (Enter /sw/contrib/gaussian/g16/B01/g16/l1102.exe)
 Leave Link 1102 at Sun Mar  6 19:41:46 2022, MaxMem= 16106127360 cpu:               0.5 elap:               0.0
 (Enter /sw/contrib/gaussian/g16/B01/g16/l1110.exe)
 Forming Gx(P) for the SCF density, NAtomX=     5.
 Integral derivatives from FoFJK, PRISM(SPDF).
 Do as many integral derivatives as possible in FoFJK.
 G2DrvN: MDV=   16106126844.
 G2DrvN: will do     6 centers at a time, making    1 passes.
 Calling FoFCou, ICntrl=  3107 FMM=F I1Cent=   0 AccDes= 0.00D+00.
 FoFJK:  IHMeth= 1 ICntrl=    3107 DoSepK=F KAlg= 0 I1Cent=           0 FoldK=F
 IRaf=         0 NMat=       1 IRICut=       1 DoRegI=T DoRafI=F ISym2E= 1 IDoP0=0 IntGTp=1.
 FoFCou: FMM=F IPFlag=           0 FMFlag=      100000 FMFlg1=           0
         NFxFlg=           0 DoJE=F BraDBF=F KetDBF=F FulRan=T
         wScrn=  0.000000 ICntrl=      3107 IOpCl=  0 I1Cent=           0 NGrid=           0
         NMat0=    1 NMatS0=      1 NMatT0=    0 NMatD0=    1 NMtDS0=    0 NMtDT0=    0
 Petite list used in FoFCou.
 End of G2Drv F.D. properties file   721 does not exist.
 End of G2Drv F.D. properties file   722 does not exist.
 End of G2Drv F.D. properties file   788 does not exist.
 Leave Link 1110 at Sun Mar  6 19:41:49 2022, MaxMem= 16106127360 cpu:              87.2 elap:               3.1
 (Enter /sw/contrib/gaussian/g16/B01/g16/l1002.exe)
 Minotr:  Closed shell wavefunction.
          IDoAtm=11111
          Frozen-core window.
          Direct CPHF calculation.
          Differentiating once with respect to electric field.
                with respect to dipole field.
          Differentiating once with respect to nuclear coordinates.
          Requested convergence is 1.0D-08 RMS, and 1.0D-07 maximum.
          Secondary convergence is 1.0D-12 RMS, and 1.0D-12 maximum.
          NewPWx=T KeepS1=T KeepF1=T KeepIn=T MapXYZ=F SortEE=F KeepMc=T.
 Keep R1 ints in memory in symmetry-blocked form, NReq=348888983.
 FoFCou: FMM=F IPFlag=           0 FMFlag=           0 FMFlg1=           0
         NFxFlg=           0 DoJE=F BraDBF=F KetDBF=F FulRan=T
         wScrn=  0.000000 ICntrl=       600 IOpCl=  0 I1Cent=           0 NGrid=           0
         NMat0=    1 NMatS0=  21528 NMatT0=    0 NMatD0=    1 NMtDS0=    0 NMtDT0=    0
 Petite list used in FoFCou.
          MDV=   16106127360 using IRadAn=       1.
          Solving linear equations simultaneously, MaxMat=       0.
          There are    18 degrees of freedom in the 1st order CPHF.  IDoFFX=6 NUNeed=    18.
     15 vectors produced by pass  0 Test12= 1.70D-14 5.56D-09 XBig12= 7.97D+00 1.23D+00.
 AX will form    15 AO Fock derivatives at one time.
     15 vectors produced by pass  1 Test12= 1.70D-14 5.56D-09 XBig12= 1.37D+00 2.03D-01.
     15 vectors produced by pass  2 Test12= 1.70D-14 5.56D-09 XBig12= 6.78D-02 5.83D-02.
     15 vectors produced by pass  3 Test12= 1.70D-14 5.56D-09 XBig12= 1.99D-03 1.10D-02.
     15 vectors produced by pass  4 Test12= 1.70D-14 5.56D-09 XBig12= 4.41D-05 1.22D-03.
     15 vectors produced by pass  5 Test12= 1.70D-14 5.56D-09 XBig12= 6.09D-07 1.21D-04.
     15 vectors produced by pass  6 Test12= 1.70D-14 5.56D-09 XBig12= 4.57D-09 1.19D-05.
     14 vectors produced by pass  7 Test12= 1.70D-14 5.56D-09 XBig12= 3.33D-11 7.83D-07.
      3 vectors produced by pass  8 Test12= 1.70D-14 5.56D-09 XBig12= 2.27D-13 6.15D-08.
      1 vectors produced by pass  9 Test12= 1.70D-14 5.56D-09 XBig12= 1.55D-15 6.24D-09.
 InvSVY:  IOpt=1 It=  1 EMax= 8.88D-16
 Solved reduced A of dimension   123 with    15 vectors.
 FullF1:  Do perturbations      1 to      18.
 Saving first derivative matrices.
 End of Minotr F.D. properties file   721 does not exist.
 End of Minotr F.D. properties file   722 does not exist.
 End of Minotr F.D. properties file   788 does not exist.
 Leave Link 1002 at Sun Mar  6 19:41:52 2022, MaxMem= 16106127360 cpu:              77.1 elap:               2.9
 (Enter /sw/contrib/gaussian/g16/B01/g16/l811.exe)
 MDV= 16106127360.
 Form MO integral derivatives with frozen-active canonical formalism.
 MOERI=1 MOERIx=1 NAtoms=     5 NAtomX=     5.
 Discarding MO integrals.
 MO basis two electron integral derivatives will not be stored on disk.
 IAlg= 3 DoFC=T DoPWx=T Debug=F.
 Frozen-core window:  NFC=   4 NFV=   0.
 Reordered first order wavefunction length =     18678272
 In DefCFB: NBatch=  1 ICI= 16 ICA=191 LFMax= 96
            Large arrays: LIAPS=   619940160 LIARS=   288257200 words.
 In StABat: MaxSiz= 55 MinSiz= 25 NAtomB=  5
 DoIAMN: NPSUse= 28.
 Leave Link  811 at Sun Mar  6 19:43:13 2022, MaxMem= 16106127360 cpu:            2264.3 elap:              81.0
 (Enter /sw/contrib/gaussian/g16/B01/g16/l804.exe)
 Frozen-core window:  NFC=   4 NFV=   0.
 Closed-shell transformation, MDV= 16106127360 ITran=4 ISComp=1.
 Semi-Direct transformation.
 ModeAB=           2 MOrb=            16 LenV=   16104920009
 LASXX=     67341636 LTotXX=    67341636 LenRXX=    67341636
 LTotAB=    68301760 MaxLAS=    99807120 LenRXY=    99807120
 NonZer=   134683272 LenScr=   202817536 LnRSAI=           0
 LnScr1=           0 LExtra=           0 Total=    369966292
 MaxDsk=          -1 SrtSym=           F ITran=            4
 DoSDTr:  NPSUse= 28
 JobTyp=0 Pass  1:  I=   1 to  16.
 (rs|ai) integrals will be sorted in core.
 Complete sort for first half transformation.
 First half transformation complete.
 Begin second half transformation for I=  10.
 Begin second half transformation for I=  10.
 Complete sort for second half transformation.
 Second half transformation complete.
 Spin components of T(2) and E(2):
     alpha-alpha T2 =       0.3480539636D-01 E2=     -0.1245066940D+00
     alpha-beta  T2 =       0.1846336842D+00 E2=     -0.6997574997D+00
     beta-beta   T2 =       0.3480539636D-01 E2=     -0.1245066940D+00
 ANorm=    0.1583820998D+01
 E2 =    -0.9487708876D+00 EUMP2 =    -0.28045503655415D+03
 Leave Link  804 at Sun Mar  6 19:43:30 2022, MaxMem= 16106127360 cpu:             456.1 elap:              16.4
 (Enter /sw/contrib/gaussian/g16/B01/g16/l1002.exe)
 Minotr:  Closed shell wavefunction.
          Computing MP2/KS-MP2 derivatives.
          Using Z-Vector for PSCF gradient.
          Skipping F1 and S1 gradient terms here.
          IDoAtm=11111
          Frozen-core window.
          Using MO integrals in the linear equations.
          Forming densities via direct SCF.
          Differentiating once with respect to electric field.
                with respect to dipole field.
          Differentiating once with respect to nuclear coordinates.
          Using symmetry in CPHF.
          Requested convergence is 1.0D-10 RMS, and 1.0D-09 maximum.
          NewPWx=F KeepS1=T KeepF1=T KeepIn=T MapXYZ=F SortEE=F KeepMc=T.
          MDV=   16106127360 using IRadAn=       5.
          Solving linear equations separately, MaxMat=       0.
          There are     1 degrees of freedom in the 1st order CPHF.  IDoFFX=0 NUNeed=     1.
 FoFJK:  IHMeth= 1 ICntrl=       0 DoSepK=F KAlg= 0 I1Cent=           0 FoldK=F
 IRaf=         0 NMat=       1 IRICut=       1 DoRegI=T DoRafI=F ISym2E= 0 IDoP0=0 IntGTp=1.
 FoFCou: FMM=F IPFlag=           0 FMFlag=      100000 FMFlg1=           0
         NFxFlg=           0 DoJE=F BraDBF=F KetDBF=F FulRan=T
         wScrn=  0.000000 ICntrl=         0 IOpCl=  0 I1Cent=           0 NGrid=           0
         NMat0=    1 NMatS0=      1 NMatT0=    0 NMatD0=    1 NMtDS0=    0 NMtDT0=    0
 Symmetry not used in FoFCou.
 LinEq1:  Iter=  0 NonCon=     1 RMS=6.60D-03 Max=1.68D-01 NDo=     1
 LinEq1:  Iter=  1 NonCon=     1 RMS=2.00D-03 Max=3.10D-02 NDo=     1
 LinEq1:  Iter=  2 NonCon=     1 RMS=8.88D-04 Max=1.43D-02 NDo=     1
 LinEq1:  Iter=  3 NonCon=     1 RMS=3.82D-04 Max=8.20D-03 NDo=     1
 LinEq1:  Iter=  4 NonCon=     1 RMS=1.38D-04 Max=1.70D-03 NDo=     1
 LinEq1:  Iter=  5 NonCon=     1 RMS=7.69D-05 Max=1.38D-03 NDo=     1
 LinEq1:  Iter=  6 NonCon=     1 RMS=2.44D-05 Max=3.02D-04 NDo=     1
 LinEq1:  Iter=  7 NonCon=     1 RMS=8.12D-06 Max=1.07D-04 NDo=     1
 LinEq1:  Iter=  8 NonCon=     1 RMS=3.96D-06 Max=6.14D-05 NDo=     1
 LinEq1:  Iter=  9 NonCon=     1 RMS=1.03D-06 Max=1.21D-05 NDo=     1
 LinEq1:  Iter= 10 NonCon=     1 RMS=2.30D-07 Max=2.85D-06 NDo=     1
 LinEq1:  Iter= 11 NonCon=     1 RMS=4.89D-08 Max=7.85D-07 NDo=     1
 LinEq1:  Iter= 12 NonCon=     1 RMS=1.14D-08 Max=1.65D-07 NDo=     1
 LinEq1:  Iter= 13 NonCon=     1 RMS=2.03D-09 Max=2.62D-08 NDo=     1
 LinEq1:  Iter= 14 NonCon=     1 RMS=4.24D-10 Max=5.80D-09 NDo=     1
 LinEq1:  Iter= 15 NonCon=     0 RMS=8.73D-11 Max=8.63D-10 NDo=     1
 Linear equations converged to 1.000D-10 1.000D-09 after    15 iterations.
 End of Minotr F.D. properties file   721 does not exist.
 End of Minotr F.D. properties file   722 does not exist.
 End of Minotr F.D. properties file   788 does not exist.
 Leave Link 1002 at Sun Mar  6 19:43:32 2022, MaxMem= 16106127360 cpu:              65.9 elap:               2.4
 (Enter /sw/contrib/gaussian/g16/B01/g16/l1102.exe)
 Use density number 2.
 Symmetrizing basis deriv contribution to polar:
 IMax=3 JMax=2 DiffMx= 0.00D+00
 Leave Link 1102 at Sun Mar  6 19:43:32 2022, MaxMem= 16106127360 cpu:               0.7 elap:               0.1
 (Enter /sw/contrib/gaussian/g16/B01/g16/l1110.exe)
 Forming Gx(P) for generalized density number  2 NAtomX=     5.
 Integral derivatives from FoFJK, PRISM(SPDF).
 Do as many integral derivatives as possible in FoFJK.
 G2DrvN: MDV=   16106126844.
 G2DrvN: will do     6 centers at a time, making    1 passes.
 Calling FoFCou, ICntrl=  3107 FMM=F I1Cent=   0 AccDes= 0.00D+00.
 FoFJK:  IHMeth= 1 ICntrl=    3107 DoSepK=F KAlg= 0 I1Cent=           0 FoldK=F
 IRaf=         0 NMat=       1 IRICut=       1 DoRegI=T DoRafI=F ISym2E= 1 IDoP0=0 IntGTp=1.
 FoFCou: FMM=F IPFlag=           0 FMFlag=      100000 FMFlg1=           0
         NFxFlg=           0 DoJE=F BraDBF=F KetDBF=F FulRan=T
         wScrn=  0.000000 ICntrl=      3107 IOpCl=  0 I1Cent=           0 NGrid=           0
         NMat0=    1 NMatS0=      1 NMatT0=    0 NMatD0=    1 NMtDS0=    0 NMtDT0=    0
 Petite list used in FoFCou.
 End of G2Drv F.D. properties file   721 does not exist.
 End of G2Drv F.D. properties file   722 does not exist.
 End of G2Drv F.D. properties file   788 does not exist.
 Leave Link 1110 at Sun Mar  6 19:43:35 2022, MaxMem= 16106127360 cpu:              86.9 elap:               3.1
 (Enter /sw/contrib/gaussian/g16/B01/g16/l1112.exe)
 MP22nd: MDV=   16106127360
 This link is doing NAtomX=     5 total of    18 degrees of freedom.
 Using ON3 I/O method in MakUI.
 Frozen-core window:  NFC=   4 NFV=   0.
 Using Ix for Sx.
 Use MO integrals over full window.
 Using OV2 memory method for fx*t*t/D, MaxI=    16 DoOO2=F NP=  28.
 R2 and R3 integrals will be kept in memory, NReq=   915591705.
 FoFCou: FMM=F IPFlag=           0 FMFlag=           0 FMFlg1=           0
         NFxFlg=           0 DoJE=F BraDBF=F KetDBF=F FulRan=T
         wScrn=  0.000000 ICntrl=       600 IOpCl=  0 I1Cent=           0 NGrid=           0
         NMat0=    1 NMatS0=      1 NMatT0=    0 NMatD0=    1 NMtDS0=    0 NMtDT0=    0
 Symmetry not used in FoFCou.
 DD1Dir will call FoFMem   1 times, MxPair=       272
 NAB=   136 NAA=     0 NBB=     0.
 Symmetry is being used.
 FoFJK:  IHMeth= 1 ICntrl=       0 DoSepK=F KAlg= 0 I1Cent=           0 FoldK=F
 IRaf=         0 NMat=      18 IRICut=      45 DoRegI=T DoRafI=T ISym2E= 2 IDoP0=3 IntGTp=3.
 Discarding MO integrals.
 Leave Link 1112 at Sun Mar  6 19:44:06 2022, MaxMem= 16106127360 cpu:             852.0 elap:              30.7
 (Enter /sw/contrib/gaussian/g16/B01/g16/l601.exe)
 Copying SCF densities to generalized density rwf, IOpCl= 0 IROHF=0.

 **********************************************************************

            Population analysis using the MP2 Density.

 **********************************************************************

 Orbital symmetries:
       Occupied  (A') (A') (A') (A') (A') (A') (A') (A') (A') (A')
                 (A") (A') (A') (A") (A') (A")
       Virtual   (A') (A") (A') (A') (A") (A') (A') (A') (A") (A')
                 (A") (A') (A') (A') (A") (A') (A') (A") (A') (A')
                 (A') (A') (A') (A') (A") (A') (A') (A") (A') (A')
                 (A') (A") (A") (A') (A') (A') (A") (A') (A") (A')
                 (A") (A") (A') (A') (A") (A') (A') (A") (A') (A')
                 (A') (A") (A') (A') (A") (A') (A") (A') (A") (A')
                 (A') (A') (A") (A') (A') (A') (A") (A") (A') (A')
                 (A") (A') (A") (A") (A') (A') (A") (A') (A') (A')
                 (A") (A') (A') (A") (A') (A") (A") (A') (A') (A')
                 (A') (A') (A") (A") (A') (A') (A") (A") (A') (A')
                 (A") (A') (A") (A') (A") (A') (A') (A') (A") (A')
                 (A") (A') (A') (A') (A") (A') (A') (A') (A") (A')
                 (A") (A') (A") (A') (A") (A") (A') (A") (A') (A')
                 (A') (A') (A") (A') (A') (A") (A") (A') (A') (A')
                 (A") (A") (A') (A') (A') (A") (A') (A') (A') (A")
                 (A') (A') (A') (A") (A") (A') (A") (A') (A') (A")
                 (A') (A") (A') (A") (A") (A') (A') (A") (A") (A')
                 (A") (A") (A") (A') (A') (A") (A') (A') (A') (A")
                 (A') (A') (A') (A') (A') (A') (A') (A') (A') (A')
                 (A')
 The electronic state is 1-A'.
 Alpha  occ. eigenvalues --  -20.72126 -20.68794 -20.66918 -15.82510  -1.64254
 Alpha  occ. eigenvalues --   -1.50710  -1.29440  -0.96080  -0.83289  -0.75864
 Alpha  occ. eigenvalues --   -0.73974  -0.63934  -0.62004  -0.61930  -0.50216
 Alpha  occ. eigenvalues --   -0.49830
 Alpha virt. eigenvalues --    0.03494   0.06106   0.09510   0.10059   0.11975
 Alpha virt. eigenvalues --    0.12270   0.14884   0.15181   0.17774   0.18038
 Alpha virt. eigenvalues --    0.18950   0.21113   0.21674   0.24261   0.24636
 Alpha virt. eigenvalues --    0.26808   0.31099   0.31519   0.33809   0.34253
 Alpha virt. eigenvalues --    0.34610   0.39264   0.44647   0.48853   0.50437
 Alpha virt. eigenvalues --    0.51914   0.54388   0.56251   0.59933   0.62097
 Alpha virt. eigenvalues --    0.63982   0.68915   0.71745   0.72371   0.73840
 Alpha virt. eigenvalues --    0.76530   0.76767   0.79564   0.80425   0.84034
 Alpha virt. eigenvalues --    0.84316   0.85071   0.88461   0.90647   0.92655
 Alpha virt. eigenvalues --    0.94903   0.95481   1.01779   1.03155   1.05337
 Alpha virt. eigenvalues --    1.06481   1.09250   1.14206   1.15556   1.17260
 Alpha virt. eigenvalues --    1.22003   1.22649   1.24623   1.34993   1.36441
 Alpha virt. eigenvalues --    1.37059   1.46923   1.48333   1.50757   1.54097
 Alpha virt. eigenvalues --    1.58930   1.59612   1.60512   1.62819   1.69580
 Alpha virt. eigenvalues --    1.74004   1.80169   1.82790   1.88705   1.89651
 Alpha virt. eigenvalues --    1.92625   1.98051   1.99174   2.04841   2.12031
 Alpha virt. eigenvalues --    2.13007   2.16378   2.18546   2.24151   2.25968
 Alpha virt. eigenvalues --    2.29478   2.35183   2.36069   2.38610   2.40198
 Alpha virt. eigenvalues --    2.43360   2.47064   2.47818   2.52570   2.53735
 Alpha virt. eigenvalues --    2.54463   2.55622   2.61117   2.62671   2.66920
 Alpha virt. eigenvalues --    2.67044   2.75646   2.80820   2.80914   2.84318
 Alpha virt. eigenvalues --    2.91611   2.97465   3.04891   3.05506   3.11457
 Alpha virt. eigenvalues --    3.11846   3.17194   3.21253   3.30532   3.33532
 Alpha virt. eigenvalues --    3.36010   3.48273   3.67686   3.86861   3.92304
 Alpha virt. eigenvalues --    4.17927   4.21418   4.21736   4.26509   4.36418
 Alpha virt. eigenvalues --    4.50164   4.50659   4.56022   4.60057   4.69108
 Alpha virt. eigenvalues --    4.80753   4.90527   4.91197   4.94434   4.99463
 Alpha virt. eigenvalues --    5.00446   5.10854   5.13525   5.17581   5.24721
 Alpha virt. eigenvalues --    5.25431   5.31534   5.33560   5.35274   5.54134
 Alpha virt. eigenvalues --    5.64224   5.70048   5.88288   6.00307   6.26385
 Alpha virt. eigenvalues --    6.29588   6.35865   6.37609   6.59889   6.64584
 Alpha virt. eigenvalues --    6.65773   6.68300   6.72252   6.80676   6.80745
 Alpha virt. eigenvalues --    6.83749   6.97024   7.01832   7.06608   7.08063
 Alpha virt. eigenvalues --    7.14086   7.16094   7.17537   7.20238   7.24362
 Alpha virt. eigenvalues --    7.24413   7.26921   7.34784   7.39609   7.42128
 Alpha virt. eigenvalues --    7.44273   7.46132   7.56005   7.64974   7.66368
 Alpha virt. eigenvalues --    7.79440   7.88169   7.95289   8.05208   8.30387
 Alpha virt. eigenvalues --    8.50322   8.65268  13.60841  14.76237  15.09724
 Alpha virt. eigenvalues --   15.72609
          Condensed to atoms (all electrons):
               1          2          3          4          5
     1  H    0.577346   0.125933   0.023562  -0.000465  -0.004870
     2  O    0.125933   8.388622  -0.232440  -0.000458  -0.007507
     3  O    0.023562  -0.232440   8.370932  -0.169998  -0.029700
     4  N   -0.000465  -0.000458  -0.169998   7.136953  -0.120615
     5  O   -0.004870  -0.007507  -0.029700  -0.120615   8.359261
 Mulliken charges:
               1
     1  H    0.278494
     2  O   -0.274150
     3  O    0.037644
     4  N    0.154582
     5  O   -0.196570
 Sum of Mulliken charges =  -0.00000
 Mulliken charges with hydrogens summed into heavy atoms:
               1
     2  O    0.004344
     3  O    0.037644
     4  N    0.154582
     5  O   -0.196570
 APT charges:
               1
     1  H    0.268865
     2  O   -0.303040
     3  O   -0.309352
     4  N    0.647918
     5  O   -0.304392
 Sum of APT charges =  -0.00000
 APT charges with hydrogens summed into heavy atoms:
               1
     2  O   -0.034175
     3  O   -0.309352
     4  N    0.647918
     5  O   -0.304392
 Electronic spatial extent (au):  <R**2>=            208.8493
 Charge=             -0.0000 electrons
 Dipole moment (field-independent basis, Debye):
    X=              0.0856    Y=             -1.0962    Z=              0.0000  Tot=              1.0995
 Quadrupole moment (field-independent basis, Debye-Ang):
   XX=            -23.4090   YY=            -22.9530   ZZ=            -21.9388
   XY=             -1.9620   XZ=              0.0000   YZ=              0.0000
 Traceless Quadrupole moment (field-independent basis, Debye-Ang):
   XX=             -0.6420   YY=             -0.1861   ZZ=              0.8281
   XY=             -1.9620   XZ=              0.0000   YZ=              0.0000
 Octapole moment (field-independent basis, Debye-Ang**2):
  XXX=              2.6363  YYY=              0.3362  ZZZ=              0.0000  XYY=              2.3065
  XXY=             -2.8602  XXZ=              0.0000  XZZ=             -0.5904  YZZ=             -0.7133
  YYZ=              0.0000  XYZ=              0.0000
 Hexadecapole moment (field-independent basis, Debye-Ang**3):
 XXXX=           -127.5617 YYYY=            -95.9418 ZZZZ=            -18.0541 XXXY=            -22.3715
 XXXZ=              0.0000 YYYX=            -20.3834 YYYZ=              0.0000 ZZZX=              0.0000
 ZZZY=              0.0000 XXYY=            -35.9850 XXZZ=            -24.4437 YYZZ=            -18.7832
 XXYZ=              0.0000 YYXZ=              0.0000 ZZXY=             -6.1492
 N-N= 1.224326696969D+02 E-N=-9.064099038253D+02  KE= 2.801934275725D+02
 Symmetry A'   KE= 2.663390892101D+02
 Symmetry A"   KE= 1.385433836239D+01
  Exact polarizability:  30.972   4.256  30.040   0.000   0.000  17.649
 Approx polarizability:  24.496   0.671  27.844  -0.000  -0.000  15.529
 No NMR shielding tensors so no spin-rotation constants.
 Leave Link  601 at Sun Mar  6 19:44:06 2022, MaxMem= 16106127360 cpu:               4.3 elap:               0.2
 (Enter /sw/contrib/gaussian/g16/B01/g16/l701.exe)
 ... and contract with generalized density number  2.
 Compute integral second derivatives.
 Leave Link  701 at Sun Mar  6 19:44:07 2022, MaxMem= 16106127360 cpu:               5.8 elap:               0.2
 (Enter /sw/contrib/gaussian/g16/B01/g16/l702.exe)
 L702 exits ... SP integral derivatives will be done elsewhere.
 Leave Link  702 at Sun Mar  6 19:44:07 2022, MaxMem= 16106127360 cpu:               0.5 elap:               0.0
 (Enter /sw/contrib/gaussian/g16/B01/g16/l703.exe)
 Integral derivatives from FoFJK, PRISM(SPDF).
 Compute integral second derivatives, UseDBF=F ICtDFT=           0.
 Calling FoFJK, ICntrl=  10100127 FMM=F ISym2X=1 I1Cent= 0 IOpClX= 0 NMat=1 NMatS=1 NMatT=0.
 FoFJK:  IHMeth= 1 ICntrl=10100127 DoSepK=F KAlg= 0 I1Cent=           0 FoldK=F
 IRaf=         0 NMat=       1 IRICut=       1 DoRegI=T DoRafI=F ISym2E= 1 IDoP0=0 IntGTp=1.
 FoFCou: FMM=F IPFlag=           0 FMFlag=      100000 FMFlg1=         800
         NFxFlg=           0 DoJE=F BraDBF=F KetDBF=F FulRan=T
         wScrn=  0.000000 ICntrl=  10100127 IOpCl=  0 I1Cent=           0 NGrid=           0
         NMat0=    1 NMatS0=      1 NMatT0=    0 NMatD0=    1 NMtDS0=    0 NMtDT0=    0
 Petite list used in FoFCou.
 Leave Link  703 at Sun Mar  6 19:44:23 2022, MaxMem= 16106127360 cpu:             450.6 elap:              16.2
 (Enter /sw/contrib/gaussian/g16/B01/g16/l716.exe)
 Dipole        = 3.36759871D-02-4.31274721D-01 0.00000000D+00
 Polarizability= 3.09718060D+01 4.25577152D+00 3.00400707D+01
                 0.00000000D+00 0.00000000D+00 1.76491974D+01
 Full mass-weighted force constant matrix:
 Low frequencies ---  -59.8875   -0.0014   -0.0013    0.0006   26.4372   62.6977
 Low frequencies ---  350.7179  377.2330  514.7398
 Diagonal vibrational polarizability:
        7.4001234      10.3574377      16.3532358
 Harmonic frequencies (cm**-1), IR intensities (KM/Mole), Raman scattering
 activities (A**4/AMU), depolarization ratios for plane and unpolarized
 incident light, reduced masses (AMU), force constants (mDyne/A),
 and normal coordinates:
                      1                      2                      3
                     A"                     A'                     A"
 Frequencies --    350.6443               377.2100               514.6770
 Red. masses --      1.5702                 7.1451                 2.8703
 Frc consts  --      0.1137                 0.5990                 0.4480
 IR Inten    --     62.7239                 7.5802                25.8329
  Atom  AN      X      Y      Z        X      Y      Z        X      Y      Z
     1   1    -0.00  -0.00   0.98    -0.72  -0.26  -0.00    -0.00  -0.00   0.93
     2   8    -0.00  -0.00  -0.11    -0.32  -0.32   0.00    -0.00  -0.00   0.05
     3   8    -0.00   0.00   0.12    -0.07   0.08  -0.00     0.00   0.00  -0.18
     4   7     0.00   0.00  -0.11     0.05   0.09   0.00    -0.00  -0.00   0.27
     5   8     0.00   0.00   0.03     0.39   0.17  -0.00     0.00   0.00  -0.16
                      4                      5                      6
                     A'                     A'                     A'
 Frequencies --    700.7791               839.7767               967.1074
 Red. masses --     13.1387                12.4049                10.0186
 Frc consts  --      3.8016                 5.1543                 5.5209
 IR Inten    --    215.1350                35.4455                13.8168
  Atom  AN      X      Y      Z        X      Y      Z        X      Y      Z
     1   1    -0.38   0.01  -0.00     0.44  -0.15   0.00    -0.62  -0.02  -0.00
     2   8    -0.01  -0.08  -0.00     0.53  -0.19  -0.00     0.21  -0.17  -0.00
     3   8     0.37   0.59   0.00    -0.37  -0.02  -0.00    -0.38   0.40   0.00
     4   7    -0.39  -0.45  -0.00    -0.45  -0.07   0.00     0.39   0.05  -0.00
     5   8     0.01  -0.12   0.00     0.21   0.28  -0.00    -0.13  -0.27   0.00
                      7                      8                      9
                     A'                     A'                     A'
 Frequencies --   1441.2622              1568.6423              3490.5241
 Red. masses --      1.3024                 6.3300                 1.0641
 Frc consts  --      1.5940                 9.1770                 7.6389
 IR Inten    --     78.6718               153.2620                40.3995
  Atom  AN      X      Y      Z        X      Y      Z        X      Y      Z
     1   1     0.97  -0.20   0.00     0.77  -0.17   0.00     0.15   0.99  -0.00
     2   8    -0.06  -0.05   0.00    -0.02  -0.02   0.00    -0.01  -0.06   0.00
     3   8    -0.03   0.06  -0.00     0.04   0.06  -0.00     0.00  -0.00  -0.00
     4   7     0.06  -0.05   0.00    -0.24   0.40   0.00    -0.00   0.00  -0.00
     5   8    -0.02   0.05  -0.00     0.15  -0.37  -0.00     0.00  -0.00   0.00

 -------------------
 - Thermochemistry -
 -------------------
 Temperature   298.150 Kelvin.  Pressure   1.00000 Atm.
 Atom     1 has atomic number  1 and mass   1.00783
 Atom     2 has atomic number  8 and mass  15.99491
 Atom     3 has atomic number  8 and mass  15.99491
 Atom     4 has atomic number  7 and mass  14.00307
 Atom     5 has atomic number  8 and mass  15.99491
 Molecular mass:    62.99564 amu.
 Principal axes and moments of inertia in atomic units:
                           1         2         3
     Eigenvalues --    83.90334 226.40325 310.30659
           X            0.79026  -0.61277   0.00000
           Y            0.61277   0.79026   0.00000
           Z            0.00000   0.00000   1.00000
 This molecule is an asymmetric top.
 Rotational symmetry number  1.
 Rotational temperatures (Kelvin)      1.03231     0.38256     0.27912
 Rotational constants (GHZ):          21.50977     7.97136     5.81599
 Zero-point vibrational energy      61312.3 (Joules/Mol)
                                   14.65400 (Kcal/Mol)
 Warning -- explicit consideration of   3 degrees of freedom as
           vibrations may cause significant error
 Vibrational temperatures:    504.50   542.72   740.51  1008.26  1208.25
          (Kelvin)           1391.45  2073.65  2256.93  5022.09
 
 Zero-point correction=                           0.023353 (Hartree/Particle)
 Thermal correction to Energy=                    0.027323
 Thermal correction to Enthalpy=                  0.028267
 Thermal correction to Gibbs Free Energy=        -0.002655
 Sum of electronic and zero-point Energies=           -280.431684
 Sum of electronic and thermal Energies=              -280.427713
 Sum of electronic and thermal Enthalpies=            -280.426769
 Sum of electronic and thermal Free Energies=         -280.457692
 
                     E (Thermal)             CV                S
                      KCal/Mol        Cal/Mol-Kelvin    Cal/Mol-Kelvin
 Total                   17.146             12.252             65.082
 Electronic               0.000              0.000              0.000
 Translational            0.889              2.981             38.341
 Rotational               0.889              2.981             23.293
 Vibrational             15.368              6.291              3.449
 Vibration     1          0.728              1.574              1.163
 Vibration     2          0.748              1.519              1.050
 Vibration     3          0.870              1.217              0.622
                       Q            Log10(Q)             Ln(Q)
 Total Bot       0.166482D+02          1.221368          2.812304
 Total V=0       0.917966D+12         11.962826         27.545426
 Vib (Bot)       0.308231D-10        -10.511123        -24.202756
 Vib (Bot)    1  0.525952D+00         -0.279054         -0.642545
 Vib (Bot)    2  0.480256D+00         -0.318528         -0.733437
 Vib (Bot)    3  0.315149D+00         -0.501484         -1.154710
 Vib (V=0)       0.169955D+01          0.230335          0.530365
 Vib (V=0)    1  0.122569D+01          0.088381          0.203504
 Vib (V=0)    2  0.119329D+01          0.076745          0.176711
 Vib (V=0)    3  0.109103D+01          0.037838          0.087124
 Electronic      0.100000D+01          0.000000          0.000000
 Translational   0.196526D+08          7.293420         16.793719
 Rotational      0.274835D+05          4.439072         10.221341
 
                                                                title
                                                             IR Spectrum
 
     3                                                                     1    1                                                    
     4                                                                     5    4                9    8    7      5    33            
     9                                                                     6    4                6    4    0      1    75            
     1                                                                     9    1                7    0    1      5    71            
 
     X                                                                     X    X                X    X    X      X    XX            
     X                                                                     X    X                     X    X      X     X            
     X                                                                     X    X                     X    X            X            
     X                                                                     X    X                          X            X            
                                                                           X    X                          X            X            
                                                                           X    X                          X            X            
                                                                           X    X                          X                         
                                                                           X                               X                         
                                                                           X                               X                         
                                                                           X                               X                         
                                                                           X                               X                         
                                                                           X                               X                         
                                                                           X                               X                         
                                                                           X                               X                         
                                                                                                           X                         
                                                                                                           X                         
                                                                                                           X                         
                                                                                                           X                         
                                                                                                           X                         
                                                                                                           X                         
 
 ***** Axes restored to original set *****
 -------------------------------------------------------------------
 Center     Atomic                   Forces (Hartrees/Bohr)
 Number     Number              X              Y              Z
 -------------------------------------------------------------------
      1        1          -0.000285998   -0.000000000    0.000233657
      2        8          -0.001567754   -0.000000000   -0.001137923
      3        8          -0.001275602   -0.000000000   -0.004830329
      4        7           0.007987641   -0.000000000   -0.000026949
      5        8          -0.004858287   -0.000000000    0.005761544
 -------------------------------------------------------------------
 Cartesian Forces:  Max     0.007987641 RMS     0.003156473
 -----------------------------------------------------------------------------------------------
                       Internal Coordinate Forces (Hartree/Bohr or radian)
  Cent   Atom   N1       Length/X         N2         Alpha/Y        N3         Beta/Z          J
 -----------------------------------------------------------------------------------------------
      1  H 
      2  O        1  -0.000234(     1)
      3  O        2   0.001989(     2)      1   0.000532(     5)
      4  N        3  -0.003027(     3)      2  -0.000941(     6)      1   0.000000(     8)     0
      5  O        4  -0.002502(     4)      3  -0.016051(     7)      2   0.000000(     9)     0
 -----------------------------------------------------------------------------------------------
 Internal  Forces:  Max     0.016050556 RMS     0.005560038
 Force constants in Cartesian coordinates: 
                1             2             3             4             5 
      1  0.727693D-01
      2  0.000000D+00  0.596406D-02
      3  0.229381D-01  0.000000D+00  0.437390D+00
      4 -0.517172D-01  0.000000D+00 -0.447012D-02  0.282085D+00
      5  0.000000D+00 -0.256456D-02  0.000000D+00  0.000000D+00  0.118945D-01
      6  0.339655D-01  0.000000D+00 -0.422713D+00 -0.109089D-01  0.000000D+00
      7 -0.256247D-01  0.000000D+00 -0.149225D-01 -0.172096D+00  0.000000D+00
      8  0.000000D+00 -0.409731D-02  0.000000D+00  0.000000D+00 -0.187534D-01
      9 -0.447008D-01  0.000000D+00 -0.191180D-01  0.968651D-02  0.000000D+00
     10 -0.572203D-02  0.000000D+00  0.654744D-02 -0.856624D-01  0.000000D+00
     11  0.000000D+00  0.793173D-02  0.000000D+00  0.000000D+00  0.204453D-01
     12 -0.185002D-01  0.000000D+00  0.115712D-01  0.974389D-02  0.000000D+00
     13  0.102947D-01  0.000000D+00 -0.100929D-01  0.273906D-01  0.000000D+00
     14  0.000000D+00 -0.723392D-02  0.000000D+00  0.000000D+00 -0.110219D-01
     15  0.629735D-02  0.000000D+00 -0.712972D-02 -0.405138D-02  0.000000D+00
                6             7             8             9            10 
      6  0.521871D+00
      7 -0.908534D-01  0.304734D+00
      8  0.000000D+00  0.000000D+00  0.415291D-01
      9 -0.962116D-01  0.810886D-01  0.000000D+00  0.307267D+00
     10  0.404484D-01 -0.143634D+00  0.000000D+00 -0.370133D-01  0.545995D+00
     11  0.000000D+00  0.000000D+00 -0.467828D-01  0.000000D+00  0.000000D+00
     12 -0.856417D-02  0.125138D-01  0.000000D+00 -0.238821D-01  0.243693D+00
     13  0.273484D-01  0.366205D-01  0.000000D+00 -0.906100D-02 -0.310977D+00
     14  0.000000D+00  0.000000D+00  0.281044D-01  0.000000D+00  0.000000D+00
     15  0.561819D-02  0.121736D-01  0.000000D+00 -0.168055D+00 -0.253675D+00
               11            12            13            14            15 
     11  0.537842D-01
     12  0.000000D+00  0.456038D+00
     13  0.000000D+00 -0.247450D+00  0.236671D+00
     14 -0.353785D-01  0.000000D+00  0.000000D+00  0.255300D-01
     15  0.000000D+00 -0.435163D+00  0.239256D+00  0.000000D+00  0.604730D+00
 Force constants in internal coordinates: 
                1             2             3             4             5 
      1  0.437390D+00
      2  0.208594D-01  0.261797D+00
      3  0.566295D-02  0.176576D-01  0.198053D+00
      4 -0.112629D-01  0.220575D-01  0.145888D+00  0.719227D+00
      5  0.424269D-01  0.580835D-01 -0.236215D-01  0.198271D-01  0.251883D+00
      6  0.127264D-01  0.215874D-01  0.798918D-01  0.105662D-01 -0.938516D-02
      7  0.114787D-01 -0.760670D-01  0.103416D+00  0.107881D+00 -0.238808D-01
      8  0.000000D+00  0.000000D+00  0.000000D+00  0.000000D+00  0.000000D+00
      9  0.000000D+00  0.000000D+00  0.000000D+00  0.000000D+00  0.000000D+00
                6             7             8             9 
      6  0.486751D+00
      7  0.344722D-01  0.617162D+00
      8  0.000000D+00  0.000000D+00  0.194584D-01
      9  0.000000D+00  0.000000D+00  0.269209D-01  0.107266D+00
 Leave Link  716 at Sun Mar  6 19:44:23 2022, MaxMem= 16106127360 cpu:               1.7 elap:               0.1
 (Enter /sw/contrib/gaussian/g16/B01/g16/l103.exe)

 GradGradGradGradGradGradGradGradGradGradGradGradGradGradGradGradGradGrad
 Berny optimization.
 Search for a local minimum.
 Step number   1 out of a maximum of    2
 All quantities printed in internal units (Hartrees-Bohrs-Radians)
 Second derivative matrix not updated -- analytic derivatives used.
 The second derivative matrix:
                          r1        r2        r3        r4        a1
           r1           0.43739
           r2           0.02086   0.26180
           r3           0.00566   0.01766   0.19805
           r4          -0.01126   0.02206   0.14589   0.71923
           a1           0.04243   0.05808  -0.02362   0.01983   0.25188
           a2           0.01273   0.02159   0.07989   0.01057  -0.00939
           a3           0.01148  -0.07607   0.10342   0.10788  -0.02388
           d1           0.00000   0.00000   0.00000   0.00000   0.00000
           d2           0.00000   0.00000   0.00000   0.00000   0.00000
                          a2        a3        d1        d2
           a2           0.48675
           a3           0.03447   0.61716
           d1           0.00000   0.00000   0.01946
           d2           0.00000   0.00000   0.02692   0.10727
 ITU=  0
     Eigenvalues ---    0.01186   0.11486   0.12263   0.20323   0.27778
     Eigenvalues ---    0.44740   0.49877   0.57794   0.84452
 Angle between quadratic step and forces=  14.21 degrees.
 Linear search not attempted -- first point.
 Variable       Old X    -DE/DX   Delta X   Delta X   Delta X     New X
                                 (Linear)    (Quad)   (Total)
    r1        1.86209  -0.00023   0.00000   0.00025   0.00025   1.86234
    r2        2.69614   0.00199   0.00000   0.00036   0.00036   2.69651
    r3        2.60992  -0.00303   0.00000  -0.00282  -0.00282   2.60710
    r4        2.25782  -0.00250   0.00000   0.00096   0.00096   2.25878
    a1        1.75642   0.00053   0.00000  -0.00078  -0.00078   1.75564
    a2        1.97463  -0.00094   0.00000   0.00029   0.00029   1.97492
    a3        2.02037  -0.01605   0.00000  -0.02571  -0.02571   1.99466
    d1        0.00000   0.00000   0.00000   0.00000   0.00000   0.00000
    d2        0.00000   0.00000   0.00000   0.00000   0.00000   0.00000
         Item               Value     Threshold  Converged?
 Maximum Force            0.016051     0.000450     NO 
 RMS     Force            0.005560     0.000300     NO 
 Maximum Displacement     0.025709     0.001800     NO 
 RMS     Displacement     0.008632     0.001200     NO 
 Predicted change in Energy=-2.093724D-04
                       ----------------------------
                       ! Non-Optimized Parameters !
                       ! (Angstroms and Degrees)  !
 ----------------------                            ----------------------
 !      Name          Value   Derivative information (Atomic Units)     !
 ------------------------------------------------------------------------
 !       r1          0.9855   -DE/DX =   -0.0002                        !
 !       r2          1.4269   -DE/DX =    0.002                         !
 !       r3          1.3796   -DE/DX =   -0.003                         !
 !       r4          1.1953   -DE/DX =   -0.0025                        !
 !       a1        100.5909   -DE/DX =    0.0005                        !
 !       a2        113.1544   -DE/DX =   -0.0009                        !
 !       a3        114.2854   -DE/DX =   -0.0161                        !
 !       d1          0.0      -DE/DX =    0.0                           !
 !       d2          0.0      -DE/DX =    0.0                           !
 ------------------------------------------------------------------------
 GradGradGradGradGradGradGradGradGradGradGradGradGradGradGradGradGradGrad

 Leave Link  103 at Sun Mar  6 19:44:23 2022, MaxMem= 16106127360 cpu:               0.6 elap:               0.1
 (Enter /sw/contrib/gaussian/g16/B01/g16/l9999.exe)

 ----------------------------------------------------------------------

 Electric dipole moment (input orientation):
 (Debye = 10**-18 statcoulomb cm , SI units = C m)
                  (au)            (Debye)         (10**-30 SI)
   Tot        0.432588D+00      0.109953D+01      0.366763D+01
   x         -0.120199D+00     -0.305514D+00     -0.101909D+01
   y          0.000000D+00      0.000000D+00      0.000000D+00
   z         -0.415553D+00     -0.105623D+01     -0.352320D+01

 Dipole polarizability, Alpha (input orientation).
 (esu units = cm**3 , SI units = C**2 m**2 J**-1)
 Alpha(0;0):
               (au)            (10**-24 esu)      (10**-40 SI)
   iso        0.262204D+02      0.388546D+01      0.432315D+01
   aniso      0.148419D+02      0.219934D+01      0.244710D+01
   xx         0.292479D+02      0.433410D+01      0.482233D+01
   yx         0.000000D+00      0.000000D+00      0.000000D+00
   yy         0.176492D+02      0.261534D+01      0.290996D+01
   zx        -0.409220D+01     -0.606401D+00     -0.674712D+00
   zy         0.000000D+00      0.000000D+00      0.000000D+00
   zz         0.317639D+02      0.470693D+01      0.523717D+01

 ----------------------------------------------------------------------

 Dipole orientation:
     1         -0.00000000         -0.00000000         -0.00000000
     8         -0.51740037          0.00000000         -1.78876589
     8          1.88981560         -0.00000000         -3.00305188
     7          3.88636529         -0.00000000         -1.32214539
     8          3.32731786          0.00000000          0.86537159

 Electric dipole moment (dipole orientation):
 (Debye = 10**-18 statcoulomb cm , SI units = C m)
                  (au)            (Debye)         (10**-30 SI)
   Tot        0.432588D+00      0.109953D+01      0.366763D+01
   x          0.000000D+00      0.000000D+00      0.000000D+00
   y          0.000000D+00      0.000000D+00      0.000000D+00
   z          0.432588D+00      0.109953D+01      0.366763D+01

 Dipole polarizability, Alpha (dipole orientation).
 (esu units = cm**3 , SI units = C**2 m**2 J**-1)
 Alpha(0;0):
               (au)            (10**-24 esu)      (10**-40 SI)
   iso        0.262204D+02      0.388546D+01      0.432315D+01
   aniso      0.148419D+02      0.219934D+01      0.244710D+01
   xx         0.316268D+02      0.468660D+01      0.521455D+01
   yx         0.000000D+00      0.000000D+00      0.000000D+00
   yy         0.176492D+02      0.261534D+01      0.290996D+01
   zx         0.413188D+01      0.612281D+00      0.681254D+00
   zy         0.000000D+00      0.000000D+00      0.000000D+00
   zz         0.293851D+02      0.435443D+01      0.484495D+01

 ----------------------------------------------------------------------
 1\1\GINC-N2110\Freq\RMP2-FC\Aug-CC-pVTZ\H1N1O3\CGAVINH\06-Mar-2022\1\\
 #p freq mp2/aug-cc-pvtz density=current\\title\\0,1\H\O,1,r1\O,2,r2,1,
 a1\N,3,r3,2,a2,1,d1,0\O,4,r4,3,a3,2,d2,0\\r1=0.98537664\r2=1.42673666\
 r3=1.38110764\r4=1.19478846\a1=100.6355057\a2=113.13777052\a3=115.7584
 0379\d1=0.\d2=0.\\Version=ES64L-G16RevB.01\State=1-A'\HF=-279.5062657\
 MP2=-280.4550366\RMSD=4.275e-09\RMSF=3.156e-03\ZeroPoint=0.0233526\The
 rmal=0.0273232\Dipole=-0.1201986,0.,-0.4155529\DipoleDeriv=0.3135836,0
 .,0.0398684,0.,0.2986216,0.,-0.0205276,0.,0.1943898,-0.5318968,0.,0.27
 9001,0.,-0.2540318,0.,-0.1091839,0.,-0.1231922,0.0055205,0.,0.3424678,
 0.,-0.008744,0.,0.4508149,0.,-0.9248312,0.2049489,0.,-0.1615149,0.,0.0
 077963,0.,-0.6831409,0.,1.7310102,0.0078438,0.,-0.4998223,0.,-0.043642
 1,0.,0.3620374,0.,-0.8773766\Polar=29.2479415,0.,17.6491974,-4.092196,
 0.,31.7639352\Quadrupole=0.1143208,0.6156804,-0.7300012,0.,1.4064892,0
 .\PG=CS [SG(H1N1O3)]\NImag=0\\0.07276926,0.,0.00596406,0.02293812,0.,0
 .43738959,-0.05171722,0.,-0.00447012,0.28208484,0.,-0.00256456,0.,0.,0
 .01189454,0.03396552,0.,-0.42271310,-0.01090890,0.,0.52187071,-0.02562
 469,0.,-0.01492253,-0.17209581,0.,-0.09085341,0.30473381,0.,-0.0040973
 1,0.,0.,-0.01875342,0.,0.,0.04152908,-0.04470080,0.,-0.01911801,0.0096
 8651,0.,-0.09621162,0.08108857,0.,0.30726687,-0.00572203,0.,0.00654744
 ,-0.08566245,0.,0.04044842,-0.14363383,0.,-0.03701328,0.54599482,0.,0.
 00793173,0.,0.,0.02044534,0.,0.,-0.04678275,0.,0.,0.05378422,-0.018500
 20,0.,0.01157124,0.00974389,0.,-0.00856417,0.01251378,0.,-0.02388209,0
 .24369268,0.,0.45603801,0.01029469,0.,-0.01009291,0.02739063,0.,0.0273
 4837,0.03662052,0.,-0.00906100,-0.31097652,0.,-0.24745015,0.23667068,0
 .,-0.00723392,0.,0.,-0.01102191,0.,0.,0.02810440,0.,0.,-0.03537854,0.,
 0.,0.02552997,0.00629735,0.,-0.00712972,-0.00405138,0.,0.00561819,0.01
 217359,0.,-0.16805516,-0.25367526,0.,-0.43516299,0.23925569,0.,0.60472
 968\\0.00028600,0.,-0.00023366,0.00156775,0.,0.00113792,0.00127560,0.,
 0.00483033,-0.00798764,0.,0.00002695,0.00485829,0.,-0.00576154\\\@


 FOR THE NATURE OF THE CHEMICAL BOND
 IS THE PROBLEM AT THE HEART OF ALL CHEMISTRY.

                     -- BRYCE CRAWFORD, JR., 1953
 Job cpu time:       0 days  1 hours 59 minutes 13.8 seconds.
 Elapsed time:       0 days  0 hours  4 minutes 18.6 seconds.
 File lengths (MBytes):  RWF=   7239 Int=      0 D2E=      0 Chk=      8 Scr=      1
 Normal termination of Gaussian 16 at Sun Mar  6 19:44:24 2022.
