 Entering Gaussian System, Link 0=g16
 Input=hoono_r1_0p980134.gjf
 Output=hoono_r1_0p980134.log
 Initial command:
 /sw/contrib/gaussian/g16/B01/g16/l1.exe "/scr/Gau-3381.inp" -scrdir="/scr/"
 Entering Link 1 = /sw/contrib/gaussian/g16/B01/g16/l1.exe PID=      3382.
  
 Copyright (c) 1988-2017, Gaussian, Inc.  All Rights Reserved.
  
 This is part of the Gaussian(R) 16 program.  It is based on
 the Gaussian(R) 09 system (copyright 2009, Gaussian, Inc.),
 the Gaussian(R) 03 system (copyright 2003, Gaussian, Inc.),
 the Gaussian(R) 98 system (copyright 1998, Gaussian, Inc.),
 the Gaussian(R) 94 system (copyright 1995, Gaussian, Inc.),
 the Gaussian 92(TM) system (copyright 1992, Gaussian, Inc.),
 the Gaussian 90(TM) system (copyright 1990, Gaussian, Inc.),
 the Gaussian 88(TM) system (copyright 1988, Gaussian, Inc.),
 the Gaussian 86(TM) system (copyright 1986, Carnegie Mellon
 University), and the Gaussian 82(TM) system (copyright 1983,
 Carnegie Mellon University). Gaussian is a federally registered
 trademark of Gaussian, Inc.
  
 This software contains proprietary and confidential information,
 including trade secrets, belonging to Gaussian, Inc.
  
 This software is provided under written license and may be
 used, copied, transmitted, or stored only in accord with that
 written license.
  
 The following legend is applicable only to US Government
 contracts under FAR:
  
                    RESTRICTED RIGHTS LEGEND
  
 Use, reproduction and disclosure by the US Government is
 subject to restrictions as set forth in subparagraphs (a)
 and (c) of the Commercial Computer Software - Restricted
 Rights clause in FAR 52.227-19.
  
 Gaussian, Inc.
 340 Quinnipiac St., Bldg. 40, Wallingford CT 06492
  
  
 ---------------------------------------------------------------
 Warning -- This program may not be used in any manner that
 competes with the business of Gaussian, Inc. or will provide
 assistance to any competitor of Gaussian, Inc.  The licensee
 of this program is prohibited from giving any competitor of
 Gaussian, Inc. access to this program.  By using this program,
 the user acknowledges that Gaussian, Inc. is engaged in the
 business of creating and licensing software in the field of
 computational chemistry and represents and warrants to the
 licensee that it is not a competitor of Gaussian, Inc. and that
 it will not use this program in any manner prohibited above.
 ---------------------------------------------------------------
  

 Cite this work as:
 Gaussian 16, Revision B.01,
 M. J. Frisch, G. W. Trucks, H. B. Schlegel, G. E. Scuseria, 
 M. A. Robb, J. R. Cheeseman, G. Scalmani, V. Barone, 
 G. A. Petersson, H. Nakatsuji, X. Li, M. Caricato, A. V. Marenich, 
 J. Bloino, B. G. Janesko, R. Gomperts, B. Mennucci, H. P. Hratchian, 
 J. V. Ortiz, A. F. Izmaylov, J. L. Sonnenberg, D. Williams-Young, 
 F. Ding, F. Lipparini, F. Egidi, J. Goings, B. Peng, A. Petrone, 
 T. Henderson, D. Ranasinghe, V. G. Zakrzewski, J. Gao, N. Rega, 
 G. Zheng, W. Liang, M. Hada, M. Ehara, K. Toyota, R. Fukuda, 
 J. Hasegawa, M. Ishida, T. Nakajima, Y. Honda, O. Kitao, H. Nakai, 
 T. Vreven, K. Throssell, J. A. Montgomery, Jr., J. E. Peralta, 
 F. Ogliaro, M. J. Bearpark, J. J. Heyd, E. N. Brothers, K. N. Kudin, 
 V. N. Staroverov, T. A. Keith, R. Kobayashi, J. Normand, 
 K. Raghavachari, A. P. Rendell, J. C. Burant, S. S. Iyengar, 
 J. Tomasi, M. Cossi, J. M. Millam, M. Klene, C. Adamo, R. Cammi, 
 J. W. Ochterski, R. L. Martin, K. Morokuma, O. Farkas, 
 J. B. Foresman, and D. J. Fox, Gaussian, Inc., Wallingford CT, 2016.
 
 ******************************************
 Gaussian 16:  ES64L-G16RevB.01 20-Dec-2017
                21-Feb-2022 
 ******************************************
 %nproc=28
 Will use up to   28 processors via shared memory.
 %mem=120GB
 %chk=hoono_r1_0p980134.chk
 ---------------------------------------
 #p freq mp2/aug-cc-pvtz density=current
 ---------------------------------------
 1/10=4,30=1,38=1/1,3;
 2/12=2,17=6,18=5,40=1/2;
 3/5=16,6=1,7=10,11=9,25=1,30=1,71=2,140=1/1,2,3;
 4//1;
 5/5=2,38=5,98=1/2;
 8/6=3,8=1,10=1,19=11,30=-1/1;
 9/15=3,16=-3/6;
 11/6=1,8=1,15=11,17=12,24=-1,27=1,28=-2,29=300,32=6,42=3/1,2,10;
 10/6=2,21=1/2;
 8/6=4,8=1,10=1,19=11,30=-1/11,4;
 10/5=1,20=4/2;
 11/12=2,14=11,16=1,17=2,28=-2,42=3,76=2/2,10,12;
 6/7=2,8=2,9=2,10=2,22=-1/1;
 7/8=1,10=1,12=2,25=1,44=2/1,2,3,16;
 1/10=4,30=1/3;
 99//99;
 Leave Link    1 at Mon Feb 21 19:57:59 2022, MaxMem= 16106127360 cpu:               3.0 elap:               0.1
 (Enter /sw/contrib/gaussian/g16/B01/g16/l101.exe)
 -----
 title
 -----
 Symbolic Z-matrix:
 Charge =  0 Multiplicity = 1
 H
 O                    1    r1
 O                    2    r2       1    a1
 N                    3    r3       2    a2       1    d1       0
 O                    4    r4       3    a3       2    d2       0
       Variables:
  r1                    0.98013                  
  r2                    1.45492                  
  r3                    1.45878                  
  r4                    1.17073                  
  a1                   97.59495                  
  a2                  102.29752                  
  a3                  109.06955                  
  d1                  180.                       
  d2                  180.                       
 
 ITRead=  0  0  0  0  0
 MicOpt= -1 -1 -1 -1 -1
 NAtoms=      5 NQM=        5 NQMF=       0 NMMI=      0 NMMIF=      0
                NMic=       0 NMicF=      0.
                    Isotopes and Nuclear Properties:
 (Nuclear quadrupole moments (NQMom) in fm**2, nuclear magnetic moments (NMagM)
  in nuclear magnetons)

  Atom         1           2           3           4           5
 IAtWgt=           1          16          16          14          16
 AtmWgt=   1.0078250  15.9949146  15.9949146  14.0030740  15.9949146
 NucSpn=           1           0           0           2           0
 AtZEff=  -0.0000000  -0.0000000  -0.0000000  -0.0000000  -0.0000000
 NQMom=    0.0000000   0.0000000   0.0000000   2.0440000   0.0000000
 NMagM=    2.7928460   0.0000000   0.0000000   0.4037610   0.0000000
 AtZNuc=   1.0000000   8.0000000   8.0000000   7.0000000   8.0000000
 Leave Link  101 at Mon Feb 21 19:57:59 2022, MaxMem= 16106127360 cpu:               2.7 elap:               0.1
 (Enter /sw/contrib/gaussian/g16/B01/g16/l103.exe)

 GradGradGradGradGradGradGradGradGradGradGradGradGradGradGradGradGradGrad
 Berny optimization.
 Initialization pass.
                       ----------------------------
                       !    Initial Parameters    !
                       ! (Angstroms and Degrees)  !
 ----------------------                            ----------------------
 !      Name          Value   Derivative information (Atomic Units)     !
 ------------------------------------------------------------------------
 !       r1          0.9801   calculate D2E/DX2 analytically            !
 !       r2          1.4549   calculate D2E/DX2 analytically            !
 !       r3          1.4588   calculate D2E/DX2 analytically            !
 !       r4          1.1707   calculate D2E/DX2 analytically            !
 !       a1         97.5949   calculate D2E/DX2 analytically            !
 !       a2        102.2975   calculate D2E/DX2 analytically            !
 !       a3        109.0696   calculate D2E/DX2 analytically            !
 !       d1        180.0      calculate D2E/DX2 analytically            !
 !       d2        180.0      calculate D2E/DX2 analytically            !
 ------------------------------------------------------------------------
 Trust Radius=3.00D-01 FncErr=1.00D-07 GrdErr=1.00D-07 EigMax=2.50D+02 EigMin=1.00D-04
 Number of steps in this run=      2 maximum allowed number of steps=      2.
 GradGradGradGradGradGradGradGradGradGradGradGradGradGradGradGradGradGrad

 Leave Link  103 at Mon Feb 21 19:57:59 2022, MaxMem= 16106127360 cpu:               0.5 elap:               0.0
 (Enter /sw/contrib/gaussian/g16/B01/g16/l202.exe)
                          Input orientation:                          
 ---------------------------------------------------------------------
 Center     Atomic      Atomic             Coordinates (Angstroms)
 Number     Number       Type             X           Y           Z
 ---------------------------------------------------------------------
      1          1           0        0.000000    0.000000    0.000000
      2          8           0        0.000000    0.000000    0.980134
      3          8           0        1.442156    0.000000    1.172429
      4          7           0        1.561752    0.000000    2.626303
      5          8           0        2.695867    0.000000    2.916797
 ---------------------------------------------------------------------
                    Distance matrix (angstroms):
                    1          2          3          4          5
     1  H    0.000000
     2  O    0.980134   0.000000
     3  O    1.858602   1.454919   0.000000
     4  N    3.055574   2.269127   1.458784   0.000000
     5  O    3.971827   3.319392   2.148165   1.170729   0.000000
 Stoichiometry    HNO3
 Framework group  CS[SG(HNO3)]
 Deg. of freedom     7
 Full point group                 CS      NOp   2
 Largest Abelian subgroup         CS      NOp   2
 Largest concise Abelian subgroup C1      NOp   1
                         Standard orientation:                         
 ---------------------------------------------------------------------
 Center     Atomic      Atomic             Coordinates (Angstroms)
 Number     Number       Type             X           Y           Z
 ---------------------------------------------------------------------
      1          1           0        1.550258    1.697895    0.000000
      2          8           0        1.454066    0.722492    0.000000
      3          8           0        0.000000    0.672662    0.000000
      4          7           0       -0.261705   -0.762455   -0.000000
      5          8           0       -1.418856   -0.940243   -0.000000
 ---------------------------------------------------------------------
 Rotational constants (GHZ):          54.9077796           5.0094383           4.5906192
 Leave Link  202 at Mon Feb 21 19:57:59 2022, MaxMem= 16106127360 cpu:               0.4 elap:               0.0
 (Enter /sw/contrib/gaussian/g16/B01/g16/l301.exe)
 Standard basis: Aug-CC-pVTZ (5D, 7F)
 Ernie: Thresh=  0.10000D-02 Tol=  0.10000D-05 Strict=F.
 Ernie:  12 primitive shells out of 131 were deleted.
 There are   166 symmetry adapted cartesian basis functions of A'  symmetry.
 There are    79 symmetry adapted cartesian basis functions of A"  symmetry.
 There are   136 symmetry adapted basis functions of A'  symmetry.
 There are    71 symmetry adapted basis functions of A"  symmetry.
   207 basis functions,   315 primitive gaussians,   245 cartesian basis functions
    16 alpha electrons       16 beta electrons
       nuclear repulsion energy       116.8076216846 Hartrees.
 IExCor=    0 DFT=F Ex=HF Corr=None ExCW=0 ScaHFX=  1.000000
 ScaDFX=  1.000000  1.000000  1.000000  1.000000 ScalE2=  1.000000  1.000000
 IRadAn=      5 IRanWt=     -1 IRanGd=            0 ICorTp=0 IEmpDi=  4
 NAtoms=    5 NActive=    5 NUniq=    5 SFac= 1.00D+00 NAtFMM=   60 NAOKFM=F Big=F
 Integral buffers will be    131072 words long.
 Raffenetti 1 integral format.
 Two-electron integral symmetry is turned on.
 Leave Link  301 at Mon Feb 21 19:57:59 2022, MaxMem= 16106127360 cpu:               2.2 elap:               0.1
 (Enter /sw/contrib/gaussian/g16/B01/g16/l302.exe)
 NPDir=0 NMtPBC=     1 NCelOv=     1 NCel=       1 NClECP=     1 NCelD=      1
         NCelK=      1 NCelE2=     1 NClLst=     1 CellRange=     0.0.
 One-electron integrals computed using PRISM.
 One-electron integral symmetry used in STVInt
 NBasis=   207 RedAO= T EigKep=  1.83D-04  NBF=   136    71
 NBsUse=   207 1.00D-06 EigRej= -1.00D+00 NBFU=   136    71
 Leave Link  302 at Mon Feb 21 19:58:00 2022, MaxMem= 16106127360 cpu:               7.5 elap:               0.4
 (Enter /sw/contrib/gaussian/g16/B01/g16/l303.exe)
 DipDrv:  MaxL=1.
 Leave Link  303 at Mon Feb 21 19:58:00 2022, MaxMem= 16106127360 cpu:               3.0 elap:               0.2
 (Enter /sw/contrib/gaussian/g16/B01/g16/l401.exe)
 ExpMin= 2.53D-02 ExpMax= 1.53D+04 ExpMxC= 5.22D+02 IAcc=3 IRadAn=         5 AccDes= 0.00D+00
 Harris functional with IExCor=  205 and IRadAn=       5 diagonalized for initial guess.
 HarFok:  IExCor=  205 AccDes= 0.00D+00 IRadAn=         5 IDoV= 1 UseB2=F ITyADJ=14
 ICtDFT=  3500011 ScaDFX=  1.000000  1.000000  1.000000  1.000000
 FoFCou: FMM=F IPFlag=           0 FMFlag=      100000 FMFlg1=           0
         NFxFlg=           0 DoJE=T BraDBF=F KetDBF=T FulRan=T
         wScrn=  0.000000 ICntrl=       500 IOpCl=  0 I1Cent=   200000004 NGrid=           0
         NMat0=    1 NMatS0=      1 NMatT0=    0 NMatD0=    1 NMtDS0=    0 NMtDT0=    0
 Petite list used in FoFCou.
 Harris En= -279.628482531927    
 JPrj=0 DoOrth=F DoCkMO=F.
 Initial guess orbital symmetries:
       Occupied  (A') (A') (A') (A') (A') (A') (A') (A') (A') (A')
                 (A") (A') (A') (A") (A") (A')
       Virtual   (A") (A') (A') (A') (A') (A') (A") (A') (A') (A')
                 (A") (A') (A") (A') (A') (A") (A') (A") (A') (A')
                 (A') (A') (A') (A') (A') (A") (A') (A") (A') (A')
                 (A") (A') (A") (A') (A') (A") (A') (A") (A') (A')
                 (A") (A') (A") (A') (A") (A') (A') (A') (A") (A")
                 (A') (A') (A') (A') (A") (A') (A") (A') (A") (A')
                 (A') (A') (A") (A') (A') (A") (A') (A") (A') (A')
                 (A") (A') (A') (A") (A") (A') (A') (A") (A') (A')
                 (A') (A") (A') (A") (A') (A") (A') (A") (A') (A')
                 (A') (A") (A') (A") (A') (A") (A") (A') (A') (A")
                 (A') (A') (A") (A') (A') (A') (A') (A") (A") (A')
                 (A") (A') (A') (A') (A") (A') (A') (A') (A") (A')
                 (A") (A') (A') (A") (A") (A') (A') (A") (A") (A')
                 (A') (A') (A') (A") (A") (A') (A") (A') (A') (A')
                 (A") (A') (A") (A') (A') (A") (A') (A') (A') (A')
                 (A") (A') (A') (A") (A') (A") (A') (A") (A') (A")
                 (A') (A") (A') (A") (A') (A") (A") (A") (A') (A')
                 (A") (A') (A") (A') (A") (A') (A") (A") (A') (A')
                 (A') (A') (A') (A') (A') (A') (A') (A') (A') (A')
                 (A')
 The electronic state of the initial guess is 1-A'.
 Leave Link  401 at Mon Feb 21 19:58:00 2022, MaxMem= 16106127360 cpu:               7.0 elap:               0.3
 (Enter /sw/contrib/gaussian/g16/B01/g16/l502.exe)
 Keep R1 ints in memory in symmetry-blocked form, NReq=348887737.
 FoFCou: FMM=F IPFlag=           0 FMFlag=           0 FMFlg1=           0
         NFxFlg=           0 DoJE=F BraDBF=F KetDBF=F FulRan=T
         wScrn=  0.000000 ICntrl=       600 IOpCl=  0 I1Cent=           0 NGrid=           0
         NMat0=    1 NMatS0=  21528 NMatT0=    0 NMatD0=    1 NMtDS0=    0 NMtDT0=    0
 Petite list used in FoFCou.
 Closed shell SCF:
 Using DIIS extrapolation, IDIIS=  1040.
 NGot= 16106127360 LenX= 15988850015 LenY= 15988789549
 Requested convergence on RMS density matrix=1.00D-08 within 128 cycles.
 Requested convergence on MAX density matrix=1.00D-06.
 Requested convergence on             energy=1.00D-06.
 No special actions if energy rises.

 Cycle   1  Pass 1  IDiag  1:
 E= -279.370486405405    
 DIIS: error= 2.78D-02 at cycle   1 NSaved=   1.
 NSaved= 1 IEnMin= 1 EnMin= -279.370486405405     IErMin= 1 ErrMin= 2.78D-02
 ErrMax= 2.78D-02  0.00D+00 EMaxC= 1.00D-01 BMatC= 4.37D-01 BMatP= 4.37D-01
 IDIUse=3 WtCom= 7.22D-01 WtEn= 2.78D-01
 Coeff-Com:  0.100D+01
 Coeff-En:   0.100D+01
 Coeff:      0.100D+01
 Gap=     0.513 Goal=   None    Shift=    0.000
 GapD=    0.513 DampG=2.000 DampE=0.500 DampFc=1.0000 IDamp=-1.
 RMSDP=1.62D-03 MaxDP=9.92D-02              OVMax= 1.12D-01

 Cycle   2  Pass 1  IDiag  1:
 E= -279.452264952735     Delta-E=       -0.081778547331 Rises=F Damp=F
 DIIS: error= 1.77D-02 at cycle   2 NSaved=   2.
 NSaved= 2 IEnMin= 2 EnMin= -279.452264952735     IErMin= 2 ErrMin= 1.77D-02
 ErrMax= 1.77D-02  0.00D+00 EMaxC= 1.00D-01 BMatC= 7.10D-02 BMatP= 4.37D-01
 IDIUse=3 WtCom= 8.23D-01 WtEn= 1.77D-01
 Coeff-Com:  0.193D+00 0.807D+00
 Coeff-En:   0.000D+00 0.100D+01
 Coeff:      0.159D+00 0.841D+00
 Gap=     0.529 Goal=   None    Shift=    0.000
 RMSDP=8.95D-04 MaxDP=3.74D-02 DE=-8.18D-02 OVMax= 6.95D-02

 Cycle   3  Pass 1  IDiag  1:
 E= -279.480983368923     Delta-E=       -0.028718416188 Rises=F Damp=F
 DIIS: error= 1.04D-02 at cycle   3 NSaved=   3.
 NSaved= 3 IEnMin= 3 EnMin= -279.480983368923     IErMin= 3 ErrMin= 1.04D-02
 ErrMax= 1.04D-02  0.00D+00 EMaxC= 1.00D-01 BMatC= 2.86D-02 BMatP= 7.10D-02
 IDIUse=3 WtCom= 8.96D-01 WtEn= 1.04D-01
 Coeff-Com: -0.331D-01 0.379D+00 0.654D+00
 Coeff-En:   0.000D+00 0.242D+00 0.758D+00
 Coeff:     -0.297D-01 0.365D+00 0.665D+00
 Gap=     0.510 Goal=   None    Shift=    0.000
 RMSDP=3.75D-04 MaxDP=1.54D-02 DE=-2.87D-02 OVMax= 3.80D-02

 Cycle   4  Pass 1  IDiag  1:
 E= -279.499970184383     Delta-E=       -0.018986815460 Rises=F Damp=F
 DIIS: error= 1.27D-03 at cycle   4 NSaved=   4.
 NSaved= 4 IEnMin= 4 EnMin= -279.499970184383     IErMin= 4 ErrMin= 1.27D-03
 ErrMax= 1.27D-03  0.00D+00 EMaxC= 1.00D-01 BMatC= 4.86D-04 BMatP= 2.86D-02
 IDIUse=3 WtCom= 9.87D-01 WtEn= 1.27D-02
 Coeff-Com: -0.115D-01 0.565D-01 0.156D+00 0.799D+00
 Coeff-En:   0.000D+00 0.000D+00 0.000D+00 0.100D+01
 Coeff:     -0.114D-01 0.558D-01 0.154D+00 0.801D+00
 Gap=     0.502 Goal=   None    Shift=    0.000
 RMSDP=9.03D-05 MaxDP=2.77D-03 DE=-1.90D-02 OVMax= 1.12D-02

 Cycle   5  Pass 1  IDiag  1:
 E= -279.500643714249     Delta-E=       -0.000673529866 Rises=F Damp=F
 DIIS: error= 7.40D-04 at cycle   5 NSaved=   5.
 NSaved= 5 IEnMin= 5 EnMin= -279.500643714249     IErMin= 5 ErrMin= 7.40D-04
 ErrMax= 7.40D-04  0.00D+00 EMaxC= 1.00D-01 BMatC= 8.75D-05 BMatP= 4.86D-04
 IDIUse=3 WtCom= 9.93D-01 WtEn= 7.40D-03
 Coeff-Com:  0.613D-02-0.727D-01-0.118D+00 0.259D-01 0.116D+01
 Coeff-En:   0.000D+00 0.000D+00 0.000D+00 0.000D+00 0.100D+01
 Coeff:      0.608D-02-0.722D-01-0.117D+00 0.257D-01 0.116D+01
 Gap=     0.501 Goal=   None    Shift=    0.000
 RMSDP=7.60D-05 MaxDP=2.10D-03 DE=-6.74D-04 OVMax= 1.11D-02

 Cycle   6  Pass 1  IDiag  1:
 E= -279.500958521956     Delta-E=       -0.000314807708 Rises=F Damp=F
 DIIS: error= 2.83D-04 at cycle   6 NSaved=   6.
 NSaved= 6 IEnMin= 6 EnMin= -279.500958521956     IErMin= 6 ErrMin= 2.83D-04
 ErrMax= 2.83D-04  0.00D+00 EMaxC= 1.00D-01 BMatC= 1.68D-05 BMatP= 8.75D-05
 IDIUse=3 WtCom= 9.97D-01 WtEn= 2.83D-03
 Coeff-Com:  0.622D-03 0.132D-02 0.397D-02-0.132D+00-0.223D+00 0.135D+01
 Coeff-En:   0.000D+00 0.000D+00 0.000D+00 0.000D+00 0.000D+00 0.100D+01
 Coeff:      0.620D-03 0.132D-02 0.396D-02-0.132D+00-0.222D+00 0.135D+01
 Gap=     0.502 Goal=   None    Shift=    0.000
 RMSDP=4.53D-05 MaxDP=1.25D-03 DE=-3.15D-04 OVMax= 5.56D-03

 Cycle   7  Pass 1  IDiag  1:
 E= -279.501031508671     Delta-E=       -0.000072986715 Rises=F Damp=F
 DIIS: error= 1.25D-04 at cycle   7 NSaved=   7.
 NSaved= 7 IEnMin= 7 EnMin= -279.501031508671     IErMin= 7 ErrMin= 1.25D-04
 ErrMax= 1.25D-04  0.00D+00 EMaxC= 1.00D-01 BMatC= 4.61D-06 BMatP= 1.68D-05
 IDIUse=3 WtCom= 9.99D-01 WtEn= 1.25D-03
 Coeff-Com: -0.936D-03 0.136D-01 0.265D-01-0.264D-01-0.287D+00 0.396D+00
 Coeff-Com:  0.878D+00
 Coeff-En:   0.000D+00 0.000D+00 0.000D+00 0.000D+00 0.000D+00 0.000D+00
 Coeff-En:   0.100D+01
 Coeff:     -0.935D-03 0.136D-01 0.264D-01-0.263D-01-0.287D+00 0.396D+00
 Coeff:      0.878D+00
 Gap=     0.502 Goal=   None    Shift=    0.000
 RMSDP=1.33D-05 MaxDP=3.78D-04 DE=-7.30D-05 OVMax= 1.56D-03

 Cycle   8  Pass 1  IDiag  1:
 E= -279.501040544109     Delta-E=       -0.000009035437 Rises=F Damp=F
 DIIS: error= 5.67D-05 at cycle   8 NSaved=   8.
 NSaved= 8 IEnMin= 8 EnMin= -279.501040544109     IErMin= 8 ErrMin= 5.67D-05
 ErrMax= 5.67D-05  0.00D+00 EMaxC= 1.00D-01 BMatC= 6.13D-07 BMatP= 4.61D-06
 IDIUse=1 WtCom= 1.00D+00 WtEn= 0.00D+00
 Coeff-Com: -0.451D-03 0.348D-02 0.766D-02 0.278D-01-0.418D-01-0.197D+00
 Coeff-Com:  0.165D+00 0.104D+01
 Coeff:     -0.451D-03 0.348D-02 0.766D-02 0.278D-01-0.418D-01-0.197D+00
 Coeff:      0.165D+00 0.104D+01
 Gap=     0.502 Goal=   None    Shift=    0.000
 RMSDP=6.97D-06 MaxDP=2.04D-04 DE=-9.04D-06 OVMax= 7.53D-04

 Cycle   9  Pass 1  IDiag  1:
 E= -279.501042350055     Delta-E=       -0.000001805947 Rises=F Damp=F
 DIIS: error= 1.58D-05 at cycle   9 NSaved=   9.
 NSaved= 9 IEnMin= 9 EnMin= -279.501042350055     IErMin= 9 ErrMin= 1.58D-05
 ErrMax= 1.58D-05  0.00D+00 EMaxC= 1.00D-01 BMatC= 6.92D-08 BMatP= 6.13D-07
 IDIUse=1 WtCom= 1.00D+00 WtEn= 0.00D+00
 Coeff-Com:  0.122D-03-0.172D-02-0.306D-02-0.193D-02 0.340D-01-0.256D-03
 Coeff-Com: -0.164D+00-0.105D+00 0.124D+01
 Coeff:      0.122D-03-0.172D-02-0.306D-02-0.193D-02 0.340D-01-0.256D-03
 Coeff:     -0.164D+00-0.105D+00 0.124D+01
 Gap=     0.502 Goal=   None    Shift=    0.000
 RMSDP=1.94D-06 MaxDP=6.63D-05 DE=-1.81D-06 OVMax= 1.76D-04

 Cycle  10  Pass 1  IDiag  1:
 E= -279.501042511036     Delta-E=       -0.000000160981 Rises=F Damp=F
 DIIS: error= 4.15D-06 at cycle  10 NSaved=  10.
 NSaved=10 IEnMin=10 EnMin= -279.501042511036     IErMin=10 ErrMin= 4.15D-06
 ErrMax= 4.15D-06  0.00D+00 EMaxC= 1.00D-01 BMatC= 5.61D-09 BMatP= 6.92D-08
 IDIUse=1 WtCom= 1.00D+00 WtEn= 0.00D+00
 Coeff-Com:  0.319D-04-0.253D-03-0.340D-03-0.275D-02 0.186D-02 0.197D-01
 Coeff-Com: -0.132D-01-0.758D-01-0.755D-01 0.115D+01
 Coeff:      0.319D-04-0.253D-03-0.340D-03-0.275D-02 0.186D-02 0.197D-01
 Coeff:     -0.132D-01-0.758D-01-0.755D-01 0.115D+01
 Gap=     0.502 Goal=   None    Shift=    0.000
 RMSDP=5.06D-07 MaxDP=2.11D-05 DE=-1.61D-07 OVMax= 4.18D-05

 Cycle  11  Pass 1  IDiag  1:
 E= -279.501042523654     Delta-E=       -0.000000012618 Rises=F Damp=F
 DIIS: error= 2.03D-06 at cycle  11 NSaved=  11.
 NSaved=11 IEnMin=11 EnMin= -279.501042523654     IErMin=11 ErrMin= 2.03D-06
 ErrMax= 2.03D-06  0.00D+00 EMaxC= 1.00D-01 BMatC= 6.66D-10 BMatP= 5.61D-09
 IDIUse=1 WtCom= 1.00D+00 WtEn= 0.00D+00
 Coeff-Com: -0.213D-04 0.246D-03 0.489D-03 0.528D-03-0.430D-02-0.354D-02
 Coeff-Com:  0.207D-01 0.315D-01-0.139D+00-0.180D+00 0.127D+01
 Coeff:     -0.213D-04 0.246D-03 0.489D-03 0.528D-03-0.430D-02-0.354D-02
 Coeff:      0.207D-01 0.315D-01-0.139D+00-0.180D+00 0.127D+01
 Gap=     0.502 Goal=   None    Shift=    0.000
 RMSDP=1.78D-07 MaxDP=6.54D-06 DE=-1.26D-08 OVMax= 1.75D-05

 Cycle  12  Pass 1  IDiag  1:
 E= -279.501042525472     Delta-E=       -0.000000001818 Rises=F Damp=F
 DIIS: error= 5.91D-07 at cycle  12 NSaved=  12.
 NSaved=12 IEnMin=12 EnMin= -279.501042525472     IErMin=12 ErrMin= 5.91D-07
 ErrMax= 5.91D-07  0.00D+00 EMaxC= 1.00D-01 BMatC= 7.19D-11 BMatP= 6.66D-10
 IDIUse=1 WtCom= 1.00D+00 WtEn= 0.00D+00
 Coeff-Com:  0.120D-05-0.289D-04-0.620D-04 0.189D-03 0.106D-02-0.229D-02
 Coeff-Com: -0.407D-02 0.544D-02 0.414D-01-0.112D+00-0.282D+00 0.135D+01
 Coeff:      0.120D-05-0.289D-04-0.620D-04 0.189D-03 0.106D-02-0.229D-02
 Coeff:     -0.407D-02 0.544D-02 0.414D-01-0.112D+00-0.282D+00 0.135D+01
 Gap=     0.502 Goal=   None    Shift=    0.000
 RMSDP=7.16D-08 MaxDP=2.82D-06 DE=-1.82D-09 OVMax= 6.76D-06

 Cycle  13  Pass 1  IDiag  1:
 E= -279.501042525702     Delta-E=       -0.000000000229 Rises=F Damp=F
 DIIS: error= 1.69D-07 at cycle  13 NSaved=  13.
 NSaved=13 IEnMin=13 EnMin= -279.501042525702     IErMin=13 ErrMin= 1.69D-07
 ErrMax= 1.69D-07  0.00D+00 EMaxC= 1.00D-01 BMatC= 4.03D-12 BMatP= 7.19D-11
 IDIUse=1 WtCom= 1.00D+00 WtEn= 0.00D+00
 Coeff-Com:  0.129D-05-0.141D-04-0.226D-04-0.899D-04 0.127D-03 0.756D-03
 Coeff-Com: -0.822D-03-0.328D-02 0.600D-03 0.408D-01-0.347D-01-0.327D+00
 Coeff-Com:  0.132D+01
 Coeff:      0.129D-05-0.141D-04-0.226D-04-0.899D-04 0.127D-03 0.756D-03
 Coeff:     -0.822D-03-0.328D-02 0.600D-03 0.408D-01-0.347D-01-0.327D+00
 Coeff:      0.132D+01
 Gap=     0.502 Goal=   None    Shift=    0.000
 RMSDP=1.91D-08 MaxDP=5.63D-07 DE=-2.29D-10 OVMax= 1.57D-06

 Cycle  14  Pass 1  IDiag  1:
 E= -279.501042525715     Delta-E=       -0.000000000014 Rises=F Damp=F
 DIIS: error= 2.46D-08 at cycle  14 NSaved=  14.
 NSaved=14 IEnMin=14 EnMin= -279.501042525715     IErMin=14 ErrMin= 2.46D-08
 ErrMax= 2.46D-08  0.00D+00 EMaxC= 1.00D-01 BMatC= 1.97D-13 BMatP= 4.03D-12
 IDIUse=1 WtCom= 1.00D+00 WtEn= 0.00D+00
 Coeff-Com: -0.190D-06 0.312D-05 0.556D-05 0.435D-05-0.820D-04 0.454D-04
 Coeff-Com:  0.276D-03 0.231D-03-0.243D-02 0.140D-02 0.170D-01-0.256D-01
 Coeff-Com: -0.200D+00 0.121D+01
 Coeff:     -0.190D-06 0.312D-05 0.556D-05 0.435D-05-0.820D-04 0.454D-04
 Coeff:      0.276D-03 0.231D-03-0.243D-02 0.140D-02 0.170D-01-0.256D-01
 Coeff:     -0.200D+00 0.121D+01
 Gap=     0.502 Goal=   None    Shift=    0.000
 RMSDP=3.79D-09 MaxDP=9.09D-08 DE=-1.36D-11 OVMax= 3.42D-07

 SCF Done:  E(RHF) =  -279.501042526     A.U. after   14 cycles
            NFock= 14  Conv=0.38D-08     -V/T= 2.0024
 KE= 2.788248308228D+02 PE=-8.949386358697D+02 EE= 2.198051408366D+02
 Leave Link  502 at Mon Feb 21 19:58:04 2022, MaxMem= 16106127360 cpu:              54.8 elap:               3.6
 (Enter /sw/contrib/gaussian/g16/B01/g16/l801.exe)
 ExpMin= 2.53D-02 ExpMax= 1.53D+04 ExpMxC= 5.22D+02 IAcc=3 IRadAn=         5 AccDes= 0.00D+00
 HarFok:  IExCor=  205 AccDes= 0.00D+00 IRadAn=         5 IDoV=-2 UseB2=F ITyADJ=14
 ICtDFT= 12500011 ScaDFX=  1.000000  1.000000  1.000000  1.000000
 Largest valence mixing into a core orbital is  2.08D-04
 Largest core mixing into a valence orbital is  3.63D-05
 Range of M.O.s used for correlation:     5   207
 NBasis=   207 NAE=    16 NBE=    16 NFC=     4 NFV=     0
 NROrb=    203 NOA=    12 NOB=    12 NVA=   191 NVB=   191

 **** Warning!!: The largest alpha MO coefficient is  0.17440075D+02

 Leave Link  801 at Mon Feb 21 19:58:04 2022, MaxMem= 16106127360 cpu:               3.1 elap:               0.2
 (Enter /sw/contrib/gaussian/g16/B01/g16/l906.exe)
 Frozen-core derivative calculation, NFC=   4 NFV=   0.
 FulOut=F Deriv=T AODrv=T NAtomX=     5
   MMem=           0  MDisk=          12 MDiskD=          12
  W3Min=      811440 MinDsk=     2425030 NBas6D=         245
 NBas2D=       30762    NTT=       30135    LW2=     7400000
    MDV= 16105574283 MDiskM=      328644 NBas2p=       30702
 Disk-based method using ON**2 memory for 12 occupieds at a time.
 Permanent disk used for amplitudes=    11516536 words.
 Estimated scratch disk usage=   321251614 words.
 IMap=   1   2   3   4   5   6   7   8   9  10  11  12  13  14  15  16
 Actual    scratch disk usage=   310331678 words.
 JobTyp=1 Pass  1:  I=   5 to  16 NPSUse= 28 ParTrn=T ParDer=T DoDerP=T.
 (rs|ai) integrals will be sorted in core.
 Spin components of T(2) and E(2):
     alpha-alpha T2 =       0.3407918173D-01 E2=     -0.1224755141D+00
     alpha-beta  T2 =       0.1871771066D+00 E2=     -0.7006301053D+00
     beta-beta   T2 =       0.3407918173D-01 E2=     -0.1224755141D+00
 The integrals were generated   1 times.
 ANorm=    0.1120417543D+01
 E2 =    -0.9455811334D+00 EUMP2 =    -0.28044662365916D+03
 Leave Link  906 at Mon Feb 21 19:59:41 2022, MaxMem= 16106127360 cpu:            2712.4 elap:              97.1
 (Enter /sw/contrib/gaussian/g16/B01/g16/l1101.exe)
 Using compressed Sx but separate Hx and Fx, NAtomX=     5.
 Will process      6 centers per pass.
 Leave Link 1101 at Mon Feb 21 19:59:41 2022, MaxMem= 16106127360 cpu:               5.2 elap:               0.2
 (Enter /sw/contrib/gaussian/g16/B01/g16/l1102.exe)
 Leave Link 1102 at Mon Feb 21 19:59:42 2022, MaxMem= 16106127360 cpu:               1.8 elap:               0.1
 (Enter /sw/contrib/gaussian/g16/B01/g16/l1110.exe)
 Forming Gx(P) for the SCF density, NAtomX=     5.
 Integral derivatives from FoFJK, PRISM(SPDF).
 Do as many integral derivatives as possible in FoFJK.
 G2DrvN: MDV=   16106126844.
 G2DrvN: will do     6 centers at a time, making    1 passes.
 Calling FoFCou, ICntrl=  3107 FMM=F I1Cent=   0 AccDes= 0.00D+00.
 FoFJK:  IHMeth= 1 ICntrl=    3107 DoSepK=F KAlg= 0 I1Cent=           0 FoldK=F
 IRaf=         0 NMat=       1 IRICut=       1 DoRegI=T DoRafI=F ISym2E= 1 IDoP0=0 IntGTp=1.
 FoFCou: FMM=F IPFlag=           0 FMFlag=      100000 FMFlg1=           0
         NFxFlg=           0 DoJE=F BraDBF=F KetDBF=F FulRan=T
         wScrn=  0.000000 ICntrl=      3107 IOpCl=  0 I1Cent=           0 NGrid=           0
         NMat0=    1 NMatS0=      1 NMatT0=    0 NMatD0=    1 NMtDS0=    0 NMtDT0=    0
 Petite list used in FoFCou.
 End of G2Drv F.D. properties file   721 does not exist.
 End of G2Drv F.D. properties file   722 does not exist.
 End of G2Drv F.D. properties file   788 does not exist.
 Leave Link 1110 at Mon Feb 21 19:59:45 2022, MaxMem= 16106127360 cpu:              84.6 elap:               3.1
 (Enter /sw/contrib/gaussian/g16/B01/g16/l1002.exe)
 Minotr:  Closed shell wavefunction.
          IDoAtm=11111
          Frozen-core window.
          Direct CPHF calculation.
          Differentiating once with respect to electric field.
                with respect to dipole field.
          Differentiating once with respect to nuclear coordinates.
          Requested convergence is 1.0D-08 RMS, and 1.0D-07 maximum.
          Secondary convergence is 1.0D-12 RMS, and 1.0D-12 maximum.
          NewPWx=T KeepS1=T KeepF1=T KeepIn=T MapXYZ=F SortEE=F KeepMc=T.
 Keep R1 ints in memory in symmetry-blocked form, NReq=348888983.
 FoFCou: FMM=F IPFlag=           0 FMFlag=           0 FMFlg1=           0
         NFxFlg=           0 DoJE=F BraDBF=F KetDBF=F FulRan=T
         wScrn=  0.000000 ICntrl=       600 IOpCl=  0 I1Cent=           0 NGrid=           0
         NMat0=    1 NMatS0=  21528 NMatT0=    0 NMatD0=    1 NMtDS0=    0 NMtDT0=    0
 Petite list used in FoFCou.
          MDV=   16106127360 using IRadAn=       1.
          Solving linear equations simultaneously, MaxMat=       0.
          There are    18 degrees of freedom in the 1st order CPHF.  IDoFFX=6 NUNeed=    18.
     15 vectors produced by pass  0 Test12= 1.70D-14 5.56D-09 XBig12= 8.30D+00 1.07D+00.
 AX will form    15 AO Fock derivatives at one time.
     15 vectors produced by pass  1 Test12= 1.70D-14 5.56D-09 XBig12= 1.34D+00 2.61D-01.
     15 vectors produced by pass  2 Test12= 1.70D-14 5.56D-09 XBig12= 1.41D-01 9.72D-02.
     15 vectors produced by pass  3 Test12= 1.70D-14 5.56D-09 XBig12= 4.85D-03 1.07D-02.
     15 vectors produced by pass  4 Test12= 1.70D-14 5.56D-09 XBig12= 9.56D-05 1.87D-03.
     15 vectors produced by pass  5 Test12= 1.70D-14 5.56D-09 XBig12= 1.36D-06 1.73D-04.
     15 vectors produced by pass  6 Test12= 1.70D-14 5.56D-09 XBig12= 1.08D-08 1.54D-05.
     12 vectors produced by pass  7 Test12= 1.70D-14 5.56D-09 XBig12= 7.93D-11 1.34D-06.
      3 vectors produced by pass  8 Test12= 1.70D-14 5.56D-09 XBig12= 5.60D-13 1.16D-07.
      2 vectors produced by pass  9 Test12= 1.70D-14 5.56D-09 XBig12= 3.67D-15 1.02D-08.
 InvSVY:  IOpt=1 It=  1 EMax= 1.33D-15
 Solved reduced A of dimension   122 with    15 vectors.
 FullF1:  Do perturbations      1 to      18.
 Saving first derivative matrices.
 End of Minotr F.D. properties file   721 does not exist.
 End of Minotr F.D. properties file   722 does not exist.
 End of Minotr F.D. properties file   788 does not exist.
 Leave Link 1002 at Mon Feb 21 19:59:48 2022, MaxMem= 16106127360 cpu:              80.8 elap:               2.9
 (Enter /sw/contrib/gaussian/g16/B01/g16/l811.exe)
 MDV= 16106127360.
 Form MO integral derivatives with frozen-active canonical formalism.
 MOERI=1 MOERIx=1 NAtoms=     5 NAtomX=     5.
 Discarding MO integrals.
 MO basis two electron integral derivatives will not be stored on disk.
 IAlg= 3 DoFC=T DoPWx=T Debug=F.
 Frozen-core window:  NFC=   4 NFV=   0.
 Reordered first order wavefunction length =     18678272
 In DefCFB: NBatch=  1 ICI= 16 ICA=191 LFMax= 96
            Large arrays: LIAPS=   619940160 LIARS=   288257200 words.
 In StABat: MaxSiz= 55 MinSiz= 25 NAtomB=  5
 DoIAMN: NPSUse= 28.
 Leave Link  811 at Mon Feb 21 20:01:09 2022, MaxMem= 16106127360 cpu:            2277.7 elap:              81.5
 (Enter /sw/contrib/gaussian/g16/B01/g16/l804.exe)
 Frozen-core window:  NFC=   4 NFV=   0.
 Closed-shell transformation, MDV= 16106127360 ITran=4 ISComp=1.
 Semi-Direct transformation.
 ModeAB=           2 MOrb=            16 LenV=   16104923051
 LASXX=     67341636 LTotXX=    67341636 LenRXX=    67341636
 LTotAB=    68301760 MaxLAS=    99807120 LenRXY=    99807120
 NonZer=   134683272 LenScr=   202817536 LnRSAI=           0
 LnScr1=           0 LExtra=           0 Total=    369966292
 MaxDsk=          -1 SrtSym=           F ITran=            4
 DoSDTr:  NPSUse= 28
 JobTyp=0 Pass  1:  I=   1 to  16.
 (rs|ai) integrals will be sorted in core.
 Complete sort for first half transformation.
 First half transformation complete.
 Begin second half transformation for I=  10.
 Begin second half transformation for I=  10.
 Complete sort for second half transformation.
 Second half transformation complete.
 Spin components of T(2) and E(2):
     alpha-alpha T2 =       0.3407918173D-01 E2=     -0.1224755141D+00
     alpha-beta  T2 =       0.1871771066D+00 E2=     -0.7006301053D+00
     beta-beta   T2 =       0.3407918173D-01 E2=     -0.1224755141D+00
 ANorm=    0.1584509684D+01
 E2 =    -0.9455811334D+00 EUMP2 =    -0.28044662365916D+03
 Leave Link  804 at Mon Feb 21 20:01:25 2022, MaxMem= 16106127360 cpu:             424.7 elap:              15.2
 (Enter /sw/contrib/gaussian/g16/B01/g16/l1002.exe)
 Minotr:  Closed shell wavefunction.
          Computing MP2/KS-MP2 derivatives.
          Using Z-Vector for PSCF gradient.
          Skipping F1 and S1 gradient terms here.
          IDoAtm=11111
          Frozen-core window.
          Using MO integrals in the linear equations.
          Forming densities via direct SCF.
          Differentiating once with respect to electric field.
                with respect to dipole field.
          Differentiating once with respect to nuclear coordinates.
          Using symmetry in CPHF.
          Requested convergence is 1.0D-10 RMS, and 1.0D-09 maximum.
          NewPWx=F KeepS1=T KeepF1=T KeepIn=T MapXYZ=F SortEE=F KeepMc=T.
          MDV=   16106127360 using IRadAn=       5.
          Solving linear equations separately, MaxMat=       0.
          There are     1 degrees of freedom in the 1st order CPHF.  IDoFFX=0 NUNeed=     1.
 FoFJK:  IHMeth= 1 ICntrl=       0 DoSepK=F KAlg= 0 I1Cent=           0 FoldK=F
 IRaf=         0 NMat=       1 IRICut=       1 DoRegI=T DoRafI=F ISym2E= 0 IDoP0=0 IntGTp=1.
 FoFCou: FMM=F IPFlag=           0 FMFlag=      100000 FMFlg1=           0
         NFxFlg=           0 DoJE=F BraDBF=F KetDBF=F FulRan=T
         wScrn=  0.000000 ICntrl=         0 IOpCl=  0 I1Cent=           0 NGrid=           0
         NMat0=    1 NMatS0=      1 NMatT0=    0 NMatD0=    1 NMtDS0=    0 NMtDT0=    0
 Symmetry not used in FoFCou.
 LinEq1:  Iter=  0 NonCon=     1 RMS=5.96D-03 Max=1.33D-01 NDo=     1
 LinEq1:  Iter=  1 NonCon=     1 RMS=1.91D-03 Max=3.82D-02 NDo=     1
 LinEq1:  Iter=  2 NonCon=     1 RMS=8.70D-04 Max=1.39D-02 NDo=     1
 LinEq1:  Iter=  3 NonCon=     1 RMS=3.87D-04 Max=7.80D-03 NDo=     1
 LinEq1:  Iter=  4 NonCon=     1 RMS=1.20D-04 Max=1.91D-03 NDo=     1
 LinEq1:  Iter=  5 NonCon=     1 RMS=4.53D-05 Max=7.21D-04 NDo=     1
 LinEq1:  Iter=  6 NonCon=     1 RMS=2.03D-05 Max=2.40D-04 NDo=     1
 LinEq1:  Iter=  7 NonCon=     1 RMS=8.14D-06 Max=1.59D-04 NDo=     1
 LinEq1:  Iter=  8 NonCon=     1 RMS=3.49D-06 Max=3.43D-05 NDo=     1
 LinEq1:  Iter=  9 NonCon=     1 RMS=9.53D-07 Max=1.32D-05 NDo=     1
 LinEq1:  Iter= 10 NonCon=     1 RMS=1.88D-07 Max=2.02D-06 NDo=     1
 LinEq1:  Iter= 11 NonCon=     1 RMS=3.50D-08 Max=3.62D-07 NDo=     1
 LinEq1:  Iter= 12 NonCon=     1 RMS=8.42D-09 Max=1.31D-07 NDo=     1
 LinEq1:  Iter= 13 NonCon=     1 RMS=1.52D-09 Max=2.64D-08 NDo=     1
 LinEq1:  Iter= 14 NonCon=     1 RMS=2.75D-10 Max=3.85D-09 NDo=     1
 LinEq1:  Iter= 15 NonCon=     0 RMS=4.95D-11 Max=5.59D-10 NDo=     1
 Linear equations converged to 1.000D-10 1.000D-09 after    15 iterations.
 End of Minotr F.D. properties file   721 does not exist.
 End of Minotr F.D. properties file   722 does not exist.
 End of Minotr F.D. properties file   788 does not exist.
 Leave Link 1002 at Mon Feb 21 20:01:27 2022, MaxMem= 16106127360 cpu:              72.7 elap:               2.7
 (Enter /sw/contrib/gaussian/g16/B01/g16/l1102.exe)
 Use density number 2.
 Symmetrizing basis deriv contribution to polar:
 IMax=3 JMax=2 DiffMx= 0.00D+00
 Leave Link 1102 at Mon Feb 21 20:01:28 2022, MaxMem= 16106127360 cpu:               0.8 elap:               0.1
 (Enter /sw/contrib/gaussian/g16/B01/g16/l1110.exe)
 Forming Gx(P) for generalized density number  2 NAtomX=     5.
 Integral derivatives from FoFJK, PRISM(SPDF).
 Do as many integral derivatives as possible in FoFJK.
 G2DrvN: MDV=   16106126844.
 G2DrvN: will do     6 centers at a time, making    1 passes.
 Calling FoFCou, ICntrl=  3107 FMM=F I1Cent=   0 AccDes= 0.00D+00.
 FoFJK:  IHMeth= 1 ICntrl=    3107 DoSepK=F KAlg= 0 I1Cent=           0 FoldK=F
 IRaf=         0 NMat=       1 IRICut=       1 DoRegI=T DoRafI=F ISym2E= 1 IDoP0=0 IntGTp=1.
 FoFCou: FMM=F IPFlag=           0 FMFlag=      100000 FMFlg1=           0
         NFxFlg=           0 DoJE=F BraDBF=F KetDBF=F FulRan=T
         wScrn=  0.000000 ICntrl=      3107 IOpCl=  0 I1Cent=           0 NGrid=           0
         NMat0=    1 NMatS0=      1 NMatT0=    0 NMatD0=    1 NMtDS0=    0 NMtDT0=    0
 Petite list used in FoFCou.
 End of G2Drv F.D. properties file   721 does not exist.
 End of G2Drv F.D. properties file   722 does not exist.
 End of G2Drv F.D. properties file   788 does not exist.
 Leave Link 1110 at Mon Feb 21 20:01:31 2022, MaxMem= 16106127360 cpu:              83.4 elap:               3.0
 (Enter /sw/contrib/gaussian/g16/B01/g16/l1112.exe)
 MP22nd: MDV=   16106127360
 This link is doing NAtomX=     5 total of    18 degrees of freedom.
 Using ON3 I/O method in MakUI.
 Frozen-core window:  NFC=   4 NFV=   0.
 Using Ix for Sx.
 Use MO integrals over full window.
 Using OV2 memory method for fx*t*t/D, MaxI=    16 DoOO2=F NP=  28.
 R2 and R3 integrals will be kept in memory, NReq=   915591705.
 FoFCou: FMM=F IPFlag=           0 FMFlag=           0 FMFlg1=           0
         NFxFlg=           0 DoJE=F BraDBF=F KetDBF=F FulRan=T
         wScrn=  0.000000 ICntrl=       600 IOpCl=  0 I1Cent=           0 NGrid=           0
         NMat0=    1 NMatS0=      1 NMatT0=    0 NMatD0=    1 NMtDS0=    0 NMtDT0=    0
 Symmetry not used in FoFCou.
 DD1Dir will call FoFMem   1 times, MxPair=       272
 NAB=   136 NAA=     0 NBB=     0.
 Symmetry is being used.
 FoFJK:  IHMeth= 1 ICntrl=       0 DoSepK=F KAlg= 0 I1Cent=           0 FoldK=F
 IRaf=         0 NMat=      18 IRICut=      45 DoRegI=T DoRafI=T ISym2E= 2 IDoP0=3 IntGTp=3.
 Discarding MO integrals.
 Leave Link 1112 at Mon Feb 21 20:02:02 2022, MaxMem= 16106127360 cpu:             869.0 elap:              31.3
 (Enter /sw/contrib/gaussian/g16/B01/g16/l601.exe)
 Copying SCF densities to generalized density rwf, IOpCl= 0 IROHF=0.

 **********************************************************************

            Population analysis using the MP2 Density.

 **********************************************************************

 Orbital symmetries:
       Occupied  (A') (A') (A') (A') (A') (A') (A') (A') (A') (A')
                 (A") (A') (A") (A') (A") (A')
       Virtual   (A') (A") (A') (A') (A') (A") (A') (A') (A") (A')
                 (A") (A') (A') (A') (A") (A') (A') (A") (A') (A')
                 (A') (A') (A') (A') (A") (A') (A') (A") (A') (A')
                 (A") (A') (A") (A') (A') (A") (A') (A') (A") (A')
                 (A") (A') (A") (A') (A') (A") (A') (A') (A") (A')
                 (A") (A') (A') (A') (A") (A') (A") (A') (A") (A')
                 (A') (A') (A") (A') (A') (A") (A') (A") (A') (A')
                 (A") (A') (A') (A") (A") (A') (A') (A") (A') (A')
                 (A') (A") (A') (A") (A") (A') (A') (A") (A') (A')
                 (A") (A') (A') (A") (A') (A") (A') (A") (A') (A')
                 (A") (A') (A") (A') (A') (A") (A') (A') (A") (A')
                 (A") (A') (A') (A') (A") (A') (A') (A') (A') (A")
                 (A") (A') (A") (A') (A') (A") (A") (A') (A") (A')
                 (A') (A') (A') (A") (A") (A") (A') (A') (A') (A')
                 (A") (A') (A") (A') (A') (A") (A') (A') (A') (A')
                 (A") (A') (A') (A") (A') (A") (A') (A") (A') (A")
                 (A') (A") (A') (A') (A") (A") (A") (A') (A") (A')
                 (A") (A') (A") (A') (A") (A') (A") (A") (A') (A')
                 (A') (A') (A') (A') (A') (A') (A') (A') (A') (A')
                 (A')
 The electronic state is 1-A'.
 Alpha  occ. eigenvalues --  -20.69059 -20.68408 -20.66084 -15.81260  -1.62377
 Alpha  occ. eigenvalues --   -1.49440  -1.25226  -0.94781  -0.77191  -0.75827
 Alpha  occ. eigenvalues --   -0.71153  -0.67764  -0.62013  -0.58889  -0.48485
 Alpha  occ. eigenvalues --   -0.47220
 Alpha virt. eigenvalues --    0.02941   0.07184   0.08599   0.10175   0.13396
 Alpha virt. eigenvalues --    0.13404   0.14359   0.15412   0.17841   0.19420
 Alpha virt. eigenvalues --    0.19984   0.20636   0.22085   0.23573   0.23748
 Alpha virt. eigenvalues --    0.26576   0.29321   0.30339   0.31004   0.34353
 Alpha virt. eigenvalues --    0.35034   0.38704   0.42047   0.43036   0.52742
 Alpha virt. eigenvalues --    0.52939   0.55854   0.58182   0.62608   0.63832
 Alpha virt. eigenvalues --    0.67461   0.68342   0.70643   0.71067   0.72323
 Alpha virt. eigenvalues --    0.72941   0.74446   0.79185   0.79192   0.81016
 Alpha virt. eigenvalues --    0.81285   0.83044   0.86839   0.90832   0.92161
 Alpha virt. eigenvalues --    0.92614   0.95564   0.97881   0.98310   1.01445
 Alpha virt. eigenvalues --    1.05250   1.05483   1.08136   1.11599   1.13987
 Alpha virt. eigenvalues --    1.18986   1.22008   1.23051   1.33917   1.35110
 Alpha virt. eigenvalues --    1.38639   1.45041   1.48465   1.50714   1.53835
 Alpha virt. eigenvalues --    1.56689   1.58043   1.61206   1.66501   1.67045
 Alpha virt. eigenvalues --    1.70320   1.79268   1.83096   1.83498   1.87867
 Alpha virt. eigenvalues --    1.90866   1.94998   1.99177   2.00395   2.07761
 Alpha virt. eigenvalues --    2.11958   2.13216   2.15024   2.22384   2.26392
 Alpha virt. eigenvalues --    2.26578   2.28956   2.31328   2.34327   2.38422
 Alpha virt. eigenvalues --    2.42439   2.42788   2.45423   2.46263   2.47615
 Alpha virt. eigenvalues --    2.50055   2.59325   2.59616   2.62140   2.62359
 Alpha virt. eigenvalues --    2.63495   2.66968   2.75740   2.82889   2.85526
 Alpha virt. eigenvalues --    2.88370   2.89449   2.92305   2.95817   3.02315
 Alpha virt. eigenvalues --    3.06744   3.12344   3.20492   3.22582   3.31517
 Alpha virt. eigenvalues --    3.34058   3.51752   3.63865   3.83247   3.83829
 Alpha virt. eigenvalues --    4.13881   4.15910   4.18145   4.25654   4.34208
 Alpha virt. eigenvalues --    4.39071   4.45993   4.51492   4.66073   4.70613
 Alpha virt. eigenvalues --    4.80121   4.81093   4.82572   4.89557   5.02331
 Alpha virt. eigenvalues --    5.07745   5.09162   5.13591   5.17325   5.22944
 Alpha virt. eigenvalues --    5.26417   5.30647   5.30704   5.35286   5.60082
 Alpha virt. eigenvalues --    5.67369   5.76652   5.82341   5.95626   6.17115
 Alpha virt. eigenvalues --    6.30850   6.34036   6.39191   6.49364   6.50540
 Alpha virt. eigenvalues --    6.61204   6.66908   6.69933   6.75829   6.76369
 Alpha virt. eigenvalues --    6.83240   6.89839   7.00618   7.05482   7.05577
 Alpha virt. eigenvalues --    7.08843   7.12149   7.14733   7.17945   7.22227
 Alpha virt. eigenvalues --    7.22607   7.29635   7.32515   7.34500   7.39988
 Alpha virt. eigenvalues --    7.42944   7.48458   7.60715   7.61600   7.62484
 Alpha virt. eigenvalues --    7.66267   7.77822   7.88679   8.08759   8.31054
 Alpha virt. eigenvalues --    8.39551   8.54073  13.38787  14.37790  15.00826
 Alpha virt. eigenvalues --   16.15258
          Condensed to atoms (all electrons):
               1          2          3          4          5
     1  H    0.577915   0.132676   0.018766   0.012119  -0.000616
     2  O    0.132676   8.324217  -0.172218  -0.089584   0.015393
     3  O    0.018766  -0.172218   8.468558  -0.129795  -0.038898
     4  N    0.012119  -0.089584  -0.129795   6.972018  -0.055750
     5  O   -0.000616   0.015393  -0.038898  -0.055750   8.273107
 Mulliken charges:
               1
     1  H    0.259140
     2  O   -0.210484
     3  O   -0.146412
     4  N    0.290992
     5  O   -0.193236
 Sum of Mulliken charges =  -0.00000
 Mulliken charges with hydrogens summed into heavy atoms:
               1
     2  O    0.048656
     3  O   -0.146412
     4  N    0.290992
     5  O   -0.193236
 APT charges:
               1
     1  H    0.298561
     2  O   -0.286475
     3  O   -0.496200
     4  N    0.876824
     5  O   -0.392709
 Sum of APT charges =  -0.00000
 APT charges with hydrogens summed into heavy atoms:
               1
     2  O    0.012086
     3  O   -0.496200
     4  N    0.876824
     5  O   -0.392709
 Electronic spatial extent (au):  <R**2>=            253.0234
 Charge=             -0.0000 electrons
 Dipole moment (field-independent basis, Debye):
    X=              0.5141    Y=              1.3750    Z=              0.0000  Tot=              1.4679
 Quadrupole moment (field-independent basis, Debye-Ang):
   XX=            -22.4740   YY=            -18.5722   ZZ=            -22.0244
   XY=              3.2780   XZ=             -0.0000   YZ=              0.0000
 Traceless Quadrupole moment (field-independent basis, Debye-Ang):
   XX=             -1.4505   YY=              2.4513   ZZ=             -1.0008
   XY=              3.2780   XZ=             -0.0000   YZ=              0.0000
 Octapole moment (field-independent basis, Debye-Ang**2):
  XXX=              2.8397  YYY=             11.4313  ZZZ=             -0.0000  XYY=              7.9898
  XXY=              6.6082  XXZ=              0.0000  XZZ=             -1.5972  YZZ=             -0.8694
  YYZ=              0.0000  XYZ=              0.0000
 Hexadecapole moment (field-independent basis, Debye-Ang**3):
 XXXX=           -158.6058 YYYY=            -89.5782 ZZZZ=            -18.2649 XXXY=            -36.7154
 XXXZ=             -0.0000 YYYX=            -30.5641 YYYZ=             -0.0000 ZZZX=             -0.0000
 ZZZY=             -0.0000 XXYY=            -33.8866 XXZZ=            -30.9130 YYZZ=            -20.7196
 XXYZ=             -0.0000 YYXZ=             -0.0000 ZZXY=            -15.0955
 N-N= 1.168076216846D+02 E-N=-8.957230320863D+02  KE= 2.801786220417D+02
 Symmetry A'   KE= 2.662080084091D+02
 Symmetry A"   KE= 1.397061363263D+01
  Exact polarizability:  34.053   9.524  30.409   0.000   0.000  17.955
 Approx polarizability:  29.038   5.120  23.638   0.000   0.000  15.540
 No NMR shielding tensors so no spin-rotation constants.
 Leave Link  601 at Mon Feb 21 20:02:02 2022, MaxMem= 16106127360 cpu:               6.0 elap:               0.3
 (Enter /sw/contrib/gaussian/g16/B01/g16/l701.exe)
 ... and contract with generalized density number  2.
 Compute integral second derivatives.
 Leave Link  701 at Mon Feb 21 20:02:03 2022, MaxMem= 16106127360 cpu:               7.1 elap:               0.3
 (Enter /sw/contrib/gaussian/g16/B01/g16/l702.exe)
 L702 exits ... SP integral derivatives will be done elsewhere.
 Leave Link  702 at Mon Feb 21 20:02:03 2022, MaxMem= 16106127360 cpu:               0.6 elap:               0.0
 (Enter /sw/contrib/gaussian/g16/B01/g16/l703.exe)
 Integral derivatives from FoFJK, PRISM(SPDF).
 Compute integral second derivatives, UseDBF=F ICtDFT=           0.
 Calling FoFJK, ICntrl=  10100127 FMM=F ISym2X=1 I1Cent= 0 IOpClX= 0 NMat=1 NMatS=1 NMatT=0.
 FoFJK:  IHMeth= 1 ICntrl=10100127 DoSepK=F KAlg= 0 I1Cent=           0 FoldK=F
 IRaf=         0 NMat=       1 IRICut=       1 DoRegI=T DoRafI=F ISym2E= 1 IDoP0=0 IntGTp=1.
 FoFCou: FMM=F IPFlag=           0 FMFlag=      100000 FMFlg1=         800
         NFxFlg=           0 DoJE=F BraDBF=F KetDBF=F FulRan=T
         wScrn=  0.000000 ICntrl=  10100127 IOpCl=  0 I1Cent=           0 NGrid=           0
         NMat0=    1 NMatS0=      1 NMatT0=    0 NMatD0=    1 NMtDS0=    0 NMtDT0=    0
 Petite list used in FoFCou.
 Leave Link  703 at Mon Feb 21 20:02:18 2022, MaxMem= 16106127360 cpu:             425.1 elap:              15.3
 (Enter /sw/contrib/gaussian/g16/B01/g16/l716.exe)
 Dipole        = 2.02264826D-01 5.40954160D-01 2.09055933D-33
 Polarizability= 3.40532500D+01 9.52434281D+00 3.04091554D+01
                 3.87855860D-31 9.12502420D-32 1.79548971D+01
 Full mass-weighted force constant matrix:
 Low frequencies ---  -84.8407  -10.6029    0.0002    0.0006    0.0012   33.0132
 Low frequencies ---  223.0447  307.9177  350.0512
 Diagonal vibrational polarizability:
       14.0450587      25.0999464      44.7803784
 Harmonic frequencies (cm**-1), IR intensities (KM/Mole), Raman scattering
 activities (A**4/AMU), depolarization ratios for plane and unpolarized
 incident light, reduced masses (AMU), force constants (mDyne/A),
 and normal coordinates:
                      1                      2                      3
                     A"                     A"                     A'
 Frequencies --    218.7219               283.6927               349.9553
 Red. masses --      8.9419                 1.1625                 9.0301
 Frc consts  --      0.2520                 0.0551                 0.6516
 IR Inten    --     14.0963               110.2071                 3.8263
  Atom  AN      X      Y      Z        X      Y      Z        X      Y      Z
     1   1    -0.00   0.00   0.66     0.00   0.00   0.99     0.50  -0.45   0.00
     2   8    -0.00   0.00  -0.33     0.00   0.00  -0.02    -0.09  -0.39  -0.00
     3   8    -0.00  -0.00   0.23     0.00   0.00  -0.08    -0.15   0.44   0.00
     4   7     0.00   0.00   0.51    -0.00  -0.00  -0.02     0.05   0.27   0.00
     5   8     0.00   0.00  -0.38    -0.00  -0.00   0.05     0.17  -0.26  -0.00
                      4                      5                      6
                     A'                     A'                     A'
 Frequencies --    451.4750               788.7692               967.8027
 Red. masses --     12.3279                13.3313                15.1681
 Frc consts  --      1.4805                 4.8868                 8.3706
 IR Inten    --    200.4293               177.6531                20.7609
  Atom  AN      X      Y      Z        X      Y      Z        X      Y      Z
     1   1     0.41   0.19  -0.00    -0.29   0.20  -0.00    -0.21  -0.04   0.00
     2   8     0.32   0.20  -0.00     0.42   0.09  -0.00    -0.52   0.03  -0.00
     3   8     0.17   0.45   0.00    -0.06  -0.28   0.00     0.75  -0.01   0.00
     4   7    -0.35  -0.40   0.00    -0.14   0.63   0.00    -0.12   0.24   0.00
     5   8    -0.22  -0.30  -0.00    -0.22  -0.38  -0.00    -0.11  -0.22  -0.00
                      7                      8                      9
                     A'                     A'                     A'
 Frequencies --   1404.4588              1677.5759              3636.3905
 Red. masses --      1.1270                12.9413                 1.0676
 Frc consts  --      1.3098                21.4582                 8.3174
 IR Inten    --    152.0141               138.2554                81.1317
  Atom  AN      X      Y      Z        X      Y      Z        X      Y      Z
     1   1     0.99  -0.06  -0.00    -0.37   0.01   0.00     0.10   0.99   0.00
     2   8    -0.03   0.05  -0.00    -0.00  -0.04   0.00    -0.01  -0.06   0.00
     3   8    -0.02  -0.05   0.00     0.00   0.15  -0.00     0.00   0.00  -0.00
     4   7     0.02   0.01   0.00     0.70  -0.05  -0.00    -0.00  -0.00  -0.00
     5   8    -0.03  -0.01  -0.00    -0.59  -0.07   0.00     0.00   0.00   0.00

 -------------------
 - Thermochemistry -
 -------------------
 Temperature   298.150 Kelvin.  Pressure   1.00000 Atm.
 Atom     1 has atomic number  1 and mass   1.00783
 Atom     2 has atomic number  8 and mass  15.99491
 Atom     3 has atomic number  8 and mass  15.99491
 Atom     4 has atomic number  7 and mass  14.00307
 Atom     5 has atomic number  8 and mass  15.99491
 Molecular mass:    62.99564 amu.
 Principal axes and moments of inertia in atomic units:
                           1         2         3
     Eigenvalues --    32.86859 360.26818 393.13677
           X            0.81004  -0.58638   0.00000
           Y            0.58638   0.81004   0.00000
           Z           -0.00000   0.00000   1.00000
 This molecule is an asymmetric top.
 Rotational symmetry number  1.
 Rotational temperatures (Kelvin)      2.63516     0.24042     0.22031
 Rotational constants (GHZ):          54.90778     5.00944     4.59062
 Zero-point vibrational energy      58490.5 (Joules/Mol)
                                   13.97956 (Kcal/Mol)
 Warning -- explicit consideration of   4 degrees of freedom as
           vibrations may cause significant error
 Vibrational temperatures:    314.69   408.17   503.51   649.57  1134.86
          (Kelvin)           1392.45  2020.70  2413.66  5231.95
 
 Zero-point correction=                           0.022278 (Hartree/Particle)
 Thermal correction to Energy=                    0.026840
 Thermal correction to Enthalpy=                  0.027784
 Thermal correction to Gibbs Free Energy=        -0.004137
 Sum of electronic and zero-point Energies=           -280.424346
 Sum of electronic and thermal Energies=              -280.419783
 Sum of electronic and thermal Enthalpies=            -280.418839
 Sum of electronic and thermal Free Energies=         -280.450760
 
                     E (Thermal)             CV                S
                      KCal/Mol        Cal/Mol-Kelvin    Cal/Mol-Kelvin
 Total                   16.843             13.638             67.184
 Electronic               0.000              0.000              0.000
 Translational            0.889              2.981             38.341
 Rotational               0.889              2.981             23.058
 Vibrational             15.065              7.677              5.785
 Vibration     1          0.646              1.813              1.970
 Vibration     2          0.682              1.704              1.511
 Vibration     3          0.727              1.575              1.166
 Vibration     4          0.810              1.358              0.791
                       Q            Log10(Q)             Ln(Q)
 Total Bot       0.799372D+02          1.902749          4.381241
 Total V=0       0.141200D+13         12.149835         27.976029
 Vib (Bot)       0.166536D-09         -9.778492        -22.515810
 Vib (Bot)    1  0.904844D+00         -0.043426         -0.099993
 Vib (Bot)    2  0.676384D+00         -0.169807         -0.390995
 Vib (Bot)    3  0.527224D+00         -0.278005         -0.640131
 Vib (Bot)    4  0.379382D+00         -0.420923         -0.969211
 Vib (V=0)       0.294167D+01          0.468595          1.078979
 Vib (V=0)    1  0.153380D+01          0.185769          0.427748
 Vib (V=0)    2  0.134113D+01          0.127470          0.293510
 Vib (V=0)    3  0.122661D+01          0.088707          0.204256
 Vib (V=0)    4  0.112764D+01          0.052170          0.120126
 Electronic      0.100000D+01          0.000000          0.000000
 Translational   0.196526D+08          7.293420         16.793719
 Rotational      0.244242D+05          4.387821         10.103331
 
                                                                title
                                                             IR Spectrum
 
     3                                                                    1        1                                                 
     6                                                                    6        4               9     7           4  3  2 2       
     3                                                                    7        0               6     8           5  5  8 1       
     6                                                                    8        4               8     9           1  0  4 9       
 
     X                                                                    X        X               X     X           X  X  X X       
     X                                                                    X        X               X     X           X     X         
     X                                                                    X        X                     X           X     X         
     X                                                                    X        X                     X           X     X         
     X                                                                    X        X                     X           X     X         
     X                                                                    X        X                     X           X     X         
     X                                                                    X        X                     X           X     X         
     X                                                                    X        X                     X           X     X         
                                                                          X        X                     X           X     X         
                                                                          X        X                     X           X     X         
                                                                          X        X                     X           X     X         
                                                                          X        X                     X           X               
                                                                          X        X                     X           X               
                                                                          X        X                     X           X               
                                                                                   X                     X           X               
                                                                                                         X           X               
                                                                                                         X           X               
                                                                                                         X           X               
                                                                                                                     X               
                                                                                                                     X               
 
 ***** Axes restored to original set *****
 -------------------------------------------------------------------
 Center     Atomic                   Forces (Hartrees/Bohr)
 Number     Number              X              Y              Z
 -------------------------------------------------------------------
      1        1           0.000178218    0.000000000    0.010402229
      2        8          -0.000171684   -0.000000000   -0.010223874
      3        8           0.000071384    0.000000000   -0.000022324
      4        7          -0.000522880   -0.000000000   -0.000258247
      5        8           0.000444962    0.000000000    0.000102215
 -------------------------------------------------------------------
 Cartesian Forces:  Max     0.010402229 RMS     0.003771378
 -----------------------------------------------------------------------------------------------
                       Internal Coordinate Forces (Hartree/Bohr or radian)
  Cent   Atom   N1       Length/X         N2         Alpha/Y        N3         Beta/Z          J
 -----------------------------------------------------------------------------------------------
      1  H 
      2  O        1  -0.010402(     1)
      3  O        2  -0.000030(     2)      1  -0.000330(     5)
      4  N        3  -0.000162(     3)      2  -0.000154(     6)      1  -0.000000(     8)     0
      5  O        4   0.000456(     4)      3  -0.000025(     7)      2   0.000000(     9)     0
 -----------------------------------------------------------------------------------------------
 Internal  Forces:  Max     0.010402229 RMS     0.003473311
 Force constants in Cartesian coordinates: 
                1             2             3             4             5 
      1  0.684856D-01
      2  0.000000D+00  0.329854D-02
      3  0.519548D-02  0.000000D+00  0.474503D+00
      4 -0.402279D-01  0.000000D+00 -0.159316D-01  0.277625D+00
      5  0.000000D+00 -0.256650D-02  0.000000D+00  0.000000D+00  0.761516D-02
      6  0.474538D-01  0.000000D+00 -0.470638D+00  0.338056D-01  0.000000D+00
      7 -0.179348D-01  0.000000D+00  0.122838D-01 -0.220503D+00  0.000000D+00
      8  0.000000D+00  0.938166D-03  0.000000D+00  0.000000D+00 -0.643807D-02
      9 -0.523032D-01  0.000000D+00 -0.594380D-03 -0.199918D-01  0.000000D+00
     10 -0.910671D-02  0.000000D+00 -0.486103D-02 -0.171914D-01  0.000000D+00
     11  0.000000D+00 -0.269417D-02  0.000000D+00  0.000000D+00 -0.496416D-02
     12  0.533774D-02  0.000000D+00 -0.463992D-02  0.114492D-01  0.000000D+00
     13 -0.121628D-02  0.000000D+00  0.331339D-02  0.297660D-03  0.000000D+00
     14  0.000000D+00  0.102397D-02  0.000000D+00  0.000000D+00  0.635357D-02
     15 -0.568382D-02  0.000000D+00  0.137022D-02 -0.933136D-02  0.000000D+00
                6             7             8             9            10 
      6  0.556262D+00
      7 -0.207786D-01  0.341433D+00
      8  0.000000D+00  0.000000D+00  0.415453D-02
      9 -0.781374D-01  0.356530D-01  0.000000D+00  0.180758D+00
     10 -0.524072D-01 -0.782153D-01  0.000000D+00  0.174901D+00  0.828599D+00
     11  0.000000D+00  0.000000D+00  0.851436D-02  0.000000D+00  0.000000D+00
     12  0.171533D-01  0.632441D-01  0.000000D+00 -0.816543D-01 -0.179352D-01
     13 -0.807364D-02 -0.247801D-01  0.000000D+00 -0.138259D+00 -0.724085D+00
     14  0.000000D+00  0.000000D+00 -0.716899D-02  0.000000D+00  0.000000D+00
     15 -0.246398D-01 -0.904022D-01  0.000000D+00 -0.203717D-01 -0.996977D-01
               11            12            13            14            15 
     11  0.854792D-02
     12  0.000000D+00  0.186236D+00
     13  0.000000D+00 -0.620957D-01  0.749784D+00
     14 -0.940395D-02  0.000000D+00  0.000000D+00  0.919540D-02
     15  0.000000D+00 -0.117095D+00  0.205115D+00  0.000000D+00  0.160736D+00
 Force constants in internal coordinates: 
                1             2             3             4             5 
      1  0.474503D+00
      2 -0.101312D-01  0.281056D+00
      3  0.338557D-02  0.255046D-02  0.117048D+00
      4 -0.354976D-02  0.594776D-02  0.153058D+00  0.812124D+00
      5  0.980123D-02  0.647681D-01  0.220650D-02  0.479449D-02  0.215680D+00
      6  0.463080D-02  0.590756D-01  0.406983D-01  0.218311D-01  0.310597D-01
      7 -0.111772D-02  0.376439D-01  0.323344D-01  0.846720D-01  0.213268D-01
      8  0.000000D+00  0.000000D+00  0.000000D+00  0.000000D+00  0.000000D+00
      9  0.000000D+00  0.000000D+00  0.000000D+00  0.000000D+00  0.000000D+00
                6             7             8             9 
      6  0.282156D+00
      7  0.959527D-01  0.482611D+00
      8  0.000000D+00  0.000000D+00 -0.776815D-02
      9  0.000000D+00  0.000000D+00 -0.393031D-02  0.411126D-01
 Leave Link  716 at Mon Feb 21 20:02:18 2022, MaxMem= 16106127360 cpu:               2.3 elap:               0.1
 (Enter /sw/contrib/gaussian/g16/B01/g16/l103.exe)

 GradGradGradGradGradGradGradGradGradGradGradGradGradGradGradGradGradGrad
 Berny optimization.
 Search for a local minimum.
 Step number   1 out of a maximum of    2
 All quantities printed in internal units (Hartrees-Bohrs-Radians)
 Second derivative matrix not updated -- analytic derivatives used.
 The second derivative matrix:
                          r1        r2        r3        r4        a1
           r1           0.47450
           r2          -0.01013   0.28106
           r3           0.00339   0.00255   0.11705
           r4          -0.00355   0.00595   0.15306   0.81212
           a1           0.00980   0.06477   0.00221   0.00479   0.21568
           a2           0.00463   0.05908   0.04070   0.02183   0.03106
           a3          -0.00112   0.03764   0.03233   0.08467   0.02133
           d1           0.00000  -0.00000  -0.00000  -0.00000  -0.00000
           d2          -0.00000   0.00000   0.00000   0.00000   0.00000
                          a2        a3        d1        d2
           a2           0.28216
           a3           0.09595   0.48261
           d1          -0.00000  -0.00000  -0.00777
           d2          -0.00000  -0.00000  -0.00393   0.04111
 ITU=  0
     Eigenvalues ---   -0.00808   0.04143   0.07820   0.17491   0.22458
     Eigenvalues ---    0.32422   0.47528   0.51699   0.87100
 Eigenvalue     1 is  -8.08D-03 should be greater than     0.000000 Eigenvector:
                          d1        d2        a3        a2        r3
   1                    0.99682   0.07964   0.00000   0.00000  -0.00000
                          r4        a1        r2        r1
   1                    0.00000  -0.00000   0.00000  -0.00000
 Angle between quadratic step and forces=   4.90 degrees.
 Linear search not attempted -- first point.
 Variable       Old X    -DE/DX   Delta X   Delta X   Delta X     New X
                                 (Linear)    (Quad)   (Total)
    r1        1.85218  -0.01040   0.00000  -0.02192  -0.02192   1.83027
    r2        2.74940  -0.00003   0.00000  -0.00087  -0.00087   2.74853
    r3        2.75670  -0.00016   0.00000  -0.00188  -0.00188   2.75482
    r4        2.21236   0.00046   0.00000   0.00083   0.00083   2.21319
    a1        1.70335  -0.00033   0.00000  -0.00030  -0.00030   1.70305
    a2        1.78543  -0.00015   0.00000   0.00027   0.00027   1.78570
    a3        1.90362  -0.00003   0.00000  -0.00010  -0.00010   1.90353
    d1        3.14159  -0.00000   0.00000   0.00000   0.00000   3.14159
    d2        3.14159   0.00000   0.00000   0.00000   0.00000   3.14159
         Item               Value     Threshold  Converged?
 Maximum Force            0.010402     0.000450     NO 
 RMS     Force            0.003473     0.000300     NO 
 Maximum Displacement     0.021918     0.001800     NO 
 RMS     Displacement     0.007345     0.001200     NO 
 Predicted change in Energy=-1.143832D-04
                       ----------------------------
                       ! Non-Optimized Parameters !
                       ! (Angstroms and Degrees)  !
 ----------------------                            ----------------------
 !      Name          Value   Derivative information (Atomic Units)     !
 ------------------------------------------------------------------------
 !       r1          0.9685   -DE/DX =   -0.0104                        !
 !       r2          1.4545   -DE/DX =    0.0                           !
 !       r3          1.4578   -DE/DX =   -0.0002                        !
 !       r4          1.1712   -DE/DX =    0.0005                        !
 !       a1         97.5777   -DE/DX =   -0.0003                        !
 !       a2        102.313    -DE/DX =   -0.0002                        !
 !       a3        109.0641   -DE/DX =    0.0                           !
 !       d1        180.0      -DE/DX =    0.0                           !
 !       d2        180.0      -DE/DX =    0.0                           !
 ------------------------------------------------------------------------
 GradGradGradGradGradGradGradGradGradGradGradGradGradGradGradGradGradGrad

 Leave Link  103 at Mon Feb 21 20:02:18 2022, MaxMem= 16106127360 cpu:               0.5 elap:               0.0
 (Enter /sw/contrib/gaussian/g16/B01/g16/l9999.exe)

 ----------------------------------------------------------------------

 Electric dipole moment (input orientation):
 (Debye = 10**-18 statcoulomb cm , SI units = C m)
                  (au)            (Debye)         (10**-30 SI)
   Tot        0.577531D+00      0.146794D+01      0.489651D+01
   x         -0.148198D+00     -0.376681D+00     -0.125647D+01
   y          0.000000D+00      0.000000D+00      0.000000D+00
   z         -0.558193D+00     -0.141879D+01     -0.473256D+01

 Dipole polarizability, Alpha (input orientation).
 (esu units = cm**3 , SI units = C**2 m**2 J**-1)
 Alpha(0;0):
               (au)            (10**-24 esu)      (10**-40 SI)
   iso        0.274724D+02      0.407099D+01      0.452959D+01
   aniso      0.220434D+02      0.326650D+01      0.363447D+01
   xx         0.321577D+02      0.476528D+01      0.530209D+01
   yx         0.000000D+00      0.000000D+00      0.000000D+00
   yy         0.179549D+02      0.266064D+01      0.296036D+01
   zx         0.969678D+01      0.143691D+01      0.159878D+01
   zy         0.000000D+00      0.000000D+00      0.000000D+00
   zz         0.323047D+02      0.478706D+01      0.532633D+01

 ----------------------------------------------------------------------

 Dipole orientation:
     1          0.00000000          0.00000000         -0.00000000
     8         -0.47528109          0.00000000         -1.79016672
     8          2.06549854          0.00000000         -2.84070651
     7          1.57893056          0.00000000         -5.55412860
     8          3.50947241          0.00000000         -6.63465217

 Electric dipole moment (dipole orientation):
 (Debye = 10**-18 statcoulomb cm , SI units = C m)
                  (au)            (Debye)         (10**-30 SI)
   Tot        0.577531D+00      0.146794D+01      0.489651D+01
   x          0.000000D+00      0.000000D+00      0.000000D+00
   y          0.000000D+00      0.000000D+00      0.000000D+00
   z          0.577531D+00      0.146794D+01      0.489651D+01

 Dipole polarizability, Alpha (dipole orientation).
 (esu units = cm**3 , SI units = C**2 m**2 J**-1)
 Alpha(0;0):
               (au)            (10**-24 esu)      (10**-40 SI)
   iso        0.274724D+02      0.407099D+01      0.452959D+01
   aniso      0.220434D+02      0.326650D+01      0.363447D+01
   xx         0.273575D+02      0.405396D+01      0.451064D+01
   yx         0.000000D+00      0.000000D+00      0.000000D+00
   yy         0.179549D+02      0.266064D+01      0.296036D+01
   zx        -0.838332D+01     -0.124228D+01     -0.138222D+01
   zy         0.000000D+00      0.000000D+00      0.000000D+00
   zz         0.371049D+02      0.549838D+01      0.611777D+01

 ----------------------------------------------------------------------
 1\1\GINC-N2124\Freq\RMP2-FC\Aug-CC-pVTZ\H1N1O3\CGAVINH\21-Feb-2022\1\\
 #p freq mp2/aug-cc-pvtz density=current\\title\\0,1\H\O,1,r1\O,2,r2,1,
 a1\N,3,r3,2,a2,1,d1,0\O,4,r4,3,a3,2,d2,0\\r1=0.98013405\r2=1.45491931\
 r3=1.45878406\r4=1.17072885\a1=97.59494903\a2=102.29752444\a3=109.0695
 5123\d1=180.\d2=180.\\Version=ES64L-G16RevB.01\State=1-A'\HF=-279.5010
 425\MP2=-280.4466237\RMSD=3.793e-09\RMSF=3.771e-03\ZeroPoint=0.0222778
 \Thermal=0.0268402\Dipole=-0.1481978,0.,-0.5581934\DipoleDeriv=0.26771
 09,0.,0.0479569,0.,0.3540157,0.,0.0799526,0.,0.2739566,-0.3280396,0.,-
 0.2082363,0.,-0.3121611,0.,-0.1067933,0.,-0.2192251,-0.0463132,0.,0.15
 14049,0.,-0.0870152,0.,-0.754649,0.,-1.3552731,0.8940027,0.,0.9087187,
 0.,0.065849,0.,0.9236795,0.,1.67062,-0.7873608,0.,-0.8998442,0.,-0.020
 6884,0.,-0.1421898,0.,-0.3700784\Polar=32.1576908,0.,17.9548971,9.6967
 808,0.,32.3047146\Quadrupole=-1.5265188,-0.7440975,2.2706163,0.,2.1068
 368,0.\PG=CS [SG(H1N1O3)]\NImag=0\\0.06848563,0.,0.00329854,0.00519548
 ,0.,0.47450252,-0.04022785,0.,-0.01593159,0.27762484,0.,-0.00256650,0.
 ,0.,0.00761516,0.04745381,0.,-0.47063845,0.03380564,0.,0.55626236,-0.0
 1793478,0.,0.01228377,-0.22050326,0.,-0.02077865,0.34143340,0.,0.00093
 817,0.,0.,-0.00643807,0.,0.,0.00415453,-0.05230320,0.,-0.00059438,-0.0
 1999184,0.,-0.07813735,0.03565297,0.,0.18075773,-0.00910671,0.,-0.0048
 6103,-0.01719138,0.,-0.05240717,-0.07821526,0.,0.17490115,0.82859862,0
 .,-0.00269417,0.,0.,-0.00496416,0.,0.,0.00851436,0.,0.,0.00854792,0.00
 533774,0.,-0.00463992,0.01144916,0.,0.01715327,0.06324406,0.,-0.081654
 34,-0.01793523,0.,0.18623608,-0.00121628,0.,0.00331339,0.00029766,0.,-
 0.00807364,-0.02478010,0.,-0.13825907,-0.72408527,0.,-0.06209573,0.749
 78398,0.,0.00102397,0.,0.,0.00635357,0.,0.,-0.00716899,0.,0.,-0.009403
 95,0.,0.,0.00919540,-0.00568382,0.,0.00137022,-0.00933136,0.,-0.024639
 84,-0.09040215,0.,-0.02037166,-0.09969771,0.,-0.11709510,0.20511505,0.
 ,0.16073637\\-0.00017822,0.,-0.01040223,0.00017168,0.,0.01022387,-0.00
 007138,0.,0.00002232,0.00052288,0.,0.00025825,-0.00044496,0.,-0.000102
 22\\\@


 IF AT FIRST YOU DON'T SUCCEED, TRY, TRY AGAIN.
 THEN GIVE UP;
 THERE'S NO USE BEING A DAMN FOOL ABOUT IT.

                                 -- W. C. FIELDS
 Job cpu time:       0 days  1 hours 59 minutes  1.1 seconds.
 Elapsed time:       0 days  0 hours  4 minutes 18.5 seconds.
 File lengths (MBytes):  RWF=   7239 Int=      0 D2E=      0 Chk=      8 Scr=      1
 Normal termination of Gaussian 16 at Mon Feb 21 20:02:19 2022.
