title                                                                   
Freq      RMP2-FC                                                     Aug-CC-pVTZ         
Number of atoms                            I                5
Info1-9                                    I   N=           9
          33          24           0           0           0         100
           6           2           1
Full Title                                 C   N=           1
title       
Route                                      C   N=           4
#p freq mp2/aug-cc-pvtz density=current         
Charge                                     I                0
Multiplicity                               I                1
Number of electrons                        I               32
Number of alpha electrons                  I               16
Number of beta electrons                   I               16
Number of basis functions                  I              207
Number of independent functions            I              207
Number of point charges in /Mol/           I                0
Number of translation vectors              I                0
Atomic numbers                             I   N=           5
           1           8           8           7           8
Nuclear charges                            R   N=           5
  1.00000000E+00  8.00000000E+00  8.00000000E+00  7.00000000E+00  8.00000000E+00
Current cartesian coordinates              R   N=          15
  2.09385152E+00 -1.12792984E+00  0.00000000E+00  2.48574926E+00  6.92455475E-01
  0.00000000E+00  1.35922350E-16  1.73659619E+00  0.00000000E+00 -1.87496645E+00
 -7.89362687E-02  0.00000000E+00 -1.10688505E+00 -2.21899120E+00  0.00000000E+00
Number of symbols in /Mol/                 I                0
Force Field                                I                0
Atom Types                                 C   N=           5
                                                            
Int Atom Types                             I   N=           5
           0           0           0           0           0
MM charges                                 R   N=           5
  0.00000000E+00  0.00000000E+00  0.00000000E+00  0.00000000E+00  0.00000000E+00
Integer atomic weights                     I   N=           5
           1          16          16          14          16
Real atomic weights                        R   N=           5
  1.00782504E+00  1.59949146E+01  1.59949146E+01  1.40030740E+01  1.59949146E+01
Atom fragment info                         I   N=           5
           0           0           0           0           0
Atom residue num                           I   N=           5
           0           0           0           0           0
Nuclear spins                              I   N=           5
           1           0           0           2           0
Nuclear ZEff                               R   N=           5
 -1.00000000E+00 -5.60000000E+00 -5.60000000E+00 -4.55000000E+00 -5.60000000E+00
Nuclear ZNuc                               R   N=           5
  1.00000000E+00  8.00000000E+00  8.00000000E+00  7.00000000E+00  8.00000000E+00
Nuclear QMom                               R   N=           5
  0.00000000E+00  0.00000000E+00  0.00000000E+00  2.04400000E+00  0.00000000E+00
Nuclear GFac                               R   N=           5
  2.79284600E+00  0.00000000E+00  0.00000000E+00  4.03761000E-01  0.00000000E+00
MicOpt                                     I   N=           5
          -1          -1          -1          -1          -1
Number of residues                         I                0
Number of secondary structures             I                0
SymInf integers                            I   N=          26
           1           2           1           1           1           1
           1          -1           0           0           0           0
           0           0           0           0           0           0
           0           0           0           0           0           0
           0           0
RotTr to input orientation                 R   N=          12
 -9.77602254E-01  0.00000000E+00  2.10460999E-01  2.10460999E-01  0.00000000E+00
  9.77602254E-01  0.00000000E+00  1.00000000E+00  0.00000000E+00  2.28433921E+00
  0.00000000E+00  6.61992675E-01
Number of contracted shells                I               65
Number of primitive shells                 I              119
Pure/Cartesian d shells                    I                0
Pure/Cartesian f shells                    I                0
Highest angular momentum                   I                3
Largest degree of contraction              I                7
Shell types                                I   N=          65
           0           0           0           0           1           1
           1          -2          -2           0           0           0
           0           0           1           1           1           1
          -2          -2          -2          -3          -3           0
           0           0           0           0           1           1
           1           1          -2          -2          -2          -3
          -3           0           0           0           0           0
           1           1           1           1          -2          -2
          -2          -3          -3           0           0           0
           0           0           1           1           1           1
          -2          -2          -2          -3          -3
Number of primitives per shell             I   N=          65
           3           1           1           1           1           1
           1           1           1           7           6           1
           1           1           3           1           1           1
           1           1           1           1           1           7
           6           1           1           1           3           1
           1           1           1           1           1           1
           1           7           6           1           1           1
           3           1           1           1           1           1
           1           1           1           7           6           1
           1           1           3           1           1           1
           1           1           1           1           1
Shell to atom map                          I   N=          65
           1           1           1           1           1           1
           1           1           1           2           2           2
           2           2           2           2           2           2
           2           2           2           2           2           3
           3           3           3           3           3           3
           3           3           3           3           3           3
           3           4           4           4           4           4
           4           4           4           4           4           4
           4           4           4           5           5           5
           5           5           5           5           5           5
           5           5           5           5           5
Primitive exponents                        R   N=         119
  3.38700000E+01  5.09500000E+00  1.15900000E+00  3.25800000E-01  1.02700000E-01
  2.52600000E-02  1.40700000E+00  3.88000000E-01  1.02000000E-01  1.05700000E+00
  2.47000000E-01  1.53300000E+04  2.29900000E+03  5.22400000E+02  1.47300000E+02
  4.75500000E+01  1.67600000E+01  6.20700000E+00  5.22400000E+02  1.47300000E+02
  4.75500000E+01  1.67600000E+01  6.20700000E+00  6.88200000E-01  1.75200000E+00
  2.38400000E-01  7.37600000E-02  3.44600000E+01  7.74900000E+00  2.28000000E+00
  7.15600000E-01  2.14000000E-01  5.97400000E-02  2.31400000E+00  6.45000000E-01
  2.14000000E-01  1.42800000E+00  5.00000000E-01  1.53300000E+04  2.29900000E+03
  5.22400000E+02  1.47300000E+02  4.75500000E+01  1.67600000E+01  6.20700000E+00
  5.22400000E+02  1.47300000E+02  4.75500000E+01  1.67600000E+01  6.20700000E+00
  6.88200000E-01  1.75200000E+00  2.38400000E-01  7.37600000E-02  3.44600000E+01
  7.74900000E+00  2.28000000E+00  7.15600000E-01  2.14000000E-01  5.97400000E-02
  2.31400000E+00  6.45000000E-01  2.14000000E-01  1.42800000E+00  5.00000000E-01
  1.14200000E+04  1.71200000E+03  3.89300000E+02  1.10000000E+02  3.55700000E+01
  1.25400000E+01  4.64400000E+00  3.89300000E+02  1.10000000E+02  3.55700000E+01
  1.25400000E+01  4.64400000E+00  5.11800000E-01  1.29300000E+00  1.78700000E-01
  5.76000000E-02  2.66300000E+01  5.94800000E+00  1.74200000E+00  5.55000000E-01
  1.72500000E-01  4.91000000E-02  1.65400000E+00  4.69000000E-01  1.51000000E-01
  1.09300000E+00  3.64000000E-01  1.53300000E+04  2.29900000E+03  5.22400000E+02
  1.47300000E+02  4.75500000E+01  1.67600000E+01  6.20700000E+00  5.22400000E+02
  1.47300000E+02  4.75500000E+01  1.67600000E+01  6.20700000E+00  6.88200000E-01
  1.75200000E+00  2.38400000E-01  7.37600000E-02  3.44600000E+01  7.74900000E+00
  2.28000000E+00  7.15600000E-01  2.14000000E-01  5.97400000E-02  2.31400000E+00
  6.45000000E-01  2.14000000E-01  1.42800000E+00  5.00000000E-01
Contraction coefficients                   R   N=         119
  2.54948632E-02  1.90362766E-01  8.52162022E-01  1.00000000E+00  1.00000000E+00
  1.00000000E+00  1.00000000E+00  1.00000000E+00  1.00000000E+00  1.00000000E+00
  1.00000000E+00  5.19808943E-04  4.02025621E-03  2.07128267E-02  8.10105536E-02
  2.35962985E-01  4.42653446E-01  3.57064423E-01 -4.42115008E-05 -1.22591041E-03
 -1.05517725E-02 -6.74452633E-02 -1.71198607E-01  1.07329856E+00  1.00000000E+00
  1.00000000E+00  1.00000000E+00  4.11634896E-02  2.57762836E-01  8.02419274E-01
  1.00000000E+00  1.00000000E+00  1.00000000E+00  1.00000000E+00  1.00000000E+00
  1.00000000E+00  1.00000000E+00  1.00000000E+00  5.19808943E-04  4.02025621E-03
  2.07128267E-02  8.10105536E-02  2.35962985E-01  4.42653446E-01  3.57064423E-01
 -4.42115008E-05 -1.22591041E-03 -1.05517725E-02 -6.74452633E-02 -1.71198607E-01
  1.07329856E+00  1.00000000E+00  1.00000000E+00  1.00000000E+00  4.11634896E-02
  2.57762836E-01  8.02419274E-01  1.00000000E+00  1.00000000E+00  1.00000000E+00
  1.00000000E+00  1.00000000E+00  1.00000000E+00  1.00000000E+00  1.00000000E+00
  5.34563860E-04  4.13435660E-03  2.12335358E-02  8.25006224E-02  2.38138871E-01
  4.42551547E-01  3.53757422E-01 -4.89867350E-05 -1.19527323E-03 -1.03490714E-02
 -6.48680190E-02 -1.71552477E-01  1.07289568E+00  1.00000000E+00  1.00000000E+00
  1.00000000E+00  3.98072123E-02  2.49002660E-01  8.10479727E-01  1.00000000E+00
  1.00000000E+00  1.00000000E+00  1.00000000E+00  1.00000000E+00  1.00000000E+00
  1.00000000E+00  1.00000000E+00  5.19808943E-04  4.02025621E-03  2.07128267E-02
  8.10105536E-02  2.35962985E-01  4.42653446E-01  3.57064423E-01 -4.42115008E-05
 -1.22591041E-03 -1.05517725E-02 -6.74452633E-02 -1.71198607E-01  1.07329856E+00
  1.00000000E+00  1.00000000E+00  1.00000000E+00  4.11634896E-02  2.57762836E-01
  8.02419274E-01  1.00000000E+00  1.00000000E+00  1.00000000E+00  1.00000000E+00
  1.00000000E+00  1.00000000E+00  1.00000000E+00  1.00000000E+00
Coordinates of each shell                  R   N=         195
  2.09385152E+00 -1.12792984E+00  0.00000000E+00  2.09385152E+00 -1.12792984E+00
  0.00000000E+00  2.09385152E+00 -1.12792984E+00  0.00000000E+00  2.09385152E+00
 -1.12792984E+00  0.00000000E+00  2.09385152E+00 -1.12792984E+00  0.00000000E+00
  2.09385152E+00 -1.12792984E+00  0.00000000E+00  2.09385152E+00 -1.12792984E+00
  0.00000000E+00  2.09385152E+00 -1.12792984E+00  0.00000000E+00  2.09385152E+00
 -1.12792984E+00  0.00000000E+00  2.48574926E+00  6.92455475E-01  0.00000000E+00
  2.48574926E+00  6.92455475E-01  0.00000000E+00  2.48574926E+00  6.92455475E-01
  0.00000000E+00  2.48574926E+00  6.92455475E-01  0.00000000E+00  2.48574926E+00
  6.92455475E-01  0.00000000E+00  2.48574926E+00  6.92455475E-01  0.00000000E+00
  2.48574926E+00  6.92455475E-01  0.00000000E+00  2.48574926E+00  6.92455475E-01
  0.00000000E+00  2.48574926E+00  6.92455475E-01  0.00000000E+00  2.48574926E+00
  6.92455475E-01  0.00000000E+00  2.48574926E+00  6.92455475E-01  0.00000000E+00
  2.48574926E+00  6.92455475E-01  0.00000000E+00  2.48574926E+00  6.92455475E-01
  0.00000000E+00  2.48574926E+00  6.92455475E-01  0.00000000E+00 -3.69644077E-17
  1.73659619E+00  0.00000000E+00 -3.69644077E-17  1.73659619E+00  0.00000000E+00
 -3.69644077E-17  1.73659619E+00  0.00000000E+00 -3.69644077E-17  1.73659619E+00
  0.00000000E+00 -3.69644077E-17  1.73659619E+00  0.00000000E+00 -3.69644077E-17
  1.73659619E+00  0.00000000E+00 -3.69644077E-17  1.73659619E+00  0.00000000E+00
 -3.69644077E-17  1.73659619E+00  0.00000000E+00 -3.69644077E-17  1.73659619E+00
  0.00000000E+00 -3.69644077E-17  1.73659619E+00  0.00000000E+00 -3.69644077E-17
  1.73659619E+00  0.00000000E+00 -3.69644077E-17  1.73659619E+00  0.00000000E+00
 -3.69644077E-17  1.73659619E+00  0.00000000E+00 -3.69644077E-17  1.73659619E+00
  0.00000000E+00 -1.87496645E+00 -7.89362687E-02  0.00000000E+00 -1.87496645E+00
 -7.89362687E-02  0.00000000E+00 -1.87496645E+00 -7.89362687E-02  0.00000000E+00
 -1.87496645E+00 -7.89362687E-02  0.00000000E+00 -1.87496645E+00 -7.89362687E-02
  0.00000000E+00 -1.87496645E+00 -7.89362687E-02  0.00000000E+00 -1.87496645E+00
 -7.89362687E-02  0.00000000E+00 -1.87496645E+00 -7.89362687E-02  0.00000000E+00
 -1.87496645E+00 -7.89362687E-02  0.00000000E+00 -1.87496645E+00 -7.89362687E-02
  0.00000000E+00 -1.87496645E+00 -7.89362687E-02  0.00000000E+00 -1.87496645E+00
 -7.89362687E-02  0.00000000E+00 -1.87496645E+00 -7.89362687E-02  0.00000000E+00
 -1.87496645E+00 -7.89362687E-02  0.00000000E+00 -1.10688505E+00 -2.21899120E+00
  0.00000000E+00 -1.10688505E+00 -2.21899120E+00  0.00000000E+00 -1.10688505E+00
 -2.21899120E+00  0.00000000E+00 -1.10688505E+00 -2.21899120E+00  0.00000000E+00
 -1.10688505E+00 -2.21899120E+00  0.00000000E+00 -1.10688505E+00 -2.21899120E+00
  0.00000000E+00 -1.10688505E+00 -2.21899120E+00  0.00000000E+00 -1.10688505E+00
 -2.21899120E+00  0.00000000E+00 -1.10688505E+00 -2.21899120E+00  0.00000000E+00
 -1.10688505E+00 -2.21899120E+00  0.00000000E+00 -1.10688505E+00 -2.21899120E+00
  0.00000000E+00 -1.10688505E+00 -2.21899120E+00  0.00000000E+00 -1.10688505E+00
 -2.21899120E+00  0.00000000E+00 -1.10688505E+00 -2.21899120E+00  0.00000000E+00
Num ILSW                                   I              100
ILSW                                       I   N=         100
           0           0           0           0           2           0
           0           0           0           0           0          -1
           5           0           0           0           2           0
           0           0           0           0           1           0
           1           0           0           0           0           0
           0           0      100000           0          -1           0
           0           0           0           0           0           0
           0           0           0           1           1           0
           0 -2000000000           1           0           0           0
           0           0           4          52           0           0
           0           0           0           0           0           0
           0           0           0           5           4           1
           0           0           0           0           0           0
           0           0           0           0           0           0
           0           0           0           0           0           0
           0           0           0           0           0           0
           0           0           0           0
Num RLSW                                   I               52
RLSW                                       R   N=          52
  1.00000000E+00  1.00000000E+00  1.00000000E+00  1.00000000E+00  1.00000000E+00
  0.00000000E+00  0.00000000E+00  1.00000000E+00  0.00000000E+00  0.00000000E+00
  0.00000000E+00  0.00000000E+00  1.00000000E+00  0.00000000E+00  0.00000000E+00
  0.00000000E+00  0.00000000E+00  1.00000000E+00  0.00000000E+00  0.00000000E+00
  0.00000000E+00  0.00000000E+00  1.00000000E+00  0.00000000E+00  0.00000000E+00
  0.00000000E+00  0.00000000E+00  1.00000000E+00  0.00000000E+00  0.00000000E+00
  0.00000000E+00  0.00000000E+00  1.00000000E+00  0.00000000E+00  0.00000000E+00
  0.00000000E+00  0.00000000E+00  0.00000000E+00  1.00000000E+00  1.00000000E+00
  0.00000000E+00  1.00000000E+00  0.00000000E+00  0.00000000E+00  0.00000000E+00
  0.00000000E+00  0.00000000E+00  0.00000000E+00  0.00000000E+00  0.00000000E+00
  0.00000000E+00  0.00000000E+00
MxBond                                     I                2
NBond                                      I   N=           5
           1           2           2           2           1
IBond                                      I   N=          10
           2           0           1           3           2           4
           3           5           4           0
RBond                                      R   N=          10
  1.00000000E+00  0.00000000E+00  1.00000000E+00  1.00000000E+00  1.00000000E+00
  1.00000000E+00  1.00000000E+00  2.00000000E+00  2.00000000E+00  0.00000000E+00
Virial Ratio                               R      2.002354016464786E+00
SCF Energy                                 R     -2.795048969866454E+02
MP2 Energy                                 R     -2.804551556733105E+02
Total Energy                               R     -2.804551556733105E+02
Post-SCF wavefunction norm                 R      1.584565773636921E+00
RMS Force                                  R      3.733754810593955E-03
RMS Density                                R      4.993108096662164E-09
NImag                                      I                0
Job Status                                 I                1
Nuclear derivative order                   I                2
External E-field                           R   N=          35
  0.00000000E+00  0.00000000E+00  0.00000000E+00  0.00000000E+00  0.00000000E+00
  0.00000000E+00  0.00000000E+00  0.00000000E+00  0.00000000E+00  0.00000000E+00
  0.00000000E+00  0.00000000E+00  0.00000000E+00  0.00000000E+00  0.00000000E+00
  0.00000000E+00  0.00000000E+00  0.00000000E+00  0.00000000E+00  0.00000000E+00
  0.00000000E+00  0.00000000E+00  0.00000000E+00  0.00000000E+00  0.00000000E+00
  0.00000000E+00  0.00000000E+00  0.00000000E+00  0.00000000E+00  0.00000000E+00
  0.00000000E+00  0.00000000E+00  0.00000000E+00  0.00000000E+00  0.00000000E+00
IOpCl                                      I                0
IROHF                                      I                0
Alpha Orbital Energies                     R   N=         207
 -2.07217170E+01 -2.06868347E+01 -2.06690268E+01 -1.58273869E+01 -1.63977551E+00
 -1.50306317E+00 -1.29460315E+00 -9.61621118E-01 -8.32952203E-01 -7.57167361E-01
 -7.38754452E-01 -6.37302849E-01 -6.18579909E-01 -6.16429552E-01 -5.06205423E-01
 -4.98045728E-01  3.51204266E-02  5.76542116E-02  9.50602575E-02  1.00326871E-01
  1.19908152E-01  1.22521584E-01  1.49324958E-01  1.52022163E-01  1.77281613E-01
  1.80403263E-01  1.89766087E-01  2.11010692E-01  2.16661766E-01  2.41732856E-01
  2.46200030E-01  2.68809194E-01  3.12623051E-01  3.16874725E-01  3.38065734E-01
  3.42886823E-01  3.46188132E-01  3.92246947E-01  4.49122781E-01  4.88135672E-01
  5.05023745E-01  5.17867709E-01  5.44629311E-01  5.61494720E-01  5.96013437E-01
  6.18793251E-01  6.37507688E-01  6.90849735E-01  7.17258994E-01  7.23939745E-01
  7.41689316E-01  7.64163427E-01  7.67352679E-01  7.95480258E-01  8.05846542E-01
  8.38750095E-01  8.42651415E-01  8.51475110E-01  8.84384306E-01  9.07329862E-01
  9.29968745E-01  9.46090521E-01  9.54207998E-01  1.01806311E+00  1.03246862E+00
  1.06329889E+00  1.06586582E+00  1.09502863E+00  1.14418820E+00  1.15634077E+00
  1.16823217E+00  1.22156182E+00  1.22700146E+00  1.24541394E+00  1.35437447E+00
  1.36091370E+00  1.37052557E+00  1.46826127E+00  1.48482427E+00  1.50464088E+00
  1.54264712E+00  1.59638850E+00  1.59683925E+00  1.60454791E+00  1.62808741E+00
  1.69397542E+00  1.74047012E+00  1.79955051E+00  1.82978630E+00  1.88572579E+00
  1.89513269E+00  1.93055214E+00  1.97841425E+00  1.98937373E+00  2.05406631E+00
  2.12206384E+00  2.12996898E+00  2.16519452E+00  2.18863073E+00  2.24335707E+00
  2.25989712E+00  2.29366027E+00  2.35177649E+00  2.36558048E+00  2.38540592E+00
  2.39943070E+00  2.43257352E+00  2.47024951E+00  2.47882779E+00  2.52988602E+00
  2.53727226E+00  2.54741773E+00  2.55616982E+00  2.61306745E+00  2.62975209E+00
  2.67003797E+00  2.67040192E+00  2.75212066E+00  2.80796746E+00  2.81496200E+00
  2.83945236E+00  2.91801443E+00  2.98270361E+00  3.04363183E+00  3.04965633E+00
  3.11449163E+00  3.11904810E+00  3.17253989E+00  3.21311467E+00  3.30676515E+00
  3.33220176E+00  3.35995531E+00  3.47662281E+00  3.67115901E+00  3.86869822E+00
  3.93107025E+00  4.18418258E+00  4.22173596E+00  4.22271808E+00  4.25412567E+00
  4.36900333E+00  4.49686375E+00  4.52835800E+00  4.54798851E+00  4.59805034E+00
  4.69142874E+00  4.80647318E+00  4.89712606E+00  4.91451806E+00  4.93800566E+00
  5.00015386E+00  5.00612958E+00  5.10512616E+00  5.12728421E+00  5.17920349E+00
  5.24279680E+00  5.25730229E+00  5.31593862E+00  5.34393403E+00  5.35705877E+00
  5.55344718E+00  5.63252472E+00  5.70140132E+00  5.89198892E+00  5.99047735E+00
  6.26363884E+00  6.29441596E+00  6.35945699E+00  6.37547072E+00  6.59706078E+00
  6.65808979E+00  6.65847761E+00  6.68848967E+00  6.72291519E+00  6.80014581E+00
  6.80394735E+00  6.84506386E+00  6.96518704E+00  7.02033885E+00  7.06536362E+00
  7.07820111E+00  7.13450849E+00  7.17102552E+00  7.17161894E+00  7.20082822E+00
  7.23681637E+00  7.24595614E+00  7.26231689E+00  7.34624512E+00  7.38798799E+00
  7.42487112E+00  7.43955094E+00  7.45493524E+00  7.54602189E+00  7.66238822E+00
  7.66404512E+00  7.79084862E+00  7.88094332E+00  7.94880837E+00  8.05578602E+00
  8.30625245E+00  8.49963423E+00  8.64857788E+00  1.36005864E+01  1.46995946E+01
  1.50742728E+01  1.55747018E+01
Alpha MO coefficients                      R   N=       42849
  6.46466657E-05 -1.78168038E-05 -1.13921594E-03  1.11434072E-05 -5.15090124E-05
  4.21584572E-05  0.00000000E+00 -9.07733470E-05 -2.89460123E-04  0.00000000E+00
  1.20962954E-06 -3.55959184E-04  0.00000000E+00  4.20950843E-05  0.00000000E+00
  0.00000000E+00 -2.47085192E-05  1.28958176E-05  2.31056680E-04  0.00000000E+00
  0.00000000E+00 -4.02914659E-05 -2.12699524E-04  3.00286513E-03 -9.37567177E-05
 -1.02408633E-04  3.54920897E-03  2.49600309E-03  1.02737641E-04 -5.31740164E-05
  0.00000000E+00 -7.29569800E-04  2.85460718E-04  0.00000000E+00 -1.97185063E-03
  1.11621779E-03  0.00000000E+00 -5.39732511E-04  3.81267690E-05  0.00000000E+00
  2.04675614E-05  0.00000000E+00  0.00000000E+00 -8.87968655E-06  4.41236451E-05
 -4.43210399E-04  0.00000000E+00  0.00000000E+00  4.27439267E-04 -6.62322643E-04
 -3.62363701E-04  0.00000000E+00  0.00000000E+00  5.42574424E-04 -7.47407122E-04
  0.00000000E+00  7.41011198E-05 -5.24536768E-05  0.00000000E+00  0.00000000E+00
 -2.71128340E-05  1.08020580E-04  0.00000000E+00  2.07266553E-04 -5.09913595E-05
  0.00000000E+00  0.00000000E+00 -1.69835244E-04  3.00382664E-04  9.76906613E-01
 -9.17262357E-03  4.34030527E-02  4.71422761E-04 -2.22307417E-03  4.42811477E-04
 -2.15389892E-03  0.00000000E+00 -3.11441670E-04  2.25953741E-03  0.00000000E+00
 -2.31103360E-03 -4.81539643E-04  0.00000000E+00 -2.24014923E-04  9.98695703E-05
  0.00000000E+00  6.78839753E-06  0.00000000E+00  0.00000000E+00 -4.15318096E-06
  3.71311385E-05  8.27739591E-04  0.00000000E+00  0.00000000E+00 -4.75209324E-04
 -1.73347087E-04 -1.38705644E-04  0.00000000E+00  0.00000000E+00 -5.54200696E-04
  3.55102665E-04  0.00000000E+00 -6.80413231E-06 -7.95564899E-05  0.00000000E+00
  0.00000000E+00 -9.10071868E-06  4.83235655E-05  0.00000000E+00  9.23583292E-05
  8.61701755E-07  0.00000000E+00  0.00000000E+00 -3.35397859E-04  3.81497751E-04
  1.06171888E-04  4.68160227E-04 -3.24045417E-04 -7.75266591E-04  3.73174684E-04
 -4.45554780E-05 -1.00185185E-04  0.00000000E+00  7.03227993E-04  1.10280934E-03
  0.00000000E+00 -7.48402064E-04 -6.53320027E-04  0.00000000E+00  1.96501796E-04
  2.08787662E-04  0.00000000E+00 -5.29063043E-05  0.00000000E+00  0.00000000E+00
  1.90775300E-05  9.26767803E-05 -4.17854712E-04  0.00000000E+00  0.00000000E+00
  3.67775811E-05  1.08237173E-03  2.34315364E-05  0.00000000E+00  0.00000000E+00
 -3.18240434E-04  3.22367129E-05  0.00000000E+00 -7.87793000E-05 -1.13620348E-04
  0.00000000E+00  0.00000000E+00 -9.71843142E-05  1.07539212E-04  0.00000000E+00
 -1.24858473E-04  4.48475396E-05  0.00000000E+00  0.00000000E+00  1.23223763E-05
  5.22210643E-04 -6.51484925E-04  4.15346099E-05 -6.80750633E-05  1.89199302E-04
 -1.94790727E-04 -2.94394858E-05 -4.11514330E-05  0.00000000E+00  1.69661105E-04
  2.46123202E-04  0.00000000E+00  5.42386443E-04  3.03631110E-04  0.00000000E+00
 -2.13611095E-04 -6.48400164E-05  0.00000000E+00 -1.25904351E-05  0.00000000E+00
  0.00000000E+00  3.67533557E-06  1.42034951E-05 -2.87798757E-06  0.00000000E+00
  0.00000000E+00 -1.63332369E-04  1.74707823E-05 -1.99585597E-05  0.00000000E+00
  0.00000000E+00 -1.64514935E-04 -3.42812056E-05  0.00000000E+00 -6.50133821E-06
 -9.44340293E-06  0.00000000E+00  0.00000000E+00 -2.24378192E-05  8.88190082E-06
  0.00000000E+00  3.94824273E-05  6.05631586E-05  0.00000000E+00  0.00000000E+00
  1.53643194E-04 -1.04773947E-04  4.05490058E-05  6.47038033E-05 -1.34098683E-04
 -3.33468722E-05  1.80611384E-05  1.13211708E-05  0.00000000E+00  2.40670469E-04
  6.60034771E-05  0.00000000E+00  1.29454049E-04  2.29723474E-05  0.00000000E+00
  1.30334758E-05  0.00000000E+00  0.00000000E+00 -1.30126723E-05  1.61267219E-05
  2.43063815E-05  0.00000000E+00  0.00000000E+00 -1.03285340E-04  6.27533187E-05
 -2.80145593E-04  2.82234574E-05 -1.71932615E-05 -5.63610970E-04  1.67637458E-04
  8.38072572E-06  1.33581443E-05  0.00000000E+00 -5.42632638E-06 -3.91722767E-05
  0.00000000E+00  2.01012375E-04  1.33740996E-04  0.00000000E+00 -4.75028523E-05
  4.70857744E-05  0.00000000E+00 -1.46259154E-06  0.00000000E+00  0.00000000E+00
 -8.54364424E-06 -1.17576618E-05  2.06153885E-05  0.00000000E+00  0.00000000E+00
  5.38292042E-05  1.07484704E-04  6.12959135E-05  0.00000000E+00  0.00000000E+00
 -3.71157342E-05 -8.42242861E-05  0.00000000E+00  8.08063237E-06  9.94205367E-06
  0.00000000E+00  0.00000000E+00 -1.38587278E-06 -2.48076544E-05  0.00000000E+00
 -1.41968210E-05 -3.51605514E-05  0.00000000E+00  0.00000000E+00 -3.96985953E-06
 -1.75981506E-05  6.78958518E-04  2.43034465E-05 -2.03873626E-05  2.57015064E-04
 -4.40916084E-04  1.54026781E-05  2.77445580E-05  0.00000000E+00 -6.06028911E-05
 -1.54096884E-04  0.00000000E+00  2.04201474E-04 -2.09430136E-04  0.00000000E+00
 -1.50473518E-04  1.49706704E-04  0.00000000E+00 -4.16573023E-06  0.00000000E+00
  0.00000000E+00 -2.72952686E-05 -1.02393237E-05 -4.93606106E-05  0.00000000E+00
  0.00000000E+00  6.45502957E-05  1.21182165E-04 -5.82948618E-05  0.00000000E+00
  0.00000000E+00  2.08767657E-05  1.54765631E-05  0.00000000E+00  2.77195105E-06
  3.71598195E-06  0.00000000E+00  0.00000000E+00 -8.04532944E-06 -8.28618537E-07
  0.00000000E+00  2.35100128E-06 -2.58545884E-05  0.00000000E+00  0.00000000E+00
  1.02074071E-04 -1.45545676E-04  2.34060139E-04  1.33341799E-03 -1.79235440E-04
 -4.97772404E-04  9.80707831E-04  5.68432983E-05 -5.30577165E-05  0.00000000E+00
  5.68987382E-04 -2.08856216E-03  0.00000000E+00  1.54049282E-04  4.60829560E-04
  0.00000000E+00  1.96440593E-04 -3.14982167E-04  0.00000000E+00 -1.27809296E-04
  0.00000000E+00  0.00000000E+00 -2.02017749E-04 -1.58199004E-04 -4.82500157E-04
  0.00000000E+00  0.00000000E+00 -6.51370880E-04 -9.29238132E-04 -5.83821335E-05
  0.00000000E+00  0.00000000E+00  3.34561529E-05  1.12183740E-04  0.00000000E+00
  4.86694711E-06  4.83428597E-05  0.00000000E+00  0.00000000E+00 -3.92264573E-05
  5.24931634E-06  0.00000000E+00 -1.37909974E-04  1.58859506E-04  0.00000000E+00
  0.00000000E+00 -3.35847887E-04 -3.60715819E-05  9.76659910E-01 -9.88817409E-03
  4.35541483E-02  3.57368890E-03 -9.47472768E-04 -4.43080193E-04  2.12414997E-03
  0.00000000E+00  5.19815839E-04 -2.52869006E-03  0.00000000E+00 -4.82369227E-05
  7.87932553E-04  0.00000000E+00  1.09113448E-04 -7.08319153E-05  0.00000000E+00
 -1.87949114E-04  0.00000000E+00  0.00000000E+00 -6.77681978E-05 -3.83911287E-05
  4.12289878E-04  0.00000000E+00  0.00000000E+00  8.66992133E-04  4.91985653E-04
 -2.12032171E-04  0.00000000E+00  0.00000000E+00 -1.44548639E-04 -3.56117880E-05
  0.00000000E+00 -6.16466147E-06  7.41433759E-05  0.00000000E+00  0.00000000E+00
 -3.34608302E-05  1.26932071E-05  0.00000000E+00 -8.80663271E-05  8.61175282E-05
  0.00000000E+00  0.00000000E+00 -1.65382710E-04  2.04134071E-04  3.74894864E-04
  1.98820152E-03  1.36383044E-03 -1.77482038E-05  5.05958186E-05  2.67710742E-04
  0.00000000E+00  3.85153310E-04  1.02563959E-03  0.00000000E+00 -1.25227396E-04
  2.32265046E-04  0.00000000E+00 -2.34111854E-05  0.00000000E+00  0.00000000E+00
  3.27825753E-05 -2.88168873E-05 -2.16690876E-04  0.00000000E+00  0.00000000E+00
 -3.49516129E-04  4.07712222E-04  9.76834643E-01 -9.18750640E-03  4.34653305E-02
  1.35048587E-04 -1.89430769E-03 -2.04527540E-03 -8.31337807E-04  0.00000000E+00
  2.08267470E-03  7.66973608E-04  0.00000000E+00 -3.99390500E-04  6.44539426E-04
  0.00000000E+00  2.21596025E-04 -2.98926735E-04  0.00000000E+00  3.07800703E-05
  0.00000000E+00  0.00000000E+00 -7.47241587E-05  6.35575923E-05  7.65817641E-04
  0.00000000E+00  0.00000000E+00 -2.10013406E-04  3.55562467E-04 -2.37889557E-04
  0.00000000E+00  0.00000000E+00  3.33734342E-04  1.81506361E-07  0.00000000E+00
 -8.05827975E-05  1.95300041E-06  0.00000000E+00  0.00000000E+00  1.59760348E-05