 Entering Gaussian System, Link 0=g16
 Input=hoono_a1_102p1818.gjf
 Output=hoono_a1_102p1818.log
 Initial command:
 /sw/contrib/gaussian/g16/B01/g16/l1.exe "/scr/Gau-3541.inp" -scrdir="/scr/"
 Entering Link 1 = /sw/contrib/gaussian/g16/B01/g16/l1.exe PID=      3543.
  
 Copyright (c) 1988-2017, Gaussian, Inc.  All Rights Reserved.
  
 This is part of the Gaussian(R) 16 program.  It is based on
 the Gaussian(R) 09 system (copyright 2009, Gaussian, Inc.),
 the Gaussian(R) 03 system (copyright 2003, Gaussian, Inc.),
 the Gaussian(R) 98 system (copyright 1998, Gaussian, Inc.),
 the Gaussian(R) 94 system (copyright 1995, Gaussian, Inc.),
 the Gaussian 92(TM) system (copyright 1992, Gaussian, Inc.),
 the Gaussian 90(TM) system (copyright 1990, Gaussian, Inc.),
 the Gaussian 88(TM) system (copyright 1988, Gaussian, Inc.),
 the Gaussian 86(TM) system (copyright 1986, Carnegie Mellon
 University), and the Gaussian 82(TM) system (copyright 1983,
 Carnegie Mellon University). Gaussian is a federally registered
 trademark of Gaussian, Inc.
  
 This software contains proprietary and confidential information,
 including trade secrets, belonging to Gaussian, Inc.
  
 This software is provided under written license and may be
 used, copied, transmitted, or stored only in accord with that
 written license.
  
 The following legend is applicable only to US Government
 contracts under FAR:
  
                    RESTRICTED RIGHTS LEGEND
  
 Use, reproduction and disclosure by the US Government is
 subject to restrictions as set forth in subparagraphs (a)
 and (c) of the Commercial Computer Software - Restricted
 Rights clause in FAR 52.227-19.
  
 Gaussian, Inc.
 340 Quinnipiac St., Bldg. 40, Wallingford CT 06492
  
  
 ---------------------------------------------------------------
 Warning -- This program may not be used in any manner that
 competes with the business of Gaussian, Inc. or will provide
 assistance to any competitor of Gaussian, Inc.  The licensee
 of this program is prohibited from giving any competitor of
 Gaussian, Inc. access to this program.  By using this program,
 the user acknowledges that Gaussian, Inc. is engaged in the
 business of creating and licensing software in the field of
 computational chemistry and represents and warrants to the
 licensee that it is not a competitor of Gaussian, Inc. and that
 it will not use this program in any manner prohibited above.
 ---------------------------------------------------------------
  

 Cite this work as:
 Gaussian 16, Revision B.01,
 M. J. Frisch, G. W. Trucks, H. B. Schlegel, G. E. Scuseria, 
 M. A. Robb, J. R. Cheeseman, G. Scalmani, V. Barone, 
 G. A. Petersson, H. Nakatsuji, X. Li, M. Caricato, A. V. Marenich, 
 J. Bloino, B. G. Janesko, R. Gomperts, B. Mennucci, H. P. Hratchian, 
 J. V. Ortiz, A. F. Izmaylov, J. L. Sonnenberg, D. Williams-Young, 
 F. Ding, F. Lipparini, F. Egidi, J. Goings, B. Peng, A. Petrone, 
 T. Henderson, D. Ranasinghe, V. G. Zakrzewski, J. Gao, N. Rega, 
 G. Zheng, W. Liang, M. Hada, M. Ehara, K. Toyota, R. Fukuda, 
 J. Hasegawa, M. Ishida, T. Nakajima, Y. Honda, O. Kitao, H. Nakai, 
 T. Vreven, K. Throssell, J. A. Montgomery, Jr., J. E. Peralta, 
 F. Ogliaro, M. J. Bearpark, J. J. Heyd, E. N. Brothers, K. N. Kudin, 
 V. N. Staroverov, T. A. Keith, R. Kobayashi, J. Normand, 
 K. Raghavachari, A. P. Rendell, J. C. Burant, S. S. Iyengar, 
 J. Tomasi, M. Cossi, J. M. Millam, M. Klene, C. Adamo, R. Cammi, 
 J. W. Ochterski, R. L. Martin, K. Morokuma, O. Farkas, 
 J. B. Foresman, and D. J. Fox, Gaussian, Inc., Wallingford CT, 2016.
 
 ******************************************
 Gaussian 16:  ES64L-G16RevB.01 20-Dec-2017
                 6-Mar-2022 
 ******************************************
 %nproc=28
 Will use up to   28 processors via shared memory.
 %mem=120GB
 %chk=hoono_a1_102p1818.chk
 ---------------------------------------
 #p freq mp2/aug-cc-pvtz density=current
 ---------------------------------------
 1/10=4,30=1,38=1/1,3;
 2/12=2,17=6,18=5,40=1/2;
 3/5=16,6=1,7=10,11=9,25=1,30=1,71=2,140=1/1,2,3;
 4//1;
 5/5=2,38=5,98=1/2;
 8/6=3,8=1,10=1,19=11,30=-1/1;
 9/15=3,16=-3/6;
 11/6=1,8=1,15=11,17=12,24=-1,27=1,28=-2,29=300,32=6,42=3/1,2,10;
 10/6=2,21=1/2;
 8/6=4,8=1,10=1,19=11,30=-1/11,4;
 10/5=1,20=4/2;
 11/12=2,14=11,16=1,17=2,28=-2,42=3,76=2/2,10,12;
 6/7=2,8=2,9=2,10=2,22=-1/1;
 7/8=1,10=1,12=2,25=1,44=2/1,2,3,16;
 1/10=4,30=1/3;
 99//99;
 Leave Link    1 at Sun Mar  6 19:21:07 2022, MaxMem= 16106127360 cpu:               2.0 elap:               0.1
 (Enter /sw/contrib/gaussian/g16/B01/g16/l101.exe)
 -----
 title
 -----
 Symbolic Z-matrix:
 Charge =  0 Multiplicity = 1
 H
 O                    1    r1
 O                    2    r2       1    a1
 N                    3    r3       2    a2       1    d1       0
 O                    4    r4       3    a3       2    d2       0
       Variables:
  r1                    0.98538                  
  r2                    1.42674                  
  r3                    1.38111                  
  r4                    1.19479                  
  a1                  102.18183                  
  a2                  113.13777                  
  a3                  114.33392                  
  d1                    0.                       
  d2                    0.                       
 
 ITRead=  0  0  0  0  0
 MicOpt= -1 -1 -1 -1 -1
 NAtoms=      5 NQM=        5 NQMF=       0 NMMI=      0 NMMIF=      0
                NMic=       0 NMicF=      0.
                    Isotopes and Nuclear Properties:
 (Nuclear quadrupole moments (NQMom) in fm**2, nuclear magnetic moments (NMagM)
  in nuclear magnetons)

  Atom         1           2           3           4           5
 IAtWgt=           1          16          16          14          16
 AtmWgt=   1.0078250  15.9949146  15.9949146  14.0030740  15.9949146
 NucSpn=           1           0           0           2           0
 AtZEff=  -0.0000000  -0.0000000  -0.0000000  -0.0000000  -0.0000000
 NQMom=    0.0000000   0.0000000   0.0000000   2.0440000   0.0000000
 NMagM=    2.7928460   0.0000000   0.0000000   0.4037610   0.0000000
 AtZNuc=   1.0000000   8.0000000   8.0000000   7.0000000   8.0000000
 Leave Link  101 at Sun Mar  6 19:21:07 2022, MaxMem= 16106127360 cpu:               2.5 elap:               0.1
 (Enter /sw/contrib/gaussian/g16/B01/g16/l103.exe)

 GradGradGradGradGradGradGradGradGradGradGradGradGradGradGradGradGradGrad
 Berny optimization.
 Initialization pass.
                       ----------------------------
                       !    Initial Parameters    !
                       ! (Angstroms and Degrees)  !
 ----------------------                            ----------------------
 !      Name          Value   Derivative information (Atomic Units)     !
 ------------------------------------------------------------------------
 !       r1          0.9854   calculate D2E/DX2 analytically            !
 !       r2          1.4267   calculate D2E/DX2 analytically            !
 !       r3          1.3811   calculate D2E/DX2 analytically            !
 !       r4          1.1948   calculate D2E/DX2 analytically            !
 !       a1        102.1818   calculate D2E/DX2 analytically            !
 !       a2        113.1378   calculate D2E/DX2 analytically            !
 !       a3        114.3339   calculate D2E/DX2 analytically            !
 !       d1          0.0      calculate D2E/DX2 analytically            !
 !       d2          0.0      calculate D2E/DX2 analytically            !
 ------------------------------------------------------------------------
 Trust Radius=3.00D-01 FncErr=1.00D-07 GrdErr=1.00D-07 EigMax=2.50D+02 EigMin=1.00D-04
 Number of steps in this run=      2 maximum allowed number of steps=      2.
 GradGradGradGradGradGradGradGradGradGradGradGradGradGradGradGradGradGrad

 Leave Link  103 at Sun Mar  6 19:21:07 2022, MaxMem= 16106127360 cpu:               0.4 elap:               0.0
 (Enter /sw/contrib/gaussian/g16/B01/g16/l202.exe)
                          Input orientation:                          
 ---------------------------------------------------------------------
 Center     Atomic      Atomic             Coordinates (Angstroms)
 Number     Number       Type             X           Y           Z
 ---------------------------------------------------------------------
      1          1           0        0.000000    0.000000    0.000000
      2          8           0        0.000000    0.000000    0.985377
      3          8           0        1.394611    0.000000    1.286439
      4          7           0        2.193080    0.000000    0.159538
      5          8           0        1.589439    0.000000   -0.871547
 ---------------------------------------------------------------------
                    Distance matrix (angstroms):
                    1          2          3          4          5
     1  H    0.000000
     2  O    0.985377   0.000000
     3  O    1.897331   1.426737   0.000000
     4  N    2.198875   2.343418   1.381108   0.000000
     5  O    1.812708   2.444276   2.166763   1.194788   0.000000
 Stoichiometry    HNO3
 Framework group  CS[SG(HNO3)]
 Deg. of freedom     7
 Full point group                 CS      NOp   2
 Largest Abelian subgroup         CS      NOp   2
 Largest concise Abelian subgroup C1      NOp   1
                         Standard orientation:                         
 ---------------------------------------------------------------------
 Center     Atomic      Atomic             Coordinates (Angstroms)
 Number     Number       Type             X           Y           Z
 ---------------------------------------------------------------------
      1          1           0        1.133916   -0.604064    0.000000
      2          8           0        1.315339    0.364467    0.000000
      3          8           0        0.000000    0.917152    0.000000
      4          7           0       -0.992299   -0.043473    0.000000
      5          8           0       -0.588817   -1.168072    0.000000
 ---------------------------------------------------------------------
 Rotational constants (GHZ):          21.3083500           8.1047563           5.8714977
 Leave Link  202 at Sun Mar  6 19:21:07 2022, MaxMem= 16106127360 cpu:               3.8 elap:               0.2
 (Enter /sw/contrib/gaussian/g16/B01/g16/l301.exe)
 Standard basis: Aug-CC-pVTZ (5D, 7F)
 Ernie: Thresh=  0.10000D-02 Tol=  0.10000D-05 Strict=F.
 Ernie:  12 primitive shells out of 131 were deleted.
 There are   166 symmetry adapted cartesian basis functions of A'  symmetry.
 There are    79 symmetry adapted cartesian basis functions of A"  symmetry.
 There are   136 symmetry adapted basis functions of A'  symmetry.
 There are    71 symmetry adapted basis functions of A"  symmetry.
   207 basis functions,   315 primitive gaussians,   245 cartesian basis functions
    16 alpha electrons       16 beta electrons
       nuclear repulsion energy       122.6761842843 Hartrees.
 IExCor=    0 DFT=F Ex=HF Corr=None ExCW=0 ScaHFX=  1.000000
 ScaDFX=  1.000000  1.000000  1.000000  1.000000 ScalE2=  1.000000  1.000000
 IRadAn=      5 IRanWt=     -1 IRanGd=            0 ICorTp=0 IEmpDi=  4
 NAtoms=    5 NActive=    5 NUniq=    5 SFac= 1.00D+00 NAtFMM=   60 NAOKFM=F Big=F
 Integral buffers will be    131072 words long.
 Raffenetti 1 integral format.
 Two-electron integral symmetry is turned on.
 Leave Link  301 at Sun Mar  6 19:21:07 2022, MaxMem= 16106127360 cpu:               1.9 elap:               0.1
 (Enter /sw/contrib/gaussian/g16/B01/g16/l302.exe)
 NPDir=0 NMtPBC=     1 NCelOv=     1 NCel=       1 NClECP=     1 NCelD=      1
         NCelK=      1 NCelE2=     1 NClLst=     1 CellRange=     0.0.
 One-electron integrals computed using PRISM.
 One-electron integral symmetry used in STVInt
 NBasis=   207 RedAO= T EigKep=  1.31D-04  NBF=   136    71
 NBsUse=   207 1.00D-06 EigRej= -1.00D+00 NBFU=   136    71
 Leave Link  302 at Sun Mar  6 19:21:07 2022, MaxMem= 16106127360 cpu:               4.1 elap:               0.2
 (Enter /sw/contrib/gaussian/g16/B01/g16/l303.exe)
 DipDrv:  MaxL=1.
 Leave Link  303 at Sun Mar  6 19:21:07 2022, MaxMem= 16106127360 cpu:               0.7 elap:               0.0
 (Enter /sw/contrib/gaussian/g16/B01/g16/l401.exe)
 ExpMin= 2.53D-02 ExpMax= 1.53D+04 ExpMxC= 5.22D+02 IAcc=3 IRadAn=         5 AccDes= 0.00D+00
 Harris functional with IExCor=  205 and IRadAn=       5 diagonalized for initial guess.
 HarFok:  IExCor=  205 AccDes= 0.00D+00 IRadAn=         5 IDoV= 1 UseB2=F ITyADJ=14
 ICtDFT=  3500011 ScaDFX=  1.000000  1.000000  1.000000  1.000000
 FoFCou: FMM=F IPFlag=           0 FMFlag=      100000 FMFlg1=           0
         NFxFlg=           0 DoJE=T BraDBF=F KetDBF=T FulRan=T
         wScrn=  0.000000 ICntrl=       500 IOpCl=  0 I1Cent=   200000004 NGrid=           0
         NMat0=    1 NMatS0=      1 NMatT0=    0 NMatD0=    1 NMtDS0=    0 NMtDT0=    0
 Petite list used in FoFCou.
 Harris En= -279.644959153825    
 JPrj=0 DoOrth=F DoCkMO=F.
 Initial guess orbital symmetries:
       Occupied  (A') (A') (A') (A') (A') (A') (A') (A') (A') (A')
                 (A") (A') (A") (A') (A") (A')
       Virtual   (A") (A') (A') (A') (A') (A") (A') (A') (A') (A')
                 (A") (A') (A") (A') (A') (A") (A') (A') (A") (A')
                 (A') (A') (A') (A') (A") (A') (A') (A') (A") (A')
                 (A') (A") (A") (A') (A') (A") (A') (A") (A') (A")
                 (A') (A") (A') (A") (A') (A') (A') (A') (A") (A')
                 (A') (A") (A') (A") (A') (A") (A') (A') (A') (A")
                 (A') (A') (A") (A') (A') (A') (A") (A") (A') (A')
                 (A") (A') (A") (A") (A') (A') (A") (A') (A') (A')
                 (A") (A') (A') (A") (A') (A") (A") (A') (A') (A')
                 (A') (A") (A') (A") (A') (A') (A") (A') (A") (A')
                 (A") (A') (A') (A") (A") (A') (A') (A') (A") (A')
                 (A") (A') (A') (A') (A") (A') (A') (A') (A") (A')
                 (A") (A') (A') (A") (A") (A") (A") (A') (A') (A')
                 (A') (A') (A') (A") (A') (A") (A') (A") (A') (A')
                 (A") (A') (A") (A') (A') (A") (A') (A') (A') (A")
                 (A') (A') (A') (A") (A') (A") (A") (A') (A") (A')
                 (A') (A") (A") (A') (A") (A') (A') (A") (A") (A')
                 (A") (A") (A") (A') (A') (A") (A') (A') (A') (A")
                 (A') (A') (A') (A') (A') (A') (A') (A') (A') (A')
                 (A')
 The electronic state of the initial guess is 1-A'.
 Leave Link  401 at Sun Mar  6 19:21:08 2022, MaxMem= 16106127360 cpu:               7.6 elap:               0.3
 (Enter /sw/contrib/gaussian/g16/B01/g16/l502.exe)
 Keep R1 ints in memory in symmetry-blocked form, NReq=348887737.
 FoFCou: FMM=F IPFlag=           0 FMFlag=           0 FMFlg1=           0
         NFxFlg=           0 DoJE=F BraDBF=F KetDBF=F FulRan=T
         wScrn=  0.000000 ICntrl=       600 IOpCl=  0 I1Cent=           0 NGrid=           0
         NMat0=    1 NMatS0=  21528 NMatT0=    0 NMatD0=    1 NMtDS0=    0 NMtDT0=    0
 Petite list used in FoFCou.
 Closed shell SCF:
 Using DIIS extrapolation, IDIIS=  1040.
 NGot= 16106127360 LenX= 15988850015 LenY= 15988789549
 Requested convergence on RMS density matrix=1.00D-08 within 128 cycles.
 Requested convergence on MAX density matrix=1.00D-06.
 Requested convergence on             energy=1.00D-06.
 No special actions if energy rises.

 Cycle   1  Pass 1  IDiag  1:
 E= -279.364283889623    
 DIIS: error= 2.75D-02 at cycle   1 NSaved=   1.
 NSaved= 1 IEnMin= 1 EnMin= -279.364283889623     IErMin= 1 ErrMin= 2.75D-02
 ErrMax= 2.75D-02  0.00D+00 EMaxC= 1.00D-01 BMatC= 4.51D-01 BMatP= 4.51D-01
 IDIUse=3 WtCom= 7.25D-01 WtEn= 2.75D-01
 Coeff-Com:  0.100D+01
 Coeff-En:   0.100D+01
 Coeff:      0.100D+01
 Gap=     0.499 Goal=   None    Shift=    0.000
 GapD=    0.499 DampG=2.000 DampE=0.500 DampFc=1.0000 IDamp=-1.
 RMSDP=1.68D-03 MaxDP=8.74D-02              OVMax= 1.24D-01

 Cycle   2  Pass 1  IDiag  1:
 E= -279.446115866142     Delta-E=       -0.081831976519 Rises=F Damp=F
 DIIS: error= 1.91D-02 at cycle   2 NSaved=   2.
 NSaved= 2 IEnMin= 2 EnMin= -279.446115866142     IErMin= 2 ErrMin= 1.91D-02
 ErrMax= 1.91D-02  0.00D+00 EMaxC= 1.00D-01 BMatC= 8.66D-02 BMatP= 4.51D-01
 IDIUse=3 WtCom= 8.09D-01 WtEn= 1.91D-01
 Coeff-Com:  0.220D+00 0.780D+00
 Coeff-En:   0.809D-01 0.919D+00
 Coeff:      0.193D+00 0.807D+00
 Gap=     0.561 Goal=   None    Shift=    0.000
 RMSDP=9.67D-04 MaxDP=3.63D-02 DE=-8.18D-02 OVMax= 9.12D-02

 Cycle   3  Pass 1  IDiag  1:
 E= -279.484264247420     Delta-E=       -0.038148381277 Rises=F Damp=F
 DIIS: error= 1.08D-02 at cycle   3 NSaved=   3.
 NSaved= 3 IEnMin= 3 EnMin= -279.484264247420     IErMin= 3 ErrMin= 1.08D-02
 ErrMax= 1.08D-02  0.00D+00 EMaxC= 1.00D-01 BMatC= 3.09D-02 BMatP= 8.66D-02
 IDIUse=3 WtCom= 8.92D-01 WtEn= 1.08D-01
 Coeff-Com: -0.347D-01 0.363D+00 0.671D+00
 Coeff-En:   0.000D+00 0.216D+00 0.784D+00
 Coeff:     -0.310D-01 0.348D+00 0.683D+00
 Gap=     0.541 Goal=   None    Shift=    0.000
 RMSDP=4.09D-04 MaxDP=1.57D-02 DE=-3.81D-02 OVMax= 3.92D-02

 Cycle   4  Pass 1  IDiag  1:
 E= -279.505386756759     Delta-E=       -0.021122509339 Rises=F Damp=F
 DIIS: error= 1.59D-03 at cycle   4 NSaved=   4.
 NSaved= 4 IEnMin= 4 EnMin= -279.505386756759     IErMin= 4 ErrMin= 1.59D-03
 ErrMax= 1.59D-03  0.00D+00 EMaxC= 1.00D-01 BMatC= 5.90D-04 BMatP= 3.09D-02
 IDIUse=3 WtCom= 9.84D-01 WtEn= 1.59D-02
 Coeff-Com: -0.118D-01 0.457D-01 0.151D+00 0.815D+00
 Coeff-En:   0.000D+00 0.000D+00 0.000D+00 0.100D+01
 Coeff:     -0.116D-01 0.450D-01 0.149D+00 0.818D+00
 Gap=     0.528 Goal=   None    Shift=    0.000
 RMSDP=9.87D-05 MaxDP=2.28D-03 DE=-2.11D-02 OVMax= 1.17D-02

 Cycle   5  Pass 1  IDiag  1:
 E= -279.506192121947     Delta-E=       -0.000805365188 Rises=F Damp=F
 DIIS: error= 1.07D-03 at cycle   5 NSaved=   5.
 NSaved= 5 IEnMin= 5 EnMin= -279.506192121947     IErMin= 5 ErrMin= 1.07D-03
 ErrMax= 1.07D-03  0.00D+00 EMaxC= 1.00D-01 BMatC= 1.02D-04 BMatP= 5.90D-04
 IDIUse=3 WtCom= 9.89D-01 WtEn= 1.07D-02
 Coeff-Com:  0.535D-02-0.653D-01-0.110D+00 0.596D-01 0.111D+01
 Coeff-En:   0.000D+00 0.000D+00 0.000D+00 0.000D+00 0.100D+01
 Coeff:      0.529D-02-0.646D-01-0.109D+00 0.589D-01 0.111D+01
 Gap=     0.531 Goal=   None    Shift=    0.000
 RMSDP=7.93D-05 MaxDP=2.11D-03 DE=-8.05D-04 OVMax= 1.28D-02

 Cycle   6  Pass 1  IDiag  1:
 E= -279.506550993972     Delta-E=       -0.000358872025 Rises=F Damp=F
 DIIS: error= 3.23D-04 at cycle   6 NSaved=   6.
 NSaved= 6 IEnMin= 6 EnMin= -279.506550993972     IErMin= 6 ErrMin= 3.23D-04
 ErrMax= 3.23D-04  0.00D+00 EMaxC= 1.00D-01 BMatC= 2.39D-05 BMatP= 1.02D-04
 IDIUse=3 WtCom= 9.97D-01 WtEn= 3.23D-03
 Coeff-Com:  0.188D-02-0.704D-02-0.177D-01-0.184D+00 0.157D-01 0.119D+01
 Coeff-En:   0.000D+00 0.000D+00 0.000D+00 0.000D+00 0.000D+00 0.100D+01
 Coeff:      0.187D-02-0.701D-02-0.176D-01-0.183D+00 0.156D-01 0.119D+01
 Gap=     0.532 Goal=   None    Shift=    0.000
 RMSDP=4.64D-05 MaxDP=1.07D-03 DE=-3.59D-04 OVMax= 6.07D-03

 Cycle   7  Pass 1  IDiag  1:
 E= -279.506636221964     Delta-E=       -0.000085227992 Rises=F Damp=F
 DIIS: error= 1.31D-04 at cycle   7 NSaved=   7.
 NSaved= 7 IEnMin= 7 EnMin= -279.506636221964     IErMin= 7 ErrMin= 1.31D-04
 ErrMax= 1.31D-04  0.00D+00 EMaxC= 1.00D-01 BMatC= 3.56D-06 BMatP= 2.39D-05
 IDIUse=3 WtCom= 9.99D-01 WtEn= 1.31D-03
 Coeff-Com: -0.109D-02 0.114D-01 0.250D-01 0.173D-01-0.183D+00-0.154D+00
 Coeff-Com:  0.128D+01
 Coeff-En:   0.000D+00 0.000D+00 0.000D+00 0.000D+00 0.000D+00 0.000D+00
 Coeff-En:   0.100D+01
 Coeff:     -0.109D-02 0.113D-01 0.250D-01 0.173D-01-0.182D+00-0.154D+00
 Coeff:      0.128D+01
 Gap=     0.532 Goal=   None    Shift=    0.000
 RMSDP=1.75D-05 MaxDP=5.12D-04 DE=-8.52D-05 OVMax= 2.33D-03

 Cycle   8  Pass 1  IDiag  1:
 E= -279.506648156338     Delta-E=       -0.000011934375 Rises=F Damp=F
 DIIS: error= 4.71D-05 at cycle   8 NSaved=   8.
 NSaved= 8 IEnMin= 8 EnMin= -279.506648156338     IErMin= 8 ErrMin= 4.71D-05
 ErrMax= 4.71D-05  0.00D+00 EMaxC= 1.00D-01 BMatC= 5.90D-07 BMatP= 3.56D-06
 IDIUse=1 WtCom= 1.00D+00 WtEn= 0.00D+00
 Coeff-Com: -0.556D-03 0.405D-02 0.965D-02 0.251D-01-0.575D-01-0.192D+00
 Coeff-Com:  0.354D+00 0.857D+00
 Coeff:     -0.556D-03 0.405D-02 0.965D-02 0.251D-01-0.575D-01-0.192D+00
 Coeff:      0.354D+00 0.857D+00
 Gap=     0.532 Goal=   None    Shift=    0.000
 RMSDP=5.37D-06 MaxDP=1.51D-04 DE=-1.19D-05 OVMax= 6.38D-04

 Cycle   9  Pass 1  IDiag  1:
 E= -279.506649506681     Delta-E=       -0.000001350343 Rises=F Damp=F
 DIIS: error= 2.47D-05 at cycle   9 NSaved=   9.
 NSaved= 9 IEnMin= 9 EnMin= -279.506649506681     IErMin= 9 ErrMin= 2.47D-05
 ErrMax= 2.47D-05  0.00D+00 EMaxC= 1.00D-01 BMatC= 1.15D-07 BMatP= 5.90D-07
 IDIUse=1 WtCom= 1.00D+00 WtEn= 0.00D+00
 Coeff-Com:  0.239D-03-0.253D-02-0.528D-02-0.563D-02 0.469D-01 0.487D-01
 Coeff-Com: -0.339D+00 0.349D-01 0.122D+01
 Coeff:      0.239D-03-0.253D-02-0.528D-02-0.563D-02 0.469D-01 0.487D-01
 Coeff:     -0.339D+00 0.349D-01 0.122D+01
 Gap=     0.532 Goal=   None    Shift=    0.000
 RMSDP=2.44D-06 MaxDP=6.52D-05 DE=-1.35D-06 OVMax= 2.57D-04

 Cycle  10  Pass 1  IDiag  1:
 E= -279.506649765855     Delta-E=       -0.000000259174 Rises=F Damp=F
 DIIS: error= 5.56D-06 at cycle  10 NSaved=  10.
 NSaved=10 IEnMin=10 EnMin= -279.506649765855     IErMin=10 ErrMin= 5.56D-06
 ErrMax= 5.56D-06  0.00D+00 EMaxC= 1.00D-01 BMatC= 8.17D-09 BMatP= 1.15D-07
 IDIUse=1 WtCom= 1.00D+00 WtEn= 0.00D+00
 Coeff-Com: -0.381D-04 0.490D-03 0.119D-02-0.183D-02-0.110D-01 0.513D-02
 Coeff-Com:  0.732D-01-0.542D-01-0.438D+00 0.143D+01
 Coeff:     -0.381D-04 0.490D-03 0.119D-02-0.183D-02-0.110D-01 0.513D-02
 Coeff:      0.732D-01-0.542D-01-0.438D+00 0.143D+01
 Gap=     0.532 Goal=   None    Shift=    0.000
 RMSDP=6.97D-07 MaxDP=2.54D-05 DE=-2.59D-07 OVMax= 7.51D-05

 Cycle  11  Pass 1  IDiag  1:
 E= -279.506649790292     Delta-E=       -0.000000024436 Rises=F Damp=F
 DIIS: error= 2.17D-06 at cycle  11 NSaved=  11.
 NSaved=11 IEnMin=11 EnMin= -279.506649790292     IErMin=11 ErrMin= 2.17D-06
 ErrMax= 2.17D-06  0.00D+00 EMaxC= 1.00D-01 BMatC= 8.14D-10 BMatP= 8.17D-09
 IDIUse=1 WtCom= 1.00D+00 WtEn= 0.00D+00
 Coeff-Com: -0.156D-04 0.157D-03 0.326D-03 0.907D-03-0.206D-02-0.709D-02
 Coeff-Com:  0.179D-01 0.194D-01-0.439D-01-0.335D+00 0.135D+01
 Coeff:     -0.156D-04 0.157D-03 0.326D-03 0.907D-03-0.206D-02-0.709D-02
 Coeff:      0.179D-01 0.194D-01-0.439D-01-0.335D+00 0.135D+01
 Gap=     0.532 Goal=   None    Shift=    0.000
 RMSDP=2.40D-07 MaxDP=8.93D-06 DE=-2.44D-08 OVMax= 2.82D-05

 Cycle  12  Pass 1  IDiag  1:
 E= -279.506649793214     Delta-E=       -0.000000002922 Rises=F Damp=F
 DIIS: error= 7.03D-07 at cycle  12 NSaved=  12.
 NSaved=12 IEnMin=12 EnMin= -279.506649793214     IErMin=12 ErrMin= 7.03D-07
 ErrMax= 7.03D-07  0.00D+00 EMaxC= 1.00D-01 BMatC= 8.45D-11 BMatP= 8.14D-10
 IDIUse=1 WtCom= 1.00D+00 WtEn= 0.00D+00
 Coeff-Com:  0.257D-05-0.445D-04-0.965D-04 0.128D-03 0.112D-02-0.711D-03
 Coeff-Com: -0.726D-02 0.641D-02 0.406D-01-0.112D+00-0.179D+00 0.125D+01
 Coeff:      0.257D-05-0.445D-04-0.965D-04 0.128D-03 0.112D-02-0.711D-03
 Coeff:     -0.726D-02 0.641D-02 0.406D-01-0.112D+00-0.179D+00 0.125D+01
 Gap=     0.532 Goal=   None    Shift=    0.000
 RMSDP=8.29D-08 MaxDP=2.70D-06 DE=-2.92D-09 OVMax= 9.64D-06

 Cycle  13  Pass 1  IDiag  1:
 E= -279.506649793509     Delta-E=       -0.000000000296 Rises=F Damp=F
 DIIS: error= 1.56D-07 at cycle  13 NSaved=  13.
 NSaved=13 IEnMin=13 EnMin= -279.506649793509     IErMin=13 ErrMin= 1.56D-07
 ErrMax= 1.56D-07  0.00D+00 EMaxC= 1.00D-01 BMatC= 7.12D-12 BMatP= 8.45D-11
 IDIUse=1 WtCom= 1.00D+00 WtEn= 0.00D+00
 Coeff-Com:  0.128D-05-0.120D-04-0.173D-04-0.122D-03 0.488D-04 0.920D-03
 Coeff-Com: -0.104D-02-0.248D-02-0.217D-02 0.550D-01-0.130D+00-0.145D+00
 Coeff-Com:  0.123D+01
 Coeff:      0.128D-05-0.120D-04-0.173D-04-0.122D-03 0.488D-04 0.920D-03
 Coeff:     -0.104D-02-0.248D-02-0.217D-02 0.550D-01-0.130D+00-0.145D+00
 Coeff:      0.123D+01
 Gap=     0.532 Goal=   None    Shift=    0.000
 RMSDP=2.22D-08 MaxDP=6.52D-07 DE=-2.96D-10 OVMax= 1.99D-06

 Cycle  14  Pass 1  IDiag  1:
 E= -279.506649793530     Delta-E=       -0.000000000020 Rises=F Damp=F
 DIIS: error= 4.11D-08 at cycle  14 NSaved=  14.
 NSaved=14 IEnMin=14 EnMin= -279.506649793530     IErMin=14 ErrMin= 4.11D-08
 ErrMax= 4.11D-08  0.00D+00 EMaxC= 1.00D-01 BMatC= 4.84D-13 BMatP= 7.12D-12
 IDIUse=1 WtCom= 1.00D+00 WtEn= 0.00D+00
 Coeff-Com: -0.299D-06 0.443D-05 0.885D-05-0.382D-05-0.112D-03 0.588D-04
 Coeff-Com:  0.645D-03-0.322D-03-0.358D-02 0.806D-02 0.165D-01-0.897D-01
 Coeff-Com: -0.219D-01 0.109D+01
 Coeff:     -0.299D-06 0.443D-05 0.885D-05-0.382D-05-0.112D-03 0.588D-04
 Coeff:      0.645D-03-0.322D-03-0.358D-02 0.806D-02 0.165D-01-0.897D-01
 Coeff:     -0.219D-01 0.109D+01
 Gap=     0.532 Goal=   None    Shift=    0.000
 RMSDP=4.37D-09 MaxDP=1.10D-07 DE=-2.01D-11 OVMax= 4.37D-07

 SCF Done:  E(RHF) =  -279.506649794     A.U. after   14 cycles
            NFock= 14  Conv=0.44D-08     -V/T= 2.0023
 KE= 2.788787387604D+02 PE=-9.062319590412D+02 EE= 2.251703862030D+02
 Leave Link  502 at Sun Mar  6 19:21:11 2022, MaxMem= 16106127360 cpu:              53.1 elap:               3.4
 (Enter /sw/contrib/gaussian/g16/B01/g16/l801.exe)
 ExpMin= 2.53D-02 ExpMax= 1.53D+04 ExpMxC= 5.22D+02 IAcc=3 IRadAn=         5 AccDes= 0.00D+00
 HarFok:  IExCor=  205 AccDes= 0.00D+00 IRadAn=         5 IDoV=-2 UseB2=F ITyADJ=14
 ICtDFT= 12500011 ScaDFX=  1.000000  1.000000  1.000000  1.000000
 Largest valence mixing into a core orbital is  2.07D-04
 Largest core mixing into a valence orbital is  3.09D-05
 Range of M.O.s used for correlation:     5   207
 NBasis=   207 NAE=    16 NBE=    16 NFC=     4 NFV=     0
 NROrb=    203 NOA=    12 NOB=    12 NVA=   191 NVB=   191

 **** Warning!!: The largest alpha MO coefficient is  0.16038339D+02

 Leave Link  801 at Sun Mar  6 19:21:11 2022, MaxMem= 16106127360 cpu:               3.1 elap:               0.2
 (Enter /sw/contrib/gaussian/g16/B01/g16/l906.exe)
 Frozen-core derivative calculation, NFC=   4 NFV=   0.
 FulOut=F Deriv=T AODrv=T NAtomX=     5
   MMem=           0  MDisk=          12 MDiskD=          12
  W3Min=      811440 MinDsk=     2425030 NBas6D=         245
 NBas2D=       30762    NTT=       30135    LW2=     7400000
    MDV= 16105571560 MDiskM=      328644 NBas2p=       30759
 Disk-based method using ON**2 memory for 12 occupieds at a time.
 Permanent disk used for amplitudes=    11516536 words.
 Estimated scratch disk usage=   321863743 words.
 IMap=   1   2   3   4   5   6   7   8   9  10  11  12  13  14  15  16
 Actual    scratch disk usage=   310892607 words.
 JobTyp=1 Pass  1:  I=   5 to  16 NPSUse= 28 ParTrn=T ParDer=T DoDerP=T.
 (rs|ai) integrals will be sorted in core.
 Spin components of T(2) and E(2):
     alpha-alpha T2 =       0.3477171174D-01 E2=     -0.1244769875D+00
     alpha-beta  T2 =       0.1844627334D+00 E2=     -0.6995455197D+00
     beta-beta   T2 =       0.3477171174D-01 E2=     -0.1244769875D+00
 The integrals were generated   1 times.
 ANorm=    0.1119824163D+01
 E2 =    -0.9484994946D+00 EUMP2 =    -0.28045514928816D+03
 Leave Link  906 at Sun Mar  6 19:22:48 2022, MaxMem= 16106127360 cpu:            2711.3 elap:              97.0
 (Enter /sw/contrib/gaussian/g16/B01/g16/l1101.exe)
 Using compressed Sx but separate Hx and Fx, NAtomX=     5.
 Will process      6 centers per pass.
 Leave Link 1101 at Sun Mar  6 19:22:49 2022, MaxMem= 16106127360 cpu:               5.3 elap:               0.2
 (Enter /sw/contrib/gaussian/g16/B01/g16/l1102.exe)
 Leave Link 1102 at Sun Mar  6 19:22:49 2022, MaxMem= 16106127360 cpu:               1.3 elap:               0.1
 (Enter /sw/contrib/gaussian/g16/B01/g16/l1110.exe)
 Forming Gx(P) for the SCF density, NAtomX=     5.
 Integral derivatives from FoFJK, PRISM(SPDF).
 Do as many integral derivatives as possible in FoFJK.
 G2DrvN: MDV=   16106126844.
 G2DrvN: will do     6 centers at a time, making    1 passes.
 Calling FoFCou, ICntrl=  3107 FMM=F I1Cent=   0 AccDes= 0.00D+00.
 FoFJK:  IHMeth= 1 ICntrl=    3107 DoSepK=F KAlg= 0 I1Cent=           0 FoldK=F
 IRaf=         0 NMat=       1 IRICut=       1 DoRegI=T DoRafI=F ISym2E= 1 IDoP0=0 IntGTp=1.
 FoFCou: FMM=F IPFlag=           0 FMFlag=      100000 FMFlg1=           0
         NFxFlg=           0 DoJE=F BraDBF=F KetDBF=F FulRan=T
         wScrn=  0.000000 ICntrl=      3107 IOpCl=  0 I1Cent=           0 NGrid=           0
         NMat0=    1 NMatS0=      1 NMatT0=    0 NMatD0=    1 NMtDS0=    0 NMtDT0=    0
 Petite list used in FoFCou.
 End of G2Drv F.D. properties file   721 does not exist.
 End of G2Drv F.D. properties file   722 does not exist.
 End of G2Drv F.D. properties file   788 does not exist.
 Leave Link 1110 at Sun Mar  6 19:22:52 2022, MaxMem= 16106127360 cpu:              87.2 elap:               3.1
 (Enter /sw/contrib/gaussian/g16/B01/g16/l1002.exe)
 Minotr:  Closed shell wavefunction.
          IDoAtm=11111
          Frozen-core window.
          Direct CPHF calculation.
          Differentiating once with respect to electric field.
                with respect to dipole field.
          Differentiating once with respect to nuclear coordinates.
          Requested convergence is 1.0D-08 RMS, and 1.0D-07 maximum.
          Secondary convergence is 1.0D-12 RMS, and 1.0D-12 maximum.
          NewPWx=T KeepS1=T KeepF1=T KeepIn=T MapXYZ=F SortEE=F KeepMc=T.
 Keep R1 ints in memory in symmetry-blocked form, NReq=348888983.
 FoFCou: FMM=F IPFlag=           0 FMFlag=           0 FMFlg1=           0
         NFxFlg=           0 DoJE=F BraDBF=F KetDBF=F FulRan=T
         wScrn=  0.000000 ICntrl=       600 IOpCl=  0 I1Cent=           0 NGrid=           0
         NMat0=    1 NMatS0=  21528 NMatT0=    0 NMatD0=    1 NMtDS0=    0 NMtDT0=    0
 Petite list used in FoFCou.
          MDV=   16106127360 using IRadAn=       1.
          Solving linear equations simultaneously, MaxMat=       0.
          There are    18 degrees of freedom in the 1st order CPHF.  IDoFFX=6 NUNeed=    18.
     15 vectors produced by pass  0 Test12= 1.70D-14 5.56D-09 XBig12= 7.93D+00 1.23D+00.
 AX will form    15 AO Fock derivatives at one time.
     15 vectors produced by pass  1 Test12= 1.70D-14 5.56D-09 XBig12= 1.35D+00 2.29D-01.
     15 vectors produced by pass  2 Test12= 1.70D-14 5.56D-09 XBig12= 6.45D-02 5.79D-02.
     15 vectors produced by pass  3 Test12= 1.70D-14 5.56D-09 XBig12= 1.96D-03 1.05D-02.
     15 vectors produced by pass  4 Test12= 1.70D-14 5.56D-09 XBig12= 4.06D-05 1.19D-03.
     15 vectors produced by pass  5 Test12= 1.70D-14 5.56D-09 XBig12= 5.76D-07 1.21D-04.
     15 vectors produced by pass  6 Test12= 1.70D-14 5.56D-09 XBig12= 4.57D-09 1.25D-05.
     14 vectors produced by pass  7 Test12= 1.70D-14 5.56D-09 XBig12= 3.44D-11 8.51D-07.
      3 vectors produced by pass  8 Test12= 1.70D-14 5.56D-09 XBig12= 2.33D-13 6.10D-08.
      1 vectors produced by pass  9 Test12= 1.70D-14 5.56D-09 XBig12= 1.59D-15 6.45D-09.
 InvSVY:  IOpt=1 It=  1 EMax= 9.99D-16
 Solved reduced A of dimension   123 with    15 vectors.
 FullF1:  Do perturbations      1 to      18.
 Saving first derivative matrices.
 End of Minotr F.D. properties file   721 does not exist.
 End of Minotr F.D. properties file   722 does not exist.
 End of Minotr F.D. properties file   788 does not exist.
 Leave Link 1002 at Sun Mar  6 19:22:55 2022, MaxMem= 16106127360 cpu:              76.2 elap:               2.9
 (Enter /sw/contrib/gaussian/g16/B01/g16/l811.exe)
 MDV= 16106127360.
 Form MO integral derivatives with frozen-active canonical formalism.
 MOERI=1 MOERIx=1 NAtoms=     5 NAtomX=     5.
 Discarding MO integrals.
 MO basis two electron integral derivatives will not be stored on disk.
 IAlg= 3 DoFC=T DoPWx=T Debug=F.
 Frozen-core window:  NFC=   4 NFV=   0.
 Reordered first order wavefunction length =     18678272
 In DefCFB: NBatch=  1 ICI= 16 ICA=191 LFMax= 96
            Large arrays: LIAPS=   619940160 LIARS=   288257200 words.
 In StABat: MaxSiz= 55 MinSiz= 25 NAtomB=  5
 DoIAMN: NPSUse= 28.
 Leave Link  811 at Sun Mar  6 19:24:16 2022, MaxMem= 16106127360 cpu:            2265.6 elap:              81.0
 (Enter /sw/contrib/gaussian/g16/B01/g16/l804.exe)
 Frozen-core window:  NFC=   4 NFV=   0.
 Closed-shell transformation, MDV= 16106127360 ITran=4 ISComp=1.
 Semi-Direct transformation.
 ModeAB=           2 MOrb=            16 LenV=   16104919939
 LASXX=     67341636 LTotXX=    67341636 LenRXX=    67341636
 LTotAB=    68301760 MaxLAS=    99807120 LenRXY=    99807120
 NonZer=   134683272 LenScr=   202817536 LnRSAI=           0
 LnScr1=           0 LExtra=           0 Total=    369966292
 MaxDsk=          -1 SrtSym=           F ITran=            4
 DoSDTr:  NPSUse= 28
 JobTyp=0 Pass  1:  I=   1 to  16.
 (rs|ai) integrals will be sorted in core.
 Complete sort for first half transformation.
 First half transformation complete.
 Begin second half transformation for I=  10.
 Begin second half transformation for I=  10.
 Complete sort for second half transformation.
 Second half transformation complete.
 Spin components of T(2) and E(2):
     alpha-alpha T2 =       0.3477171174D-01 E2=     -0.1244769875D+00
     alpha-beta  T2 =       0.1844627334D+00 E2=     -0.6995455197D+00
     beta-beta   T2 =       0.3477171174D-01 E2=     -0.1244769875D+00
 ANorm=    0.1583670519D+01
 E2 =    -0.9484994946D+00 EUMP2 =    -0.28045514928816D+03
 Leave Link  804 at Sun Mar  6 19:24:31 2022, MaxMem= 16106127360 cpu:             430.9 elap:              15.4
 (Enter /sw/contrib/gaussian/g16/B01/g16/l1002.exe)
 Minotr:  Closed shell wavefunction.
          Computing MP2/KS-MP2 derivatives.
          Using Z-Vector for PSCF gradient.
          Skipping F1 and S1 gradient terms here.
          IDoAtm=11111
          Frozen-core window.
          Using MO integrals in the linear equations.
          Forming densities via direct SCF.
          Differentiating once with respect to electric field.
                with respect to dipole field.
          Differentiating once with respect to nuclear coordinates.
          Using symmetry in CPHF.
          Requested convergence is 1.0D-10 RMS, and 1.0D-09 maximum.
          NewPWx=F KeepS1=T KeepF1=T KeepIn=T MapXYZ=F SortEE=F KeepMc=T.
          MDV=   16106127360 using IRadAn=       5.
          Solving linear equations separately, MaxMat=       0.
          There are     1 degrees of freedom in the 1st order CPHF.  IDoFFX=0 NUNeed=     1.
 FoFJK:  IHMeth= 1 ICntrl=       0 DoSepK=F KAlg= 0 I1Cent=           0 FoldK=F
 IRaf=         0 NMat=       1 IRICut=       1 DoRegI=T DoRafI=F ISym2E= 0 IDoP0=0 IntGTp=1.
 FoFCou: FMM=F IPFlag=           0 FMFlag=      100000 FMFlg1=           0
         NFxFlg=           0 DoJE=F BraDBF=F KetDBF=F FulRan=T
         wScrn=  0.000000 ICntrl=         0 IOpCl=  0 I1Cent=           0 NGrid=           0
         NMat0=    1 NMatS0=      1 NMatT0=    0 NMatD0=    1 NMtDS0=    0 NMtDT0=    0
 Symmetry not used in FoFCou.
 LinEq1:  Iter=  0 NonCon=     1 RMS=6.58D-03 Max=1.69D-01 NDo=     1
 LinEq1:  Iter=  1 NonCon=     1 RMS=2.00D-03 Max=3.08D-02 NDo=     1
 LinEq1:  Iter=  2 NonCon=     1 RMS=8.85D-04 Max=1.43D-02 NDo=     1
 LinEq1:  Iter=  3 NonCon=     1 RMS=3.81D-04 Max=8.22D-03 NDo=     1
 LinEq1:  Iter=  4 NonCon=     1 RMS=1.37D-04 Max=1.68D-03 NDo=     1
 LinEq1:  Iter=  5 NonCon=     1 RMS=7.64D-05 Max=1.37D-03 NDo=     1
 LinEq1:  Iter=  6 NonCon=     1 RMS=2.43D-05 Max=3.47D-04 NDo=     1
 LinEq1:  Iter=  7 NonCon=     1 RMS=8.13D-06 Max=1.08D-04 NDo=     1
 LinEq1:  Iter=  8 NonCon=     1 RMS=3.96D-06 Max=6.09D-05 NDo=     1
 LinEq1:  Iter=  9 NonCon=     1 RMS=1.04D-06 Max=1.14D-05 NDo=     1
 LinEq1:  Iter= 10 NonCon=     1 RMS=2.31D-07 Max=2.82D-06 NDo=     1
 LinEq1:  Iter= 11 NonCon=     1 RMS=4.98D-08 Max=7.53D-07 NDo=     1
 LinEq1:  Iter= 12 NonCon=     1 RMS=1.17D-08 Max=1.59D-07 NDo=     1
 LinEq1:  Iter= 13 NonCon=     1 RMS=2.05D-09 Max=2.20D-08 NDo=     1
 LinEq1:  Iter= 14 NonCon=     1 RMS=4.26D-10 Max=5.71D-09 NDo=     1
 LinEq1:  Iter= 15 NonCon=     0 RMS=8.73D-11 Max=8.38D-10 NDo=     1
 Linear equations converged to 1.000D-10 1.000D-09 after    15 iterations.
 End of Minotr F.D. properties file   721 does not exist.
 End of Minotr F.D. properties file   722 does not exist.
 End of Minotr F.D. properties file   788 does not exist.
 Leave Link 1002 at Sun Mar  6 19:24:34 2022, MaxMem= 16106127360 cpu:              65.0 elap:               2.4
 (Enter /sw/contrib/gaussian/g16/B01/g16/l1102.exe)
 Use density number 2.
 Symmetrizing basis deriv contribution to polar:
 IMax=3 JMax=2 DiffMx= 0.00D+00
 Leave Link 1102 at Sun Mar  6 19:24:34 2022, MaxMem= 16106127360 cpu:               0.6 elap:               0.0
 (Enter /sw/contrib/gaussian/g16/B01/g16/l1110.exe)
 Forming Gx(P) for generalized density number  2 NAtomX=     5.
 Integral derivatives from FoFJK, PRISM(SPDF).
 Do as many integral derivatives as possible in FoFJK.
 G2DrvN: MDV=   16106126844.
 G2DrvN: will do     6 centers at a time, making    1 passes.
 Calling FoFCou, ICntrl=  3107 FMM=F I1Cent=   0 AccDes= 0.00D+00.
 FoFJK:  IHMeth= 1 ICntrl=    3107 DoSepK=F KAlg= 0 I1Cent=           0 FoldK=F
 IRaf=         0 NMat=       1 IRICut=       1 DoRegI=T DoRafI=F ISym2E= 1 IDoP0=0 IntGTp=1.
 FoFCou: FMM=F IPFlag=           0 FMFlag=      100000 FMFlg1=           0
         NFxFlg=           0 DoJE=F BraDBF=F KetDBF=F FulRan=T
         wScrn=  0.000000 ICntrl=      3107 IOpCl=  0 I1Cent=           0 NGrid=           0
         NMat0=    1 NMatS0=      1 NMatT0=    0 NMatD0=    1 NMtDS0=    0 NMtDT0=    0
 Petite list used in FoFCou.
 End of G2Drv F.D. properties file   721 does not exist.
 End of G2Drv F.D. properties file   722 does not exist.
 End of G2Drv F.D. properties file   788 does not exist.
 Leave Link 1110 at Sun Mar  6 19:24:37 2022, MaxMem= 16106127360 cpu:              86.8 elap:               3.1
 (Enter /sw/contrib/gaussian/g16/B01/g16/l1112.exe)
 MP22nd: MDV=   16106127360
 This link is doing NAtomX=     5 total of    18 degrees of freedom.
 Using ON3 I/O method in MakUI.
 Frozen-core window:  NFC=   4 NFV=   0.
 Using Ix for Sx.
 Use MO integrals over full window.
 Using OV2 memory method for fx*t*t/D, MaxI=    16 DoOO2=F NP=  28.
 R2 and R3 integrals will be kept in memory, NReq=   915591705.
 FoFCou: FMM=F IPFlag=           0 FMFlag=           0 FMFlg1=           0
         NFxFlg=           0 DoJE=F BraDBF=F KetDBF=F FulRan=T
         wScrn=  0.000000 ICntrl=       600 IOpCl=  0 I1Cent=           0 NGrid=           0
         NMat0=    1 NMatS0=      1 NMatT0=    0 NMatD0=    1 NMtDS0=    0 NMtDT0=    0
 Symmetry not used in FoFCou.
 DD1Dir will call FoFMem   1 times, MxPair=       272
 NAB=   136 NAA=     0 NBB=     0.
 Symmetry is being used.
 FoFJK:  IHMeth= 1 ICntrl=       0 DoSepK=F KAlg= 0 I1Cent=           0 FoldK=F
 IRaf=         0 NMat=      18 IRICut=      45 DoRegI=T DoRafI=T ISym2E= 2 IDoP0=3 IntGTp=3.
 Discarding MO integrals.
 Leave Link 1112 at Sun Mar  6 19:25:10 2022, MaxMem= 16106127360 cpu:             932.7 elap:              33.7
 (Enter /sw/contrib/gaussian/g16/B01/g16/l601.exe)
 Copying SCF densities to generalized density rwf, IOpCl= 0 IROHF=0.

 **********************************************************************

            Population analysis using the MP2 Density.

 **********************************************************************

 Orbital symmetries:
       Occupied  (A') (A') (A') (A') (A') (A') (A') (A') (A') (A')
                 (A") (A') (A') (A") (A') (A")
       Virtual   (A') (A") (A') (A') (A") (A') (A') (A') (A") (A')
                 (A") (A') (A') (A') (A") (A') (A') (A") (A') (A')
                 (A') (A') (A') (A') (A") (A') (A') (A") (A') (A')
                 (A') (A") (A") (A') (A') (A') (A") (A') (A") (A')
                 (A") (A") (A') (A') (A") (A') (A') (A") (A') (A')
                 (A') (A") (A') (A') (A") (A') (A") (A') (A") (A')
                 (A') (A') (A") (A') (A') (A') (A") (A") (A') (A')
                 (A") (A') (A") (A') (A") (A') (A") (A') (A') (A')
                 (A") (A') (A') (A") (A') (A") (A") (A') (A') (A')
                 (A') (A') (A") (A") (A') (A') (A") (A") (A') (A')
                 (A") (A') (A") (A') (A") (A') (A') (A') (A") (A')
                 (A") (A') (A') (A') (A") (A') (A') (A') (A") (A')
                 (A") (A") (A') (A') (A") (A") (A') (A") (A') (A')
                 (A') (A') (A") (A') (A') (A") (A") (A') (A') (A')
                 (A") (A") (A') (A') (A') (A") (A') (A') (A') (A")
                 (A') (A') (A') (A") (A") (A') (A") (A') (A') (A")
                 (A') (A") (A') (A") (A") (A') (A') (A") (A") (A")
                 (A') (A") (A") (A') (A') (A") (A') (A') (A') (A")
                 (A') (A') (A') (A') (A') (A') (A') (A') (A') (A')
                 (A')
 The electronic state is 1-A'.
 Alpha  occ. eigenvalues --  -20.72001 -20.68635 -20.66789 -15.82527  -1.64310
 Alpha  occ. eigenvalues --   -1.50429  -1.29365  -0.96040  -0.83338  -0.75836
 Alpha  occ. eigenvalues --   -0.73940  -0.63692  -0.61842  -0.61773  -0.50372
 Alpha  occ. eigenvalues --   -0.49735
 Alpha virt. eigenvalues --    0.03478   0.06090   0.09520   0.10043   0.12001
 Alpha virt. eigenvalues --    0.12259   0.14925   0.15129   0.17767   0.18082
 Alpha virt. eigenvalues --    0.18992   0.21121   0.21648   0.24271   0.24639
 Alpha virt. eigenvalues --    0.26944   0.31203   0.31583   0.33834   0.34349
 Alpha virt. eigenvalues --    0.34586   0.39241   0.44796   0.48624   0.50460
 Alpha virt. eigenvalues --    0.51888   0.54682   0.56166   0.60066   0.61995
 Alpha virt. eigenvalues --    0.63890   0.68822   0.71786   0.72439   0.74418
 Alpha virt. eigenvalues --    0.76266   0.76737   0.79602   0.80651   0.84131
 Alpha virt. eigenvalues --    0.84313   0.85058   0.88587   0.90725   0.93200
 Alpha virt. eigenvalues --    0.94660   0.95493   1.01743   1.02934   1.05837
 Alpha virt. eigenvalues --    1.06460   1.09376   1.14229   1.15623   1.16929
 Alpha virt. eigenvalues --    1.22300   1.22660   1.24449   1.34811   1.36947
 Alpha virt. eigenvalues --    1.37363   1.46874   1.48636   1.50696   1.53939
 Alpha virt. eigenvalues --    1.59611   1.59732   1.60739   1.62884   1.69705
 Alpha virt. eigenvalues --    1.73457   1.80153   1.83062   1.88382   1.88881
 Alpha virt. eigenvalues --    1.92646   1.97953   1.99050   2.05137   2.12295
 Alpha virt. eigenvalues --    2.12757   2.16259   2.18556   2.24461   2.25850
 Alpha virt. eigenvalues --    2.29111   2.34886   2.36359   2.38534   2.40090
 Alpha virt. eigenvalues --    2.43179   2.46930   2.47833   2.52804   2.53575
 Alpha virt. eigenvalues --    2.55162   2.55743   2.61528   2.62879   2.67267
 Alpha virt. eigenvalues --    2.67352   2.75748   2.81547   2.82105   2.83090
 Alpha virt. eigenvalues --    2.91905   2.98462   3.04643   3.05139   3.11337
 Alpha virt. eigenvalues --    3.11393   3.17005   3.20506   3.30572   3.33284
 Alpha virt. eigenvalues --    3.36396   3.47478   3.67925   3.86831   3.91948
 Alpha virt. eigenvalues --    4.18076   4.22103   4.22771   4.26761   4.37129
 Alpha virt. eigenvalues --    4.50245   4.51958   4.55690   4.59154   4.69746
 Alpha virt. eigenvalues --    4.80890   4.89929   4.91375   4.94353   5.00236
 Alpha virt. eigenvalues --    5.00622   5.10621   5.13390   5.18196   5.24840
 Alpha virt. eigenvalues --    5.26219   5.31860   5.32930   5.35991   5.54799
 Alpha virt. eigenvalues --    5.64524   5.70331   5.88265   5.99865   6.26494
 Alpha virt. eigenvalues --    6.29248   6.36329   6.38210   6.59407   6.65520
 Alpha virt. eigenvalues --    6.66340   6.68889   6.72739   6.79954   6.80140
 Alpha virt. eigenvalues --    6.85214   6.96717   7.00755   7.06642   7.08462
 Alpha virt. eigenvalues --    7.14819   7.17318   7.17529   7.20061   7.24519
 Alpha virt. eigenvalues --    7.24561   7.26953   7.34743   7.38758   7.42168
 Alpha virt. eigenvalues --    7.44312   7.46225   7.56054   7.66054   7.66399
 Alpha virt. eigenvalues --    7.79233   7.87775   7.95181   8.05310   8.29523
 Alpha virt. eigenvalues --    8.50434   8.65232  13.62026  14.74432  15.09352
 Alpha virt. eigenvalues --   15.73261
          Condensed to atoms (all electrons):
               1          2          3          4          5
     1  H    0.574328   0.126099   0.025873  -0.001372  -0.006799
     2  O    0.126099   8.389125  -0.232107  -0.000540  -0.008855
     3  O    0.025873  -0.232107   8.371815  -0.168165  -0.034707
     4  N   -0.001372  -0.000540  -0.168165   7.133101  -0.115216
     5  O   -0.006799  -0.008855  -0.034707  -0.115216   8.363211
 Mulliken charges:
               1
     1  H    0.281871
     2  O   -0.273722
     3  O    0.037291
     4  N    0.152194
     5  O   -0.197634
 Sum of Mulliken charges =  -0.00000
 Mulliken charges with hydrogens summed into heavy atoms:
               1
     2  O    0.008149
     3  O    0.037291
     4  N    0.152194
     5  O   -0.197634
 APT charges:
               1
     1  H    0.270601
     2  O   -0.301988
     3  O   -0.309608
     4  N    0.642702
     5  O   -0.301707
 Sum of APT charges =  -0.00000
 APT charges with hydrogens summed into heavy atoms:
               1
     2  O   -0.031387
     3  O   -0.309608
     4  N    0.642702
     5  O   -0.301707
 Electronic spatial extent (au):  <R**2>=            207.3916
 Charge=             -0.0000 electrons
 Dipole moment (field-independent basis, Debye):
    X=              0.0892    Y=             -1.1071    Z=              0.0000  Tot=              1.1107
 Quadrupole moment (field-independent basis, Debye-Ang):
   XX=            -23.3171   YY=            -22.9364   ZZ=            -21.9393
   XY=             -2.0432   XZ=              0.0000   YZ=              0.0000
 Traceless Quadrupole moment (field-independent basis, Debye-Ang):
   XX=             -0.5862   YY=             -0.2054   ZZ=              0.7916
   XY=             -2.0432   XZ=              0.0000   YZ=              0.0000
 Octapole moment (field-independent basis, Debye-Ang**2):
  XXX=              2.7067  YYY=              0.2683  ZZZ=              0.0000  XYY=              2.4034
  XXY=             -2.9226  XXZ=              0.0000  XZZ=             -0.5884  YZZ=             -0.7060
  YYZ=              0.0000  XYZ=              0.0000
 Hexadecapole moment (field-independent basis, Debye-Ang**3):
 XXXX=           -127.2350 YYYY=            -94.7754 ZZZZ=            -18.0580 XXXY=            -21.7653
 XXXZ=              0.0000 YYYX=            -19.8633 YYYZ=              0.0000 ZZZX=              0.0000
 ZZZY=              0.0000 XXYY=            -35.6437 XXZZ=            -24.4033 YYZZ=            -18.5832
 XXYZ=              0.0000 YYXZ=              0.0000 ZZXY=             -5.9121
 N-N= 1.226761842843D+02 E-N=-9.069205998486D+02  KE= 2.801969094296D+02
 Symmetry A'   KE= 2.663454294862D+02
 Symmetry A"   KE= 1.385147994341D+01
  Exact polarizability:  30.943   4.078  29.883   0.000   0.000  17.645
 Approx polarizability:  24.519   0.447  27.697  -0.000  -0.000  15.531
 No NMR shielding tensors so no spin-rotation constants.
 Leave Link  601 at Sun Mar  6 19:25:11 2022, MaxMem= 16106127360 cpu:               4.3 elap:               0.2
 (Enter /sw/contrib/gaussian/g16/B01/g16/l701.exe)
 ... and contract with generalized density number  2.
 Compute integral second derivatives.
 Leave Link  701 at Sun Mar  6 19:25:11 2022, MaxMem= 16106127360 cpu:               6.2 elap:               0.2
 (Enter /sw/contrib/gaussian/g16/B01/g16/l702.exe)
 L702 exits ... SP integral derivatives will be done elsewhere.
 Leave Link  702 at Sun Mar  6 19:25:11 2022, MaxMem= 16106127360 cpu:               0.7 elap:               0.0
 (Enter /sw/contrib/gaussian/g16/B01/g16/l703.exe)
 Integral derivatives from FoFJK, PRISM(SPDF).
 Compute integral second derivatives, UseDBF=F ICtDFT=           0.
 Calling FoFJK, ICntrl=  10100127 FMM=F ISym2X=1 I1Cent= 0 IOpClX= 0 NMat=1 NMatS=1 NMatT=0.
 FoFJK:  IHMeth= 1 ICntrl=10100127 DoSepK=F KAlg= 0 I1Cent=           0 FoldK=F
 IRaf=         0 NMat=       1 IRICut=       1 DoRegI=T DoRafI=F ISym2E= 1 IDoP0=0 IntGTp=1.
 FoFCou: FMM=F IPFlag=           0 FMFlag=      100000 FMFlg1=         800
         NFxFlg=           0 DoJE=F BraDBF=F KetDBF=F FulRan=T
         wScrn=  0.000000 ICntrl=  10100127 IOpCl=  0 I1Cent=           0 NGrid=           0
         NMat0=    1 NMatS0=      1 NMatT0=    0 NMatD0=    1 NMtDS0=    0 NMtDT0=    0
 Petite list used in FoFCou.
 Leave Link  703 at Sun Mar  6 19:25:27 2022, MaxMem= 16106127360 cpu:             449.2 elap:              16.1
 (Enter /sw/contrib/gaussian/g16/B01/g16/l716.exe)
 Dipole        = 3.51079828D-02-4.35563562D-01 0.00000000D+00
 Polarizability= 3.09433470D+01 4.07837405D+00 2.98829064D+01
                 0.00000000D+00 0.00000000D+00 1.76450681D+01
 Full mass-weighted force constant matrix:
 Low frequencies ---  -28.3762   -0.0012   -0.0011   -0.0006   20.9317   52.8376
 Low frequencies ---  333.7238  396.5412  524.4747
 Diagonal vibrational polarizability:
        7.3167670       9.9651303      18.2880216
 Harmonic frequencies (cm**-1), IR intensities (KM/Mole), Raman scattering
 activities (A**4/AMU), depolarization ratios for plane and unpolarized
 incident light, reduced masses (AMU), force constants (mDyne/A),
 and normal coordinates:
                      1                      2                      3
                     A"                     A'                     A"
 Frequencies --    332.8497               396.5366               524.3557
 Red. masses --      1.5444                 6.9386                 2.9719
 Frc consts  --      0.1008                 0.6428                 0.4814
 IR Inten    --     65.0630                 7.6147                25.3775
  Atom  AN      X      Y      Z        X      Y      Z        X      Y      Z
     1   1     0.00   0.00   0.98    -0.73  -0.25   0.00     0.00   0.00   0.93
     2   8     0.00   0.00  -0.11    -0.32  -0.31  -0.00     0.00   0.00   0.06
     3   8     0.00  -0.00   0.11    -0.06   0.09   0.00    -0.00  -0.00  -0.19
     4   7    -0.00  -0.00  -0.11     0.05   0.09  -0.00    -0.00   0.00   0.27
     5   8    -0.00  -0.00   0.03     0.38   0.16  -0.00    -0.00   0.00  -0.17
                      4                      5                      6
                     A'                     A'                     A'
 Frequencies --    709.8539               833.4918               968.7509
 Red. masses --     13.2515                11.7162                 9.7538
 Frc consts  --      3.9342                 4.7956                 5.3932
 IR Inten    --    218.2709                30.2266                12.7519
  Atom  AN      X      Y      Z        X      Y      Z        X      Y      Z
     1   1    -0.37  -0.00   0.00     0.48  -0.17  -0.00    -0.63  -0.02  -0.00
     2   8    -0.00  -0.07   0.00     0.51  -0.20  -0.00     0.20  -0.17   0.00
     3   8     0.37   0.58  -0.00    -0.37  -0.02   0.00    -0.36   0.40  -0.00
     4   7    -0.41  -0.46   0.00    -0.42  -0.06  -0.00     0.38   0.05  -0.00
     5   8     0.01  -0.10  -0.00     0.20   0.28   0.00    -0.13  -0.28   0.00
                      7                      8                      9
                     A'                     A'                     A'
 Frequencies --   1417.2298              1566.4559              3496.1616
 Red. masses --      1.2776                 7.6238                 1.0640
 Frc consts  --      1.5119                11.0220                 7.6624
 IR Inten    --     78.5934               149.6706                41.1003
  Atom  AN      X      Y      Z        X      Y      Z        X      Y      Z
     1   1     0.97  -0.19  -0.00    -0.71   0.15   0.00     0.14   0.99   0.00
     2   8    -0.07  -0.05  -0.00     0.02   0.02   0.00    -0.01  -0.06  -0.00
     3   8    -0.02   0.06   0.00    -0.04  -0.06  -0.00     0.00  -0.00   0.00
     4   7     0.06  -0.04  -0.00     0.27  -0.44   0.00    -0.00   0.00   0.00
     5   8    -0.02   0.04   0.00    -0.17   0.42  -0.00     0.00  -0.00  -0.00

 -------------------
 - Thermochemistry -
 -------------------
 Temperature   298.150 Kelvin.  Pressure   1.00000 Atm.
 Atom     1 has atomic number  1 and mass   1.00783
 Atom     2 has atomic number  8 and mass  15.99491
 Atom     3 has atomic number  8 and mass  15.99491
 Atom     4 has atomic number  7 and mass  14.00307
 Atom     5 has atomic number  8 and mass  15.99491
 Molecular mass:    62.99564 amu.
 Principal axes and moments of inertia in atomic units:
                           1         2         3
     Eigenvalues --    84.69643 222.67680 307.37323
           X            0.79735  -0.60352   0.00000
           Y            0.60352   0.79735   0.00000
           Z            0.00000   0.00000   1.00000
 This molecule is an asymmetric top.
 Rotational symmetry number  1.
 Rotational temperatures (Kelvin)      1.02264     0.38897     0.28179
 Rotational constants (GHZ):          21.30835     8.10476     5.87150
 Zero-point vibrational energy      61282.8 (Joules/Mol)
                                   14.64694 (Kcal/Mol)
 Warning -- explicit consideration of   3 degrees of freedom as
           vibrations may cause significant error
 Vibrational temperatures:    478.90   570.53   754.43  1021.32  1199.21
          (Kelvin)           1393.82  2039.08  2253.78  5030.20
 
 Zero-point correction=                           0.023341 (Hartree/Particle)
 Thermal correction to Energy=                    0.027304
 Thermal correction to Enthalpy=                  0.028248
 Thermal correction to Gibbs Free Energy=        -0.002657
 Sum of electronic and zero-point Energies=           -280.431808
 Sum of electronic and thermal Energies=              -280.427845
 Sum of electronic and thermal Enthalpies=            -280.426901
 Sum of electronic and thermal Free Energies=         -280.457806
 
                     E (Thermal)             CV                S
                      KCal/Mol        Cal/Mol-Kelvin    Cal/Mol-Kelvin
 Total                   17.134             12.224             65.046
 Electronic               0.000              0.000              0.000
 Translational            0.889              2.981             38.341
 Rotational               0.889              2.981             23.276
 Vibrational             15.356              6.263              3.430
 Vibration     1          0.715              1.610              1.246
 Vibration     2          0.763              1.478              0.975
 Vibration     3          0.879              1.196              0.600
                       Q            Log10(Q)             Ln(Q)
 Total Bot       0.166797D+02          1.222189          2.814194
 Total V=0       0.908811D+12         11.958473         27.535403
 Vib (Bot)       0.311402D-10        -10.506679        -24.192523
 Vib (Bot)    1  0.560366D+00         -0.251528         -0.579165
 Vib (Bot)    2  0.450619D+00         -0.346191         -0.797134
 Vib (Bot)    3  0.306601D+00         -0.513426         -1.182208
 Vib (V=0)       0.169670D+01          0.229605          0.528685
 Vib (V=0)    1  0.125101D+01          0.097259          0.223948
 Vib (V=0)    2  0.117310D+01          0.069333          0.159646
 Vib (V=0)    3  0.108652D+01          0.036037          0.082979
 Electronic      0.100000D+01          0.000000          0.000000
 Translational   0.196526D+08          7.293420         16.793719
 Rotational      0.272552D+05          4.435449         10.212998
 
                                                                title
                                                             IR Spectrum
 
     3                                                                      1    1                                                   
     4                                                                      5    4               9    8    7     5    3 3            
     9                                                                      6    1               6    3    1     2    9 3            
     6                                                                      6    7               9    3    0     4    7 3            
 
     X                                                                      X    X               X    X    X     X    X X            
     X                                                                      X    X                    X    X     X      X            
     X                                                                      X    X                    X    X            X            
     X                                                                      X    X                         X            X            
                                                                            X    X                         X            X            
                                                                            X    X                         X            X            
                                                                            X    X                         X                         
                                                                            X                              X                         
                                                                            X                              X                         
                                                                            X                              X                         
                                                                            X                              X                         
                                                                            X                              X                         
                                                                            X                              X                         
                                                                            X                              X                         
                                                                                                           X                         
                                                                                                           X                         
                                                                                                           X                         
                                                                                                           X                         
                                                                                                           X                         
                                                                                                           X                         
 
 ***** Axes restored to original set *****
 -------------------------------------------------------------------
 Center     Atomic                   Forces (Hartrees/Bohr)
 Number     Number              X              Y              Z
 -------------------------------------------------------------------
      1        1           0.003564908   -0.000000000    0.001166140
      2        8          -0.002860965   -0.000000000    0.001720324
      3        8          -0.000981841   -0.000000000   -0.002577152
      4        7          -0.000032407   -0.000000000   -0.000450868
      5        8           0.000310306   -0.000000000    0.000141556
 -------------------------------------------------------------------
 Cartesian Forces:  Max     0.003564908 RMS     0.001486371
 -----------------------------------------------------------------------------------------------
                       Internal Coordinate Forces (Hartree/Bohr or radian)
  Cent   Atom   N1       Length/X         N2         Alpha/Y        N3         Beta/Z          J
 -----------------------------------------------------------------------------------------------
      1  H 
      2  O        1  -0.001166(     1)
      3  O        2  -0.001297(     2)      1  -0.006638(     5)
      4  N        3   0.000413(     3)      2   0.000568(     6)      1   0.000000(     8)     0
      5  O        4  -0.000279(     4)      3   0.000443(     7)      2   0.000000(     9)     0
 -----------------------------------------------------------------------------------------------
 Internal  Forces:  Max     0.006638364 RMS     0.002306467
 Force constants in Cartesian coordinates: 
                1             2             3             4             5 
      1  0.693697D-01
      2  0.000000D+00  0.589881D-02
      3  0.212478D-01  0.000000D+00  0.439170D+00
      4 -0.540821D-01  0.000000D+00 -0.416055D-02  0.283296D+00
      5  0.000000D+00 -0.103466D-02  0.000000D+00  0.000000D+00  0.974240D-02
      6  0.334959D-01  0.000000D+00 -0.422720D+00 -0.112486D-01  0.000000D+00
      7 -0.215694D-01  0.000000D+00 -0.144194D-01 -0.168343D+00  0.000000D+00
      8  0.000000D+00 -0.554870D-02  0.000000D+00  0.000000D+00 -0.177963D-01
      9 -0.435497D-01  0.000000D+00 -0.182153D-01  0.976329D-02  0.000000D+00
     10 -0.375649D-02  0.000000D+00  0.555507D-02 -0.856956D-01  0.000000D+00
     11  0.000000D+00  0.789180D-02  0.000000D+00  0.000000D+00  0.196925D-01
     12 -0.186253D-01  0.000000D+00  0.101310D-01  0.928377D-02  0.000000D+00
     13  0.100383D-01  0.000000D+00 -0.822293D-02  0.248243D-01  0.000000D+00
     14  0.000000D+00 -0.720726D-02  0.000000D+00  0.000000D+00 -0.106039D-01
     15  0.743133D-02  0.000000D+00 -0.836643D-02 -0.363797D-02  0.000000D+00
                6             7             8             9            10 
      6  0.524593D+00
      7 -0.915504D-01  0.297097D+00
      8  0.000000D+00  0.000000D+00  0.408463D-01
      9 -0.100086D+00  0.787032D-01  0.000000D+00  0.318686D+00
     10  0.391542D-01 -0.143461D+00  0.000000D+00 -0.387092D-01  0.540018D+00
     11  0.000000D+00  0.000000D+00 -0.474256D-01  0.000000D+00  0.000000D+00
     12 -0.820275D-02  0.121747D-01  0.000000D+00 -0.253817D-01  0.245339D+00
     13  0.301489D-01  0.362763D-01  0.000000D+00 -0.620758D-02 -0.307105D+00
     14  0.000000D+00  0.000000D+00  0.299242D-01  0.000000D+00  0.000000D+00
     15  0.641494D-02  0.150919D-01  0.000000D+00 -0.175003D+00 -0.251340D+00
               11            12            13            14            15 
     11  0.573541D-01
     12  0.000000D+00  0.461172D+00
     13  0.000000D+00 -0.248173D+00  0.235966D+00
     14 -0.375128D-01  0.000000D+00  0.000000D+00  0.253998D-01
     15  0.000000D+00 -0.437719D+00  0.232454D+00  0.000000D+00  0.614673D+00
 Force constants in internal coordinates: 
                1             2             3             4             5 
      1  0.439170D+00
      2  0.201738D-01  0.255110D+00
      3  0.298221D-02  0.182914D-01  0.207985D+00
      4 -0.113746D-01  0.223990D-01  0.148323D+00  0.720709D+00
      5  0.431303D-01  0.493363D-01 -0.237702D-01  0.213857D-01  0.238359D+00
      6  0.949710D-02  0.202256D-01  0.931877D-01  0.851301D-02 -0.140952D-01
      7  0.647842D-02 -0.716541D-01  0.122009D+00  0.115707D+00 -0.206369D-01
      8  0.000000D+00  0.000000D+00  0.000000D+00  0.000000D+00  0.000000D+00
      9  0.000000D+00  0.000000D+00  0.000000D+00  0.000000D+00  0.000000D+00
                6             7             8             9 
      6  0.512959D+00
      7  0.616363D-01  0.661728D+00
      8  0.000000D+00  0.000000D+00  0.188371D-01
      9  0.000000D+00  0.000000D+00  0.269877D-01  0.106808D+00
 Leave Link  716 at Sun Mar  6 19:25:27 2022, MaxMem= 16106127360 cpu:               0.8 elap:               0.1
 (Enter /sw/contrib/gaussian/g16/B01/g16/l103.exe)

 GradGradGradGradGradGradGradGradGradGradGradGradGradGradGradGradGradGrad
 Berny optimization.
 Search for a local minimum.
 Step number   1 out of a maximum of    2
 All quantities printed in internal units (Hartrees-Bohrs-Radians)
 Second derivative matrix not updated -- analytic derivatives used.
 The second derivative matrix:
                          r1        r2        r3        r4        a1
           r1           0.43917
           r2           0.02017   0.25511
           r3           0.00298   0.01829   0.20799
           r4          -0.01137   0.02240   0.14832   0.72071
           a1           0.04313   0.04934  -0.02377   0.02139   0.23836
           a2           0.00950   0.02023   0.09319   0.00851  -0.01410
           a3           0.00648  -0.07165   0.12201   0.11571  -0.02064
           d1           0.00000   0.00000   0.00000   0.00000   0.00000
           d2           0.00000   0.00000   0.00000   0.00000   0.00000
                          a2        a3        d1        d2
           a2           0.51296
           a3           0.06164   0.66173
           d1           0.00000   0.00000   0.01884
           d2           0.00000   0.00000   0.02699   0.10681
 ITU=  0
     Eigenvalues ---    0.01122   0.11443   0.12384   0.20190   0.26579
     Eigenvalues ---    0.45012   0.50697   0.60665   0.88075
 Angle between quadratic step and forces=  18.50 degrees.
 Linear search not attempted -- first point.
 Variable       Old X    -DE/DX   Delta X   Delta X   Delta X     New X
                                 (Linear)    (Quad)   (Total)
    r1        1.86209  -0.00117   0.00000   0.00012   0.00012   1.86221
    r2        2.69614  -0.00130   0.00000   0.00040   0.00040   2.69654
    r3        2.60992   0.00041   0.00000  -0.00224  -0.00224   2.60768
    r4        2.25782  -0.00028   0.00000   0.00089   0.00089   2.25871
    a1        1.78341  -0.00664   0.00000  -0.02821  -0.02821   1.75520
    a2        1.97463   0.00057   0.00000   0.00070   0.00070   1.97533
    a3        1.99550   0.00044   0.00000   0.00002   0.00002   1.99553
    d1        0.00000   0.00000   0.00000   0.00000   0.00000   0.00000
    d2        0.00000   0.00000   0.00000   0.00000   0.00000   0.00000
         Item               Value     Threshold  Converged?
 Maximum Force            0.006638     0.000450     NO 
 RMS     Force            0.002306     0.000300     NO 
 Maximum Displacement     0.028213     0.001800     NO 
 RMS     Displacement     0.009442     0.001200     NO 
 Predicted change in Energy=-9.293681D-05
                       ----------------------------
                       ! Non-Optimized Parameters !
                       ! (Angstroms and Degrees)  !
 ----------------------                            ----------------------
 !      Name          Value   Derivative information (Atomic Units)     !
 ------------------------------------------------------------------------
 !       r1          0.9854   -DE/DX =   -0.0012                        !
 !       r2          1.4269   -DE/DX =   -0.0013                        !
 !       r3          1.3799   -DE/DX =    0.0004                        !
 !       r4          1.1953   -DE/DX =   -0.0003                        !
 !       a1        100.5653   -DE/DX =   -0.0066                        !
 !       a2        113.1781   -DE/DX =    0.0006                        !
 !       a3        114.3352   -DE/DX =    0.0004                        !
 !       d1          0.0      -DE/DX =    0.0                           !
 !       d2          0.0      -DE/DX =    0.0                           !
 ------------------------------------------------------------------------
 GradGradGradGradGradGradGradGradGradGradGradGradGradGradGradGradGradGrad

 Leave Link  103 at Sun Mar  6 19:25:27 2022, MaxMem= 16106127360 cpu:               0.5 elap:               0.0
 (Enter /sw/contrib/gaussian/g16/B01/g16/l9999.exe)

 ----------------------------------------------------------------------

 Electric dipole moment (input orientation):
 (Debye = 10**-18 statcoulomb cm , SI units = C m)
                  (au)            (Debye)         (10**-30 SI)
   Tot        0.436976D+00      0.111068D+01      0.370484D+01
   x         -0.114702D+00     -0.291543D+00     -0.972483D+00
   y          0.000000D+00      0.000000D+00      0.000000D+00
   z         -0.421654D+00     -0.107174D+01     -0.357493D+01

 Dipole polarizability, Alpha (input orientation).
 (esu units = cm**3 , SI units = C**2 m**2 J**-1)
 Alpha(0;0):
               (au)            (10**-24 esu)      (10**-40 SI)
   iso        0.261571D+02      0.387608D+01      0.431272D+01
   aniso      0.146207D+02      0.216657D+01      0.241063D+01
   xx         0.294313D+02      0.436127D+01      0.485256D+01
   yx         0.000000D+00      0.000000D+00      0.000000D+00
   yy         0.176451D+02      0.261473D+01      0.290928D+01
   zx        -0.399378D+01     -0.591817D+00     -0.658485D+00
   zy         0.000000D+00      0.000000D+00      0.000000D+00
   zz         0.313950D+02      0.465225D+01      0.517633D+01

 ----------------------------------------------------------------------

 Dipole orientation:
     1          0.00000000         -0.00000000         -0.00000000
     8         -0.48878026         -0.00000000         -1.79679726
     8          1.90490256         -0.00000000         -3.03754773
     7          3.91986202         -0.00000000         -1.37875429
     8          3.33059988          0.00000000          0.80081784

 Electric dipole moment (dipole orientation):
 (Debye = 10**-18 statcoulomb cm , SI units = C m)
                  (au)            (Debye)         (10**-30 SI)
   Tot        0.436976D+00      0.111068D+01      0.370484D+01
   x          0.000000D+00      0.000000D+00      0.000000D+00
   y          0.000000D+00      0.000000D+00      0.000000D+00
   z          0.436976D+00      0.111068D+01      0.370484D+01

 Dipole polarizability, Alpha (dipole orientation).
 (esu units = cm**3 , SI units = C**2 m**2 J**-1)
 Alpha(0;0):
               (au)            (10**-24 esu)      (10**-40 SI)
   iso        0.261571D+02      0.387608D+01      0.431272D+01
   aniso      0.146207D+02      0.216657D+01      0.241063D+01
   xx         0.315897D+02      0.468111D+01      0.520844D+01
   yx         0.000000D+00      0.000000D+00      0.000000D+00
   yy         0.176451D+02      0.261473D+01      0.290928D+01
   zx         0.394080D+01      0.583966D+00      0.649750D+00
   zy         0.000000D+00      0.000000D+00      0.000000D+00
   zz         0.292365D+02      0.433241D+01      0.482045D+01

 ----------------------------------------------------------------------
 1\1\GINC-N2228\Freq\RMP2-FC\Aug-CC-pVTZ\H1N1O3\CGAVINH\06-Mar-2022\1\\
 #p freq mp2/aug-cc-pvtz density=current\\title\\0,1\H\O,1,r1\O,2,r2,1,
 a1\N,3,r3,2,a2,1,d1,0\O,4,r4,3,a3,2,d2,0\\r1=0.98537664\r2=1.42673666\
 r3=1.38110764\r4=1.19478846\a1=102.18182908\a2=113.13777052\a3=114.333
 92022\d1=0.\d2=0.\\Version=ES64L-G16RevB.01\State=1-A'\HF=-279.5066498
 \MP2=-280.4551493\RMSD=4.366e-09\RMSF=1.486e-03\ZeroPoint=0.0233414\Th
 ermal=0.0273043\Dipole=-0.1147018,0.,-0.4216535\DipoleDeriv=0.3131795,
 0.,0.0436029,0.,0.301696,0.,-0.0109542,0.,0.1969267,-0.5301445,0.,0.26
 68662,0.,-0.2578175,0.,-0.1257951,0.,-0.1180026,-0.0207218,0.,0.364326
 1,0.,-0.0091431,0.,0.470619,0.,-0.8989584,0.2230769,0.,-0.1817568,0.,0
 .0120324,0.,-0.7102378,0.,1.692996,0.01461,0.,-0.4930384,0.,-0.0467678
 ,0.,0.3763681,0.,-0.8729617\Polar=29.4312892,0.,17.6450681,-3.9937781,
 0.,31.3949643\Quadrupole=0.1235738,0.5885601,-0.7121339,0.,1.4672936,0
 .\PG=CS [SG(H1N1O3)]\NImag=0\\0.06936968,0.,0.00589881,0.02124780,0.,0
 .43917016,-0.05408210,0.,-0.00416055,0.28329639,0.,-0.00103466,0.,0.,0
 .00974240,0.03349589,0.,-0.42271953,-0.01124855,0.,0.52459297,-0.02156
 940,0.,-0.01441940,-0.16834292,0.,-0.09155038,0.29709679,0.,-0.0055487
 0,0.,0.,-0.01779626,0.,0.,0.04084631,-0.04354973,0.,-0.01821525,0.0097
 6329,0.,-0.10008563,0.07870318,0.,0.31868576,-0.00375649,0.,0.00555507
 ,-0.08569564,0.,0.03915418,-0.14346073,0.,-0.03870917,0.54001797,0.,0.
 00789180,0.,0.,0.01969247,0.,0.,-0.04742558,0.,0.,0.05735412,-0.018625
 29,0.,0.01013104,0.00928377,0.,-0.00820275,0.01217472,0.,-0.02538175,0
 .24533943,0.,0.46117211,0.01003830,0.,-0.00822293,0.02482428,0.,0.0301
 4888,0.03627626,0.,-0.00620758,-0.30710510,0.,-0.24817263,0.23596627,0
 .,-0.00720726,0.,0.,-0.01060394,0.,0.,0.02992424,0.,0.,-0.03751281,0.,
 0.,0.02539977,0.00743133,0.,-0.00836643,-0.00363797,0.,0.00641494,0.01
 509188,0.,-0.17500313,-0.25133951,0.,-0.43771865,0.23245426,0.,0.61467
 327\\-0.00356491,0.,-0.00116614,0.00286097,0.,-0.00172032,0.00098184,0
 .,0.00257715,0.00003241,0.,0.00045087,-0.00031031,0.,-0.00014156\\\@


 The number of Unix installations has grown to 10,
  with more expected.
                  -- The Unix Programmer's Manual,
                     2nd Edition, June, 1972.
 Job cpu time:       0 days  2 hours  0 minutes  5.5 seconds.
 Elapsed time:       0 days  0 hours  4 minutes 20.4 seconds.
 File lengths (MBytes):  RWF=   7239 Int=      0 D2E=      0 Chk=      8 Scr=      1
 Normal termination of Gaussian 16 at Sun Mar  6 19:25:28 2022.
