title                                                                   
Freq      RMP2-FC                                                     Aug-CC-pVTZ         
Number of atoms                            I                5
Info1-9                                    I   N=           9
          33          24           0           0           0         100
           6           2           1
Full Title                                 C   N=           1
title       
Route                                      C   N=           4
#p freq mp2/aug-cc-pvtz density=current         
Charge                                     I                0
Multiplicity                               I                1
Number of electrons                        I               32
Number of alpha electrons                  I               16
Number of beta electrons                   I               16
Number of basis functions                  I              207
Number of independent functions            I              207
Number of point charges in /Mol/           I                0
Number of translation vectors              I                0
Atomic numbers                             I   N=           5
           1           8           8           7           8
Nuclear charges                            R   N=           5
  1.00000000E+00  8.00000000E+00  8.00000000E+00  7.00000000E+00  8.00000000E+00
Current cartesian coordinates              R   N=          15
  2.10261032E+00 -1.13790680E+00  0.00000000E+00  2.49670990E+00  6.82003101E-01
  0.00000000E+00 -1.78164675E-16  1.73430284E+00  0.00000000E+00 -1.87716133E+00
 -7.89601337E-02  0.00000000E+00 -1.11702002E+00 -2.20497747E+00  0.00000000E+00
Number of symbols in /Mol/                 I                0
Force Field                                I                0
Atom Types                                 C   N=           5
                                                            
Int Atom Types                             I   N=           5
           0           0           0           0           0
MM charges                                 R   N=           5
  0.00000000E+00  0.00000000E+00  0.00000000E+00  0.00000000E+00  0.00000000E+00
Integer atomic weights                     I   N=           5
           1          16          16          14          16
Real atomic weights                        R   N=           5
  1.00782504E+00  1.59949146E+01  1.59949146E+01  1.40030740E+01  1.59949146E+01
Atom fragment info                         I   N=           5
           0           0           0           0           0
Atom residue num                           I   N=           5
           0           0           0           0           0
Nuclear spins                              I   N=           5
           1           0           0           2           0
Nuclear ZEff                               R   N=           5
 -1.00000000E+00 -5.60000000E+00 -5.60000000E+00 -4.55000000E+00 -5.60000000E+00
Nuclear ZNuc                               R   N=           5
  1.00000000E+00  8.00000000E+00  8.00000000E+00  7.00000000E+00  8.00000000E+00
Nuclear QMom                               R   N=           5
  0.00000000E+00  0.00000000E+00  0.00000000E+00  2.04400000E+00  0.00000000E+00
Nuclear GFac                               R   N=           5
  2.79284600E+00  0.00000000E+00  0.00000000E+00  4.03761000E-01  0.00000000E+00
MicOpt                                     I   N=           5
          -1          -1          -1          -1          -1
Number of residues                         I                0
Number of secondary structures             I                0
SymInf integers                            I   N=          26
           1           2           1           1           1           1
           1          -1           0           0           0           0
           0           0           0           0           0           0
           0           0           0           0           0           0
           0           0
RotTr to input orientation                 R   N=          12
 -9.77346943E-01  0.00000000E+00  2.11643455E-01  2.11643455E-01  0.00000000E+00
  9.77346943E-01  0.00000000E+00  1.00000000E+00  0.00000000E+00  2.29581030E+00
  0.00000000E+00  6.67126023E-01
Number of contracted shells                I               65
Number of primitive shells                 I              119
Pure/Cartesian d shells                    I                0
Pure/Cartesian f shells                    I                0
Highest angular momentum                   I                3
Largest degree of contraction              I                7
Shell types                                I   N=          65
           0           0           0           0           1           1
           1          -2          -2           0           0           0
           0           0           1           1           1           1
          -2          -2          -2          -3          -3           0
           0           0           0           0           1           1
           1           1          -2          -2          -2          -3
          -3           0           0           0           0           0
           1           1           1           1          -2          -2
          -2          -3          -3           0           0           0
           0           0           1           1           1           1
          -2          -2          -2          -3          -3
Number of primitives per shell             I   N=          65
           3           1           1           1           1           1
           1           1           1           7           6           1
           1           1           3           1           1           1
           1           1           1           1           1           7
           6           1           1           1           3           1
           1           1           1           1           1           1
           1           7           6           1           1           1
           3           1           1           1           1           1
           1           1           1           7           6           1
           1           1           3           1           1           1
           1           1           1           1           1
Shell to atom map                          I   N=          65
           1           1           1           1           1           1
           1           1           1           2           2           2
           2           2           2           2           2           2
           2           2           2           2           2           3
           3           3           3           3           3           3
           3           3           3           3           3           3
           3           4           4           4           4           4
           4           4           4           4           4           4
           4           4           4           5           5           5
           5           5           5           5           5           5
           5           5           5           5           5
Primitive exponents                        R   N=         119
  3.38700000E+01  5.09500000E+00  1.15900000E+00  3.25800000E-01  1.02700000E-01
  2.52600000E-02  1.40700000E+00  3.88000000E-01  1.02000000E-01  1.05700000E+00
  2.47000000E-01  1.53300000E+04  2.29900000E+03  5.22400000E+02  1.47300000E+02
  4.75500000E+01  1.67600000E+01  6.20700000E+00  5.22400000E+02  1.47300000E+02
  4.75500000E+01  1.67600000E+01  6.20700000E+00  6.88200000E-01  1.75200000E+00
  2.38400000E-01  7.37600000E-02  3.44600000E+01  7.74900000E+00  2.28000000E+00
  7.15600000E-01  2.14000000E-01  5.97400000E-02  2.31400000E+00  6.45000000E-01
  2.14000000E-01  1.42800000E+00  5.00000000E-01  1.53300000E+04  2.29900000E+03
  5.22400000E+02  1.47300000E+02  4.75500000E+01  1.67600000E+01  6.20700000E+00
  5.22400000E+02  1.47300000E+02  4.75500000E+01  1.67600000E+01  6.20700000E+00
  6.88200000E-01  1.75200000E+00  2.38400000E-01  7.37600000E-02  3.44600000E+01
  7.74900000E+00  2.28000000E+00  7.15600000E-01  2.14000000E-01  5.97400000E-02
  2.31400000E+00  6.45000000E-01  2.14000000E-01  1.42800000E+00  5.00000000E-01
  1.14200000E+04  1.71200000E+03  3.89300000E+02  1.10000000E+02  3.55700000E+01
  1.25400000E+01  4.64400000E+00  3.89300000E+02  1.10000000E+02  3.55700000E+01
  1.25400000E+01  4.64400000E+00  5.11800000E-01  1.29300000E+00  1.78700000E-01
  5.76000000E-02  2.66300000E+01  5.94800000E+00  1.74200000E+00  5.55000000E-01
  1.72500000E-01  4.91000000E-02  1.65400000E+00  4.69000000E-01  1.51000000E-01
  1.09300000E+00  3.64000000E-01  1.53300000E+04  2.29900000E+03  5.22400000E+02
  1.47300000E+02  4.75500000E+01  1.67600000E+01  6.20700000E+00  5.22400000E+02
  1.47300000E+02  4.75500000E+01  1.67600000E+01  6.20700000E+00  6.88200000E-01
  1.75200000E+00  2.38400000E-01  7.37600000E-02  3.44600000E+01  7.74900000E+00
  2.28000000E+00  7.15600000E-01  2.14000000E-01  5.97400000E-02  2.31400000E+00
  6.45000000E-01  2.14000000E-01  1.42800000E+00  5.00000000E-01
Contraction coefficients                   R   N=         119
  2.54948632E-02  1.90362766E-01  8.52162022E-01  1.00000000E+00  1.00000000E+00
  1.00000000E+00  1.00000000E+00  1.00000000E+00  1.00000000E+00  1.00000000E+00
  1.00000000E+00  5.19808943E-04  4.02025621E-03  2.07128267E-02  8.10105536E-02
  2.35962985E-01  4.42653446E-01  3.57064423E-01 -4.42115008E-05 -1.22591041E-03
 -1.05517725E-02 -6.74452633E-02 -1.71198607E-01  1.07329856E+00  1.00000000E+00
  1.00000000E+00  1.00000000E+00  4.11634896E-02  2.57762836E-01  8.02419274E-01
  1.00000000E+00  1.00000000E+00  1.00000000E+00  1.00000000E+00  1.00000000E+00
  1.00000000E+00  1.00000000E+00  1.00000000E+00  5.19808943E-04  4.02025621E-03
  2.07128267E-02  8.10105536E-02  2.35962985E-01  4.42653446E-01  3.57064423E-01
 -4.42115008E-05 -1.22591041E-03 -1.05517725E-02 -6.74452633E-02 -1.71198607E-01
  1.07329856E+00  1.00000000E+00  1.00000000E+00  1.00000000E+00  4.11634896E-02
  2.57762836E-01  8.02419274E-01  1.00000000E+00  1.00000000E+00  1.00000000E+00
  1.00000000E+00  1.00000000E+00  1.00000000E+00  1.00000000E+00  1.00000000E+00
  5.34563860E-04  4.13435660E-03  2.12335358E-02  8.25006224E-02  2.38138871E-01
  4.42551547E-01  3.53757422E-01 -4.89867350E-05 -1.19527323E-03 -1.03490714E-02
 -6.48680190E-02 -1.71552477E-01  1.07289568E+00  1.00000000E+00  1.00000000E+00
  1.00000000E+00  3.98072123E-02  2.49002660E-01  8.10479727E-01  1.00000000E+00
  1.00000000E+00  1.00000000E+00  1.00000000E+00  1.00000000E+00  1.00000000E+00
  1.00000000E+00  1.00000000E+00  5.19808943E-04  4.02025621E-03  2.07128267E-02
  8.10105536E-02  2.35962985E-01  4.42653446E-01  3.57064423E-01 -4.42115008E-05
 -1.22591041E-03 -1.05517725E-02 -6.74452633E-02 -1.71198607E-01  1.07329856E+00
  1.00000000E+00  1.00000000E+00  1.00000000E+00  4.11634896E-02  2.57762836E-01
  8.02419274E-01  1.00000000E+00  1.00000000E+00  1.00000000E+00  1.00000000E+00
  1.00000000E+00  1.00000000E+00  1.00000000E+00  1.00000000E+00
Coordinates of each shell                  R   N=         195
  2.10261032E+00 -1.13790680E+00  0.00000000E+00  2.10261032E+00 -1.13790680E+00
  0.00000000E+00  2.10261032E+00 -1.13790680E+00  0.00000000E+00  2.10261032E+00
 -1.13790680E+00  0.00000000E+00  2.10261032E+00 -1.13790680E+00  0.00000000E+00
  2.10261032E+00 -1.13790680E+00  0.00000000E+00  2.10261032E+00 -1.13790680E+00
  0.00000000E+00  2.10261032E+00 -1.13790680E+00  0.00000000E+00  2.10261032E+00
 -1.13790680E+00  0.00000000E+00  2.49670990E+00  6.82003101E-01  0.00000000E+00
  2.49670990E+00  6.82003101E-01  0.00000000E+00  2.49670990E+00  6.82003101E-01
  0.00000000E+00  2.49670990E+00  6.82003101E-01  0.00000000E+00  2.49670990E+00
  6.82003101E-01  0.00000000E+00  2.49670990E+00  6.82003101E-01  0.00000000E+00
  2.49670990E+00  6.82003101E-01  0.00000000E+00  2.49670990E+00  6.82003101E-01
  0.00000000E+00  2.49670990E+00  6.82003101E-01  0.00000000E+00  2.49670990E+00
  6.82003101E-01  0.00000000E+00  2.49670990E+00  6.82003101E-01  0.00000000E+00
  2.49670990E+00  6.82003101E-01  0.00000000E+00  2.49670990E+00  6.82003101E-01
  0.00000000E+00  2.49670990E+00  6.82003101E-01  0.00000000E+00 -2.62209056E-17
  1.73430284E+00  0.00000000E+00 -2.62209056E-17  1.73430284E+00  0.00000000E+00
 -2.62209056E-17  1.73430284E+00  0.00000000E+00 -2.62209056E-17  1.73430284E+00
  0.00000000E+00 -2.62209056E-17  1.73430284E+00  0.00000000E+00 -2.62209056E-17
  1.73430284E+00  0.00000000E+00 -2.62209056E-17  1.73430284E+00  0.00000000E+00
 -2.62209056E-17  1.73430284E+00  0.00000000E+00 -2.62209056E-17  1.73430284E+00
  0.00000000E+00 -2.62209056E-17  1.73430284E+00  0.00000000E+00 -2.62209056E-17
  1.73430284E+00  0.00000000E+00 -2.62209056E-17  1.73430284E+00  0.00000000E+00
 -2.62209056E-17  1.73430284E+00  0.00000000E+00 -2.62209056E-17  1.73430284E+00
  0.00000000E+00 -1.87716133E+00 -7.89601337E-02  0.00000000E+00 -1.87716133E+00
 -7.89601337E-02  0.00000000E+00 -1.87716133E+00 -7.89601337E-02  0.00000000E+00
 -1.87716133E+00 -7.89601337E-02  0.00000000E+00 -1.87716133E+00 -7.89601337E-02
  0.00000000E+00 -1.87716133E+00 -7.89601337E-02  0.00000000E+00 -1.87716133E+00
 -7.89601337E-02  0.00000000E+00 -1.87716133E+00 -7.89601337E-02  0.00000000E+00
 -1.87716133E+00 -7.89601337E-02  0.00000000E+00 -1.87716133E+00 -7.89601337E-02
  0.00000000E+00 -1.87716133E+00 -7.89601337E-02  0.00000000E+00 -1.87716133E+00
 -7.89601337E-02  0.00000000E+00 -1.87716133E+00 -7.89601337E-02  0.00000000E+00
 -1.87716133E+00 -7.89601337E-02  0.00000000E+00 -1.11702002E+00 -2.20497747E+00
  0.00000000E+00 -1.11702002E+00 -2.20497747E+00  0.00000000E+00 -1.11702002E+00
 -2.20497747E+00  0.00000000E+00 -1.11702002E+00 -2.20497747E+00  0.00000000E+00
 -1.11702002E+00 -2.20497747E+00  0.00000000E+00 -1.11702002E+00 -2.20497747E+00
  0.00000000E+00 -1.11702002E+00 -2.20497747E+00  0.00000000E+00 -1.11702002E+00
 -2.20497747E+00  0.00000000E+00 -1.11702002E+00 -2.20497747E+00  0.00000000E+00
 -1.11702002E+00 -2.20497747E+00  0.00000000E+00 -1.11702002E+00 -2.20497747E+00
  0.00000000E+00 -1.11702002E+00 -2.20497747E+00  0.00000000E+00 -1.11702002E+00
 -2.20497747E+00  0.00000000E+00 -1.11702002E+00 -2.20497747E+00  0.00000000E+00
Num ILSW                                   I              100
ILSW                                       I   N=         100
           0           0           0           0           2           0
           0           0           0           0           0          -1
           5           0           0           0           2           0
           0           0           0           0           1           0
           1           0           0           0           0           0
           0           0      100000           0          -1           0
           0           0           0           0           0           0
           0           0           0           1           1           0
           0 -2000000000           1           0           0           0
           0           0           4          52           0           0
           0           0           0           0           0           0
           0           0           0           5           4           1
           0           0           0           0           0           0
           0           0           0           0           0           0
           0           0           0           0           0           0
           0           0           0           0           0           0
           0           0           0           0
Num RLSW                                   I               52
RLSW                                       R   N=          52
  1.00000000E+00  1.00000000E+00  1.00000000E+00  1.00000000E+00  1.00000000E+00
  0.00000000E+00  0.00000000E+00  1.00000000E+00  0.00000000E+00  0.00000000E+00
  0.00000000E+00  0.00000000E+00  1.00000000E+00  0.00000000E+00  0.00000000E+00
  0.00000000E+00  0.00000000E+00  1.00000000E+00  0.00000000E+00  0.00000000E+00
  0.00000000E+00  0.00000000E+00  1.00000000E+00  0.00000000E+00  0.00000000E+00
  0.00000000E+00  0.00000000E+00  1.00000000E+00  0.00000000E+00  0.00000000E+00
  0.00000000E+00  0.00000000E+00  1.00000000E+00  0.00000000E+00  0.00000000E+00
  0.00000000E+00  0.00000000E+00  0.00000000E+00  1.00000000E+00  1.00000000E+00
  0.00000000E+00  1.00000000E+00  0.00000000E+00  0.00000000E+00  0.00000000E+00
  0.00000000E+00  0.00000000E+00  0.00000000E+00  0.00000000E+00  0.00000000E+00
  0.00000000E+00  0.00000000E+00
MxBond                                     I                2
NBond                                      I   N=           5
           1           2           2           2           1
IBond                                      I   N=          10
           2           0           1           3           2           4
           3           5           4           0
RBond                                      R   N=          10
  1.00000000E+00  0.00000000E+00  1.00000000E+00  1.00000000E+00  1.00000000E+00
  1.00000000E+00  1.00000000E+00  2.00000000E+00  2.00000000E+00  0.00000000E+00
Virial Ratio                               R      2.002271333634822E+00
SCF Energy                                 R     -2.795059802804111E+02
MP2 Energy                                 R     -2.804552194571425E+02
Total Energy                               R     -2.804552194571425E+02
Post-SCF wavefunction norm                 R      1.584081099195074E+00
RMS Force                                  R      1.059213779775488E-03
RMS Density                                R      4.552943947333380E-09
NImag                                      I                0
Job Status                                 I                1
Nuclear derivative order                   I                2
External E-field                           R   N=          35
  0.00000000E+00  0.00000000E+00  0.00000000E+00  0.00000000E+00  0.00000000E+00
  0.00000000E+00  0.00000000E+00  0.00000000E+00  0.00000000E+00  0.00000000E+00
  0.00000000E+00  0.00000000E+00  0.00000000E+00  0.00000000E+00  0.00000000E+00
  0.00000000E+00  0.00000000E+00  0.00000000E+00  0.00000000E+00  0.00000000E+00
  0.00000000E+00  0.00000000E+00  0.00000000E+00  0.00000000E+00  0.00000000E+00
  0.00000000E+00  0.00000000E+00  0.00000000E+00  0.00000000E+00  0.00000000E+00
  0.00000000E+00  0.00000000E+00  0.00000000E+00  0.00000000E+00  0.00000000E+00
IOpCl                                      I                0
IROHF                                      I                0
Alpha Orbital Energies                     R   N=         207
 -2.07197629E+01 -2.06871515E+01 -2.06689525E+01 -1.58261171E+01 -1.64318871E+00
 -1.50278103E+00 -1.29467096E+00 -9.59974660E-01 -8.33439769E-01 -7.58430688E-01
 -7.38997980E-01 -6.38369196E-01 -6.17669252E-01 -6.17095576E-01 -5.04450650E-01
 -4.98691389E-01  3.49854386E-02  6.02880872E-02  9.51023830E-02  1.00294387E-01
  1.19771375E-01  1.22446879E-01  1.48992431E-01  1.51474334E-01  1.77547856E-01
  1.80441785E-01  1.89823297E-01  2.10971390E-01  2.16635708E-01  2.39232979E-01
  2.46343560E-01  2.69120452E-01  3.12238873E-01  3.16598742E-01  3.37903262E-01
  3.43616067E-01  3.46264089E-01  3.92711256E-01  4.48801367E-01  4.88204353E-01
  5.04960509E-01  5.18352246E-01  5.45266499E-01  5.61132857E-01  5.99069074E-01
  6.20020663E-01  6.38590187E-01  6.89371152E-01  7.17108541E-01  7.24415040E-01
  7.42491816E-01  7.63391834E-01  7.66555311E-01  7.96175842E-01  8.06397378E-01
  8.40183279E-01  8.43051711E-01  8.51772641E-01  8.85029756E-01  9.07142617E-01
  9.29823416E-01  9.47700238E-01  9.54462776E-01  1.01806362E+00  1.03156850E+00
  1.06185203E+00  1.06602299E+00  1.09442481E+00  1.14369187E+00  1.15586405E+00
  1.16957601E+00  1.22211926E+00  1.22725855E+00  1.24554649E+00  1.35229588E+00
  1.36162336E+00  1.37154962E+00  1.46882585E+00  1.48565951E+00  1.50503770E+00
  1.54176000E+00  1.59621634E+00  1.59718781E+00  1.60552978E+00  1.62828119E+00
  1.69540537E+00  1.73972884E+00  1.80094975E+00  1.82976658E+00  1.88817559E+00
  1.89382535E+00  1.92868028E+00  1.97808667E+00  1.98953768E+00  2.05181795E+00
  2.12340775E+00  2.13001902E+00  2.16469293E+00  2.18755010E+00  2.24363794E+00
  2.25655208E+00  2.29312966E+00  2.35067925E+00  2.36591546E+00  2.38622584E+00
  2.40254710E+00  2.43009766E+00  2.46875665E+00  2.47810742E+00  2.52925388E+00
  2.53790219E+00  2.54835626E+00  2.55824971E+00  2.61540855E+00  2.62787854E+00
  2.67085591E+00  2.67229957E+00  2.75141188E+00  2.80780881E+00  2.81661992E+00
  2.83858564E+00  2.91690313E+00  2.98481377E+00  3.04533037E+00  3.04935192E+00
  3.11488750E+00  3.11636880E+00  3.17105841E+00  3.20887556E+00  3.30602992E+00
  3.33017187E+00  3.36088978E+00  3.47102682E+00  3.67839384E+00  3.86864882E+00
  3.92809859E+00  4.18256982E+00  4.22142193E+00  4.22397921E+00  4.26664616E+00
  4.36891060E+00  4.49328040E+00  4.52484678E+00  4.55423120E+00  4.59705910E+00
  4.69492117E+00  4.80876055E+00  4.89782301E+00  4.91359120E+00  4.94011629E+00
  4.99922932E+00  5.00572926E+00  5.10684937E+00  5.13175771E+00  5.17990523E+00
  5.25022565E+00  5.25851335E+00  5.31717228E+00  5.34296593E+00  5.35451878E+00
  5.54818351E+00  5.64476876E+00  5.70424009E+00  5.87807233E+00  5.99498547E+00
  6.27676367E+00  6.29468207E+00  6.35629458E+00  6.38018134E+00  6.60028724E+00
  6.65859788E+00  6.66420104E+00  6.69005208E+00  6.72735630E+00  6.79767468E+00
  6.80236886E+00  6.85258724E+00  6.96707471E+00  7.01554776E+00  7.06187348E+00
  7.07632141E+00  7.13568079E+00  7.17129540E+00  7.17268078E+00  7.19749141E+00
  7.24201472E+00  7.24430285E+00  7.27013825E+00  7.34698408E+00  7.39006806E+00
  7.42314610E+00  7.44214012E+00  7.45925914E+00  7.55843025E+00  7.65854908E+00
  7.66356368E+00  7.78893068E+00  7.87590120E+00  7.94950611E+00  8.05979525E+00
  8.29499979E+00  8.49618263E+00  8.64512806E+00  1.35925100E+01  1.47504540E+01
  1.50975586E+01  1.57559200E+01
Alpha MO coefficients                      R   N=       42849
  6.41277554E-05 -2.28761530E-05 -1.11129687E-03  1.07182078E-05 -5.35450634E-05
  4.34815182E-05  0.00000000E+00 -1.00966607E-04 -2.92613417E-04  0.00000000E+00
 -1.23551164E-05 -3.57250737E-04  0.00000000E+00  4.25312517E-05  0.00000000E+00
  0.00000000E+00 -2.48697536E-05  8.69078693E-06  2.27472724E-04  0.00000000E+00
  0.00000000E+00 -3.75990901E-05 -2.06966255E-04  3.04863800E-03 -1.09006005E-04
 -9.37573380E-05  3.45864385E-03  2.44427701E-03  1.00249106E-04 -5.24845336E-05
  0.00000000E+00 -6.97378192E-04  2.69292683E-04  0.00000000E+00 -1.92315758E-03
  1.09517847E-03  0.00000000E+00 -5.27653905E-04  3.40714996E-05  0.00000000E+00
  2.25268282E-05  0.00000000E+00  0.00000000E+00 -1.09532192E-05  4.77510629E-05
 -4.36085058E-04  0.00000000E+00  0.00000000E+00  4.13876901E-04 -6.58009355E-04
 -3.58721820E-04  0.00000000E+00  0.00000000E+00  5.32040983E-04 -7.43938095E-04
  0.00000000E+00  7.27813317E-05 -5.18025880E-05  0.00000000E+00  0.00000000E+00
 -2.65032282E-05  1.06699108E-04  0.00000000E+00  2.06896703E-04 -5.30819345E-05
  0.00000000E+00  0.00000000E+00 -1.69236418E-04  3.06122964E-04  9.76908714E-01
 -9.17256855E-03  4.33952861E-02  5.88471657E-04 -2.17421997E-03  4.27562045E-04
 -2.14164266E-03  0.00000000E+00 -2.88613687E-04  2.24481262E-03  0.00000000E+00
 -2.26903549E-03 -4.99688676E-04  0.00000000E+00 -2.13705012E-04  9.61692765E-05
  0.00000000E+00  8.89539510E-06  0.00000000E+00  0.00000000E+00 -6.78654074E-06
  4.01740341E-05  8.18918565E-04  0.00000000E+00  0.00000000E+00 -4.63797599E-04
 -1.80908909E-04 -1.45337600E-04  0.00000000E+00  0.00000000E+00 -5.41297795E-04
  3.48211506E-04  0.00000000E+00 -7.91718744E-06 -7.89517522E-05  0.00000000E+00
  0.00000000E+00 -8.14471696E-06  4.69421663E-05  0.00000000E+00  8.91056722E-05
  2.18471195E-06  0.00000000E+00  0.00000000E+00 -3.34101693E-04  3.76018963E-04
  1.04460825E-04  4.57743241E-04 -3.24453377E-04 -8.27874072E-04  3.66736217E-04
 -4.49079380E-05 -1.00085146E-04  0.00000000E+00  7.01375866E-04  1.10938038E-03
  0.00000000E+00 -7.64884648E-04 -6.51131908E-04  0.00000000E+00  1.98630212E-04
  2.14266809E-04  0.00000000E+00 -5.25693398E-05  0.00000000E+00  0.00000000E+00
  1.95065722E-05  9.29496755E-05 -4.16676184E-04  0.00000000E+00  0.00000000E+00
  4.79742023E-05  1.08344676E-03  2.70181315E-05  0.00000000E+00  0.00000000E+00
 -3.16200091E-04  3.31970730E-05  0.00000000E+00 -7.93466402E-05 -1.13629457E-04
  0.00000000E+00  0.00000000E+00 -9.55569218E-05  1.07351434E-04  0.00000000E+00
 -1.24276661E-04  4.63273441E-05  0.00000000E+00  0.00000000E+00  1.98365285E-05
  5.22660982E-04 -7.04991167E-04  4.82568956E-05 -7.02334027E-05  2.10209531E-04
 -1.91924553E-04 -2.90594490E-05 -4.14267273E-05  0.00000000E+00  1.69701129E-04
  2.54415535E-04  0.00000000E+00  5.26891349E-04  3.22875435E-04  0.00000000E+00
 -2.22270738E-04 -6.51434924E-05  0.00000000E+00 -1.30750048E-05  0.00000000E+00
  0.00000000E+00  3.48524102E-06  1.52904679E-05 -1.70302322E-06  0.00000000E+00
  0.00000000E+00 -1.65165459E-04  1.07494061E-05 -2.07493468E-05  0.00000000E+00
  0.00000000E+00 -1.72150424E-04 -4.20939842E-05  0.00000000E+00 -5.97251470E-06
 -9.09755173E-06  0.00000000E+00  0.00000000E+00 -2.16390212E-05  9.57002730E-06
  0.00000000E+00  4.06091591E-05  6.12055938E-05  0.00000000E+00  0.00000000E+00
  1.56841856E-04 -1.05335371E-04  4.03874887E-05  6.10880814E-05 -1.18216901E-04
 -2.94664884E-05  1.76470905E-05  1.05851212E-05  0.00000000E+00  2.38967455E-04
  5.80262792E-05  0.00000000E+00  1.27754790E-04  2.34467025E-05  0.00000000E+00
  1.38613524E-05  0.00000000E+00  0.00000000E+00 -1.26244506E-05  1.61373980E-05
  2.26088606E-05  0.00000000E+00  0.00000000E+00 -9.56686477E-05  6.36860065E-05
 -2.69130344E-04  2.69183546E-05 -1.56943893E-05 -5.40195864E-04  1.59871080E-04
  7.37269702E-06  1.35881395E-05  0.00000000E+00 -1.25945045E-06 -4.11265025E-05
  0.00000000E+00  1.77845214E-04  1.26328735E-04  0.00000000E+00 -4.71588320E-05
  4.94635319E-05  0.00000000E+00 -1.39251203E-06  0.00000000E+00  0.00000000E+00
 -8.38570286E-06 -1.17591915E-05  2.07246859E-05  0.00000000E+00  0.00000000E+00
  4.96903313E-05  1.07739652E-04  6.10304951E-05  0.00000000E+00  0.00000000E+00
 -2.76476040E-05 -7.48248538E-05  0.00000000E+00  7.74533900E-06  1.02060142E-05
  0.00000000E+00  0.00000000E+00 -1.05597485E-06 -2.44538717E-05  0.00000000E+00
 -1.42382929E-05 -3.51535706E-05  0.00000000E+00  0.00000000E+00 -3.02755436E-06
 -1.98688565E-05  7.33538655E-04  2.33205452E-05 -1.86760736E-05  2.90272847E-04
 -3.92093259E-04  1.66513383E-05  2.71807052E-05  0.00000000E+00 -6.66442785E-05
 -1.52926608E-04  0.00000000E+00  1.48263060E-04 -1.96641148E-04  0.00000000E+00
 -1.57001061E-04  1.42471120E-04  0.00000000E+00 -4.10090513E-06  0.00000000E+00
  0.00000000E+00 -2.94162775E-05 -9.60872585E-06 -5.08204086E-05  0.00000000E+00
  0.00000000E+00  7.93646936E-05  1.21073196E-04 -6.41575451E-05  0.00000000E+00
  0.00000000E+00  4.45671083E-05  2.91909879E-05  0.00000000E+00  3.05731365E-06
  3.36205378E-06  0.00000000E+00  0.00000000E+00 -8.03427423E-06 -2.20020870E-06
  0.00000000E+00  3.89503167E-06 -2.52548832E-05  0.00000000E+00  0.00000000E+00
  9.40257722E-05 -1.54877976E-04  2.37243899E-04  1.35845462E-03 -1.47412548E-04
 -6.93292797E-04  9.02202011E-04  6.30023843E-05 -7.12330578E-05  0.00000000E+00
  5.68415734E-04 -2.08292283E-03  0.00000000E+00  1.13939172E-04  4.94671774E-04
  0.00000000E+00  1.84658419E-04 -3.07486523E-04  0.00000000E+00 -1.27838883E-04
  0.00000000E+00  0.00000000E+00 -2.04527990E-04 -1.57651205E-04 -4.60333378E-04
  0.00000000E+00  0.00000000E+00 -6.06294863E-04 -9.16504727E-04 -4.19662060E-05
  0.00000000E+00  0.00000000E+00  6.07619678E-05  1.16045005E-04  0.00000000E+00
  8.46250520E-06  3.67563034E-05  0.00000000E+00  0.00000000E+00 -2.44188615E-05
 -4.02342210E-06  0.00000000E+00 -1.34639927E-04  1.58711898E-04  0.00000000E+00
  0.00000000E+00 -3.15451204E-04 -3.05744779E-05  9.76646094E-01 -9.88626362E-03
  4.35752569E-02  3.68768354E-03 -8.92805991E-04 -4.45614456E-04  2.13154267E-03
  0.00000000E+00  5.09176700E-04 -2.50576570E-03  0.00000000E+00 -6.97502572E-05
  8.15833709E-04  0.00000000E+00  1.04869750E-04 -6.46130857E-05  0.00000000E+00
 -1.94084960E-04  0.00000000E+00  0.00000000E+00 -7.44024406E-05 -4.30846025E-05
  4.08716832E-04  0.00000000E+00  0.00000000E+00  8.60263355E-04  4.80689870E-04
 -2.06341264E-04  0.00000000E+00  0.00000000E+00 -1.40017066E-04 -3.74288405E-05
  0.00000000E+00 -4.63047584E-06  7.03374257E-05  0.00000000E+00  0.00000000E+00
 -2.91601590E-05  1.06701136E-05  0.00000000E+00 -8.89269322E-05  9.18271094E-05
  0.00000000E+00  0.00000000E+00 -1.64171691E-04  2.05796137E-04  3.76913372E-04
  2.00902351E-03  1.35827689E-03 -1.59820285E-05  5.16687394E-05  2.71392471E-04
  0.00000000E+00  3.81592327E-04  1.03729495E-03  0.00000000E+00 -1.16808726E-04
  2.41784585E-04  0.00000000E+00 -2.43502189E-05  0.00000000E+00  0.00000000E+00
  2.99673885E-05 -2.87677175E-05 -2.16078527E-04  0.00000000E+00  0.00000000E+00
 -3.48614652E-04  4.02646917E-04  9.76840222E-01 -9.18640251E-03  4.34520958E-02
  1.97970426E-04 -1.85970831E-03 -2.03041226E-03 -8.41489058E-04  0.00000000E+00
  2.05974190E-03  7.85359979E-04  0.00000000E+00 -4.43354158E-04  6.59737869E-04
  0.00000000E+00  2.14609402E-04 -2.92060766E-04  0.00000000E+00  3.28445338E-05
  0.00000000E+00  0.00000000E+00 -7.70359215E-05  6.53420101E-05  7.58612569E-04
  0.00000000E+00  0.00000000E+00 -1.91491725E-04  3.40933503E-04 -2.43599406E-04
  0.00000000E+00  0.00000000E+00  3.46497428E-04 -5.67444669E-06  0.00000000E+00
 -7.94490368E-05  4.26846949E-07  0.00000000E+00  0.00000000E+00  1.46193433E-05