 Entering Gaussian System, Link 0=g16
 Input=hoono_a1_102p6810.gjf
 Output=hoono_a1_102p6810.log
 Initial command:
 /sw/contrib/gaussian/g16/B01/g16/l1.exe "/scr/Gau-28401.inp" -scrdir="/scr/"
 Entering Link 1 = /sw/contrib/gaussian/g16/B01/g16/l1.exe PID=     28402.
  
 Copyright (c) 1988-2017, Gaussian, Inc.  All Rights Reserved.
  
 This is part of the Gaussian(R) 16 program.  It is based on
 the Gaussian(R) 09 system (copyright 2009, Gaussian, Inc.),
 the Gaussian(R) 03 system (copyright 2003, Gaussian, Inc.),
 the Gaussian(R) 98 system (copyright 1998, Gaussian, Inc.),
 the Gaussian(R) 94 system (copyright 1995, Gaussian, Inc.),
 the Gaussian 92(TM) system (copyright 1992, Gaussian, Inc.),
 the Gaussian 90(TM) system (copyright 1990, Gaussian, Inc.),
 the Gaussian 88(TM) system (copyright 1988, Gaussian, Inc.),
 the Gaussian 86(TM) system (copyright 1986, Carnegie Mellon
 University), and the Gaussian 82(TM) system (copyright 1983,
 Carnegie Mellon University). Gaussian is a federally registered
 trademark of Gaussian, Inc.
  
 This software contains proprietary and confidential information,
 including trade secrets, belonging to Gaussian, Inc.
  
 This software is provided under written license and may be
 used, copied, transmitted, or stored only in accord with that
 written license.
  
 The following legend is applicable only to US Government
 contracts under FAR:
  
                    RESTRICTED RIGHTS LEGEND
  
 Use, reproduction and disclosure by the US Government is
 subject to restrictions as set forth in subparagraphs (a)
 and (c) of the Commercial Computer Software - Restricted
 Rights clause in FAR 52.227-19.
  
 Gaussian, Inc.
 340 Quinnipiac St., Bldg. 40, Wallingford CT 06492
  
  
 ---------------------------------------------------------------
 Warning -- This program may not be used in any manner that
 competes with the business of Gaussian, Inc. or will provide
 assistance to any competitor of Gaussian, Inc.  The licensee
 of this program is prohibited from giving any competitor of
 Gaussian, Inc. access to this program.  By using this program,
 the user acknowledges that Gaussian, Inc. is engaged in the
 business of creating and licensing software in the field of
 computational chemistry and represents and warrants to the
 licensee that it is not a competitor of Gaussian, Inc. and that
 it will not use this program in any manner prohibited above.
 ---------------------------------------------------------------
  

 Cite this work as:
 Gaussian 16, Revision B.01,
 M. J. Frisch, G. W. Trucks, H. B. Schlegel, G. E. Scuseria, 
 M. A. Robb, J. R. Cheeseman, G. Scalmani, V. Barone, 
 G. A. Petersson, H. Nakatsuji, X. Li, M. Caricato, A. V. Marenich, 
 J. Bloino, B. G. Janesko, R. Gomperts, B. Mennucci, H. P. Hratchian, 
 J. V. Ortiz, A. F. Izmaylov, J. L. Sonnenberg, D. Williams-Young, 
 F. Ding, F. Lipparini, F. Egidi, J. Goings, B. Peng, A. Petrone, 
 T. Henderson, D. Ranasinghe, V. G. Zakrzewski, J. Gao, N. Rega, 
 G. Zheng, W. Liang, M. Hada, M. Ehara, K. Toyota, R. Fukuda, 
 J. Hasegawa, M. Ishida, T. Nakajima, Y. Honda, O. Kitao, H. Nakai, 
 T. Vreven, K. Throssell, J. A. Montgomery, Jr., J. E. Peralta, 
 F. Ogliaro, M. J. Bearpark, J. J. Heyd, E. N. Brothers, K. N. Kudin, 
 V. N. Staroverov, T. A. Keith, R. Kobayashi, J. Normand, 
 K. Raghavachari, A. P. Rendell, J. C. Burant, S. S. Iyengar, 
 J. Tomasi, M. Cossi, J. M. Millam, M. Klene, C. Adamo, R. Cammi, 
 J. W. Ochterski, R. L. Martin, K. Morokuma, O. Farkas, 
 J. B. Foresman, and D. J. Fox, Gaussian, Inc., Wallingford CT, 2016.
 
 ******************************************
 Gaussian 16:  ES64L-G16RevB.01 20-Dec-2017
                 6-Mar-2022 
 ******************************************
 %nproc=28
 Will use up to   28 processors via shared memory.
 %mem=120GB
 %chk=hoono_a1_102p6810.chk
 ---------------------------------------
 #p freq mp2/aug-cc-pvtz density=current
 ---------------------------------------
 1/10=4,30=1,38=1/1,3;
 2/12=2,17=6,18=5,40=1/2;
 3/5=16,6=1,7=10,11=9,25=1,30=1,71=2,140=1/1,2,3;
 4//1;
 5/5=2,38=5,98=1/2;
 8/6=3,8=1,10=1,19=11,30=-1/1;
 9/15=3,16=-3/6;
 11/6=1,8=1,15=11,17=12,24=-1,27=1,28=-2,29=300,32=6,42=3/1,2,10;
 10/6=2,21=1/2;
 8/6=4,8=1,10=1,19=11,30=-1/11,4;
 10/5=1,20=4/2;
 11/12=2,14=11,16=1,17=2,28=-2,42=3,76=2/2,10,12;
 6/7=2,8=2,9=2,10=2,22=-1/1;
 7/8=1,10=1,12=2,25=1,44=2/1,2,3,16;
 1/10=4,30=1/3;
 99//99;
 Leave Link    1 at Sun Mar  6 19:21:50 2022, MaxMem= 16106127360 cpu:               3.7 elap:               0.1
 (Enter /sw/contrib/gaussian/g16/B01/g16/l101.exe)
 -----
 title
 -----
 Symbolic Z-matrix:
 Charge =  0 Multiplicity = 1
 H
 O                    1    r1
 O                    2    r2       1    a1
 N                    3    r3       2    a2       1    d1       0
 O                    4    r4       3    a3       2    d2       0
       Variables:
  r1                    0.98538                  
  r2                    1.42674                  
  r3                    1.38111                  
  r4                    1.19479                  
  a1                  102.6811                   
  a2                  113.13777                  
  a3                  114.33392                  
  d1                    0.                       
  d2                    0.                       
 
 ITRead=  0  0  0  0  0
 MicOpt= -1 -1 -1 -1 -1
 NAtoms=      5 NQM=        5 NQMF=       0 NMMI=      0 NMMIF=      0
                NMic=       0 NMicF=      0.
                    Isotopes and Nuclear Properties:
 (Nuclear quadrupole moments (NQMom) in fm**2, nuclear magnetic moments (NMagM)
  in nuclear magnetons)

  Atom         1           2           3           4           5
 IAtWgt=           1          16          16          14          16
 AtmWgt=   1.0078250  15.9949146  15.9949146  14.0030740  15.9949146
 NucSpn=           1           0           0           2           0
 AtZEff=  -0.0000000  -0.0000000  -0.0000000  -0.0000000  -0.0000000
 NQMom=    0.0000000   0.0000000   0.0000000   2.0440000   0.0000000
 NMagM=    2.7928460   0.0000000   0.0000000   0.4037610   0.0000000
 AtZNuc=   1.0000000   8.0000000   8.0000000   7.0000000   8.0000000
 Leave Link  101 at Sun Mar  6 19:21:50 2022, MaxMem= 16106127360 cpu:               2.4 elap:               0.1
 (Enter /sw/contrib/gaussian/g16/B01/g16/l103.exe)

 GradGradGradGradGradGradGradGradGradGradGradGradGradGradGradGradGradGrad
 Berny optimization.
 Initialization pass.
                       ----------------------------
                       !    Initial Parameters    !
                       ! (Angstroms and Degrees)  !
 ----------------------                            ----------------------
 !      Name          Value   Derivative information (Atomic Units)     !
 ------------------------------------------------------------------------
 !       r1          0.9854   calculate D2E/DX2 analytically            !
 !       r2          1.4267   calculate D2E/DX2 analytically            !
 !       r3          1.3811   calculate D2E/DX2 analytically            !
 !       r4          1.1948   calculate D2E/DX2 analytically            !
 !       a1        102.6811   calculate D2E/DX2 analytically            !
 !       a2        113.1378   calculate D2E/DX2 analytically            !
 !       a3        114.3339   calculate D2E/DX2 analytically            !
 !       d1          0.0      calculate D2E/DX2 analytically            !
 !       d2          0.0      calculate D2E/DX2 analytically            !
 ------------------------------------------------------------------------
 Trust Radius=3.00D-01 FncErr=1.00D-07 GrdErr=1.00D-07 EigMax=2.50D+02 EigMin=1.00D-04
 Number of steps in this run=      2 maximum allowed number of steps=      2.
 GradGradGradGradGradGradGradGradGradGradGradGradGradGradGradGradGradGrad

 Leave Link  103 at Sun Mar  6 19:21:50 2022, MaxMem= 16106127360 cpu:               1.4 elap:               0.1
 (Enter /sw/contrib/gaussian/g16/B01/g16/l202.exe)
                          Input orientation:                          
 ---------------------------------------------------------------------
 Center     Atomic      Atomic             Coordinates (Angstroms)
 Number     Number       Type             X           Y           Z
 ---------------------------------------------------------------------
      1          1           0        0.000000    0.000000    0.000000
      2          8           0        0.000000    0.000000    0.985377
      3          8           0        1.391934    0.000000    1.298580
      4          7           0        2.200193    0.000000    0.178680
      5          8           0        1.605560    0.000000   -0.857627
 ---------------------------------------------------------------------
                    Distance matrix (angstroms):
                    1          2          3          4          5
     1  H    0.000000
     2  O    0.985377   0.000000
     3  O    1.903626   1.426737   0.000000
     4  N    2.207436   2.343418   1.381108   0.000000
     5  O    1.820260   2.444276   2.166763   1.194788   0.000000
 Stoichiometry    HNO3
 Framework group  CS[SG(HNO3)]
 Deg. of freedom     7
 Full point group                 CS      NOp   2
 Largest Abelian subgroup         CS      NOp   2
 Largest concise Abelian subgroup C1      NOp   1
                         Standard orientation:                         
 ---------------------------------------------------------------------
 Center     Atomic      Atomic             Coordinates (Angstroms)
 Number     Number       Type             X           Y           Z
 ---------------------------------------------------------------------
      1          1           0        1.141924   -0.605889   -0.000000
      2          8           0        1.315180    0.364137   -0.000000
      3          8           0       -0.000000    0.917200    0.000000
      4          7           0       -0.992575   -0.043139    0.000000
      5          8           0       -0.589417   -1.167854    0.000000
 ---------------------------------------------------------------------
 Rotational constants (GHZ):          21.2947511           8.1039184           5.8700250
 Leave Link  202 at Sun Mar  6 19:21:50 2022, MaxMem= 16106127360 cpu:               1.0 elap:               0.1
 (Enter /sw/contrib/gaussian/g16/B01/g16/l301.exe)
 Standard basis: Aug-CC-pVTZ (5D, 7F)
 Ernie: Thresh=  0.10000D-02 Tol=  0.10000D-05 Strict=F.
 Ernie:  12 primitive shells out of 131 were deleted.
 There are   166 symmetry adapted cartesian basis functions of A'  symmetry.
 There are    79 symmetry adapted cartesian basis functions of A"  symmetry.
 There are   136 symmetry adapted basis functions of A'  symmetry.
 There are    71 symmetry adapted basis functions of A"  symmetry.
   207 basis functions,   315 primitive gaussians,   245 cartesian basis functions
    16 alpha electrons       16 beta electrons
       nuclear repulsion energy       122.6525840220 Hartrees.
 IExCor=    0 DFT=F Ex=HF Corr=None ExCW=0 ScaHFX=  1.000000
 ScaDFX=  1.000000  1.000000  1.000000  1.000000 ScalE2=  1.000000  1.000000
 IRadAn=      5 IRanWt=     -1 IRanGd=            0 ICorTp=0 IEmpDi=  4
 NAtoms=    5 NActive=    5 NUniq=    5 SFac= 1.00D+00 NAtFMM=   60 NAOKFM=F Big=F
 Integral buffers will be    131072 words long.
 Raffenetti 1 integral format.
 Two-electron integral symmetry is turned on.
 Leave Link  301 at Sun Mar  6 19:21:51 2022, MaxMem= 16106127360 cpu:               1.5 elap:               0.1
 (Enter /sw/contrib/gaussian/g16/B01/g16/l302.exe)
 NPDir=0 NMtPBC=     1 NCelOv=     1 NCel=       1 NClECP=     1 NCelD=      1
         NCelK=      1 NCelE2=     1 NClLst=     1 CellRange=     0.0.
 One-electron integrals computed using PRISM.
 One-electron integral symmetry used in STVInt
 NBasis=   207 RedAO= T EigKep=  1.32D-04  NBF=   136    71
 NBsUse=   207 1.00D-06 EigRej= -1.00D+00 NBFU=   136    71
 Leave Link  302 at Sun Mar  6 19:21:51 2022, MaxMem= 16106127360 cpu:               5.3 elap:               0.2
 (Enter /sw/contrib/gaussian/g16/B01/g16/l303.exe)
 DipDrv:  MaxL=1.
 Leave Link  303 at Sun Mar  6 19:21:51 2022, MaxMem= 16106127360 cpu:               5.2 elap:               0.2
 (Enter /sw/contrib/gaussian/g16/B01/g16/l401.exe)
 ExpMin= 2.53D-02 ExpMax= 1.53D+04 ExpMxC= 5.22D+02 IAcc=3 IRadAn=         5 AccDes= 0.00D+00
 Harris functional with IExCor=  205 and IRadAn=       5 diagonalized for initial guess.
 HarFok:  IExCor=  205 AccDes= 0.00D+00 IRadAn=         5 IDoV= 1 UseB2=F ITyADJ=14
 ICtDFT=  3500011 ScaDFX=  1.000000  1.000000  1.000000  1.000000
 FoFCou: FMM=F IPFlag=           0 FMFlag=      100000 FMFlg1=           0
         NFxFlg=           0 DoJE=T BraDBF=F KetDBF=T FulRan=T
         wScrn=  0.000000 ICntrl=       500 IOpCl=  0 I1Cent=   200000004 NGrid=           0
         NMat0=    1 NMatS0=      1 NMatT0=    0 NMatD0=    1 NMtDS0=    0 NMtDT0=    0
 Petite list used in FoFCou.
 Harris En= -279.644920076805    
 JPrj=0 DoOrth=F DoCkMO=F.
 Initial guess orbital symmetries:
       Occupied  (A') (A') (A') (A') (A') (A') (A') (A') (A') (A')
                 (A") (A') (A") (A') (A") (A')
       Virtual   (A") (A') (A') (A') (A') (A") (A') (A') (A') (A')
                 (A") (A') (A") (A') (A') (A") (A') (A') (A") (A')
                 (A') (A') (A') (A') (A") (A') (A') (A') (A") (A')
                 (A') (A") (A") (A') (A') (A") (A') (A") (A') (A")
                 (A') (A") (A') (A") (A') (A') (A') (A') (A") (A')
                 (A') (A") (A') (A") (A') (A") (A') (A') (A') (A")
                 (A') (A') (A") (A') (A') (A') (A") (A") (A') (A')
                 (A") (A') (A") (A") (A') (A') (A") (A') (A') (A')
                 (A") (A') (A') (A") (A') (A") (A") (A') (A') (A')
                 (A') (A") (A') (A") (A') (A') (A") (A') (A") (A')
                 (A") (A') (A') (A") (A") (A') (A') (A') (A") (A')
                 (A") (A') (A') (A') (A") (A') (A') (A') (A") (A')
                 (A") (A') (A') (A") (A") (A") (A") (A') (A') (A')
                 (A') (A') (A') (A") (A') (A") (A') (A") (A') (A')
                 (A") (A') (A") (A') (A') (A") (A') (A') (A') (A")
                 (A') (A') (A') (A") (A') (A") (A") (A') (A") (A')
                 (A') (A") (A") (A') (A") (A') (A') (A") (A") (A')
                 (A") (A") (A") (A') (A') (A") (A') (A') (A') (A")
                 (A') (A') (A') (A') (A') (A') (A') (A') (A') (A')
                 (A')
 The electronic state of the initial guess is 1-A'.
 Leave Link  401 at Sun Mar  6 19:21:51 2022, MaxMem= 16106127360 cpu:               6.6 elap:               0.3
 (Enter /sw/contrib/gaussian/g16/B01/g16/l502.exe)
 Keep R1 ints in memory in symmetry-blocked form, NReq=348887737.
 FoFCou: FMM=F IPFlag=           0 FMFlag=           0 FMFlg1=           0
         NFxFlg=           0 DoJE=F BraDBF=F KetDBF=F FulRan=T
         wScrn=  0.000000 ICntrl=       600 IOpCl=  0 I1Cent=           0 NGrid=           0
         NMat0=    1 NMatS0=  21528 NMatT0=    0 NMatD0=    1 NMtDS0=    0 NMtDT0=    0
 Petite list used in FoFCou.
 Closed shell SCF:
 Using DIIS extrapolation, IDIIS=  1040.
 NGot= 16106127360 LenX= 15988850015 LenY= 15988789549
 Requested convergence on RMS density matrix=1.00D-08 within 128 cycles.
 Requested convergence on MAX density matrix=1.00D-06.
 Requested convergence on             energy=1.00D-06.
 No special actions if energy rises.

 Cycle   1  Pass 1  IDiag  1:
 E= -279.364262438210    
 DIIS: error= 2.75D-02 at cycle   1 NSaved=   1.
 NSaved= 1 IEnMin= 1 EnMin= -279.364262438210     IErMin= 1 ErrMin= 2.75D-02
 ErrMax= 2.75D-02  0.00D+00 EMaxC= 1.00D-01 BMatC= 4.51D-01 BMatP= 4.51D-01
 IDIUse=3 WtCom= 7.25D-01 WtEn= 2.75D-01
 Coeff-Com:  0.100D+01
 Coeff-En:   0.100D+01
 Coeff:      0.100D+01
 Gap=     0.500 Goal=   None    Shift=    0.000
 GapD=    0.500 DampG=2.000 DampE=0.500 DampFc=1.0000 IDamp=-1.
 RMSDP=1.68D-03 MaxDP=8.72D-02              OVMax= 1.24D-01

 Cycle   2  Pass 1  IDiag  1:
 E= -279.446025022659     Delta-E=       -0.081762584449 Rises=F Damp=F
 DIIS: error= 1.91D-02 at cycle   2 NSaved=   2.
 NSaved= 2 IEnMin= 2 EnMin= -279.446025022659     IErMin= 2 ErrMin= 1.91D-02
 ErrMax= 1.91D-02  0.00D+00 EMaxC= 1.00D-01 BMatC= 8.68D-02 BMatP= 4.51D-01
 IDIUse=3 WtCom= 8.09D-01 WtEn= 1.91D-01
 Coeff-Com:  0.220D+00 0.780D+00
 Coeff-En:   0.822D-01 0.918D+00
 Coeff:      0.194D+00 0.806D+00
 Gap=     0.560 Goal=   None    Shift=    0.000
 RMSDP=9.67D-04 MaxDP=3.62D-02 DE=-8.18D-02 OVMax= 9.12D-02

 Cycle   3  Pass 1  IDiag  1:
 E= -279.484299922680     Delta-E=       -0.038274900021 Rises=F Damp=F
 DIIS: error= 1.07D-02 at cycle   3 NSaved=   3.
 NSaved= 3 IEnMin= 3 EnMin= -279.484299922680     IErMin= 3 ErrMin= 1.07D-02
 ErrMax= 1.07D-02  0.00D+00 EMaxC= 1.00D-01 BMatC= 3.09D-02 BMatP= 8.68D-02
 IDIUse=3 WtCom= 8.93D-01 WtEn= 1.07D-01
 Coeff-Com: -0.347D-01 0.363D+00 0.672D+00
 Coeff-En:   0.000D+00 0.216D+00 0.784D+00
 Coeff:     -0.310D-01 0.347D+00 0.684D+00
 Gap=     0.541 Goal=   None    Shift=    0.000
 RMSDP=4.09D-04 MaxDP=1.57D-02 DE=-3.83D-02 OVMax= 3.93D-02

 Cycle   4  Pass 1  IDiag  1:
 E= -279.505418197116     Delta-E=       -0.021118274436 Rises=F Damp=F
 DIIS: error= 1.59D-03 at cycle   4 NSaved=   4.
 NSaved= 4 IEnMin= 4 EnMin= -279.505418197116     IErMin= 4 ErrMin= 1.59D-03
 ErrMax= 1.59D-03  0.00D+00 EMaxC= 1.00D-01 BMatC= 5.86D-04 BMatP= 3.09D-02
 IDIUse=3 WtCom= 9.84D-01 WtEn= 1.59D-02
 Coeff-Com: -0.118D-01 0.454D-01 0.151D+00 0.816D+00
 Coeff-En:   0.000D+00 0.000D+00 0.000D+00 0.100D+01
 Coeff:     -0.116D-01 0.447D-01 0.148D+00 0.819D+00
 Gap=     0.527 Goal=   None    Shift=    0.000
 RMSDP=9.87D-05 MaxDP=2.27D-03 DE=-2.11D-02 OVMax= 1.17D-02

 Cycle   5  Pass 1  IDiag  1:
 E= -279.506221719787     Delta-E=       -0.000803522671 Rises=F Damp=F
 DIIS: error= 1.07D-03 at cycle   5 NSaved=   5.
 NSaved= 5 IEnMin= 5 EnMin= -279.506221719787     IErMin= 5 ErrMin= 1.07D-03
 ErrMax= 1.07D-03  0.00D+00 EMaxC= 1.00D-01 BMatC= 1.01D-04 BMatP= 5.86D-04
 IDIUse=3 WtCom= 9.89D-01 WtEn= 1.07D-02
 Coeff-Com:  0.534D-02-0.651D-01-0.110D+00 0.595D-01 0.111D+01
 Coeff-En:   0.000D+00 0.000D+00 0.000D+00 0.000D+00 0.100D+01
 Coeff:      0.528D-02-0.644D-01-0.109D+00 0.589D-01 0.111D+01
 Gap=     0.531 Goal=   None    Shift=    0.000
 RMSDP=7.91D-05 MaxDP=2.11D-03 DE=-8.04D-04 OVMax= 1.28D-02

 Cycle   6  Pass 1  IDiag  1:
 E= -279.506579616822     Delta-E=       -0.000357897035 Rises=F Damp=F
 DIIS: error= 3.21D-04 at cycle   6 NSaved=   6.
 NSaved= 6 IEnMin= 6 EnMin= -279.506579616822     IErMin= 6 ErrMin= 3.21D-04
 ErrMax= 3.21D-04  0.00D+00 EMaxC= 1.00D-01 BMatC= 2.39D-05 BMatP= 1.01D-04
 IDIUse=3 WtCom= 9.97D-01 WtEn= 3.21D-03
 Coeff-Com:  0.187D-02-0.703D-02-0.176D-01-0.184D+00 0.163D-01 0.119D+01
 Coeff-En:   0.000D+00 0.000D+00 0.000D+00 0.000D+00 0.000D+00 0.100D+01
 Coeff:      0.187D-02-0.701D-02-0.176D-01-0.183D+00 0.163D-01 0.119D+01
 Gap=     0.531 Goal=   None    Shift=    0.000
 RMSDP=4.64D-05 MaxDP=1.07D-03 DE=-3.58D-04 OVMax= 6.06D-03

 Cycle   7  Pass 1  IDiag  1:
 E= -279.506664709339     Delta-E=       -0.000085092517 Rises=F Damp=F
 DIIS: error= 1.31D-04 at cycle   7 NSaved=   7.
 NSaved= 7 IEnMin= 7 EnMin= -279.506664709339     IErMin= 7 ErrMin= 1.31D-04
 ErrMax= 1.31D-04  0.00D+00 EMaxC= 1.00D-01 BMatC= 3.55D-06 BMatP= 2.39D-05
 IDIUse=3 WtCom= 9.99D-01 WtEn= 1.31D-03
 Coeff-Com: -0.109D-02 0.113D-01 0.250D-01 0.175D-01-0.183D+00-0.154D+00
 Coeff-Com:  0.128D+01
 Coeff-En:   0.000D+00 0.000D+00 0.000D+00 0.000D+00 0.000D+00 0.000D+00
 Coeff-En:   0.100D+01
 Coeff:     -0.109D-02 0.113D-01 0.250D-01 0.175D-01-0.183D+00-0.154D+00
 Coeff:      0.128D+01
 Gap=     0.532 Goal=   None    Shift=    0.000
 RMSDP=1.75D-05 MaxDP=5.12D-04 DE=-8.51D-05 OVMax= 2.33D-03

 Cycle   8  Pass 1  IDiag  1:
 E= -279.506676637016     Delta-E=       -0.000011927677 Rises=F Damp=F
 DIIS: error= 4.71D-05 at cycle   8 NSaved=   8.
 NSaved= 8 IEnMin= 8 EnMin= -279.506676637016     IErMin= 8 ErrMin= 4.71D-05
 ErrMax= 4.71D-05  0.00D+00 EMaxC= 1.00D-01 BMatC= 5.88D-07 BMatP= 3.55D-06
 IDIUse=1 WtCom= 1.00D+00 WtEn= 0.00D+00
 Coeff-Com: -0.555D-03 0.403D-02 0.964D-02 0.251D-01-0.577D-01-0.191D+00
 Coeff-Com:  0.354D+00 0.857D+00
 Coeff:     -0.555D-03 0.403D-02 0.964D-02 0.251D-01-0.577D-01-0.191D+00
 Coeff:      0.354D+00 0.857D+00
 Gap=     0.532 Goal=   None    Shift=    0.000
 RMSDP=5.35D-06 MaxDP=1.51D-04 DE=-1.19D-05 OVMax= 6.36D-04

 Cycle   9  Pass 1  IDiag  1:
 E= -279.506677981633     Delta-E=       -0.000001344618 Rises=F Damp=F
 DIIS: error= 2.48D-05 at cycle   9 NSaved=   9.
 NSaved= 9 IEnMin= 9 EnMin= -279.506677981633     IErMin= 9 ErrMin= 2.48D-05
 ErrMax= 2.48D-05  0.00D+00 EMaxC= 1.00D-01 BMatC= 1.15D-07 BMatP= 5.88D-07
 IDIUse=1 WtCom= 1.00D+00 WtEn= 0.00D+00
 Coeff-Com:  0.238D-03-0.252D-02-0.527D-02-0.564D-02 0.469D-01 0.486D-01
 Coeff-Com: -0.338D+00 0.356D-01 0.122D+01
 Coeff:      0.238D-03-0.252D-02-0.527D-02-0.564D-02 0.469D-01 0.486D-01
 Coeff:     -0.338D+00 0.356D-01 0.122D+01
 Gap=     0.532 Goal=   None    Shift=    0.000
 RMSDP=2.43D-06 MaxDP=6.52D-05 DE=-1.34D-06 OVMax= 2.57D-04

 Cycle  10  Pass 1  IDiag  1:
 E= -279.506678239882     Delta-E=       -0.000000258249 Rises=F Damp=F
 DIIS: error= 5.52D-06 at cycle  10 NSaved=  10.
 NSaved=10 IEnMin=10 EnMin= -279.506678239882     IErMin=10 ErrMin= 5.52D-06
 ErrMax= 5.52D-06  0.00D+00 EMaxC= 1.00D-01 BMatC= 8.16D-09 BMatP= 1.15D-07
 IDIUse=1 WtCom= 1.00D+00 WtEn= 0.00D+00
 Coeff-Com: -0.382D-04 0.490D-03 0.120D-02-0.182D-02-0.110D-01 0.506D-02
 Coeff-Com:  0.736D-01-0.544D-01-0.440D+00 0.143D+01
 Coeff:     -0.382D-04 0.490D-03 0.120D-02-0.182D-02-0.110D-01 0.506D-02
 Coeff:      0.736D-01-0.544D-01-0.440D+00 0.143D+01
 Gap=     0.532 Goal=   None    Shift=    0.000
 RMSDP=6.96D-07 MaxDP=2.55D-05 DE=-2.58D-07 OVMax= 7.51D-05

 Cycle  11  Pass 1  IDiag  1:
 E= -279.506678264247     Delta-E=       -0.000000024364 Rises=F Damp=F
 DIIS: error= 2.16D-06 at cycle  11 NSaved=  11.
 NSaved=11 IEnMin=11 EnMin= -279.506678264247     IErMin=11 ErrMin= 2.16D-06
 ErrMax= 2.16D-06  0.00D+00 EMaxC= 1.00D-01 BMatC= 8.08D-10 BMatP= 8.16D-09
 IDIUse=1 WtCom= 1.00D+00 WtEn= 0.00D+00
 Coeff-Com: -0.154D-04 0.154D-03 0.320D-03 0.912D-03-0.202D-02-0.707D-02
 Coeff-Com:  0.176D-01 0.195D-01-0.420D-01-0.339D+00 0.135D+01
 Coeff:     -0.154D-04 0.154D-03 0.320D-03 0.912D-03-0.202D-02-0.707D-02
 Coeff:      0.176D-01 0.195D-01-0.420D-01-0.339D+00 0.135D+01
 Gap=     0.532 Goal=   None    Shift=    0.000
 RMSDP=2.40D-07 MaxDP=8.91D-06 DE=-2.44D-08 OVMax= 2.82D-05

 Cycle  12  Pass 1  IDiag  1:
 E= -279.506678267147     Delta-E=       -0.000000002900 Rises=F Damp=F
 DIIS: error= 6.95D-07 at cycle  12 NSaved=  12.
 NSaved=12 IEnMin=12 EnMin= -279.506678267147     IErMin=12 ErrMin= 6.95D-07
 ErrMax= 6.95D-07  0.00D+00 EMaxC= 1.00D-01 BMatC= 8.34D-11 BMatP= 8.08D-10
 IDIUse=1 WtCom= 1.00D+00 WtEn= 0.00D+00
 Coeff-Com:  0.258D-05-0.443D-04-0.963D-04 0.124D-03 0.111D-02-0.684D-03
 Coeff-Com: -0.726D-02 0.633D-02 0.403D-01-0.111D+00-0.180D+00 0.125D+01
 Coeff:      0.258D-05-0.443D-04-0.963D-04 0.124D-03 0.111D-02-0.684D-03
 Coeff:     -0.726D-02 0.633D-02 0.403D-01-0.111D+00-0.180D+00 0.125D+01
 Gap=     0.532 Goal=   None    Shift=    0.000
 RMSDP=8.23D-08 MaxDP=2.68D-06 DE=-2.90D-09 OVMax= 9.57D-06

 Cycle  13  Pass 1  IDiag  1:
 E= -279.506678267440     Delta-E=       -0.000000000293 Rises=F Damp=F
 DIIS: error= 1.53D-07 at cycle  13 NSaved=  13.
 NSaved=13 IEnMin=13 EnMin= -279.506678267440     IErMin=13 ErrMin= 1.53D-07
 ErrMax= 1.53D-07  0.00D+00 EMaxC= 1.00D-01 BMatC= 7.02D-12 BMatP= 8.34D-11
 IDIUse=1 WtCom= 1.00D+00 WtEn= 0.00D+00
 Coeff-Com:  0.127D-05-0.118D-04-0.170D-04-0.122D-03 0.471D-04 0.916D-03
 Coeff-Com: -0.102D-02-0.247D-02-0.229D-02 0.551D-01-0.131D+00-0.144D+00
 Coeff-Com:  0.122D+01
 Coeff:      0.127D-05-0.118D-04-0.170D-04-0.122D-03 0.471D-04 0.916D-03
 Coeff:     -0.102D-02-0.247D-02-0.229D-02 0.551D-01-0.131D+00-0.144D+00
 Coeff:      0.122D+01
 Gap=     0.532 Goal=   None    Shift=    0.000
 RMSDP=2.20D-08 MaxDP=6.45D-07 DE=-2.93D-10 OVMax= 1.97D-06

 Cycle  14  Pass 1  IDiag  1:
 E= -279.506678267459     Delta-E=       -0.000000000018 Rises=F Damp=F
 DIIS: error= 4.10D-08 at cycle  14 NSaved=  14.
 NSaved=14 IEnMin=14 EnMin= -279.506678267459     IErMin=14 ErrMin= 4.10D-08
 ErrMax= 4.10D-08  0.00D+00 EMaxC= 1.00D-01 BMatC= 4.81D-13 BMatP= 7.02D-12
 IDIUse=1 WtCom= 1.00D+00 WtEn= 0.00D+00
 Coeff-Com: -0.300D-06 0.443D-05 0.883D-05-0.359D-05-0.112D-03 0.569D-04
 Coeff-Com:  0.645D-03-0.317D-03-0.357D-02 0.797D-02 0.166D-01-0.898D-01
 Coeff-Com: -0.218D-01 0.109D+01
 Coeff:     -0.300D-06 0.443D-05 0.883D-05-0.359D-05-0.112D-03 0.569D-04
 Coeff:      0.645D-03-0.317D-03-0.357D-02 0.797D-02 0.166D-01-0.898D-01
 Coeff:     -0.218D-01 0.109D+01
 Gap=     0.532 Goal=   None    Shift=    0.000
 RMSDP=4.35D-09 MaxDP=1.09D-07 DE=-1.84D-11 OVMax= 4.29D-07

 SCF Done:  E(RHF) =  -279.506678267     A.U. after   14 cycles
            NFock= 14  Conv=0.43D-08     -V/T= 2.0023
 KE= 2.788767467136D+02 PE=-9.061886218603D+02 EE= 2.251526128573D+02
 Leave Link  502 at Sun Mar  6 19:21:55 2022, MaxMem= 16106127360 cpu:              57.3 elap:               3.7
 (Enter /sw/contrib/gaussian/g16/B01/g16/l801.exe)
 ExpMin= 2.53D-02 ExpMax= 1.53D+04 ExpMxC= 5.22D+02 IAcc=3 IRadAn=         5 AccDes= 0.00D+00
 HarFok:  IExCor=  205 AccDes= 0.00D+00 IRadAn=         5 IDoV=-2 UseB2=F ITyADJ=14
 ICtDFT= 12500011 ScaDFX=  1.000000  1.000000  1.000000  1.000000
 Largest valence mixing into a core orbital is  2.07D-04
 Largest core mixing into a valence orbital is  3.08D-05
 Range of M.O.s used for correlation:     5   207
 NBasis=   207 NAE=    16 NBE=    16 NFC=     4 NFV=     0
 NROrb=    203 NOA=    12 NOB=    12 NVA=   191 NVB=   191

 **** Warning!!: The largest alpha MO coefficient is  0.16159288D+02

 Leave Link  801 at Sun Mar  6 19:21:55 2022, MaxMem= 16106127360 cpu:               2.1 elap:               0.1
 (Enter /sw/contrib/gaussian/g16/B01/g16/l906.exe)
 Frozen-core derivative calculation, NFC=   4 NFV=   0.
 FulOut=F Deriv=T AODrv=T NAtomX=     5
   MMem=           0  MDisk=          12 MDiskD=          12
  W3Min=      811440 MinDsk=     2425030 NBas6D=         245
 NBas2D=       30762    NTT=       30135    LW2=     7400000
    MDV= 16105571560 MDiskM=      328644 NBas2p=       30759
 Disk-based method using ON**2 memory for 12 occupieds at a time.
 Permanent disk used for amplitudes=    11516536 words.
 Estimated scratch disk usage=   321863743 words.
 IMap=   1   2   3   4   5   6   7   8   9  10  11  12  13  14  15  16
 Actual    scratch disk usage=   310892607 words.
 JobTyp=1 Pass  1:  I=   5 to  16 NPSUse= 28 ParTrn=T ParDer=T DoDerP=T.
 (rs|ai) integrals will be sorted in core.
 Spin components of T(2) and E(2):
     alpha-alpha T2 =       0.3476309426D-01 E2=     -0.1244535117D+00
     alpha-beta  T2 =       0.1844509835D+00 E2=     -0.6994971497D+00
     beta-beta   T2 =       0.3476309426D-01 E2=     -0.1244535117D+00
 The integrals were generated   1 times.
 ANorm=    0.1119811222D+01
 E2 =    -0.9484041730D+00 EUMP2 =    -0.28045508244051D+03
 Leave Link  906 at Sun Mar  6 19:23:32 2022, MaxMem= 16106127360 cpu:            2710.3 elap:              96.9
 (Enter /sw/contrib/gaussian/g16/B01/g16/l1101.exe)
 Using compressed Sx but separate Hx and Fx, NAtomX=     5.
 Will process      6 centers per pass.
 Leave Link 1101 at Sun Mar  6 19:23:32 2022, MaxMem= 16106127360 cpu:               5.5 elap:               0.2
 (Enter /sw/contrib/gaussian/g16/B01/g16/l1102.exe)
 Leave Link 1102 at Sun Mar  6 19:23:32 2022, MaxMem= 16106127360 cpu:               0.5 elap:               0.0
 (Enter /sw/contrib/gaussian/g16/B01/g16/l1110.exe)
 Forming Gx(P) for the SCF density, NAtomX=     5.
 Integral derivatives from FoFJK, PRISM(SPDF).
 Do as many integral derivatives as possible in FoFJK.
 G2DrvN: MDV=   16106126844.
 G2DrvN: will do     6 centers at a time, making    1 passes.
 Calling FoFCou, ICntrl=  3107 FMM=F I1Cent=   0 AccDes= 0.00D+00.
 FoFJK:  IHMeth= 1 ICntrl=    3107 DoSepK=F KAlg= 0 I1Cent=           0 FoldK=F
 IRaf=         0 NMat=       1 IRICut=       1 DoRegI=T DoRafI=F ISym2E= 1 IDoP0=0 IntGTp=1.
 FoFCou: FMM=F IPFlag=           0 FMFlag=      100000 FMFlg1=           0
         NFxFlg=           0 DoJE=F BraDBF=F KetDBF=F FulRan=T
         wScrn=  0.000000 ICntrl=      3107 IOpCl=  0 I1Cent=           0 NGrid=           0
         NMat0=    1 NMatS0=      1 NMatT0=    0 NMatD0=    1 NMtDS0=    0 NMtDT0=    0
 Petite list used in FoFCou.
 End of G2Drv F.D. properties file   721 does not exist.
 End of G2Drv F.D. properties file   722 does not exist.
 End of G2Drv F.D. properties file   788 does not exist.
 Leave Link 1110 at Sun Mar  6 19:23:36 2022, MaxMem= 16106127360 cpu:              89.2 elap:               3.2
 (Enter /sw/contrib/gaussian/g16/B01/g16/l1002.exe)
 Minotr:  Closed shell wavefunction.
          IDoAtm=11111
          Frozen-core window.
          Direct CPHF calculation.
          Differentiating once with respect to electric field.
                with respect to dipole field.
          Differentiating once with respect to nuclear coordinates.
          Requested convergence is 1.0D-08 RMS, and 1.0D-07 maximum.
          Secondary convergence is 1.0D-12 RMS, and 1.0D-12 maximum.
          NewPWx=T KeepS1=T KeepF1=T KeepIn=T MapXYZ=F SortEE=F KeepMc=T.
 Keep R1 ints in memory in symmetry-blocked form, NReq=348888983.
 FoFCou: FMM=F IPFlag=           0 FMFlag=           0 FMFlg1=           0
         NFxFlg=           0 DoJE=F BraDBF=F KetDBF=F FulRan=T
         wScrn=  0.000000 ICntrl=       600 IOpCl=  0 I1Cent=           0 NGrid=           0
         NMat0=    1 NMatS0=  21528 NMatT0=    0 NMatD0=    1 NMtDS0=    0 NMtDT0=    0
 Petite list used in FoFCou.
          MDV=   16106127360 using IRadAn=       1.
          Solving linear equations simultaneously, MaxMat=       0.
          There are    18 degrees of freedom in the 1st order CPHF.  IDoFFX=6 NUNeed=    18.
     15 vectors produced by pass  0 Test12= 1.70D-14 5.56D-09 XBig12= 7.93D+00 1.23D+00.
 AX will form    15 AO Fock derivatives at one time.
     15 vectors produced by pass  1 Test12= 1.70D-14 5.56D-09 XBig12= 1.35D+00 2.31D-01.
     15 vectors produced by pass  2 Test12= 1.70D-14 5.56D-09 XBig12= 6.38D-02 5.80D-02.
     15 vectors produced by pass  3 Test12= 1.70D-14 5.56D-09 XBig12= 1.98D-03 1.05D-02.
     15 vectors produced by pass  4 Test12= 1.70D-14 5.56D-09 XBig12= 4.02D-05 1.18D-03.
     15 vectors produced by pass  5 Test12= 1.70D-14 5.56D-09 XBig12= 5.74D-07 1.21D-04.
     15 vectors produced by pass  6 Test12= 1.70D-14 5.56D-09 XBig12= 4.60D-09 1.26D-05.
     14 vectors produced by pass  7 Test12= 1.70D-14 5.56D-09 XBig12= 3.45D-11 8.85D-07.
      3 vectors produced by pass  8 Test12= 1.70D-14 5.56D-09 XBig12= 2.32D-13 6.07D-08.
      1 vectors produced by pass  9 Test12= 1.70D-14 5.56D-09 XBig12= 1.58D-15 6.30D-09.
 InvSVY:  IOpt=1 It=  1 EMax= 1.55D-15
 Solved reduced A of dimension   123 with    15 vectors.
 FullF1:  Do perturbations      1 to      18.
 Saving first derivative matrices.
 End of Minotr F.D. properties file   721 does not exist.
 End of Minotr F.D. properties file   722 does not exist.
 End of Minotr F.D. properties file   788 does not exist.
 Leave Link 1002 at Sun Mar  6 19:23:39 2022, MaxMem= 16106127360 cpu:              76.8 elap:               2.9
 (Enter /sw/contrib/gaussian/g16/B01/g16/l811.exe)
 MDV= 16106127360.
 Form MO integral derivatives with frozen-active canonical formalism.
 MOERI=1 MOERIx=1 NAtoms=     5 NAtomX=     5.
 Discarding MO integrals.
 MO basis two electron integral derivatives will not be stored on disk.
 IAlg= 3 DoFC=T DoPWx=T Debug=F.
 Frozen-core window:  NFC=   4 NFV=   0.
 Reordered first order wavefunction length =     18678272
 In DefCFB: NBatch=  1 ICI= 16 ICA=191 LFMax= 96
            Large arrays: LIAPS=   619940160 LIARS=   288257200 words.
 In StABat: MaxSiz= 55 MinSiz= 25 NAtomB=  5
 DoIAMN: NPSUse= 28.
 Leave Link  811 at Sun Mar  6 19:25:00 2022, MaxMem= 16106127360 cpu:            2268.6 elap:              81.2
 (Enter /sw/contrib/gaussian/g16/B01/g16/l804.exe)
 Frozen-core window:  NFC=   4 NFV=   0.
 Closed-shell transformation, MDV= 16106127360 ITran=4 ISComp=1.
 Semi-Direct transformation.
 ModeAB=           2 MOrb=            16 LenV=   16104919939
 LASXX=     67341636 LTotXX=    67341636 LenRXX=    67341636
 LTotAB=    68301760 MaxLAS=    99807120 LenRXY=    99807120
 NonZer=   134683272 LenScr=   202817536 LnRSAI=           0
 LnScr1=           0 LExtra=           0 Total=    369966292
 MaxDsk=          -1 SrtSym=           F ITran=            4
 DoSDTr:  NPSUse= 28
 JobTyp=0 Pass  1:  I=   1 to  16.
 (rs|ai) integrals will be sorted in core.
 Complete sort for first half transformation.
 First half transformation complete.
 Begin second half transformation for I=  10.
 Begin second half transformation for I=  10.
 Complete sort for second half transformation.
 Second half transformation complete.
 Spin components of T(2) and E(2):
     alpha-alpha T2 =       0.3476309426D-01 E2=     -0.1244535117D+00
     alpha-beta  T2 =       0.1844509835D+00 E2=     -0.6994971497D+00
     beta-beta   T2 =       0.3476309426D-01 E2=     -0.1244535117D+00
 ANorm=    0.1583652217D+01
 E2 =    -0.9484041730D+00 EUMP2 =    -0.28045508244051D+03
 Leave Link  804 at Sun Mar  6 19:25:15 2022, MaxMem= 16106127360 cpu:             432.5 elap:              15.5
 (Enter /sw/contrib/gaussian/g16/B01/g16/l1002.exe)
 Minotr:  Closed shell wavefunction.
          Computing MP2/KS-MP2 derivatives.
          Using Z-Vector for PSCF gradient.
          Skipping F1 and S1 gradient terms here.
          IDoAtm=11111
          Frozen-core window.
          Using MO integrals in the linear equations.
          Forming densities via direct SCF.
          Differentiating once with respect to electric field.
                with respect to dipole field.
          Differentiating once with respect to nuclear coordinates.
          Using symmetry in CPHF.
          Requested convergence is 1.0D-10 RMS, and 1.0D-09 maximum.
          NewPWx=F KeepS1=T KeepF1=T KeepIn=T MapXYZ=F SortEE=F KeepMc=T.
          MDV=   16106127360 using IRadAn=       5.
          Solving linear equations separately, MaxMat=       0.
          There are     1 degrees of freedom in the 1st order CPHF.  IDoFFX=0 NUNeed=     1.
 FoFJK:  IHMeth= 1 ICntrl=       0 DoSepK=F KAlg= 0 I1Cent=           0 FoldK=F
 IRaf=         0 NMat=       1 IRICut=       1 DoRegI=T DoRafI=F ISym2E= 0 IDoP0=0 IntGTp=1.
 FoFCou: FMM=F IPFlag=           0 FMFlag=      100000 FMFlg1=           0
         NFxFlg=           0 DoJE=F BraDBF=F KetDBF=F FulRan=T
         wScrn=  0.000000 ICntrl=         0 IOpCl=  0 I1Cent=           0 NGrid=           0
         NMat0=    1 NMatS0=      1 NMatT0=    0 NMatD0=    1 NMtDS0=    0 NMtDT0=    0
 Symmetry not used in FoFCou.
 LinEq1:  Iter=  0 NonCon=     1 RMS=6.57D-03 Max=1.68D-01 NDo=     1
 LinEq1:  Iter=  1 NonCon=     1 RMS=1.99D-03 Max=3.09D-02 NDo=     1
 LinEq1:  Iter=  2 NonCon=     1 RMS=8.84D-04 Max=1.43D-02 NDo=     1
 LinEq1:  Iter=  3 NonCon=     1 RMS=3.81D-04 Max=8.25D-03 NDo=     1
 LinEq1:  Iter=  4 NonCon=     1 RMS=1.38D-04 Max=1.76D-03 NDo=     1
 LinEq1:  Iter=  5 NonCon=     1 RMS=7.64D-05 Max=1.36D-03 NDo=     1
 LinEq1:  Iter=  6 NonCon=     1 RMS=2.43D-05 Max=3.56D-04 NDo=     1
 LinEq1:  Iter=  7 NonCon=     1 RMS=8.11D-06 Max=1.08D-04 NDo=     1
 LinEq1:  Iter=  8 NonCon=     1 RMS=3.95D-06 Max=6.07D-05 NDo=     1
 LinEq1:  Iter=  9 NonCon=     1 RMS=1.04D-06 Max=1.14D-05 NDo=     1
 LinEq1:  Iter= 10 NonCon=     1 RMS=2.31D-07 Max=2.81D-06 NDo=     1
 LinEq1:  Iter= 11 NonCon=     1 RMS=4.99D-08 Max=7.38D-07 NDo=     1
 LinEq1:  Iter= 12 NonCon=     1 RMS=1.17D-08 Max=1.55D-07 NDo=     1
 LinEq1:  Iter= 13 NonCon=     1 RMS=2.05D-09 Max=2.33D-08 NDo=     1
 LinEq1:  Iter= 14 NonCon=     1 RMS=4.25D-10 Max=5.72D-09 NDo=     1
 LinEq1:  Iter= 15 NonCon=     0 RMS=8.72D-11 Max=7.98D-10 NDo=     1
 Linear equations converged to 1.000D-10 1.000D-09 after    15 iterations.
 End of Minotr F.D. properties file   721 does not exist.
 End of Minotr F.D. properties file   722 does not exist.
 End of Minotr F.D. properties file   788 does not exist.
 Leave Link 1002 at Sun Mar  6 19:25:18 2022, MaxMem= 16106127360 cpu:              66.0 elap:               2.4
 (Enter /sw/contrib/gaussian/g16/B01/g16/l1102.exe)
 Use density number 2.
 Symmetrizing basis deriv contribution to polar:
 IMax=3 JMax=2 DiffMx= 0.00D+00
 Leave Link 1102 at Sun Mar  6 19:25:18 2022, MaxMem= 16106127360 cpu:               0.6 elap:               0.0
 (Enter /sw/contrib/gaussian/g16/B01/g16/l1110.exe)
 Forming Gx(P) for generalized density number  2 NAtomX=     5.
 Integral derivatives from FoFJK, PRISM(SPDF).
 Do as many integral derivatives as possible in FoFJK.
 G2DrvN: MDV=   16106126844.
 G2DrvN: will do     6 centers at a time, making    1 passes.
 Calling FoFCou, ICntrl=  3107 FMM=F I1Cent=   0 AccDes= 0.00D+00.
 FoFJK:  IHMeth= 1 ICntrl=    3107 DoSepK=F KAlg= 0 I1Cent=           0 FoldK=F
 IRaf=         0 NMat=       1 IRICut=       1 DoRegI=T DoRafI=F ISym2E= 1 IDoP0=0 IntGTp=1.
 FoFCou: FMM=F IPFlag=           0 FMFlag=      100000 FMFlg1=           0
         NFxFlg=           0 DoJE=F BraDBF=F KetDBF=F FulRan=T
         wScrn=  0.000000 ICntrl=      3107 IOpCl=  0 I1Cent=           0 NGrid=           0
         NMat0=    1 NMatS0=      1 NMatT0=    0 NMatD0=    1 NMtDS0=    0 NMtDT0=    0
 Petite list used in FoFCou.
 End of G2Drv F.D. properties file   721 does not exist.
 End of G2Drv F.D. properties file   722 does not exist.
 End of G2Drv F.D. properties file   788 does not exist.
 Leave Link 1110 at Sun Mar  6 19:25:21 2022, MaxMem= 16106127360 cpu:              87.1 elap:               3.1
 (Enter /sw/contrib/gaussian/g16/B01/g16/l1112.exe)
 MP22nd: MDV=   16106127360
 This link is doing NAtomX=     5 total of    18 degrees of freedom.
 Using ON3 I/O method in MakUI.
 Frozen-core window:  NFC=   4 NFV=   0.
 Using Ix for Sx.
 Use MO integrals over full window.
 Using OV2 memory method for fx*t*t/D, MaxI=    16 DoOO2=F NP=  28.
 R2 and R3 integrals will be kept in memory, NReq=   915591705.
 FoFCou: FMM=F IPFlag=           0 FMFlag=           0 FMFlg1=           0
         NFxFlg=           0 DoJE=F BraDBF=F KetDBF=F FulRan=T
         wScrn=  0.000000 ICntrl=       600 IOpCl=  0 I1Cent=           0 NGrid=           0
         NMat0=    1 NMatS0=      1 NMatT0=    0 NMatD0=    1 NMtDS0=    0 NMtDT0=    0
 Symmetry not used in FoFCou.
 DD1Dir will call FoFMem   1 times, MxPair=       272
 NAB=   136 NAA=     0 NBB=     0.
 Symmetry is being used.
 FoFJK:  IHMeth= 1 ICntrl=       0 DoSepK=F KAlg= 0 I1Cent=           0 FoldK=F
 IRaf=         0 NMat=      18 IRICut=      45 DoRegI=T DoRafI=T ISym2E= 2 IDoP0=3 IntGTp=3.
 Discarding MO integrals.
 Leave Link 1112 at Sun Mar  6 19:25:56 2022, MaxMem= 16106127360 cpu:             963.4 elap:              34.8
 (Enter /sw/contrib/gaussian/g16/B01/g16/l601.exe)
 Copying SCF densities to generalized density rwf, IOpCl= 0 IROHF=0.

 **********************************************************************

            Population analysis using the MP2 Density.

 **********************************************************************

 Orbital symmetries:
       Occupied  (A') (A') (A') (A') (A') (A') (A') (A') (A') (A')
                 (A") (A') (A') (A") (A') (A")
       Virtual   (A') (A") (A') (A') (A") (A') (A') (A') (A") (A')
                 (A") (A') (A') (A') (A") (A') (A') (A") (A') (A')
                 (A') (A') (A') (A') (A") (A') (A') (A") (A') (A')
                 (A') (A") (A") (A') (A') (A') (A") (A') (A") (A')
                 (A") (A") (A') (A') (A") (A') (A') (A") (A') (A')
                 (A') (A") (A') (A') (A") (A') (A") (A') (A") (A')
                 (A') (A') (A") (A') (A') (A') (A") (A") (A') (A')
                 (A") (A') (A") (A') (A") (A') (A") (A') (A') (A')
                 (A") (A') (A') (A") (A') (A") (A") (A') (A') (A')
                 (A') (A') (A") (A") (A') (A') (A") (A") (A') (A')
                 (A") (A') (A") (A') (A") (A') (A') (A') (A") (A')
                 (A") (A') (A') (A') (A") (A') (A') (A') (A") (A')
                 (A") (A") (A') (A') (A") (A") (A') (A") (A') (A')
                 (A') (A') (A") (A') (A') (A") (A") (A') (A') (A')
                 (A") (A") (A') (A') (A') (A") (A') (A') (A') (A")
                 (A') (A') (A') (A") (A") (A') (A") (A') (A') (A")
                 (A') (A") (A') (A") (A") (A') (A') (A") (A") (A")
                 (A') (A") (A") (A') (A') (A") (A') (A') (A') (A")
                 (A') (A') (A') (A') (A') (A') (A') (A') (A') (A')
                 (A')
 The electronic state is 1-A'.
 Alpha  occ. eigenvalues --  -20.72008 -20.68606 -20.66774 -15.82504  -1.64273
 Alpha  occ. eigenvalues --   -1.50401  -1.29361  -0.96042  -0.83295  -0.75819
 Alpha  occ. eigenvalues --   -0.73923  -0.63680  -0.61826  -0.61751  -0.50340
 Alpha  occ. eigenvalues --   -0.49729
 Alpha virt. eigenvalues --    0.03468   0.06110   0.09523   0.10044   0.12010
 Alpha virt. eigenvalues --    0.12259   0.14920   0.15108   0.17772   0.18098
 Alpha virt. eigenvalues --    0.18996   0.21128   0.21641   0.24275   0.24640
 Alpha virt. eigenvalues --    0.26957   0.31183   0.31553   0.33841   0.34330
 Alpha virt. eigenvalues --    0.34564   0.39235   0.44760   0.48545   0.50444
 Alpha virt. eigenvalues --    0.51904   0.54740   0.56182   0.60113   0.61990
 Alpha virt. eigenvalues --    0.63896   0.68779   0.71812   0.72442   0.74447
 Alpha virt. eigenvalues --    0.76231   0.76739   0.79614   0.80651   0.84171
 Alpha virt. eigenvalues --    0.84313   0.85024   0.88613   0.90703   0.93238
 Alpha virt. eigenvalues --    0.94619   0.95518   1.01714   1.02845   1.05689
 Alpha virt. eigenvalues --    1.06412   1.09328   1.14155   1.15617   1.16920
 Alpha virt. eigenvalues --    1.22305   1.22638   1.24422   1.34641   1.37117
 Alpha virt. eigenvalues --    1.37506   1.46884   1.48675   1.50765   1.53866
 Alpha virt. eigenvalues --    1.59597   1.59731   1.60791   1.62891   1.69747
 Alpha virt. eigenvalues --    1.73265   1.80170   1.83089   1.87977   1.88898
 Alpha virt. eigenvalues --    1.92565   1.97965   1.99063   2.05119   2.12265
 Alpha virt. eigenvalues --    2.12671   2.16164   2.18491   2.24491   2.25813
 Alpha virt. eigenvalues --    2.29003   2.34779   2.36240   2.38521   2.40044
 Alpha virt. eigenvalues --    2.43119   2.46927   2.47797   2.52758   2.53497
 Alpha virt. eigenvalues --    2.55232   2.55713   2.61503   2.62852   2.67212
 Alpha virt. eigenvalues --    2.67371   2.75840   2.81735   2.82208   2.82785
 Alpha virt. eigenvalues --    2.91889   2.98427   3.04610   3.05145   3.11191
 Alpha virt. eigenvalues --    3.11344   3.16896   3.20235   3.30495   3.33305
 Alpha virt. eigenvalues --    3.36487   3.47413   3.67957   3.86792   3.91576
 Alpha virt. eigenvalues --    4.17955   4.22022   4.22850   4.26737   4.37179
 Alpha virt. eigenvalues --    4.50325   4.51552   4.55717   4.58984   4.69860
 Alpha virt. eigenvalues --    4.80855   4.89952   4.91368   4.94408   5.00393
 Alpha virt. eigenvalues --    5.00642   5.10590   5.13422   5.18259   5.24788
 Alpha virt. eigenvalues --    5.26337   5.31876   5.32357   5.36150   5.54818
 Alpha virt. eigenvalues --    5.64534   5.70259   5.88045   5.99891   6.26502
 Alpha virt. eigenvalues --    6.29131   6.36355   6.38411   6.59263   6.65368
 Alpha virt. eigenvalues --    6.66451   6.68872   6.72757   6.80001   6.80037
 Alpha virt. eigenvalues --    6.85243   6.96688   7.00338   7.06648   7.08615
 Alpha virt. eigenvalues --    7.15117   7.17229   7.17539   7.19961   7.24500
 Alpha virt. eigenvalues --    7.24514   7.26891   7.34690   7.38545   7.41953
 Alpha virt. eigenvalues --    7.44339   7.46195   7.56099   7.65837   7.66416
 Alpha virt. eigenvalues --    7.79154   7.87578   7.95110   8.04934   8.29159
 Alpha virt. eigenvalues --    8.50547   8.65231  13.62153  14.73912  15.08936
 Alpha virt. eigenvalues --   15.72255
          Condensed to atoms (all electrons):
               1          2          3          4          5
     1  H    0.573020   0.126665   0.026390  -0.001753  -0.007347
     2  O    0.126665   8.388925  -0.232613  -0.000493  -0.008872
     3  O    0.026390  -0.232613   8.371940  -0.167901  -0.034926
     4  N   -0.001753  -0.000493  -0.167901   7.132285  -0.113800
     5  O   -0.007347  -0.008872  -0.034926  -0.113800   8.363129
 Mulliken charges:
               1
     1  H    0.283024
     2  O   -0.273612
     3  O    0.037109
     4  N    0.151662
     5  O   -0.198183
 Sum of Mulliken charges =  -0.00000
 Mulliken charges with hydrogens summed into heavy atoms:
               1
     2  O    0.009412
     3  O    0.037109
     4  N    0.151662
     5  O   -0.198183
 APT charges:
               1
     1  H    0.270296
     2  O   -0.301831
     3  O   -0.309754
     4  N    0.642587
     5  O   -0.301298
 Sum of APT charges =  -0.00000
 APT charges with hydrogens summed into heavy atoms:
               1
     2  O   -0.031535
     3  O   -0.309754
     4  N    0.642587
     5  O   -0.301298
 Electronic spatial extent (au):  <R**2>=            207.4518
 Charge=             -0.0000 electrons
 Dipole moment (field-independent basis, Debye):
    X=              0.1013    Y=             -1.1112    Z=             -0.0000  Tot=              1.1158
 Quadrupole moment (field-independent basis, Debye-Ang):
   XX=            -23.2966   YY=            -22.9346   ZZ=            -21.9412
   XY=             -2.0654   XZ=              0.0000   YZ=             -0.0000
 Traceless Quadrupole moment (field-independent basis, Debye-Ang):
   XX=             -0.5725   YY=             -0.2105   ZZ=              0.7830
   XY=             -2.0654   XZ=              0.0000   YZ=             -0.0000
 Octapole moment (field-independent basis, Debye-Ang**2):
  XXX=              2.7558  YYY=              0.2650  ZZZ=              0.0000  XYY=              2.4160
  XXY=             -2.9582  XXZ=              0.0000  XZZ=             -0.5889  YZZ=             -0.7062
  YYZ=             -0.0000  XYZ=              0.0000
 Hexadecapole moment (field-independent basis, Debye-Ang**3):
 XXXX=           -127.2901 YYYY=            -94.7682 ZZZZ=            -18.0627 XXXY=            -21.8234
 XXXZ=              0.0000 YYYX=            -19.8758 YYYZ=             -0.0000 ZZZX=              0.0000
 ZZZY=             -0.0000 XXYY=            -35.6468 XXZZ=            -24.4224 YYZZ=            -18.5839
 XXYZ=              0.0000 YYXZ=              0.0000 ZZXY=             -5.9090
 N-N= 1.226525840220D+02 E-N=-9.068774429184D+02  KE= 2.801951760496D+02
 Symmetry A'   KE= 2.663434259563D+02
 Symmetry A"   KE= 1.385175009325D+01
  Exact polarizability:  30.951   4.058  29.892  -0.000   0.000  17.653
 Approx polarizability:  24.506   0.423  27.708  -0.000   0.000  15.536
 No NMR shielding tensors so no spin-rotation constants.
 Leave Link  601 at Sun Mar  6 19:25:56 2022, MaxMem= 16106127360 cpu:               4.4 elap:               0.2
 (Enter /sw/contrib/gaussian/g16/B01/g16/l701.exe)
 ... and contract with generalized density number  2.
 Compute integral second derivatives.
 Leave Link  701 at Sun Mar  6 19:25:56 2022, MaxMem= 16106127360 cpu:               5.7 elap:               0.2
 (Enter /sw/contrib/gaussian/g16/B01/g16/l702.exe)
 L702 exits ... SP integral derivatives will be done elsewhere.
 Leave Link  702 at Sun Mar  6 19:25:56 2022, MaxMem= 16106127360 cpu:               0.5 elap:               0.0
 (Enter /sw/contrib/gaussian/g16/B01/g16/l703.exe)
 Integral derivatives from FoFJK, PRISM(SPDF).
 Compute integral second derivatives, UseDBF=F ICtDFT=           0.
 Calling FoFJK, ICntrl=  10100127 FMM=F ISym2X=1 I1Cent= 0 IOpClX= 0 NMat=1 NMatS=1 NMatT=0.
 FoFJK:  IHMeth= 1 ICntrl=10100127 DoSepK=F KAlg= 0 I1Cent=           0 FoldK=F
 IRaf=         0 NMat=       1 IRICut=       1 DoRegI=T DoRafI=F ISym2E= 1 IDoP0=0 IntGTp=1.
 FoFCou: FMM=F IPFlag=           0 FMFlag=      100000 FMFlg1=         800
         NFxFlg=           0 DoJE=F BraDBF=F KetDBF=F FulRan=T
         wScrn=  0.000000 ICntrl=  10100127 IOpCl=  0 I1Cent=           0 NGrid=           0
         NMat0=    1 NMatS0=      1 NMatT0=    0 NMatD0=    1 NMtDS0=    0 NMtDT0=    0
 Petite list used in FoFCou.
 Leave Link  703 at Sun Mar  6 19:26:12 2022, MaxMem= 16106127360 cpu:             448.1 elap:              16.0
 (Enter /sw/contrib/gaussian/g16/B01/g16/l716.exe)
 Dipole        = 3.98406457D-02-4.37197004D-01-1.21572138D-32
 Polarizability= 3.09510463D+01 4.05788167D+00 2.98915918D+01
                -6.83521220D-31 6.12064853D-31 1.76534145D+01
 Full mass-weighted force constant matrix:
 Low frequencies ---  -33.8008   -0.0011   -0.0010   -0.0007   24.0308   58.8298
 Low frequencies ---  326.6265  396.3363  524.6820
 Diagonal vibrational polarizability:
        7.3464958       9.9597771      19.2597874
 Harmonic frequencies (cm**-1), IR intensities (KM/Mole), Raman scattering
 activities (A**4/AMU), depolarization ratios for plane and unpolarized
 incident light, reduced masses (AMU), force constants (mDyne/A),
 and normal coordinates:
                      1                      2                      3
                     A"                     A'                     A"
 Frequencies --    324.9948               396.3284               524.4847
 Red. masses --      1.5382                 6.9017                 3.0008
 Frc consts  --      0.0957                 0.6387                 0.4863
 IR Inten    --     65.9023                 7.5592                25.2339
  Atom  AN      X      Y      Z        X      Y      Z        X      Y      Z
     1   1     0.00   0.00   0.98    -0.74  -0.25   0.00     0.00   0.00   0.93
     2   8     0.00   0.00  -0.11    -0.32  -0.31  -0.00     0.00  -0.00   0.06
     3   8     0.00  -0.00   0.11    -0.06   0.09   0.00    -0.00  -0.00  -0.19
     4   7    -0.00  -0.00  -0.10     0.05   0.09  -0.00     0.00   0.00   0.28
     5   8    -0.00  -0.00   0.03     0.38   0.16   0.00     0.00   0.00  -0.17
                      4                      5                      6
                     A'                     A'                     A'
 Frequencies --    709.3038               832.3234               968.0579
 Red. masses --     13.2205                11.5048                 9.7540
 Frc consts  --      3.9189                 4.6958                 5.3856
 IR Inten    --    218.5492                30.1018                12.7423
  Atom  AN      X      Y      Z        X      Y      Z        X      Y      Z
     1   1    -0.37  -0.00   0.00     0.50  -0.17  -0.00    -0.63  -0.03  -0.00
     2   8    -0.00  -0.07   0.00     0.50  -0.20   0.00     0.20  -0.17   0.00
     3   8     0.37   0.58  -0.00    -0.37  -0.02  -0.00    -0.36   0.40  -0.00
     4   7    -0.40  -0.46   0.00    -0.42  -0.06  -0.00     0.38   0.05  -0.00
     5   8     0.01  -0.11  -0.00     0.20   0.27   0.00    -0.13  -0.28   0.00
                      7                      8                      9
                     A'                     A'                     A'
 Frequencies --   1411.8848              1565.3670              3498.7973
 Red. masses --      1.2717                 8.0062                 1.0641
 Frc consts  --      1.4936                11.5587                 7.6745
 IR Inten    --     78.1703               149.4223                40.7206
  Atom  AN      X      Y      Z        X      Y      Z        X      Y      Z
     1   1     0.97  -0.18  -0.00    -0.69   0.14   0.00     0.13   0.99   0.00
     2   8    -0.07  -0.05  -0.00     0.01   0.02   0.00    -0.01  -0.06  -0.00
     3   8    -0.02   0.06   0.00    -0.05  -0.06  -0.00     0.00  -0.00   0.00
     4   7     0.06  -0.04  -0.00     0.28  -0.46   0.00    -0.00   0.00   0.00
     5   8    -0.02   0.03   0.00    -0.17   0.43  -0.00     0.00  -0.00  -0.00

 -------------------
 - Thermochemistry -
 -------------------
 Temperature   298.150 Kelvin.  Pressure   1.00000 Atm.
 Atom     1 has atomic number  1 and mass   1.00783
 Atom     2 has atomic number  8 and mass  15.99491
 Atom     3 has atomic number  8 and mass  15.99491
 Atom     4 has atomic number  7 and mass  14.00307
 Atom     5 has atomic number  8 and mass  15.99491
 Molecular mass:    62.99564 amu.
 Principal axes and moments of inertia in atomic units:
                           1         2         3
     Eigenvalues --    84.75052 222.69982 307.45034
           X            0.79768  -0.60308   0.00000
           Y            0.60308   0.79768   0.00000
           Z           -0.00000   0.00000   1.00000
 This molecule is an asymmetric top.
 Rotational symmetry number  1.
 Rotational temperatures (Kelvin)      1.02199     0.38893     0.28172
 Rotational constants (GHZ):          21.29475     8.10392     5.87003
 Zero-point vibrational energy      61198.2 (Joules/Mol)
                                   14.62672 (Kcal/Mol)
 Warning -- explicit consideration of   3 degrees of freedom as
           vibrations may cause significant error
 Vibrational temperatures:    467.60   570.23   754.62  1020.53  1197.53
          (Kelvin)           1392.82  2031.39  2252.21  5033.99
 
 Zero-point correction=                           0.023309 (Hartree/Particle)
 Thermal correction to Energy=                    0.027282
 Thermal correction to Enthalpy=                  0.028226
 Thermal correction to Gibbs Free Energy=        -0.002699
 Sum of electronic and zero-point Energies=           -280.431773
 Sum of electronic and thermal Energies=              -280.427800
 Sum of electronic and thermal Enthalpies=            -280.426856
 Sum of electronic and thermal Free Energies=         -280.457782
 
                     E (Thermal)             CV                S
                      KCal/Mol        Cal/Mol-Kelvin    Cal/Mol-Kelvin
 Total                   17.120             12.246             65.089
 Electronic               0.000              0.000              0.000
 Translational            0.889              2.981             38.341
 Rotational               0.889              2.981             23.277
 Vibrational             15.342              6.284              3.471
 Vibration     1          0.709              1.625              1.285
 Vibration     2          0.763              1.478              0.976
 Vibration     3          0.879              1.196              0.600
                       Q            Log10(Q)             Ln(Q)
 Total Bot       0.174430D+02          1.241620          2.858936
 Total V=0       0.918510D+12         11.963084         27.546018
 Vib (Bot)       0.325489D-10        -10.487464        -24.148277
 Vib (Bot)    1  0.576680D+00         -0.239065         -0.550468
 Vib (Bot)    2  0.450923D+00         -0.345897         -0.796458
 Vib (Bot)    3  0.306489D+00         -0.513585         -1.182573
 Vib (V=0)       0.171396D+01          0.234000          0.538805
 Vib (V=0)    1  0.126326D+01          0.101491          0.233692
 Vib (V=0)    2  0.117330D+01          0.069409          0.159820
 Vib (V=0)    3  0.108646D+01          0.036014          0.082925
 Electronic      0.100000D+01          0.000000          0.000000
 Translational   0.196526D+08          7.293420         16.793719
 Rotational      0.272687D+05          4.435664         10.213494
 
                                                                title
                                                             IR Spectrum
 
     3                                                                      1    1                                                   
     4                                                                      5    4               9    8    7     5    3  3           
     9                                                                      6    1               6    3    0     2    9  2           
     9                                                                      5    2               8    2    9     4    6  5           
 
     X                                                                      X    X               X    X    X     X    X  X           
     X                                                                      X    X                    X    X     X       X           
     X                                                                      X    X                    X    X             X           
     X                                                                      X    X                         X             X           
                                                                            X    X                         X             X           
                                                                            X    X                         X             X           
                                                                            X    X                         X                         
                                                                            X                              X                         
                                                                            X                              X                         
                                                                            X                              X                         
                                                                            X                              X                         
                                                                            X                              X                         
                                                                            X                              X                         
                                                                            X                              X                         
                                                                                                           X                         
                                                                                                           X                         
                                                                                                           X                         
                                                                                                           X                         
                                                                                                           X                         
                                                                                                           X                         
 
 ***** Axes restored to original set *****
 -------------------------------------------------------------------
 Center     Atomic                   Forces (Hartrees/Bohr)
 Number     Number              X              Y              Z
 -------------------------------------------------------------------
      1        1           0.004671755    0.000000000    0.001538903
      2        8          -0.003761088   -0.000000000    0.002238453
      3        8          -0.001297174   -0.000000000   -0.003292569
      4        7          -0.000083274   -0.000000000   -0.000751803
      5        8           0.000469781    0.000000000    0.000267016
 -------------------------------------------------------------------
 Cartesian Forces:  Max     0.004671755 RMS     0.001944870
 -----------------------------------------------------------------------------------------------
                       Internal Coordinate Forces (Hartree/Bohr or radian)
  Cent   Atom   N1       Length/X         N2         Alpha/Y        N3         Beta/Z          J
 -----------------------------------------------------------------------------------------------
      1  H 
      2  O        1  -0.001539(     1)
      3  O        2  -0.001718(     2)      1  -0.008699(     5)
      4  N        3   0.000619(     3)      2   0.000697(     6)      1   0.000000(     8)     0
      5  O        4  -0.000465(     4)      3   0.000620(     7)      2   0.000000(     9)     0
 -----------------------------------------------------------------------------------------------
 Internal  Forces:  Max     0.008699414 RMS     0.003027088
 Force constants in Cartesian coordinates: 
                1             2             3             4             5 
      1  0.685149D-01
      2  0.000000D+00  0.581070D-02
      3  0.202725D-01  0.000000D+00  0.439929D+00
      4 -0.547360D-01  0.000000D+00 -0.396666D-02  0.284039D+00
      5  0.000000D+00 -0.568646D-03  0.000000D+00  0.000000D+00  0.890254D-02
      6  0.339207D-01  0.000000D+00 -0.423453D+00 -0.108140D-01  0.000000D+00
      7 -0.204521D-01  0.000000D+00 -0.139604D-01 -0.167652D+00  0.000000D+00
      8  0.000000D+00 -0.597557D-02  0.000000D+00  0.000000D+00 -0.173589D-01
      9 -0.434037D-01  0.000000D+00 -0.176827D-01  0.949968D-02  0.000000D+00
     10 -0.316281D-02  0.000000D+00  0.532722D-02 -0.861870D-01  0.000000D+00
     11  0.000000D+00  0.784982D-02  0.000000D+00  0.000000D+00  0.196130D-01
     12 -0.184018D-01  0.000000D+00  0.958330D-02  0.876983D-02  0.000000D+00
     13  0.983597D-02  0.000000D+00 -0.767263D-02  0.245365D-01  0.000000D+00
     14  0.000000D+00 -0.711631D-02  0.000000D+00  0.000000D+00 -0.105880D-01
     15  0.761238D-02  0.000000D+00 -0.837676D-02 -0.348882D-02  0.000000D+00
                6             7             8             9            10 
      6  0.525271D+00
      7 -0.916489D-01  0.295057D+00
      8  0.000000D+00  0.000000D+00  0.407182D-01
      9 -0.101194D+00  0.777775D-01  0.000000D+00  0.319321D+00
     10  0.387364D-01 -0.143285D+00  0.000000D+00 -0.397127D-01  0.535359D+00
     11  0.000000D+00  0.000000D+00 -0.472227D-01  0.000000D+00  0.000000D+00
     12 -0.750480D-02  0.109362D-01  0.000000D+00 -0.254421D-01  0.245787D+00
     13  0.298058D-01  0.363329D-01  0.000000D+00 -0.416079D-02 -0.302724D+00
     14  0.000000D+00  0.000000D+00  0.298390D-01  0.000000D+00  0.000000D+00
     15  0.688098D-02  0.168956D-01  0.000000D+00 -0.175002D+00 -0.250138D+00
               11            12            13            14            15 
     11  0.572618D-01
     12  0.000000D+00  0.465192D+00
     13  0.000000D+00 -0.247091D+00  0.232018D+00
     14 -0.375019D-01  0.000000D+00  0.000000D+00  0.253673D-01
     15  0.000000D+00 -0.441828D+00  0.229119D+00  0.000000D+00  0.618326D+00
 Force constants in internal coordinates: 
                1             2             3             4             5 
      1  0.439929D+00
      2  0.195250D-01  0.253950D+00
      3  0.235094D-02  0.186310D-01  0.208057D+00
      4 -0.110842D-01  0.223122D-01  0.148143D+00  0.720449D+00
      5  0.424210D-01  0.471846D-01 -0.235632D-01  0.214101D-01  0.234701D+00
      6  0.873343D-02  0.197357D-01  0.934939D-01  0.808989D-02 -0.155508D-01
      7  0.561268D-02 -0.710343D-01  0.122148D+00  0.115196D+00 -0.199402D-01
      8  0.000000D+00  0.000000D+00  0.000000D+00  0.000000D+00  0.000000D+00
      9  0.000000D+00  0.000000D+00  0.000000D+00  0.000000D+00  0.000000D+00
                6             7             8             9 
      6  0.510464D+00
      7  0.613944D-01  0.661126D+00
      8  0.000000D+00  0.000000D+00  0.183126D-01
      9  0.000000D+00  0.000000D+00  0.265960D-01  0.106255D+00
 Leave Link  716 at Sun Mar  6 19:26:12 2022, MaxMem= 16106127360 cpu:               1.2 elap:               0.1
 (Enter /sw/contrib/gaussian/g16/B01/g16/l103.exe)

 GradGradGradGradGradGradGradGradGradGradGradGradGradGradGradGradGradGrad
 Berny optimization.
 Search for a local minimum.
 Step number   1 out of a maximum of    2
 All quantities printed in internal units (Hartrees-Bohrs-Radians)
 Second derivative matrix not updated -- analytic derivatives used.
 The second derivative matrix:
                          r1        r2        r3        r4        a1
           r1           0.43993
           r2           0.01952   0.25395
           r3           0.00235   0.01863   0.20806
           r4          -0.01108   0.02231   0.14814   0.72045
           a1           0.04242   0.04718  -0.02356   0.02141   0.23470
           a2           0.00873   0.01974   0.09349   0.00809  -0.01555
           a3           0.00561  -0.07103   0.12215   0.11520  -0.01994
           d1           0.00000   0.00000   0.00000  -0.00000  -0.00000
           d2           0.00000  -0.00000  -0.00000  -0.00000  -0.00000
                          a2        a3        d1        d2
           a2           0.51046
           a3           0.06139   0.66113
           d1           0.00000   0.00000   0.01831
           d2          -0.00000   0.00000   0.02660   0.10625
 ITU=  0
     Eigenvalues ---    0.01089   0.11367   0.12366   0.20124   0.26296
     Eigenvalues ---    0.45034   0.50458   0.60621   0.87968
 Angle between quadratic step and forces=  18.15 degrees.
 Linear search not attempted -- first point.
 Variable       Old X    -DE/DX   Delta X   Delta X   Delta X     New X
                                 (Linear)    (Quad)   (Total)
    r1        1.86209  -0.00154   0.00000   0.00012   0.00012   1.86221
    r2        2.69614  -0.00172   0.00000   0.00022   0.00022   2.69636
    r3        2.60992   0.00062   0.00000  -0.00221  -0.00221   2.60771
    r4        2.25782  -0.00047   0.00000   0.00090   0.00090   2.25873
    a1        1.79212  -0.00870   0.00000  -0.03739  -0.03739   1.75473
    a2        1.97463   0.00070   0.00000   0.00060   0.00060   1.97523
    a3        1.99550   0.00062   0.00000   0.00003   0.00003   1.99553
    d1        0.00000   0.00000   0.00000  -0.00000  -0.00000  -0.00000
    d2        0.00000   0.00000   0.00000   0.00000   0.00000   0.00000
         Item               Value     Threshold  Converged?
 Maximum Force            0.008699     0.000450     NO 
 RMS     Force            0.003027     0.000300     NO 
 Maximum Displacement     0.037394     0.001800     NO 
 RMS     Displacement     0.012492     0.001200     NO 
 Predicted change in Energy=-1.616954D-04
                       ----------------------------
                       ! Non-Optimized Parameters !
                       ! (Angstroms and Degrees)  !
 ----------------------                            ----------------------
 !      Name          Value   Derivative information (Atomic Units)     !
 ------------------------------------------------------------------------
 !       r1          0.9854   -DE/DX =   -0.0015                        !
 !       r2          1.4269   -DE/DX =   -0.0017                        !
 !       r3          1.3799   -DE/DX =    0.0006                        !
 !       r4          1.1953   -DE/DX =   -0.0005                        !
 !       a1        100.5386   -DE/DX =   -0.0087                        !
 !       a2        113.1724   -DE/DX =    0.0007                        !
 !       a3        114.3355   -DE/DX =    0.0006                        !
 !       d1          0.0      -DE/DX =    0.0                           !
 !       d2          0.0      -DE/DX =    0.0                           !
 ------------------------------------------------------------------------
 GradGradGradGradGradGradGradGradGradGradGradGradGradGradGradGradGradGrad

 Leave Link  103 at Sun Mar  6 19:26:13 2022, MaxMem= 16106127360 cpu:               2.6 elap:               0.1
 (Enter /sw/contrib/gaussian/g16/B01/g16/l9999.exe)

 ----------------------------------------------------------------------

 Electric dipole moment (input orientation):
 (Debye = 10**-18 statcoulomb cm , SI units = C m)
                  (au)            (Debye)         (10**-30 SI)
   Tot        0.439009D+00      0.111585D+01      0.372207D+01
   x         -0.116091D+00     -0.295074D+00     -0.984261D+00
   y          0.000000D+00      0.000000D+00      0.000000D+00
   z         -0.423381D+00     -0.107613D+01     -0.358957D+01

 Dipole polarizability, Alpha (input orientation).
 (esu units = cm**3 , SI units = C**2 m**2 J**-1)
 Alpha(0;0):
               (au)            (10**-24 esu)      (10**-40 SI)
   iso        0.261654D+02      0.387730D+01      0.431408D+01
   aniso      0.146034D+02      0.216401D+01      0.240778D+01
   xx         0.295136D+02      0.437346D+01      0.486613D+01
   yx         0.000000D+00      0.000000D+00      0.000000D+00
   yy         0.176534D+02      0.261597D+01      0.291065D+01
   zx        -0.399036D+01     -0.591310D+00     -0.657922D+00
   zy         0.000000D+00      0.000000D+00      0.000000D+00
   zz         0.313291D+02      0.464249D+01      0.516547D+01

 ----------------------------------------------------------------------

 Dipole orientation:
     1         -0.00000000          0.00000000          0.00000000
     8         -0.49240990          0.00000000         -1.79580595
     8          1.88781640          0.00000000         -3.06217950
     7          3.92046578         -0.00000000         -1.42511086
     8          3.35463383         -0.00000000          0.76066103

 Electric dipole moment (dipole orientation):
 (Debye = 10**-18 statcoulomb cm , SI units = C m)
                  (au)            (Debye)         (10**-30 SI)
   Tot        0.439009D+00      0.111585D+01      0.372207D+01
   x          0.000000D+00      0.000000D+00      0.000000D+00
   y          0.000000D+00      0.000000D+00      0.000000D+00
   z          0.439009D+00      0.111585D+01      0.372207D+01

 Dipole polarizability, Alpha (dipole orientation).
 (esu units = cm**3 , SI units = C**2 m**2 J**-1)
 Alpha(0;0):
               (au)            (10**-24 esu)      (10**-40 SI)
   iso        0.261654D+02      0.387730D+01      0.431408D+01
   aniso      0.146034D+02      0.216401D+01      0.240778D+01
   xx         0.316758D+02      0.469387D+01      0.522263D+01
   yx         0.000000D+00      0.000000D+00      0.000000D+00
   yy         0.176534D+02      0.261597D+01      0.291065D+01
   zx         0.389529D+01      0.577223D+00      0.642247D+00
   zy         0.000000D+00      0.000000D+00      0.000000D+00
   zz         0.291668D+02      0.432208D+01      0.480896D+01

 ----------------------------------------------------------------------
 1\1\GINC-N2108\Freq\RMP2-FC\Aug-CC-pVTZ\H1N1O3\CGAVINH\06-Mar-2022\1\\
 #p freq mp2/aug-cc-pvtz density=current\\title\\0,1\H\O,1,r1\O,2,r2,1,
 a1\N,3,r3,2,a2,1,d1,0\O,4,r4,3,a3,2,d2,0\\r1=0.98537664\r2=1.42673666\
 r3=1.38110764\r4=1.19478846\a1=102.68109925\a2=113.13777052\a3=114.333
 92022\d1=0.\d2=0.\\Version=ES64L-G16RevB.01\State=1-A'\HF=-279.5066783
 \MP2=-280.4550824\RMSD=4.347e-09\RMSF=1.945e-03\ZeroPoint=0.0233092\Th
 ermal=0.0272821\Dipole=-0.116091,0.,-0.4233809\DipoleDeriv=0.3118458,0
 .,0.0453564,0.,0.3028693,0.,-0.0065591,0.,0.1961724,-0.5306638,0.,0.26
 21757,0.,-0.2590192,0.,-0.1327034,0.,-0.1158101,-0.0290546,0.,0.373169
 ,0.,-0.008722,0.,0.4796197,0.,-0.8914844,0.2312705,0.,-0.195104,0.,0.0
 119534,0.,-0.7242115,0.,1.6845376,0.0166022,0.,-0.485597,0.,-0.0470815
 ,0.,0.3838543,0.,-0.8734155\Polar=29.5135533,0.,17.6534145,-3.9903604,
 0.,31.3290848\Quadrupole=0.1142738,0.5821163,-0.6963901,0.,1.4872347,0
 .\PG=CS [SG(H1N1O3)]\NImag=0\\0.06851491,0.,0.00581070,0.02027247,0.,0
 .43992902,-0.05473601,0.,-0.00396666,0.28403904,0.,-0.00056865,0.,0.,0
 .00890254,0.03392070,0.,-0.42345287,-0.01081402,0.,0.52527082,-0.02045
 206,0.,-0.01396040,-0.16765247,0.,-0.09164888,0.29505702,0.,-0.0059755
 7,0.,0.,-0.01735889,0.,0.,0.04071816,-0.04340371,0.,-0.01768269,0.0094
 9968,0.,-0.10119412,0.07777752,0.,0.31932078,-0.00316281,0.,0.00532722
 ,-0.08618704,0.,0.03873642,-0.14328538,0.,-0.03971269,0.53535902,0.,0.
 00784982,0.,0.,0.01961302,0.,0.,-0.04722268,0.,0.,0.05726179,-0.018401
 83,0.,0.00958330,0.00876983,0.,-0.00750480,0.01093617,0.,-0.02544213,0
 .24578712,0.,0.46519195,0.00983597,0.,-0.00767263,0.02453648,0.,0.0298
 0578,0.03633289,0.,-0.00416079,-0.30272379,0.,-0.24709128,0.23201845,0
 .,-0.00711631,0.,0.,-0.01058802,0.,0.,0.02983898,0.,0.,-0.03750195,0.,
 0.,0.02536729,0.00761238,0.,-0.00837676,-0.00348882,0.,0.00688098,0.01
 689559,0.,-0.17500184,-0.25013807,0.,-0.44182832,0.22911892,0.,0.61832
 594\\-0.00467175,0.,-0.00153890,0.00376109,0.,-0.00223845,0.00129717,0
 .,0.00329257,0.00008327,0.,0.00075180,-0.00046978,0.,-0.00026702\\\@


 GOD GAVE US TWO ENDS... ONE TO SIT ON...    
 AND THE OTHER TO THINK WITH...              
 YOUR SUCCESS DEPENDS UPON WHICH END YOU     
 USE THE MOST...                             
                                             
 IT'S A CASE OF HEADS YOU WIN TAILS YOU LOSE.
          SOURCE UNKNOWN(IT'S JUST AS WELL.) 
 Job cpu time:       0 days  2 hours  0 minutes 50.8 seconds.
 Elapsed time:       0 days  0 hours  4 minutes 22.2 seconds.
 File lengths (MBytes):  RWF=   7239 Int=      0 D2E=      0 Chk=      8 Scr=      1
 Normal termination of Gaussian 16 at Sun Mar  6 19:26:14 2022.
