title                                                                   
Freq      RMP2-FC                                                     Aug-CC-pVTZ         
Number of atoms                            I                5
Info1-9                                    I   N=           9
          33          24           0           0           0         100
           6           2           1
Full Title                                 C   N=           1
title       
Route                                      C   N=           4
#p freq mp2/aug-cc-pvtz density=current         
Charge                                     I                0
Multiplicity                               I                1
Number of electrons                        I               32
Number of alpha electrons                  I               16
Number of beta electrons                   I               16
Number of basis functions                  I              207
Number of independent functions            I              207
Number of point charges in /Mol/           I                0
Number of translation vectors              I                0
Atomic numbers                             I   N=           5
           1           8           8           7           8
Nuclear charges                            R   N=           5
  1.00000000E+00  8.00000000E+00  8.00000000E+00  7.00000000E+00  8.00000000E+00
Current cartesian coordinates              R   N=          15
  2.12049081E+00 -1.09744022E+00  0.00000000E+00  2.49538447E+00  7.26522848E-01
  0.00000000E+00  5.28288792E-17  1.74742222E+00  0.00000000E+00 -1.88957635E+00
 -1.16735261E-01  0.00000000E+00 -1.10706652E+00 -2.23462169E+00  0.00000000E+00
Number of symbols in /Mol/                 I                0
Force Field                                I                0
Atom Types                                 C   N=           5
                                                            
Int Atom Types                             I   N=           5
           0           0           0           0           0
MM charges                                 R   N=           5
  0.00000000E+00  0.00000000E+00  0.00000000E+00  0.00000000E+00  0.00000000E+00
Integer atomic weights                     I   N=           5
           1          16          16          14          16
Real atomic weights                        R   N=           5
  1.00782504E+00  1.59949146E+01  1.59949146E+01  1.40030740E+01  1.59949146E+01
Atom fragment info                         I   N=           5
           0           0           0           0           0
Atom residue num                           I   N=           5
           0           0           0           0           0
Nuclear spins                              I   N=           5
           1           0           0           2           0
Nuclear ZEff                               R   N=           5
 -1.00000000E+00 -5.60000000E+00 -5.60000000E+00 -4.55000000E+00 -5.60000000E+00
Nuclear ZNuc                               R   N=           5
  1.00000000E+00  8.00000000E+00  8.00000000E+00  7.00000000E+00  8.00000000E+00
Nuclear QMom                               R   N=           5
  0.00000000E+00  0.00000000E+00  0.00000000E+00  2.04400000E+00  0.00000000E+00
Nuclear GFac                               R   N=           5
  2.79284600E+00  0.00000000E+00  0.00000000E+00  4.03761000E-01  0.00000000E+00
MicOpt                                     I   N=           5
          -1          -1          -1          -1          -1
Number of residues                         I                0
Number of secondary structures             I                0
SymInf integers                            I   N=          26
           1           2           1           1           1           1
           1          -1           0           0           0           0
           0           0           0           0           0           0
           0           0           0           0           0           0
           0           0
RotTr to input orientation                 R   N=          12
 -9.79523616E-01  0.00000000E+00  2.01329294E-01  2.01329294E-01  0.00000000E+00
  9.79523616E-01  0.00000000E+00  1.00000000E+00  0.00000000E+00  2.29801769E+00
  0.00000000E+00  6.48051696E-01
Number of contracted shells                I               65
Number of primitive shells                 I              119
Pure/Cartesian d shells                    I                0
Pure/Cartesian f shells                    I                0
Highest angular momentum                   I                3
Largest degree of contraction              I                7
Shell types                                I   N=          65
           0           0           0           0           1           1
           1          -2          -2           0           0           0
           0           0           1           1           1           1
          -2          -2          -2          -3          -3           0
           0           0           0           0           1           1
           1           1          -2          -2          -2          -3
          -3           0           0           0           0           0
           1           1           1           1          -2          -2
          -2          -3          -3           0           0           0
           0           0           1           1           1           1
          -2          -2          -2          -3          -3
Number of primitives per shell             I   N=          65
           3           1           1           1           1           1
           1           1           1           7           6           1
           1           1           3           1           1           1
           1           1           1           1           1           7
           6           1           1           1           3           1
           1           1           1           1           1           1
           1           7           6           1           1           1
           3           1           1           1           1           1
           1           1           1           7           6           1
           1           1           3           1           1           1
           1           1           1           1           1
Shell to atom map                          I   N=          65
           1           1           1           1           1           1
           1           1           1           2           2           2
           2           2           2           2           2           2
           2           2           2           2           2           3
           3           3           3           3           3           3
           3           3           3           3           3           3
           3           4           4           4           4           4
           4           4           4           4           4           4
           4           4           4           5           5           5
           5           5           5           5           5           5
           5           5           5           5           5
Primitive exponents                        R   N=         119
  3.38700000E+01  5.09500000E+00  1.15900000E+00  3.25800000E-01  1.02700000E-01
  2.52600000E-02  1.40700000E+00  3.88000000E-01  1.02000000E-01  1.05700000E+00
  2.47000000E-01  1.53300000E+04  2.29900000E+03  5.22400000E+02  1.47300000E+02
  4.75500000E+01  1.67600000E+01  6.20700000E+00  5.22400000E+02  1.47300000E+02
  4.75500000E+01  1.67600000E+01  6.20700000E+00  6.88200000E-01  1.75200000E+00
  2.38400000E-01  7.37600000E-02  3.44600000E+01  7.74900000E+00  2.28000000E+00
  7.15600000E-01  2.14000000E-01  5.97400000E-02  2.31400000E+00  6.45000000E-01
  2.14000000E-01  1.42800000E+00  5.00000000E-01  1.53300000E+04  2.29900000E+03
  5.22400000E+02  1.47300000E+02  4.75500000E+01  1.67600000E+01  6.20700000E+00
  5.22400000E+02  1.47300000E+02  4.75500000E+01  1.67600000E+01  6.20700000E+00
  6.88200000E-01  1.75200000E+00  2.38400000E-01  7.37600000E-02  3.44600000E+01
  7.74900000E+00  2.28000000E+00  7.15600000E-01  2.14000000E-01  5.97400000E-02
  2.31400000E+00  6.45000000E-01  2.14000000E-01  1.42800000E+00  5.00000000E-01
  1.14200000E+04  1.71200000E+03  3.89300000E+02  1.10000000E+02  3.55700000E+01
  1.25400000E+01  4.64400000E+00  3.89300000E+02  1.10000000E+02  3.55700000E+01
  1.25400000E+01  4.64400000E+00  5.11800000E-01  1.29300000E+00  1.78700000E-01
  5.76000000E-02  2.66300000E+01  5.94800000E+00  1.74200000E+00  5.55000000E-01
  1.72500000E-01  4.91000000E-02  1.65400000E+00  4.69000000E-01  1.51000000E-01
  1.09300000E+00  3.64000000E-01  1.53300000E+04  2.29900000E+03  5.22400000E+02
  1.47300000E+02  4.75500000E+01  1.67600000E+01  6.20700000E+00  5.22400000E+02
  1.47300000E+02  4.75500000E+01  1.67600000E+01  6.20700000E+00  6.88200000E-01
  1.75200000E+00  2.38400000E-01  7.37600000E-02  3.44600000E+01  7.74900000E+00
  2.28000000E+00  7.15600000E-01  2.14000000E-01  5.97400000E-02  2.31400000E+00
  6.45000000E-01  2.14000000E-01  1.42800000E+00  5.00000000E-01
Contraction coefficients                   R   N=         119
  2.54948632E-02  1.90362766E-01  8.52162022E-01  1.00000000E+00  1.00000000E+00
  1.00000000E+00  1.00000000E+00  1.00000000E+00  1.00000000E+00  1.00000000E+00
  1.00000000E+00  5.19808943E-04  4.02025621E-03  2.07128267E-02  8.10105536E-02
  2.35962985E-01  4.42653446E-01  3.57064423E-01 -4.42115008E-05 -1.22591041E-03
 -1.05517725E-02 -6.74452633E-02 -1.71198607E-01  1.07329856E+00  1.00000000E+00
  1.00000000E+00  1.00000000E+00  4.11634896E-02  2.57762836E-01  8.02419274E-01
  1.00000000E+00  1.00000000E+00  1.00000000E+00  1.00000000E+00  1.00000000E+00
  1.00000000E+00  1.00000000E+00  1.00000000E+00  5.19808943E-04  4.02025621E-03
  2.07128267E-02  8.10105536E-02  2.35962985E-01  4.42653446E-01  3.57064423E-01
 -4.42115008E-05 -1.22591041E-03 -1.05517725E-02 -6.74452633E-02 -1.71198607E-01
  1.07329856E+00  1.00000000E+00  1.00000000E+00  1.00000000E+00  4.11634896E-02
  2.57762836E-01  8.02419274E-01  1.00000000E+00  1.00000000E+00  1.00000000E+00
  1.00000000E+00  1.00000000E+00  1.00000000E+00  1.00000000E+00  1.00000000E+00
  5.34563860E-04  4.13435660E-03  2.12335358E-02  8.25006224E-02  2.38138871E-01
  4.42551547E-01  3.53757422E-01 -4.89867350E-05 -1.19527323E-03 -1.03490714E-02
 -6.48680190E-02 -1.71552477E-01  1.07289568E+00  1.00000000E+00  1.00000000E+00
  1.00000000E+00  3.98072123E-02  2.49002660E-01  8.10479727E-01  1.00000000E+00
  1.00000000E+00  1.00000000E+00  1.00000000E+00  1.00000000E+00  1.00000000E+00
  1.00000000E+00  1.00000000E+00  5.19808943E-04  4.02025621E-03  2.07128267E-02
  8.10105536E-02  2.35962985E-01  4.42653446E-01  3.57064423E-01 -4.42115008E-05
 -1.22591041E-03 -1.05517725E-02 -6.74452633E-02 -1.71198607E-01  1.07329856E+00
  1.00000000E+00  1.00000000E+00  1.00000000E+00  4.11634896E-02  2.57762836E-01
  8.02419274E-01  1.00000000E+00  1.00000000E+00  1.00000000E+00  1.00000000E+00
  1.00000000E+00  1.00000000E+00  1.00000000E+00  1.00000000E+00
Coordinates of each shell                  R   N=         195
  2.12049081E+00 -1.09744022E+00  0.00000000E+00  2.12049081E+00 -1.09744022E+00
  0.00000000E+00  2.12049081E+00 -1.09744022E+00  0.00000000E+00  2.12049081E+00
 -1.09744022E+00  0.00000000E+00  2.12049081E+00 -1.09744022E+00  0.00000000E+00
  2.12049081E+00 -1.09744022E+00  0.00000000E+00  2.12049081E+00 -1.09744022E+00
  0.00000000E+00  2.12049081E+00 -1.09744022E+00  0.00000000E+00  2.12049081E+00
 -1.09744022E+00  0.00000000E+00  2.49538447E+00  7.26522848E-01  0.00000000E+00
  2.49538447E+00  7.26522848E-01  0.00000000E+00  2.49538447E+00  7.26522848E-01
  0.00000000E+00  2.49538447E+00  7.26522848E-01  0.00000000E+00  2.49538447E+00
  7.26522848E-01  0.00000000E+00  2.49538447E+00  7.26522848E-01  0.00000000E+00
  2.49538447E+00  7.26522848E-01  0.00000000E+00  2.49538447E+00  7.26522848E-01
  0.00000000E+00  2.49538447E+00  7.26522848E-01  0.00000000E+00  2.49538447E+00
  7.26522848E-01  0.00000000E+00  2.49538447E+00  7.26522848E-01  0.00000000E+00
  2.49538447E+00  7.26522848E-01  0.00000000E+00  2.49538447E+00  7.26522848E-01
  0.00000000E+00  2.49538447E+00  7.26522848E-01  0.00000000E+00  3.21057611E-17
  1.74742222E+00  0.00000000E+00  3.21057611E-17  1.74742222E+00  0.00000000E+00
  3.21057611E-17  1.74742222E+00  0.00000000E+00  3.21057611E-17  1.74742222E+00
  0.00000000E+00  3.21057611E-17  1.74742222E+00  0.00000000E+00  3.21057611E-17
  1.74742222E+00  0.00000000E+00  3.21057611E-17  1.74742222E+00  0.00000000E+00
  3.21057611E-17  1.74742222E+00  0.00000000E+00  3.21057611E-17  1.74742222E+00
  0.00000000E+00  3.21057611E-17  1.74742222E+00  0.00000000E+00  3.21057611E-17
  1.74742222E+00  0.00000000E+00  3.21057611E-17  1.74742222E+00  0.00000000E+00
  3.21057611E-17  1.74742222E+00  0.00000000E+00  3.21057611E-17  1.74742222E+00
  0.00000000E+00 -1.88957635E+00 -1.16735261E-01  0.00000000E+00 -1.88957635E+00
 -1.16735261E-01  0.00000000E+00 -1.88957635E+00 -1.16735261E-01  0.00000000E+00
 -1.88957635E+00 -1.16735261E-01  0.00000000E+00 -1.88957635E+00 -1.16735261E-01
  0.00000000E+00 -1.88957635E+00 -1.16735261E-01  0.00000000E+00 -1.88957635E+00
 -1.16735261E-01  0.00000000E+00 -1.88957635E+00 -1.16735261E-01  0.00000000E+00
 -1.88957635E+00 -1.16735261E-01  0.00000000E+00 -1.88957635E+00 -1.16735261E-01
  0.00000000E+00 -1.88957635E+00 -1.16735261E-01  0.00000000E+00 -1.88957635E+00
 -1.16735261E-01  0.00000000E+00 -1.88957635E+00 -1.16735261E-01  0.00000000E+00
 -1.88957635E+00 -1.16735261E-01  0.00000000E+00 -1.10706652E+00 -2.23462169E+00
  0.00000000E+00 -1.10706652E+00 -2.23462169E+00  0.00000000E+00 -1.10706652E+00
 -2.23462169E+00  0.00000000E+00 -1.10706652E+00 -2.23462169E+00  0.00000000E+00
 -1.10706652E+00 -2.23462169E+00  0.00000000E+00 -1.10706652E+00 -2.23462169E+00
  0.00000000E+00 -1.10706652E+00 -2.23462169E+00  0.00000000E+00 -1.10706652E+00
 -2.23462169E+00  0.00000000E+00 -1.10706652E+00 -2.23462169E+00  0.00000000E+00
 -1.10706652E+00 -2.23462169E+00  0.00000000E+00 -1.10706652E+00 -2.23462169E+00
  0.00000000E+00 -1.10706652E+00 -2.23462169E+00  0.00000000E+00 -1.10706652E+00
 -2.23462169E+00  0.00000000E+00 -1.10706652E+00 -2.23462169E+00  0.00000000E+00
Num ILSW                                   I              100
ILSW                                       I   N=         100
           0           0           0           0           2           0
           0           0           0           0           0          -1
           5           0           0           0           2           0
           0           0           0           0           1           0
           1           0           0           0           0           0
           0           0      100000           0          -1           0
           0           0           0           0           0           0
           0           0           0           1           1           0
           0 -2000000000           1           0           0           0
           0           0           4          52           0           0
           0           0           0           0           0           0
           0           0           0           5           4           1
           0           0           0           0           0           0
           0           0           0           0           0           0
           0           0           0           0           0           0
           0           0           0           0           0           0
           0           0           0           0
Num RLSW                                   I               52
RLSW                                       R   N=          52
  1.00000000E+00  1.00000000E+00  1.00000000E+00  1.00000000E+00  1.00000000E+00
  0.00000000E+00  0.00000000E+00  1.00000000E+00  0.00000000E+00  0.00000000E+00
  0.00000000E+00  0.00000000E+00  1.00000000E+00  0.00000000E+00  0.00000000E+00
  0.00000000E+00  0.00000000E+00  1.00000000E+00  0.00000000E+00  0.00000000E+00
  0.00000000E+00  0.00000000E+00  1.00000000E+00  0.00000000E+00  0.00000000E+00
  0.00000000E+00  0.00000000E+00  1.00000000E+00  0.00000000E+00  0.00000000E+00
  0.00000000E+00  0.00000000E+00  1.00000000E+00  0.00000000E+00  0.00000000E+00
  0.00000000E+00  0.00000000E+00  0.00000000E+00  1.00000000E+00  1.00000000E+00
  0.00000000E+00  1.00000000E+00  0.00000000E+00  0.00000000E+00  0.00000000E+00
  0.00000000E+00  0.00000000E+00  0.00000000E+00  0.00000000E+00  0.00000000E+00
  0.00000000E+00  0.00000000E+00
MxBond                                     I                2
NBond                                      I   N=           5
           1           2           2           2           1
IBond                                      I   N=          10
           2           0           1           3           2           4
           3           5           4           0
RBond                                      R   N=          10
  1.00000000E+00  0.00000000E+00  1.00000000E+00  1.00000000E+00  1.00000000E+00
  1.00000000E+00  1.00000000E+00  2.00000000E+00  2.00000000E+00  0.00000000E+00
Virial Ratio                               R      2.002390811114886E+00
SCF Energy                                 R     -2.795042104824255E+02
MP2 Energy                                 R     -2.804550382204490E+02
Total Energy                               R     -2.804550382204490E+02
Post-SCF wavefunction norm                 R      1.585099559829754E+00
RMS Force                                  R      2.937397534903963E-03
RMS Density                                R      4.965506995308108E-09
NImag                                      I                0
Job Status                                 I                1
Nuclear derivative order                   I                2
External E-field                           R   N=          35
  0.00000000E+00  0.00000000E+00  0.00000000E+00  0.00000000E+00  0.00000000E+00
  0.00000000E+00  0.00000000E+00  0.00000000E+00  0.00000000E+00  0.00000000E+00
  0.00000000E+00  0.00000000E+00  0.00000000E+00  0.00000000E+00  0.00000000E+00
  0.00000000E+00  0.00000000E+00  0.00000000E+00  0.00000000E+00  0.00000000E+00
  0.00000000E+00  0.00000000E+00  0.00000000E+00  0.00000000E+00  0.00000000E+00
  0.00000000E+00  0.00000000E+00  0.00000000E+00  0.00000000E+00  0.00000000E+00
  0.00000000E+00  0.00000000E+00  0.00000000E+00  0.00000000E+00  0.00000000E+00
IOpCl                                      I                0
IROHF                                      I                0
Alpha Orbital Energies                     R   N=         207
 -2.07159205E+01 -2.06926556E+01 -2.06669026E+01 -1.58288980E+01 -1.63906043E+00
 -1.50481164E+00 -1.28541781E+00 -9.61739893E-01 -8.32087825E-01 -7.56261456E-01
 -7.34833616E-01 -6.36852817E-01 -6.20520171E-01 -6.19190301E-01 -5.04096285E-01
 -4.95174648E-01  3.51783550E-02  5.68503188E-02  9.49860088E-02  1.00326149E-01
  1.19721327E-01  1.22072435E-01  1.49842979E-01  1.52653998E-01  1.77673403E-01
  1.79938474E-01  1.89929266E-01  2.10785929E-01  2.16783445E-01  2.41727682E-01
  2.46261157E-01  2.68170407E-01  3.11361571E-01  3.15935960E-01  3.34069464E-01
  3.37529679E-01  3.45244491E-01  3.89169867E-01  4.48172868E-01  4.88495161E-01
  5.04878925E-01  5.17944604E-01  5.43837812E-01  5.60450433E-01  5.98039020E-01
  6.19809883E-01  6.37353294E-01  6.88697291E-01  7.19849517E-01  7.23465547E-01
  7.42571336E-01  7.62776136E-01  7.66391869E-01  7.95776332E-01  8.04519309E-01
  8.39976477E-01  8.44047875E-01  8.51573431E-01  8.83718207E-01  9.07059285E-01
  9.28394027E-01  9.45901655E-01  9.56463703E-01  1.01749044E+00  1.03106430E+00
  1.05951082E+00  1.06508989E+00  1.09285854E+00  1.14267471E+00  1.15456743E+00
  1.16671624E+00  1.22079305E+00  1.22807468E+00  1.24564452E+00  1.35117152E+00
  1.36283822E+00  1.37415064E+00  1.46710569E+00  1.48464097E+00  1.50556484E+00
  1.54214859E+00  1.59447823E+00  1.59537812E+00  1.60010842E+00  1.62198027E+00
  1.69426176E+00  1.74078398E+00  1.80071188E+00  1.82631318E+00  1.88676349E+00
  1.89515649E+00  1.92105296E+00  1.97609705E+00  1.98674872E+00  2.05081251E+00
  2.11794255E+00  2.12719864E+00  2.15737656E+00  2.18737831E+00  2.24036678E+00
  2.25903602E+00  2.29546819E+00  2.34968605E+00  2.36213453E+00  2.38591718E+00
  2.40315176E+00  2.42581559E+00  2.46703464E+00  2.47524386E+00  2.52837400E+00
  2.52984405E+00  2.54805788E+00  2.55363812E+00  2.61033871E+00  2.62705535E+00
  2.66604397E+00  2.66649350E+00  2.74931389E+00  2.80443998E+00  2.80802438E+00
  2.84030221E+00  2.91010304E+00  2.97184245E+00  3.03766316E+00  3.04516860E+00
  3.11338199E+00  3.11574388E+00  3.17311684E+00  3.21318464E+00  3.30499899E+00
  3.32799828E+00  3.34693503E+00  3.48152193E+00  3.65986120E+00  3.85774127E+00
  3.92440976E+00  4.18170273E+00  4.21450634E+00  4.21897848E+00  4.25878605E+00
  4.36636307E+00  4.49692444E+00  4.51062163E+00  4.55165700E+00  4.59299288E+00
  4.69163962E+00  4.80656157E+00  4.88252037E+00  4.91005459E+00  4.93772238E+00
  4.98528303E+00  5.00175077E+00  5.09680513E+00  5.12909804E+00  5.17838496E+00
  5.24760455E+00  5.25622882E+00  5.30563637E+00  5.33421090E+00  5.35469965E+00
  5.54376170E+00  5.63936238E+00  5.69616930E+00  5.88491568E+00  6.00150374E+00
  6.26552983E+00  6.28250915E+00  6.34640571E+00  6.37611860E+00  6.59657104E+00
  6.64902764E+00  6.65579291E+00  6.67891112E+00  6.72061061E+00  6.80689832E+00
  6.80870786E+00  6.83577472E+00  6.94871304E+00  7.02039514E+00  7.06871845E+00
  7.07958437E+00  7.13920954E+00  7.15883666E+00  7.16781028E+00  7.20533658E+00
  7.24222591E+00  7.24276100E+00  7.26603565E+00  7.34101882E+00  7.37114826E+00
  7.41695227E+00  7.43789017E+00  7.46394001E+00  7.53280054E+00  7.64996964E+00
  7.65722483E+00  7.78760791E+00  7.87355426E+00  7.91863144E+00  8.04499443E+00
  8.30197527E+00  8.49094653E+00  8.63558922E+00  1.35000762E+01  1.45998789E+01
  1.50440366E+01  1.57057401E+01
Alpha MO coefficients                      R   N=       42849
  6.86484452E-05 -5.32827916E-05 -1.19205548E-03  7.73300031E-06 -5.23580405E-05
  4.37554954E-05  0.00000000E+00 -9.12635922E-05 -3.05873045E-04  0.00000000E+00
  8.39496610E-06 -3.66607990E-04  0.00000000E+00  4.39038329E-05  0.00000000E+00
  0.00000000E+00 -2.53986953E-05  1.36484890E-05  2.31345625E-04  0.00000000E+00
  0.00000000E+00 -4.38607992E-05 -2.07133967E-04  3.22639258E-03 -9.11997336E-05
 -9.50393623E-05  3.47895522E-03  2.49441463E-03  1.04471383E-04 -5.22176222E-05
  0.00000000E+00 -7.33278389E-04  2.73914053E-04  0.00000000E+00 -1.92974692E-03
  1.03709086E-03  0.00000000E+00 -5.40349180E-04  2.14911275E-05  0.00000000E+00
  2.09120288E-05  0.00000000E+00  0.00000000E+00 -1.10064501E-05  4.42285683E-05
 -4.46281552E-04  0.00000000E+00  0.00000000E+00  4.47148790E-04 -6.51703174E-04
 -3.62751436E-04  0.00000000E+00  0.00000000E+00  5.43332386E-04 -7.27396571E-04
  0.00000000E+00  7.55001315E-05 -5.22472932E-05  0.00000000E+00  0.00000000E+00
 -2.99781061E-05  1.06684347E-04  0.00000000E+00  2.10643253E-04 -4.90212127E-05
  0.00000000E+00  0.00000000E+00 -1.87755788E-04  2.99955127E-04  9.76923218E-01
 -9.14474892E-03  4.33712945E-02  5.99548389E-04 -2.18692940E-03  5.12612880E-04
 -2.11020906E-03  0.00000000E+00 -4.11858705E-04  2.19157311E-03  0.00000000E+00
 -2.19724685E-03 -5.65816019E-04  0.00000000E+00 -2.07115968E-04  9.83531186E-05
  0.00000000E+00  1.55661912E-05  0.00000000E+00  0.00000000E+00 -3.01383334E-06
  2.95763736E-05  8.11022716E-04  0.00000000E+00  0.00000000E+00 -4.82881365E-04
 -1.34148659E-04 -1.60554441E-04  0.00000000E+00  0.00000000E+00 -5.53456171E-04
  3.27838240E-04  0.00000000E+00 -1.95449426E-06 -7.89192512E-05  0.00000000E+00
  0.00000000E+00 -1.08108407E-05  4.79889775E-05  0.00000000E+00  9.09561850E-05
  1.10787855E-05  0.00000000E+00  0.00000000E+00 -3.22857134E-04  3.65087565E-04
  9.46316721E-05  3.83879181E-04 -3.21358268E-04 -6.74594935E-04  3.93572356E-04
 -4.61236360E-05 -1.02579436E-04  0.00000000E+00  6.01017993E-04  9.98179559E-04
  0.00000000E+00 -7.61947385E-04 -6.78489010E-04  0.00000000E+00  1.91780033E-04
  2.09372299E-04  0.00000000E+00 -4.13362336E-05  0.00000000E+00  0.00000000E+00
  2.16356127E-05  7.12346848E-05 -4.10118472E-04  0.00000000E+00  0.00000000E+00
 -3.94304758E-05  1.04417448E-03  2.32244863E-05  0.00000000E+00  0.00000000E+00
 -3.46134075E-04  3.51600241E-05  0.00000000E+00 -7.85290984E-05 -1.13717302E-04
  0.00000000E+00  0.00000000E+00 -1.03342553E-04  1.08242632E-04  0.00000000E+00
 -1.19320127E-04  4.18234888E-05  0.00000000E+00  0.00000000E+00 -1.58979271E-05
  5.18139063E-04 -9.63744814E-04  2.84665668E-05 -8.07146164E-05  1.22400748E-04
 -2.25449198E-04 -3.19783985E-05 -4.19605766E-05  0.00000000E+00  1.84472433E-04
  2.32996390E-04  0.00000000E+00  5.83739986E-04  2.89814256E-04  0.00000000E+00
 -2.07176974E-04 -7.47710989E-05  0.00000000E+00 -1.12784453E-05  0.00000000E+00
  0.00000000E+00  4.49576488E-06  1.29505218E-05 -2.43800866E-06  0.00000000E+00
  0.00000000E+00 -1.64060790E-04  3.60247756E-05 -1.57004214E-05  0.00000000E+00
  0.00000000E+00 -1.60825616E-04 -2.30211656E-05  0.00000000E+00 -8.14683552E-06
 -1.08428550E-05  0.00000000E+00  0.00000000E+00 -2.65005210E-05  6.60680150E-06
  0.00000000E+00  4.15209830E-05  6.19925449E-05  0.00000000E+00  0.00000000E+00
  1.48696564E-04 -1.00877131E-04  4.08708585E-05  3.30168992E-05 -1.54701891E-04
 -3.13644027E-05  1.31023961E-05  6.38810327E-06  0.00000000E+00  2.45106239E-04
  6.92925548E-05  0.00000000E+00  1.38572484E-04  2.87461221E-05  0.00000000E+00
  1.56334929E-05  0.00000000E+00  0.00000000E+00 -1.50079027E-05  1.24095698E-05
  2.46142689E-05  0.00000000E+00  0.00000000E+00 -1.09369911E-04  5.54309872E-05
 -1.70686756E-04  1.78037846E-05 -1.22810568E-05 -5.47086089E-04  1.77701415E-04
  7.23530297E-06  1.35728356E-05  0.00000000E+00 -4.47318641E-08 -3.91108610E-05
  0.00000000E+00  1.86098649E-04  8.74887030E-05  0.00000000E+00 -5.40303428E-05
  4.18098741E-05  0.00000000E+00 -4.45535530E-07  0.00000000E+00  0.00000000E+00
 -8.18527640E-06 -1.27880269E-05  1.52781095E-05  0.00000000E+00  0.00000000E+00
  4.52061709E-05  1.08796798E-04  5.40531650E-05  0.00000000E+00  0.00000000E+00
 -3.30605349E-05 -6.40207523E-05  0.00000000E+00  7.71855804E-06  1.04986283E-05
  0.00000000E+00  0.00000000E+00 -5.20165830E-07 -2.23347482E-05  0.00000000E+00
 -1.20863716E-05 -3.12618218E-05  0.00000000E+00  0.00000000E+00 -1.59260860E-06
 -2.12790921E-05  9.87471024E-04  1.65293817E-05 -6.43013752E-06  2.43659706E-04
 -4.30764184E-04  1.54680253E-05  2.74650791E-05  0.00000000E+00 -5.42110099E-05
 -1.43811876E-04  0.00000000E+00  2.23983999E-04 -1.54218126E-04  0.00000000E+00
 -1.43148603E-04  1.47116433E-04  0.00000000E+00 -3.61165163E-06  0.00000000E+00
  0.00000000E+00 -2.70471994E-05 -1.00321475E-05 -4.85012669E-05  0.00000000E+00
  0.00000000E+00  6.44887503E-05  1.11812323E-04 -5.62391979E-05  0.00000000E+00
  0.00000000E+00  5.12530526E-05  3.91782212E-06  0.00000000E+00  2.84207404E-06
  5.32698927E-06  0.00000000E+00  0.00000000E+00 -6.09470406E-06  1.32990151E-06
  0.00000000E+00  2.77671641E-06 -2.66287069E-05  0.00000000E+00  0.00000000E+00
  9.63964408E-05 -1.43575851E-04  2.40188678E-04  1.37040682E-03 -1.51891490E-04
 -5.75478129E-04  9.30782306E-04  6.33131704E-05 -7.26792382E-05  0.00000000E+00
  6.04088421E-04 -2.04734370E-03  0.00000000E+00  1.41335101E-04  4.96353450E-04
  0.00000000E+00  1.88271459E-04 -2.99630893E-04  0.00000000E+00 -1.28394192E-04
  0.00000000E+00  0.00000000E+00 -1.98929777E-04 -1.60616585E-04 -4.66358331E-04
  0.00000000E+00  0.00000000E+00 -6.02963846E-04 -9.09890496E-04 -4.93583339E-05
  0.00000000E+00  0.00000000E+00  4.97020443E-05  1.19696732E-04  0.00000000E+00
  7.88893760E-06  3.52764640E-05  0.00000000E+00  0.00000000E+00 -2.75331478E-05
 -3.96271213E-06  0.00000000E+00 -1.34509786E-04  1.60215460E-04  0.00000000E+00
  0.00000000E+00 -3.21469083E-04 -3.15366488E-05  9.76652628E-01 -9.89259622E-03
  4.35607008E-02  3.66312796E-03 -8.91474572E-04 -4.69844709E-04  2.12215745E-03
  0.00000000E+00  5.39068357E-04 -2.49730004E-03  0.00000000E+00 -6.01590533E-05
  8.16939461E-04  0.00000000E+00  1.07971346E-04 -6.38048529E-05  0.00000000E+00
 -1.94784336E-04  0.00000000E+00  0.00000000E+00 -7.29819698E-05 -4.71841501E-05
  4.04126184E-04  0.00000000E+00  0.00000000E+00  8.43191036E-04  4.99686900E-04
 -2.10336493E-04  0.00000000E+00  0.00000000E+00 -1.40739829E-04 -3.86033548E-05
  0.00000000E+00 -5.12776943E-06  7.01332072E-05  0.00000000E+00  0.00000000E+00
 -3.05260716E-05  9.72355368E-06  0.00000000E+00 -8.98517887E-05  8.85071650E-05
  0.00000000E+00  0.00000000E+00 -1.68996838E-04  1.98390636E-04  3.79614340E-04
  1.98295973E-03  1.27877681E-03 -1.88156423E-05  4.69890285E-05  2.70033473E-04
  0.00000000E+00  3.90457439E-04  1.03886813E-03  0.00000000E+00 -1.03426043E-04
  2.22874447E-04  0.00000000E+00 -2.28056737E-05  0.00000000E+00  0.00000000E+00
  3.08553755E-05 -2.73589253E-05 -2.11816017E-04  0.00000000E+00  0.00000000E+00
 -3.63497690E-04  3.99036503E-04  9.76836212E-01 -9.18288977E-03  4.34609419E-02
  9.92857458E-05 -1.86629462E-03 -2.03098572E-03 -8.59520106E-04  0.00000000E+00
  2.06698607E-03  7.96722933E-04  0.00000000E+00 -3.79380054E-04  6.28945058E-04
  0.00000000E+00  2.17272005E-04 -2.95891838E-04  0.00000000E+00  3.19058751E-05
  0.00000000E+00  0.00000000E+00 -7.47771035E-05  6.01842977E-05  7.64863513E-04
  0.00000000E+00  0.00000000E+00 -2.05572358E-04  3.49100671E-04 -2.35203317E-04
  0.00000000E+00  0.00000000E+00  3.31399727E-04  4.08497879E-06  0.00000000E+00
 -7.98433524E-05  4.70984627E-07  0.00000000E+00  0.00000000E+00  1.70332733E-05