 Entering Gaussian System, Link 0=g16
 Input=hoono_a3_115p5901.gjf
 Output=hoono_a3_115p5901.log
 Initial command:
 /sw/contrib/gaussian/g16/B01/g16/l1.exe "/scr/Gau-2715.inp" -scrdir="/scr/"
 Entering Link 1 = /sw/contrib/gaussian/g16/B01/g16/l1.exe PID=      2716.
  
 Copyright (c) 1988-2017, Gaussian, Inc.  All Rights Reserved.
  
 This is part of the Gaussian(R) 16 program.  It is based on
 the Gaussian(R) 09 system (copyright 2009, Gaussian, Inc.),
 the Gaussian(R) 03 system (copyright 2003, Gaussian, Inc.),
 the Gaussian(R) 98 system (copyright 1998, Gaussian, Inc.),
 the Gaussian(R) 94 system (copyright 1995, Gaussian, Inc.),
 the Gaussian 92(TM) system (copyright 1992, Gaussian, Inc.),
 the Gaussian 90(TM) system (copyright 1990, Gaussian, Inc.),
 the Gaussian 88(TM) system (copyright 1988, Gaussian, Inc.),
 the Gaussian 86(TM) system (copyright 1986, Carnegie Mellon
 University), and the Gaussian 82(TM) system (copyright 1983,
 Carnegie Mellon University). Gaussian is a federally registered
 trademark of Gaussian, Inc.
  
 This software contains proprietary and confidential information,
 including trade secrets, belonging to Gaussian, Inc.
  
 This software is provided under written license and may be
 used, copied, transmitted, or stored only in accord with that
 written license.
  
 The following legend is applicable only to US Government
 contracts under FAR:
  
                    RESTRICTED RIGHTS LEGEND
  
 Use, reproduction and disclosure by the US Government is
 subject to restrictions as set forth in subparagraphs (a)
 and (c) of the Commercial Computer Software - Restricted
 Rights clause in FAR 52.227-19.
  
 Gaussian, Inc.
 340 Quinnipiac St., Bldg. 40, Wallingford CT 06492
  
  
 ---------------------------------------------------------------
 Warning -- This program may not be used in any manner that
 competes with the business of Gaussian, Inc. or will provide
 assistance to any competitor of Gaussian, Inc.  The licensee
 of this program is prohibited from giving any competitor of
 Gaussian, Inc. access to this program.  By using this program,
 the user acknowledges that Gaussian, Inc. is engaged in the
 business of creating and licensing software in the field of
 computational chemistry and represents and warrants to the
 licensee that it is not a competitor of Gaussian, Inc. and that
 it will not use this program in any manner prohibited above.
 ---------------------------------------------------------------
  

 Cite this work as:
 Gaussian 16, Revision B.01,
 M. J. Frisch, G. W. Trucks, H. B. Schlegel, G. E. Scuseria, 
 M. A. Robb, J. R. Cheeseman, G. Scalmani, V. Barone, 
 G. A. Petersson, H. Nakatsuji, X. Li, M. Caricato, A. V. Marenich, 
 J. Bloino, B. G. Janesko, R. Gomperts, B. Mennucci, H. P. Hratchian, 
 J. V. Ortiz, A. F. Izmaylov, J. L. Sonnenberg, D. Williams-Young, 
 F. Ding, F. Lipparini, F. Egidi, J. Goings, B. Peng, A. Petrone, 
 T. Henderson, D. Ranasinghe, V. G. Zakrzewski, J. Gao, N. Rega, 
 G. Zheng, W. Liang, M. Hada, M. Ehara, K. Toyota, R. Fukuda, 
 J. Hasegawa, M. Ishida, T. Nakajima, Y. Honda, O. Kitao, H. Nakai, 
 T. Vreven, K. Throssell, J. A. Montgomery, Jr., J. E. Peralta, 
 F. Ogliaro, M. J. Bearpark, J. J. Heyd, E. N. Brothers, K. N. Kudin, 
 V. N. Staroverov, T. A. Keith, R. Kobayashi, J. Normand, 
 K. Raghavachari, A. P. Rendell, J. C. Burant, S. S. Iyengar, 
 J. Tomasi, M. Cossi, J. M. Millam, M. Klene, C. Adamo, R. Cammi, 
 J. W. Ochterski, R. L. Martin, K. Morokuma, O. Farkas, 
 J. B. Foresman, and D. J. Fox, Gaussian, Inc., Wallingford CT, 2016.
 
 ******************************************
 Gaussian 16:  ES64L-G16RevB.01 20-Dec-2017
                 6-Mar-2022 
 ******************************************
 %nproc=28
 Will use up to   28 processors via shared memory.
 %mem=120GB
 %chk=hoono_a3_115p5901.chk
 ---------------------------------------
 #p freq mp2/aug-cc-pvtz density=current
 ---------------------------------------
 1/10=4,30=1,38=1/1,3;
 2/12=2,17=6,18=5,40=1/2;
 3/5=16,6=1,7=10,11=9,25=1,30=1,71=2,140=1/1,2,3;
 4//1;
 5/5=2,38=5,98=1/2;
 8/6=3,8=1,10=1,19=11,30=-1/1;
 9/15=3,16=-3/6;
 11/6=1,8=1,15=11,17=12,24=-1,27=1,28=-2,29=300,32=6,42=3/1,2,10;
 10/6=2,21=1/2;
 8/6=4,8=1,10=1,19=11,30=-1/11,4;
 10/5=1,20=4/2;
 11/12=2,14=11,16=1,17=2,28=-2,42=3,76=2/2,10,12;
 6/7=2,8=2,9=2,10=2,22=-1/1;
 7/8=1,10=1,12=2,25=1,44=2/1,2,3,16;
 1/10=4,30=1/3;
 99//99;
 Leave Link    1 at Sun Mar  6 19:39:27 2022, MaxMem= 16106127360 cpu:               2.9 elap:               0.1
 (Enter /sw/contrib/gaussian/g16/B01/g16/l101.exe)
 -----
 title
 -----
 Symbolic Z-matrix:
 Charge =  0 Multiplicity = 1
 H
 O                    1    r1
 O                    2    r2       1    a1
 N                    3    r3       2    a2       1    d1       0
 O                    4    r4       3    a3       2    d2       0
       Variables:
  r1                    0.98538                  
  r2                    1.42674                  
  r3                    1.38111                  
  r4                    1.19479                  
  a1                  100.63551                  
  a2                  113.13777                  
  a3                  115.5902                   
  d1                    0.                       
  d2                    0.                       
 
 ITRead=  0  0  0  0  0
 MicOpt= -1 -1 -1 -1 -1
 NAtoms=      5 NQM=        5 NQMF=       0 NMMI=      0 NMMIF=      0
                NMic=       0 NMicF=      0.
                    Isotopes and Nuclear Properties:
 (Nuclear quadrupole moments (NQMom) in fm**2, nuclear magnetic moments (NMagM)
  in nuclear magnetons)

  Atom         1           2           3           4           5
 IAtWgt=           1          16          16          14          16
 AtmWgt=   1.0078250  15.9949146  15.9949146  14.0030740  15.9949146
 NucSpn=           1           0           0           2           0
 AtZEff=  -0.0000000  -0.0000000  -0.0000000  -0.0000000  -0.0000000
 NQMom=    0.0000000   0.0000000   0.0000000   2.0440000   0.0000000
 NMagM=    2.7928460   0.0000000   0.0000000   0.4037610   0.0000000
 AtZNuc=   1.0000000   8.0000000   8.0000000   7.0000000   8.0000000
 Leave Link  101 at Sun Mar  6 19:39:27 2022, MaxMem= 16106127360 cpu:               2.7 elap:               0.1
 (Enter /sw/contrib/gaussian/g16/B01/g16/l103.exe)

 GradGradGradGradGradGradGradGradGradGradGradGradGradGradGradGradGradGrad
 Berny optimization.
 Initialization pass.
                       ----------------------------
                       !    Initial Parameters    !
                       ! (Angstroms and Degrees)  !
 ----------------------                            ----------------------
 !      Name          Value   Derivative information (Atomic Units)     !
 ------------------------------------------------------------------------
 !       r1          0.9854   calculate D2E/DX2 analytically            !
 !       r2          1.4267   calculate D2E/DX2 analytically            !
 !       r3          1.3811   calculate D2E/DX2 analytically            !
 !       r4          1.1948   calculate D2E/DX2 analytically            !
 !       a1        100.6355   calculate D2E/DX2 analytically            !
 !       a2        113.1378   calculate D2E/DX2 analytically            !
 !       a3        115.5902   calculate D2E/DX2 analytically            !
 !       d1          0.0      calculate D2E/DX2 analytically            !
 !       d2          0.0      calculate D2E/DX2 analytically            !
 ------------------------------------------------------------------------
 Trust Radius=3.00D-01 FncErr=1.00D-07 GrdErr=1.00D-07 EigMax=2.50D+02 EigMin=1.00D-04
 Number of steps in this run=      2 maximum allowed number of steps=      2.
 GradGradGradGradGradGradGradGradGradGradGradGradGradGradGradGradGradGrad

 Leave Link  103 at Sun Mar  6 19:39:27 2022, MaxMem= 16106127360 cpu:               1.3 elap:               0.1
 (Enter /sw/contrib/gaussian/g16/B01/g16/l202.exe)
                          Input orientation:                          
 ---------------------------------------------------------------------
 Center     Atomic      Atomic             Coordinates (Angstroms)
 Number     Number       Type             X           Y           Z
 ---------------------------------------------------------------------
      1          1           0        0.000000    0.000000    0.000000
      2          8           0        0.000000    0.000000    0.985377
      3          8           0        1.402227    0.000000    1.248696
      4          7           0        2.169996    0.000000    0.100659
      5          8           0        1.561143    0.000000   -0.927358
 ---------------------------------------------------------------------
                    Distance matrix (angstroms):
                    1          2          3          4          5
     1  H    0.000000
     2  O    0.985377   0.000000
     3  O    1.877627   1.426737   0.000000
     4  N    2.172329   2.343418   1.381108   0.000000
     5  O    1.815809   2.468952   2.181849   1.194788   0.000000
 Stoichiometry    HNO3
 Framework group  CS[SG(HNO3)]
 Deg. of freedom     7
 Full point group                 CS      NOp   2
 Largest Abelian subgroup         CS      NOp   2
 Largest concise Abelian subgroup C1      NOp   1
                         Standard orientation:                         
 ---------------------------------------------------------------------
 Center     Atomic      Atomic             Coordinates (Angstroms)
 Number     Number       Type             X           Y           Z
 ---------------------------------------------------------------------
      1          1           0        1.119364   -0.588325    0.000000
      2          8           0        1.319512    0.376511    0.000000
      3          8           0        0.000000    0.919159    0.000000
      4          7           0       -0.984951   -0.048999    0.000000
      5          8           0       -0.597600   -1.179255    0.000000
 ---------------------------------------------------------------------
 Rotational constants (GHZ):          21.4903292           7.9872349           5.8230153
 Leave Link  202 at Sun Mar  6 19:39:27 2022, MaxMem= 16106127360 cpu:               0.5 elap:               0.0
 (Enter /sw/contrib/gaussian/g16/B01/g16/l301.exe)
 Standard basis: Aug-CC-pVTZ (5D, 7F)
 Ernie: Thresh=  0.10000D-02 Tol=  0.10000D-05 Strict=F.
 Ernie:  12 primitive shells out of 131 were deleted.
 There are   166 symmetry adapted cartesian basis functions of A'  symmetry.
 There are    79 symmetry adapted cartesian basis functions of A"  symmetry.
 There are   136 symmetry adapted basis functions of A'  symmetry.
 There are    71 symmetry adapted basis functions of A"  symmetry.
   207 basis functions,   315 primitive gaussians,   245 cartesian basis functions
    16 alpha electrons       16 beta electrons
       nuclear repulsion energy       122.4696451254 Hartrees.
 IExCor=    0 DFT=F Ex=HF Corr=None ExCW=0 ScaHFX=  1.000000
 ScaDFX=  1.000000  1.000000  1.000000  1.000000 ScalE2=  1.000000  1.000000
 IRadAn=      5 IRanWt=     -1 IRanGd=            0 ICorTp=0 IEmpDi=  4
 NAtoms=    5 NActive=    5 NUniq=    5 SFac= 1.00D+00 NAtFMM=   60 NAOKFM=F Big=F
 Integral buffers will be    131072 words long.
 Raffenetti 1 integral format.
 Two-electron integral symmetry is turned on.
 Leave Link  301 at Sun Mar  6 19:39:27 2022, MaxMem= 16106127360 cpu:               3.4 elap:               0.2
 (Enter /sw/contrib/gaussian/g16/B01/g16/l302.exe)
 NPDir=0 NMtPBC=     1 NCelOv=     1 NCel=       1 NClECP=     1 NCelD=      1
         NCelK=      1 NCelE2=     1 NClLst=     1 CellRange=     0.0.
 One-electron integrals computed using PRISM.
 One-electron integral symmetry used in STVInt
 NBasis=   207 RedAO= T EigKep=  1.31D-04  NBF=   136    71
 NBsUse=   207 1.00D-06 EigRej= -1.00D+00 NBFU=   136    71
 Leave Link  302 at Sun Mar  6 19:39:27 2022, MaxMem= 16106127360 cpu:               4.4 elap:               0.2
 (Enter /sw/contrib/gaussian/g16/B01/g16/l303.exe)
 DipDrv:  MaxL=1.
 Leave Link  303 at Sun Mar  6 19:39:27 2022, MaxMem= 16106127360 cpu:               1.6 elap:               0.1
 (Enter /sw/contrib/gaussian/g16/B01/g16/l401.exe)
 ExpMin= 2.53D-02 ExpMax= 1.53D+04 ExpMxC= 5.22D+02 IAcc=3 IRadAn=         5 AccDes= 0.00D+00
 Harris functional with IExCor=  205 and IRadAn=       5 diagonalized for initial guess.
 HarFok:  IExCor=  205 AccDes= 0.00D+00 IRadAn=         5 IDoV= 1 UseB2=F ITyADJ=14
 ICtDFT=  3500011 ScaDFX=  1.000000  1.000000  1.000000  1.000000
 FoFCou: FMM=F IPFlag=           0 FMFlag=      100000 FMFlg1=           0
         NFxFlg=           0 DoJE=T BraDBF=F KetDBF=T FulRan=T
         wScrn=  0.000000 ICntrl=       500 IOpCl=  0 I1Cent=   200000004 NGrid=           0
         NMat0=    1 NMatS0=      1 NMatT0=    0 NMatD0=    1 NMtDS0=    0 NMtDT0=    0
 Petite list used in FoFCou.
 Harris En= -279.644683193081    
 JPrj=0 DoOrth=F DoCkMO=F.
 Initial guess orbital symmetries:
       Occupied  (A') (A') (A') (A') (A') (A') (A') (A') (A') (A')
                 (A") (A') (A") (A') (A") (A')
       Virtual   (A") (A') (A') (A') (A') (A") (A') (A') (A') (A')
                 (A") (A') (A") (A') (A') (A") (A') (A') (A") (A')
                 (A') (A') (A') (A') (A") (A') (A') (A') (A") (A')
                 (A') (A") (A") (A') (A') (A") (A') (A") (A') (A")
                 (A') (A") (A') (A") (A') (A') (A') (A') (A") (A')
                 (A') (A") (A') (A") (A') (A") (A') (A') (A') (A")
                 (A') (A') (A") (A') (A') (A') (A") (A") (A') (A')
                 (A") (A') (A") (A") (A') (A') (A") (A') (A') (A')
                 (A") (A') (A') (A") (A') (A") (A') (A") (A') (A')
                 (A') (A") (A') (A") (A') (A') (A") (A') (A") (A')
                 (A") (A') (A') (A") (A") (A') (A') (A') (A") (A')
                 (A") (A') (A') (A') (A") (A') (A') (A') (A") (A')
                 (A") (A') (A') (A") (A") (A") (A") (A') (A') (A')
                 (A') (A') (A') (A") (A') (A") (A') (A") (A') (A')
                 (A") (A") (A') (A') (A') (A") (A') (A') (A') (A")
                 (A') (A') (A') (A") (A') (A") (A") (A') (A") (A')
                 (A') (A") (A") (A') (A") (A') (A') (A") (A") (A')
                 (A") (A") (A") (A') (A') (A") (A') (A') (A') (A")
                 (A') (A') (A') (A') (A') (A') (A') (A') (A') (A')
                 (A')
 The electronic state of the initial guess is 1-A'.
 Leave Link  401 at Sun Mar  6 19:39:28 2022, MaxMem= 16106127360 cpu:               7.5 elap:               0.3
 (Enter /sw/contrib/gaussian/g16/B01/g16/l502.exe)
 Keep R1 ints in memory in symmetry-blocked form, NReq=348887737.
 FoFCou: FMM=F IPFlag=           0 FMFlag=           0 FMFlg1=           0
         NFxFlg=           0 DoJE=F BraDBF=F KetDBF=F FulRan=T
         wScrn=  0.000000 ICntrl=       600 IOpCl=  0 I1Cent=           0 NGrid=           0
         NMat0=    1 NMatS0=  21528 NMatT0=    0 NMatD0=    1 NMtDS0=    0 NMtDT0=    0
 Petite list used in FoFCou.
 Closed shell SCF:
 Using DIIS extrapolation, IDIIS=  1040.
 NGot= 16106127360 LenX= 15988850015 LenY= 15988789549
 Requested convergence on RMS density matrix=1.00D-08 within 128 cycles.
 Requested convergence on MAX density matrix=1.00D-06.
 Requested convergence on             energy=1.00D-06.
 No special actions if energy rises.

 Cycle   1  Pass 1  IDiag  1:
 E= -279.363953069102    
 DIIS: error= 2.71D-02 at cycle   1 NSaved=   1.
 NSaved= 1 IEnMin= 1 EnMin= -279.363953069102     IErMin= 1 ErrMin= 2.71D-02
 ErrMax= 2.71D-02  0.00D+00 EMaxC= 1.00D-01 BMatC= 4.50D-01 BMatP= 4.50D-01
 IDIUse=3 WtCom= 7.29D-01 WtEn= 2.71D-01
 Coeff-Com:  0.100D+01
 Coeff-En:   0.100D+01
 Coeff:      0.100D+01
 Gap=     0.499 Goal=   None    Shift=    0.000
 GapD=    0.499 DampG=2.000 DampE=0.500 DampFc=1.0000 IDamp=-1.
 RMSDP=1.67D-03 MaxDP=8.57D-02              OVMax= 1.22D-01

 Cycle   2  Pass 1  IDiag  1:
 E= -279.446072617212     Delta-E=       -0.082119548110 Rises=F Damp=F
 DIIS: error= 1.91D-02 at cycle   2 NSaved=   2.
 NSaved= 2 IEnMin= 2 EnMin= -279.446072617212     IErMin= 2 ErrMin= 1.91D-02
 ErrMax= 1.91D-02  0.00D+00 EMaxC= 1.00D-01 BMatC= 8.60D-02 BMatP= 4.50D-01
 IDIUse=3 WtCom= 8.09D-01 WtEn= 1.91D-01
 Coeff-Com:  0.219D+00 0.781D+00
 Coeff-En:   0.760D-01 0.924D+00
 Coeff:      0.191D+00 0.809D+00
 Gap=     0.562 Goal=   None    Shift=    0.000
 RMSDP=9.67D-04 MaxDP=3.69D-02 DE=-8.21D-02 OVMax= 9.08D-02

 Cycle   3  Pass 1  IDiag  1:
 E= -279.483802932040     Delta-E=       -0.037730314828 Rises=F Damp=F
 DIIS: error= 1.12D-02 at cycle   3 NSaved=   3.
 NSaved= 3 IEnMin= 3 EnMin= -279.483802932040     IErMin= 3 ErrMin= 1.12D-02
 ErrMax= 1.12D-02  0.00D+00 EMaxC= 1.00D-01 BMatC= 3.11D-02 BMatP= 8.60D-02
 IDIUse=3 WtCom= 8.88D-01 WtEn= 1.12D-01
 Coeff-Com: -0.347D-01 0.365D+00 0.670D+00
 Coeff-En:   0.000D+00 0.219D+00 0.781D+00
 Coeff:     -0.308D-01 0.349D+00 0.682D+00
 Gap=     0.542 Goal=   None    Shift=    0.000
 RMSDP=4.10D-04 MaxDP=1.55D-02 DE=-3.77D-02 OVMax= 3.93D-02

 Cycle   4  Pass 1  IDiag  1:
 E= -279.505027558249     Delta-E=       -0.021224626208 Rises=F Damp=F
 DIIS: error= 1.67D-03 at cycle   4 NSaved=   4.
 NSaved= 4 IEnMin= 4 EnMin= -279.505027558249     IErMin= 4 ErrMin= 1.67D-03
 ErrMax= 1.67D-03  0.00D+00 EMaxC= 1.00D-01 BMatC= 6.04D-04 BMatP= 3.11D-02
 IDIUse=3 WtCom= 9.83D-01 WtEn= 1.67D-02
 Coeff-Com: -0.120D-01 0.468D-01 0.154D+00 0.811D+00
 Coeff-En:   0.000D+00 0.000D+00 0.000D+00 0.100D+01
 Coeff:     -0.118D-01 0.460D-01 0.151D+00 0.815D+00
 Gap=     0.529 Goal=   None    Shift=    0.000
 RMSDP=9.93D-05 MaxDP=2.31D-03 DE=-2.12D-02 OVMax= 1.18D-02

 Cycle   5  Pass 1  IDiag  1:
 E= -279.505844904609     Delta-E=       -0.000817346361 Rises=F Damp=F
 DIIS: error= 1.09D-03 at cycle   5 NSaved=   5.
 NSaved= 5 IEnMin= 5 EnMin= -279.505844904609     IErMin= 5 ErrMin= 1.09D-03
 ErrMax= 1.09D-03  0.00D+00 EMaxC= 1.00D-01 BMatC= 1.03D-04 BMatP= 6.04D-04
 IDIUse=3 WtCom= 9.89D-01 WtEn= 1.09D-02
 Coeff-Com:  0.539D-02-0.661D-01-0.111D+00 0.597D-01 0.111D+01
 Coeff-En:   0.000D+00 0.000D+00 0.000D+00 0.000D+00 0.100D+01
 Coeff:      0.534D-02-0.654D-01-0.110D+00 0.591D-01 0.111D+01
 Gap=     0.532 Goal=   None    Shift=    0.000
 RMSDP=8.00D-05 MaxDP=2.12D-03 DE=-8.17D-04 OVMax= 1.29D-02

 Cycle   6  Pass 1  IDiag  1:
 E= -279.506208452514     Delta-E=       -0.000363547905 Rises=F Damp=F
 DIIS: error= 3.38D-04 at cycle   6 NSaved=   6.
 NSaved= 6 IEnMin= 6 EnMin= -279.506208452514     IErMin= 6 ErrMin= 3.38D-04
 ErrMax= 3.38D-04  0.00D+00 EMaxC= 1.00D-01 BMatC= 2.39D-05 BMatP= 1.03D-04
 IDIUse=3 WtCom= 9.97D-01 WtEn= 3.38D-03
 Coeff-Com:  0.188D-02-0.696D-02-0.176D-01-0.181D+00 0.109D-01 0.119D+01
 Coeff-En:   0.000D+00 0.000D+00 0.000D+00 0.000D+00 0.000D+00 0.100D+01
 Coeff:      0.187D-02-0.694D-02-0.176D-01-0.181D+00 0.109D-01 0.119D+01
 Gap=     0.533 Goal=   None    Shift=    0.000
 RMSDP=4.66D-05 MaxDP=1.08D-03 DE=-3.64D-04 OVMax= 6.05D-03

 Cycle   7  Pass 1  IDiag  1:
 E= -279.506294142658     Delta-E=       -0.000085690144 Rises=F Damp=F
 DIIS: error= 1.30D-04 at cycle   7 NSaved=   7.
 NSaved= 7 IEnMin= 7 EnMin= -279.506294142658     IErMin= 7 ErrMin= 1.30D-04
 ErrMax= 1.30D-04  0.00D+00 EMaxC= 1.00D-01 BMatC= 3.56D-06 BMatP= 2.39D-05
 IDIUse=3 WtCom= 9.99D-01 WtEn= 1.30D-03
 Coeff-Com: -0.110D-02 0.115D-01 0.251D-01 0.178D-01-0.182D+00-0.159D+00
 Coeff-Com:  0.129D+01
 Coeff-En:   0.000D+00 0.000D+00 0.000D+00 0.000D+00 0.000D+00 0.000D+00
 Coeff-En:   0.100D+01
 Coeff:     -0.110D-02 0.115D-01 0.251D-01 0.178D-01-0.182D+00-0.159D+00
 Coeff:      0.129D+01
 Gap=     0.533 Goal=   None    Shift=    0.000
 RMSDP=1.76D-05 MaxDP=5.13D-04 DE=-8.57D-05 OVMax= 2.32D-03

 Cycle   8  Pass 1  IDiag  1:
 E= -279.506306143916     Delta-E=       -0.000012001258 Rises=F Damp=F
 DIIS: error= 4.70D-05 at cycle   8 NSaved=   8.
 NSaved= 8 IEnMin= 8 EnMin= -279.506306143916     IErMin= 8 ErrMin= 4.70D-05
 ErrMax= 4.70D-05  0.00D+00 EMaxC= 1.00D-01 BMatC= 5.88D-07 BMatP= 3.56D-06
 IDIUse=1 WtCom= 1.00D+00 WtEn= 0.00D+00
 Coeff-Com: -0.553D-03 0.403D-02 0.955D-02 0.246D-01-0.564D-01-0.191D+00
 Coeff-Com:  0.354D+00 0.856D+00
 Coeff:     -0.553D-03 0.403D-02 0.955D-02 0.246D-01-0.564D-01-0.191D+00
 Coeff:      0.354D+00 0.856D+00
 Gap=     0.533 Goal=   None    Shift=    0.000
 RMSDP=5.36D-06 MaxDP=1.53D-04 DE=-1.20D-05 OVMax= 6.34D-04

 Cycle   9  Pass 1  IDiag  1:
 E= -279.506307493125     Delta-E=       -0.000001349209 Rises=F Damp=F
 DIIS: error= 2.45D-05 at cycle   9 NSaved=   9.
 NSaved= 9 IEnMin= 9 EnMin= -279.506307493125     IErMin= 9 ErrMin= 2.45D-05
 ErrMax= 2.45D-05  0.00D+00 EMaxC= 1.00D-01 BMatC= 1.17D-07 BMatP= 5.88D-07
 IDIUse=1 WtCom= 1.00D+00 WtEn= 0.00D+00
 Coeff-Com:  0.241D-03-0.256D-02-0.531D-02-0.559D-02 0.470D-01 0.488D-01
 Coeff-Com: -0.341D+00 0.395D-01 0.122D+01
 Coeff:      0.241D-03-0.256D-02-0.531D-02-0.559D-02 0.470D-01 0.488D-01
 Coeff:     -0.341D+00 0.395D-01 0.122D+01
 Gap=     0.533 Goal=   None    Shift=    0.000
 RMSDP=2.44D-06 MaxDP=6.61D-05 DE=-1.35D-06 OVMax= 2.57D-04

 Cycle  10  Pass 1  IDiag  1:
 E= -279.506307755755     Delta-E=       -0.000000262629 Rises=F Damp=F
 DIIS: error= 5.86D-06 at cycle  10 NSaved=  10.
 NSaved=10 IEnMin=10 EnMin= -279.506307755755     IErMin=10 ErrMin= 5.86D-06
 ErrMax= 5.86D-06  0.00D+00 EMaxC= 1.00D-01 BMatC= 8.26D-09 BMatP= 1.17D-07
 IDIUse=1 WtCom= 1.00D+00 WtEn= 0.00D+00
 Coeff-Com: -0.387D-04 0.501D-03 0.121D-02-0.185D-02-0.111D-01 0.529D-02
 Coeff-Com:  0.737D-01-0.567D-01-0.438D+00 0.143D+01
 Coeff:     -0.387D-04 0.501D-03 0.121D-02-0.185D-02-0.111D-01 0.529D-02
 Coeff:      0.737D-01-0.567D-01-0.438D+00 0.143D+01
 Gap=     0.533 Goal=   None    Shift=    0.000
 RMSDP=7.07D-07 MaxDP=2.57D-05 DE=-2.63D-07 OVMax= 7.58D-05

 Cycle  11  Pass 1  IDiag  1:
 E= -279.506307780685     Delta-E=       -0.000000024931 Rises=F Damp=F
 DIIS: error= 2.22D-06 at cycle  11 NSaved=  11.
 NSaved=11 IEnMin=11 EnMin= -279.506307780685     IErMin=11 ErrMin= 2.22D-06
 ErrMax= 2.22D-06  0.00D+00 EMaxC= 1.00D-01 BMatC= 8.15D-10 BMatP= 8.26D-09
 IDIUse=1 WtCom= 1.00D+00 WtEn= 0.00D+00
 Coeff-Com: -0.155D-04 0.155D-03 0.318D-03 0.902D-03-0.195D-02-0.713D-02
 Coeff-Com:  0.174D-01 0.197D-01-0.402D-01-0.344D+00 0.135D+01
 Coeff:     -0.155D-04 0.155D-03 0.318D-03 0.902D-03-0.195D-02-0.713D-02
 Coeff:      0.174D-01 0.197D-01-0.402D-01-0.344D+00 0.135D+01
 Gap=     0.533 Goal=   None    Shift=    0.000
 RMSDP=2.42D-07 MaxDP=8.99D-06 DE=-2.49D-08 OVMax= 2.83D-05

 Cycle  12  Pass 1  IDiag  1:
 E= -279.506307783627     Delta-E=       -0.000000002942 Rises=F Damp=F
 DIIS: error= 6.87D-07 at cycle  12 NSaved=  12.
 NSaved=12 IEnMin=12 EnMin= -279.506307783627     IErMin=12 ErrMin= 6.87D-07
 ErrMax= 6.87D-07  0.00D+00 EMaxC= 1.00D-01 BMatC= 8.36D-11 BMatP= 8.15D-10
 IDIUse=1 WtCom= 1.00D+00 WtEn= 0.00D+00
 Coeff-Com:  0.271D-05-0.460D-04-0.983D-04 0.116D-03 0.113D-02-0.637D-03
 Coeff-Com: -0.734D-02 0.629D-02 0.400D-01-0.106D+00-0.191D+00 0.126D+01
 Coeff:      0.271D-05-0.460D-04-0.983D-04 0.116D-03 0.113D-02-0.637D-03
 Coeff:     -0.734D-02 0.629D-02 0.400D-01-0.106D+00-0.191D+00 0.126D+01
 Gap=     0.533 Goal=   None    Shift=    0.000
 RMSDP=8.26D-08 MaxDP=2.69D-06 DE=-2.94D-09 OVMax= 9.56D-06

 Cycle  13  Pass 1  IDiag  1:
 E= -279.506307783919     Delta-E=       -0.000000000292 Rises=F Damp=F
 DIIS: error= 1.65D-07 at cycle  13 NSaved=  13.
 NSaved=13 IEnMin=13 EnMin= -279.506307783919     IErMin=13 ErrMin= 1.65D-07
 ErrMax= 1.65D-07  0.00D+00 EMaxC= 1.00D-01 BMatC= 6.95D-12 BMatP= 8.36D-11
 IDIUse=1 WtCom= 1.00D+00 WtEn= 0.00D+00
 Coeff-Com:  0.124D-05-0.114D-04-0.161D-04-0.118D-03 0.325D-04 0.910D-03
 Coeff-Com: -0.943D-03-0.249D-02-0.259D-02 0.549D-01-0.127D+00-0.151D+00
 Coeff-Com:  0.123D+01
 Coeff:      0.124D-05-0.114D-04-0.161D-04-0.118D-03 0.325D-04 0.910D-03
 Coeff:     -0.943D-03-0.249D-02-0.259D-02 0.549D-01-0.127D+00-0.151D+00
 Coeff:      0.123D+01
 Gap=     0.533 Goal=   None    Shift=    0.000
 RMSDP=2.18D-08 MaxDP=6.45D-07 DE=-2.92D-10 OVMax= 1.99D-06

 Cycle  14  Pass 1  IDiag  1:
 E= -279.506307783938     Delta-E=       -0.000000000019 Rises=F Damp=F
 DIIS: error= 4.06D-08 at cycle  14 NSaved=  14.
 NSaved=14 IEnMin=14 EnMin= -279.506307783938     IErMin=14 ErrMin= 4.06D-08
 ErrMax= 4.06D-08  0.00D+00 EMaxC= 1.00D-01 BMatC= 4.80D-13 BMatP= 6.95D-12
 IDIUse=1 WtCom= 1.00D+00 WtEn= 0.00D+00
 Coeff-Com: -0.308D-06 0.453D-05 0.895D-05-0.298D-05-0.112D-03 0.532D-04
 Coeff-Com:  0.649D-03-0.319D-03-0.355D-02 0.778D-02 0.169D-01-0.903D-01
 Coeff-Com: -0.178D-01 0.109D+01
 Coeff:     -0.308D-06 0.453D-05 0.895D-05-0.298D-05-0.112D-03 0.532D-04
 Coeff:      0.649D-03-0.319D-03-0.355D-02 0.778D-02 0.169D-01-0.903D-01
 Coeff:     -0.178D-01 0.109D+01
 Gap=     0.533 Goal=   None    Shift=    0.000
 RMSDP=4.29D-09 MaxDP=1.07D-07 DE=-1.90D-11 OVMax= 4.46D-07

 SCF Done:  E(RHF) =  -279.506307784     A.U. after   14 cycles
            NFock= 14  Conv=0.43D-08     -V/T= 2.0023
 KE= 2.788755909640D+02 PE=-9.057908157367D+02 EE= 2.249392718633D+02
 Leave Link  502 at Sun Mar  6 19:39:31 2022, MaxMem= 16106127360 cpu:              56.0 elap:               3.6
 (Enter /sw/contrib/gaussian/g16/B01/g16/l801.exe)
 ExpMin= 2.53D-02 ExpMax= 1.53D+04 ExpMxC= 5.22D+02 IAcc=3 IRadAn=         5 AccDes= 0.00D+00
 HarFok:  IExCor=  205 AccDes= 0.00D+00 IRadAn=         5 IDoV=-2 UseB2=F ITyADJ=14
 ICtDFT= 12500011 ScaDFX=  1.000000  1.000000  1.000000  1.000000
 Largest valence mixing into a core orbital is  2.07D-04
 Largest core mixing into a valence orbital is  3.08D-05
 Range of M.O.s used for correlation:     5   207
 NBasis=   207 NAE=    16 NBE=    16 NFC=     4 NFV=     0
 NROrb=    203 NOA=    12 NOB=    12 NVA=   191 NVB=   191

 **** Warning!!: The largest alpha MO coefficient is  0.15924818D+02

 Leave Link  801 at Sun Mar  6 19:39:31 2022, MaxMem= 16106127360 cpu:               2.2 elap:               0.1
 (Enter /sw/contrib/gaussian/g16/B01/g16/l906.exe)
 Frozen-core derivative calculation, NFC=   4 NFV=   0.
 FulOut=F Deriv=T AODrv=T NAtomX=     5
   MMem=           0  MDisk=          12 MDiskD=          12
  W3Min=      811440 MinDsk=     2425030 NBas6D=         245
 NBas2D=       30762    NTT=       30135    LW2=     7400000
    MDV= 16105571588 MDiskM=      328644 NBas2p=       30759
 Disk-based method using ON**2 memory for 12 occupieds at a time.
 Permanent disk used for amplitudes=    11516536 words.
 Estimated scratch disk usage=   321863743 words.
 IMap=   1   2   3   4   5   6   7   8   9  10  11  12  13  14  15  16
 Actual    scratch disk usage=   310892607 words.
 JobTyp=1 Pass  1:  I=   5 to  16 NPSUse= 28 ParTrn=T ParDer=T DoDerP=T.
 (rs|ai) integrals will be sorted in core.
 Spin components of T(2) and E(2):
     alpha-alpha T2 =       0.3480451227D-01 E2=     -0.1245116599D+00
     alpha-beta  T2 =       0.1846176722D+00 E2=     -0.6997499038D+00
     beta-beta   T2 =       0.3480451227D-01 E2=     -0.1245116599D+00
 The integrals were generated   1 times.
 ANorm=    0.1119922630D+01
 E2 =    -0.9487732236D+00 EUMP2 =    -0.28045508100758D+03
 Leave Link  906 at Sun Mar  6 19:41:09 2022, MaxMem= 16106127360 cpu:            2725.2 elap:              97.4
 (Enter /sw/contrib/gaussian/g16/B01/g16/l1101.exe)
 Using compressed Sx but separate Hx and Fx, NAtomX=     5.
 Will process      6 centers per pass.
 Leave Link 1101 at Sun Mar  6 19:41:09 2022, MaxMem= 16106127360 cpu:               5.2 elap:               0.2
 (Enter /sw/contrib/gaussian/g16/B01/g16/l1102.exe)
 Leave Link 1102 at Sun Mar  6 19:41:09 2022, MaxMem= 16106127360 cpu:               0.5 elap:               0.0
 (Enter /sw/contrib/gaussian/g16/B01/g16/l1110.exe)
 Forming Gx(P) for the SCF density, NAtomX=     5.
 Integral derivatives from FoFJK, PRISM(SPDF).
 Do as many integral derivatives as possible in FoFJK.
 G2DrvN: MDV=   16106126844.
 G2DrvN: will do     6 centers at a time, making    1 passes.
 Calling FoFCou, ICntrl=  3107 FMM=F I1Cent=   0 AccDes= 0.00D+00.
 FoFJK:  IHMeth= 1 ICntrl=    3107 DoSepK=F KAlg= 0 I1Cent=           0 FoldK=F
 IRaf=         0 NMat=       1 IRICut=       1 DoRegI=T DoRafI=F ISym2E= 1 IDoP0=0 IntGTp=1.
 FoFCou: FMM=F IPFlag=           0 FMFlag=      100000 FMFlg1=           0
         NFxFlg=           0 DoJE=F BraDBF=F KetDBF=F FulRan=T
         wScrn=  0.000000 ICntrl=      3107 IOpCl=  0 I1Cent=           0 NGrid=           0
         NMat0=    1 NMatS0=      1 NMatT0=    0 NMatD0=    1 NMtDS0=    0 NMtDT0=    0
 Petite list used in FoFCou.
 End of G2Drv F.D. properties file   721 does not exist.
 End of G2Drv F.D. properties file   722 does not exist.
 End of G2Drv F.D. properties file   788 does not exist.
 Leave Link 1110 at Sun Mar  6 19:41:12 2022, MaxMem= 16106127360 cpu:              86.9 elap:               3.1
 (Enter /sw/contrib/gaussian/g16/B01/g16/l1002.exe)
 Minotr:  Closed shell wavefunction.
          IDoAtm=11111
          Frozen-core window.
          Direct CPHF calculation.
          Differentiating once with respect to electric field.
                with respect to dipole field.
          Differentiating once with respect to nuclear coordinates.
          Requested convergence is 1.0D-08 RMS, and 1.0D-07 maximum.
          Secondary convergence is 1.0D-12 RMS, and 1.0D-12 maximum.
          NewPWx=T KeepS1=T KeepF1=T KeepIn=T MapXYZ=F SortEE=F KeepMc=T.
 Keep R1 ints in memory in symmetry-blocked form, NReq=348888983.
 FoFCou: FMM=F IPFlag=           0 FMFlag=           0 FMFlg1=           0
         NFxFlg=           0 DoJE=F BraDBF=F KetDBF=F FulRan=T
         wScrn=  0.000000 ICntrl=       600 IOpCl=  0 I1Cent=           0 NGrid=           0
         NMat0=    1 NMatS0=  21528 NMatT0=    0 NMatD0=    1 NMtDS0=    0 NMtDT0=    0
 Petite list used in FoFCou.
          MDV=   16106127360 using IRadAn=       1.
          Solving linear equations simultaneously, MaxMat=       0.
          There are    18 degrees of freedom in the 1st order CPHF.  IDoFFX=6 NUNeed=    18.
     15 vectors produced by pass  0 Test12= 1.70D-14 5.56D-09 XBig12= 7.96D+00 1.23D+00.
 AX will form    15 AO Fock derivatives at one time.
     15 vectors produced by pass  1 Test12= 1.70D-14 5.56D-09 XBig12= 1.37D+00 2.04D-01.
     15 vectors produced by pass  2 Test12= 1.70D-14 5.56D-09 XBig12= 6.76D-02 5.82D-02.
     15 vectors produced by pass  3 Test12= 1.70D-14 5.56D-09 XBig12= 1.98D-03 1.10D-02.
     15 vectors produced by pass  4 Test12= 1.70D-14 5.56D-09 XBig12= 4.38D-05 1.22D-03.
     15 vectors produced by pass  5 Test12= 1.70D-14 5.56D-09 XBig12= 6.05D-07 1.21D-04.
     15 vectors produced by pass  6 Test12= 1.70D-14 5.56D-09 XBig12= 4.56D-09 1.19D-05.
     14 vectors produced by pass  7 Test12= 1.70D-14 5.56D-09 XBig12= 3.34D-11 7.81D-07.
      3 vectors produced by pass  8 Test12= 1.70D-14 5.56D-09 XBig12= 2.28D-13 6.15D-08.
      1 vectors produced by pass  9 Test12= 1.70D-14 5.56D-09 XBig12= 1.55D-15 6.32D-09.
 InvSVY:  IOpt=1 It=  1 EMax= 8.88D-16
 Solved reduced A of dimension   123 with    15 vectors.
 FullF1:  Do perturbations      1 to      18.
 Saving first derivative matrices.
 End of Minotr F.D. properties file   721 does not exist.
 End of Minotr F.D. properties file   722 does not exist.
 End of Minotr F.D. properties file   788 does not exist.
 Leave Link 1002 at Sun Mar  6 19:41:15 2022, MaxMem= 16106127360 cpu:              78.3 elap:               3.0
 (Enter /sw/contrib/gaussian/g16/B01/g16/l811.exe)
 MDV= 16106127360.
 Form MO integral derivatives with frozen-active canonical formalism.
 MOERI=1 MOERIx=1 NAtoms=     5 NAtomX=     5.
 Discarding MO integrals.
 MO basis two electron integral derivatives will not be stored on disk.
 IAlg= 3 DoFC=T DoPWx=T Debug=F.
 Frozen-core window:  NFC=   4 NFV=   0.
 Reordered first order wavefunction length =     18678272
 In DefCFB: NBatch=  1 ICI= 16 ICA=191 LFMax= 96
            Large arrays: LIAPS=   619940160 LIARS=   288257200 words.
 In StABat: MaxSiz= 55 MinSiz= 25 NAtomB=  5
 DoIAMN: NPSUse= 28.
 Leave Link  811 at Sun Mar  6 19:42:37 2022, MaxMem= 16106127360 cpu:            2290.7 elap:              81.9
 (Enter /sw/contrib/gaussian/g16/B01/g16/l804.exe)
 Frozen-core window:  NFC=   4 NFV=   0.
 Closed-shell transformation, MDV= 16106127360 ITran=4 ISComp=1.
 Semi-Direct transformation.
 ModeAB=           2 MOrb=            16 LenV=   16104920009
 LASXX=     67341636 LTotXX=    67341636 LenRXX=    67341636
 LTotAB=    68301760 MaxLAS=    99807120 LenRXY=    99807120
 NonZer=   134683272 LenScr=   202817536 LnRSAI=           0
 LnScr1=           0 LExtra=           0 Total=    369966292
 MaxDsk=          -1 SrtSym=           F ITran=            4
 DoSDTr:  NPSUse= 28
 JobTyp=0 Pass  1:  I=   1 to  16.
 (rs|ai) integrals will be sorted in core.
 Complete sort for first half transformation.
 First half transformation complete.
 Begin second half transformation for I=  10.
 Begin second half transformation for I=  10.
 Complete sort for second half transformation.
 Second half transformation complete.
 Spin components of T(2) and E(2):
     alpha-alpha T2 =       0.3480451227D-01 E2=     -0.1245116599D+00
     alpha-beta  T2 =       0.1846176722D+00 E2=     -0.6997499038D+00
     beta-beta   T2 =       0.3480451227D-01 E2=     -0.1245116599D+00
 ANorm=    0.1583809772D+01
 E2 =    -0.9487732236D+00 EUMP2 =    -0.28045508100758D+03
 Leave Link  804 at Sun Mar  6 19:42:53 2022, MaxMem= 16106127360 cpu:             430.8 elap:              15.4
 (Enter /sw/contrib/gaussian/g16/B01/g16/l1002.exe)
 Minotr:  Closed shell wavefunction.
          Computing MP2/KS-MP2 derivatives.
          Using Z-Vector for PSCF gradient.
          Skipping F1 and S1 gradient terms here.
          IDoAtm=11111
          Frozen-core window.
          Using MO integrals in the linear equations.
          Forming densities via direct SCF.
          Differentiating once with respect to electric field.
                with respect to dipole field.
          Differentiating once with respect to nuclear coordinates.
          Using symmetry in CPHF.
          Requested convergence is 1.0D-10 RMS, and 1.0D-09 maximum.
          NewPWx=F KeepS1=T KeepF1=T KeepIn=T MapXYZ=F SortEE=F KeepMc=T.
          MDV=   16106127360 using IRadAn=       5.
          Solving linear equations separately, MaxMat=       0.
          There are     1 degrees of freedom in the 1st order CPHF.  IDoFFX=0 NUNeed=     1.
 FoFJK:  IHMeth= 1 ICntrl=       0 DoSepK=F KAlg= 0 I1Cent=           0 FoldK=F
 IRaf=         0 NMat=       1 IRICut=       1 DoRegI=T DoRafI=F ISym2E= 0 IDoP0=0 IntGTp=1.
 FoFCou: FMM=F IPFlag=           0 FMFlag=      100000 FMFlg1=           0
         NFxFlg=           0 DoJE=F BraDBF=F KetDBF=F FulRan=T
         wScrn=  0.000000 ICntrl=         0 IOpCl=  0 I1Cent=           0 NGrid=           0
         NMat0=    1 NMatS0=      1 NMatT0=    0 NMatD0=    1 NMtDS0=    0 NMtDT0=    0
 Symmetry not used in FoFCou.
 LinEq1:  Iter=  0 NonCon=     1 RMS=6.60D-03 Max=1.68D-01 NDo=     1
 LinEq1:  Iter=  1 NonCon=     1 RMS=2.00D-03 Max=3.09D-02 NDo=     1
 LinEq1:  Iter=  2 NonCon=     1 RMS=8.88D-04 Max=1.43D-02 NDo=     1
 LinEq1:  Iter=  3 NonCon=     1 RMS=3.82D-04 Max=8.19D-03 NDo=     1
 LinEq1:  Iter=  4 NonCon=     1 RMS=1.38D-04 Max=1.67D-03 NDo=     1
 LinEq1:  Iter=  5 NonCon=     1 RMS=7.69D-05 Max=1.38D-03 NDo=     1
 LinEq1:  Iter=  6 NonCon=     1 RMS=2.44D-05 Max=2.94D-04 NDo=     1
 LinEq1:  Iter=  7 NonCon=     1 RMS=8.13D-06 Max=1.08D-04 NDo=     1
 LinEq1:  Iter=  8 NonCon=     1 RMS=3.96D-06 Max=6.15D-05 NDo=     1
 LinEq1:  Iter=  9 NonCon=     1 RMS=1.03D-06 Max=1.21D-05 NDo=     1
 LinEq1:  Iter= 10 NonCon=     1 RMS=2.30D-07 Max=2.85D-06 NDo=     1
 LinEq1:  Iter= 11 NonCon=     1 RMS=4.90D-08 Max=7.86D-07 NDo=     1
 LinEq1:  Iter= 12 NonCon=     1 RMS=1.15D-08 Max=1.66D-07 NDo=     1
 LinEq1:  Iter= 13 NonCon=     1 RMS=2.03D-09 Max=2.59D-08 NDo=     1
 LinEq1:  Iter= 14 NonCon=     1 RMS=4.24D-10 Max=5.79D-09 NDo=     1
 LinEq1:  Iter= 15 NonCon=     0 RMS=8.73D-11 Max=8.69D-10 NDo=     1
 Linear equations converged to 1.000D-10 1.000D-09 after    15 iterations.
 End of Minotr F.D. properties file   721 does not exist.
 End of Minotr F.D. properties file   722 does not exist.
 End of Minotr F.D. properties file   788 does not exist.
 Leave Link 1002 at Sun Mar  6 19:42:55 2022, MaxMem= 16106127360 cpu:              66.9 elap:               2.4
 (Enter /sw/contrib/gaussian/g16/B01/g16/l1102.exe)
 Use density number 2.
 Symmetrizing basis deriv contribution to polar:
 IMax=3 JMax=2 DiffMx= 0.00D+00
 Leave Link 1102 at Sun Mar  6 19:42:55 2022, MaxMem= 16106127360 cpu:               0.7 elap:               0.1
 (Enter /sw/contrib/gaussian/g16/B01/g16/l1110.exe)
 Forming Gx(P) for generalized density number  2 NAtomX=     5.
 Integral derivatives from FoFJK, PRISM(SPDF).
 Do as many integral derivatives as possible in FoFJK.
 G2DrvN: MDV=   16106126844.
 G2DrvN: will do     6 centers at a time, making    1 passes.
 Calling FoFCou, ICntrl=  3107 FMM=F I1Cent=   0 AccDes= 0.00D+00.
 FoFJK:  IHMeth= 1 ICntrl=    3107 DoSepK=F KAlg= 0 I1Cent=           0 FoldK=F
 IRaf=         0 NMat=       1 IRICut=       1 DoRegI=T DoRafI=F ISym2E= 1 IDoP0=0 IntGTp=1.
 FoFCou: FMM=F IPFlag=           0 FMFlag=      100000 FMFlg1=           0
         NFxFlg=           0 DoJE=F BraDBF=F KetDBF=F FulRan=T
         wScrn=  0.000000 ICntrl=      3107 IOpCl=  0 I1Cent=           0 NGrid=           0
         NMat0=    1 NMatS0=      1 NMatT0=    0 NMatD0=    1 NMtDS0=    0 NMtDT0=    0
 Petite list used in FoFCou.
 End of G2Drv F.D. properties file   721 does not exist.
 End of G2Drv F.D. properties file   722 does not exist.
 End of G2Drv F.D. properties file   788 does not exist.
 Leave Link 1110 at Sun Mar  6 19:42:59 2022, MaxMem= 16106127360 cpu:              88.9 elap:               3.2
 (Enter /sw/contrib/gaussian/g16/B01/g16/l1112.exe)
 MP22nd: MDV=   16106127360
 This link is doing NAtomX=     5 total of    18 degrees of freedom.
 Using ON3 I/O method in MakUI.
 Frozen-core window:  NFC=   4 NFV=   0.
 Using Ix for Sx.
 Use MO integrals over full window.
 Using OV2 memory method for fx*t*t/D, MaxI=    16 DoOO2=F NP=  28.
 R2 and R3 integrals will be kept in memory, NReq=   915591705.
 FoFCou: FMM=F IPFlag=           0 FMFlag=           0 FMFlg1=           0
         NFxFlg=           0 DoJE=F BraDBF=F KetDBF=F FulRan=T
         wScrn=  0.000000 ICntrl=       600 IOpCl=  0 I1Cent=           0 NGrid=           0
         NMat0=    1 NMatS0=      1 NMatT0=    0 NMatD0=    1 NMtDS0=    0 NMtDT0=    0
 Symmetry not used in FoFCou.
 DD1Dir will call FoFMem   1 times, MxPair=       272
 NAB=   136 NAA=     0 NBB=     0.
 Symmetry is being used.
 FoFJK:  IHMeth= 1 ICntrl=       0 DoSepK=F KAlg= 0 I1Cent=           0 FoldK=F
 IRaf=         0 NMat=      18 IRICut=      45 DoRegI=T DoRafI=T ISym2E= 2 IDoP0=3 IntGTp=3.
 Discarding MO integrals.
 Leave Link 1112 at Sun Mar  6 19:43:43 2022, MaxMem= 16106127360 cpu:            1229.4 elap:              44.7
 (Enter /sw/contrib/gaussian/g16/B01/g16/l601.exe)
 Copying SCF densities to generalized density rwf, IOpCl= 0 IROHF=0.

 **********************************************************************

            Population analysis using the MP2 Density.

 **********************************************************************

 Orbital symmetries:
       Occupied  (A') (A') (A') (A') (A') (A') (A') (A') (A') (A')
                 (A") (A') (A') (A") (A') (A")
       Virtual   (A') (A") (A') (A') (A") (A') (A') (A') (A") (A')
                 (A") (A') (A') (A') (A") (A') (A') (A") (A') (A')
                 (A') (A') (A') (A') (A") (A') (A') (A") (A') (A')
                 (A') (A") (A") (A') (A') (A') (A") (A') (A") (A')
                 (A") (A") (A') (A') (A") (A') (A') (A") (A') (A')
                 (A') (A") (A') (A') (A") (A') (A") (A') (A") (A')
                 (A') (A') (A") (A') (A') (A') (A") (A") (A') (A')
                 (A") (A') (A") (A") (A') (A') (A") (A') (A') (A')
                 (A") (A') (A') (A") (A') (A") (A") (A') (A') (A')
                 (A') (A') (A") (A") (A') (A') (A") (A") (A') (A')
                 (A") (A') (A") (A') (A") (A') (A') (A') (A") (A')
                 (A") (A') (A') (A') (A") (A') (A') (A') (A") (A')
                 (A") (A') (A") (A') (A") (A") (A') (A") (A') (A')
                 (A') (A') (A") (A') (A') (A") (A") (A') (A') (A')
                 (A") (A") (A') (A') (A') (A") (A') (A') (A') (A")
                 (A') (A') (A') (A") (A") (A') (A") (A') (A') (A")
                 (A') (A") (A') (A") (A") (A') (A') (A") (A") (A')
                 (A") (A") (A") (A') (A') (A") (A') (A') (A') (A")
                 (A') (A') (A') (A') (A') (A') (A') (A') (A') (A')
                 (A')
 The electronic state is 1-A'.
 Alpha  occ. eigenvalues --  -20.72109 -20.68786 -20.66908 -15.82521  -1.64274
 Alpha  occ. eigenvalues --   -1.50688  -1.29433  -0.96075  -0.83310  -0.75867
 Alpha  occ. eigenvalues --   -0.73977  -0.63912  -0.61989  -0.61919  -0.50247
 Alpha  occ. eigenvalues --   -0.49821
 Alpha virt. eigenvalues --    0.03495   0.06097   0.09510   0.10057   0.11975
 Alpha virt. eigenvalues --    0.12269   0.14890   0.15184   0.17772   0.18037
 Alpha virt. eigenvalues --    0.18953   0.21112   0.21674   0.24261   0.24635
 Alpha virt. eigenvalues --    0.26819   0.31119   0.31538   0.33810   0.34270
 Alpha virt. eigenvalues --    0.34615   0.39264   0.44677   0.48855   0.50445
 Alpha virt. eigenvalues --    0.51906   0.54400   0.56235   0.59930   0.62090
 Alpha virt. eigenvalues --    0.63969   0.68920   0.71741   0.72378   0.73895
 Alpha virt. eigenvalues --    0.76512   0.76762   0.79565   0.80452   0.84027
 Alpha virt. eigenvalues --    0.84316   0.85082   0.88470   0.90662   0.92704
 Alpha virt. eigenvalues --    0.94893   0.95471   1.01786   1.03162   1.05450
 Alpha virt. eigenvalues --    1.06496   1.09283   1.14228   1.15564   1.17222
 Alpha virt. eigenvalues --    1.22034   1.22659   1.24619   1.35038   1.36423
 Alpha virt. eigenvalues --    1.37051   1.46919   1.48355   1.50722   1.54108
 Alpha virt. eigenvalues --    1.59015   1.59630   1.60515   1.62827   1.69577
 Alpha virt. eigenvalues --    1.74012   1.80160   1.82813   1.88720   1.89654
 Alpha virt. eigenvalues --    1.92667   1.98035   1.99137   2.04886   2.12072
 Alpha virt. eigenvalues --    2.13010   2.16400   2.18576   2.24176   2.25967
 Alpha virt. eigenvalues --    2.29472   2.35187   2.36135   2.38624   2.40196
 Alpha virt. eigenvalues --    2.43363   2.47045   2.47841   2.52616   2.53746
 Alpha virt. eigenvalues --    2.54521   2.55650   2.61171   2.62716   2.66969
 Alpha virt. eigenvalues --    2.67064   2.75627   2.80840   2.81010   2.84283
 Alpha virt. eigenvalues --    2.91656   2.97576   3.04879   3.05458   3.11504
 Alpha virt. eigenvalues --    3.11813   3.17202   3.21265   3.30568   3.33494
 Alpha virt. eigenvalues --    3.36016   3.48216   3.67705   3.86872   3.92395
 Alpha virt. eigenvalues --    4.17991   4.21551   4.21801   4.26545   4.36482
 Alpha virt. eigenvalues --    4.50146   4.50910   4.55971   4.60037   4.69144
 Alpha virt. eigenvalues --    4.80791   4.90451   4.91223   4.94398   4.99513
 Alpha virt. eigenvalues --    5.00459   5.10839   5.13495   5.17624   5.24760
 Alpha virt. eigenvalues --    5.25480   5.31567   5.33716   5.35291   5.54202
 Alpha virt. eigenvalues --    5.64257   5.70105   5.88364   6.00247   6.26396
 Alpha virt. eigenvalues --    6.29594   6.35896   6.37618   6.59880   6.64749
 Alpha virt. eigenvalues --    6.65791   6.68374   6.72299   6.80643   6.80711
 Alpha virt. eigenvalues --    6.83832   6.96999   7.01865   7.06612   7.08052
 Alpha virt. eigenvalues --    7.14098   7.16233   7.17537   7.20252   7.24408
 Alpha virt. eigenvalues --    7.24433   7.26944   7.34800   7.39598   7.42214
 Alpha virt. eigenvalues --    7.44265   7.46154   7.55988   7.65171   7.66366
 Alpha virt. eigenvalues --    7.79438   7.88199   7.95284   8.05365   8.30416
 Alpha virt. eigenvalues --    8.50292   8.65258  13.60991  14.76222  15.09845
 Alpha virt. eigenvalues --   15.73029
          Condensed to atoms (all electrons):
               1          2          3          4          5
     1  H    0.577487   0.125738   0.023630  -0.000425  -0.004874
     2  O    0.125738   8.388796  -0.232223  -0.000492  -0.007666
     3  O    0.023630  -0.232223   8.370974  -0.169874  -0.030184
     4  N   -0.000425  -0.000492  -0.169874   7.136777  -0.120497
     5  O   -0.004874  -0.007666  -0.030184  -0.120497   8.359701
 Mulliken charges:
               1
     1  H    0.278444
     2  O   -0.274153
     3  O    0.037676
     4  N    0.154513
     5  O   -0.196480
 Sum of Mulliken charges =  -0.00000
 Mulliken charges with hydrogens summed into heavy atoms:
               1
     2  O    0.004291
     3  O    0.037676
     4  N    0.154513
     5  O   -0.196480
 APT charges:
               1
     1  H    0.269186
     2  O   -0.302975
     3  O   -0.309333
     4  N    0.647350
     5  O   -0.304229
 Sum of APT charges =  -0.00000
 APT charges with hydrogens summed into heavy atoms:
               1
     2  O   -0.033789
     3  O   -0.309333
     4  N    0.647350
     5  O   -0.304229
 Electronic spatial extent (au):  <R**2>=            208.6553
 Charge=             -0.0000 electrons
 Dipole moment (field-independent basis, Debye):
    X=              0.0816    Y=             -1.0959    Z=              0.0000  Tot=              1.0989
 Quadrupole moment (field-independent basis, Debye-Ang):
   XX=            -23.4054   YY=            -22.9517   ZZ=            -21.9382
   XY=             -1.9634   XZ=              0.0000   YZ=              0.0000
 Traceless Quadrupole moment (field-independent basis, Debye-Ang):
   XX=             -0.6403   YY=             -0.1866   ZZ=              0.8269
   XY=             -1.9634   XZ=              0.0000   YZ=              0.0000
 Octapole moment (field-independent basis, Debye-Ang**2):
  XXX=              2.6276  YYY=              0.3293  ZZZ=              0.0000  XYY=              2.3133
  XXY=             -2.8547  XXZ=              0.0000  XZZ=             -0.5899  YZZ=             -0.7124
  YYZ=              0.0000  XYZ=              0.0000
 Hexadecapole moment (field-independent basis, Debye-Ang**3):
 XXXX=           -127.5014 YYYY=            -95.8063 ZZZZ=            -18.0528 XXXY=            -22.2791
 XXXZ=              0.0000 YYYX=            -20.3172 YYYZ=              0.0000 ZZZX=              0.0000
 ZZZY=              0.0000 XXYY=            -35.9436 XXZZ=            -24.4320 YYZZ=            -18.7593
 XXYZ=              0.0000 YYXZ=              0.0000 ZZXY=             -6.1223
 N-N= 1.224696451254D+02 E-N=-9.064851081336D+02  KE= 2.801944312659D+02
 Symmetry A'   KE= 2.663405167593D+02
 Symmetry A"   KE= 1.385391450658D+01
  Exact polarizability:  30.965   4.242  30.018   0.000   0.000  17.646
 Approx polarizability:  24.503   0.653  27.822  -0.000  -0.000  15.528
 No NMR shielding tensors so no spin-rotation constants.
 Leave Link  601 at Sun Mar  6 19:43:43 2022, MaxMem= 16106127360 cpu:               4.2 elap:               0.2
 (Enter /sw/contrib/gaussian/g16/B01/g16/l701.exe)
 ... and contract with generalized density number  2.
 Compute integral second derivatives.
 Leave Link  701 at Sun Mar  6 19:43:44 2022, MaxMem= 16106127360 cpu:               5.9 elap:               0.2
 (Enter /sw/contrib/gaussian/g16/B01/g16/l702.exe)
 L702 exits ... SP integral derivatives will be done elsewhere.
 Leave Link  702 at Sun Mar  6 19:43:44 2022, MaxMem= 16106127360 cpu:               0.6 elap:               0.0
 (Enter /sw/contrib/gaussian/g16/B01/g16/l703.exe)
 Integral derivatives from FoFJK, PRISM(SPDF).
 Compute integral second derivatives, UseDBF=F ICtDFT=           0.
 Calling FoFJK, ICntrl=  10100127 FMM=F ISym2X=1 I1Cent= 0 IOpClX= 0 NMat=1 NMatS=1 NMatT=0.
 FoFJK:  IHMeth= 1 ICntrl=10100127 DoSepK=F KAlg= 0 I1Cent=           0 FoldK=F
 IRaf=         0 NMat=       1 IRICut=       1 DoRegI=T DoRafI=F ISym2E= 1 IDoP0=0 IntGTp=1.
 FoFCou: FMM=F IPFlag=           0 FMFlag=      100000 FMFlg1=         800
         NFxFlg=           0 DoJE=F BraDBF=F KetDBF=F FulRan=T
         wScrn=  0.000000 ICntrl=  10100127 IOpCl=  0 I1Cent=           0 NGrid=           0
         NMat0=    1 NMatS0=      1 NMatT0=    0 NMatD0=    1 NMtDS0=    0 NMtDT0=    0
 Petite list used in FoFCou.
 Leave Link  703 at Sun Mar  6 19:44:00 2022, MaxMem= 16106127360 cpu:             446.0 elap:              16.0
 (Enter /sw/contrib/gaussian/g16/B01/g16/l716.exe)
 Dipole        = 3.21181140D-02-4.31161099D-01 0.00000000D+00
 Polarizability= 3.09654069D+01 4.24212311D+00 3.00181395D+01
                 0.00000000D+00 0.00000000D+00 1.76455977D+01
 Full mass-weighted force constant matrix:
 Low frequencies ---  -56.3254    0.0004    0.0005    0.0012   24.9795   59.0648
 Low frequencies ---  351.0952  379.5297  515.7909
 Diagonal vibrational polarizability:
        7.3787440      10.3101882      16.3098752
 Harmonic frequencies (cm**-1), IR intensities (KM/Mole), Raman scattering
 activities (A**4/AMU), depolarization ratios for plane and unpolarized
 incident light, reduced masses (AMU), force constants (mDyne/A),
 and normal coordinates:
                      1                      2                      3
                     A"                     A'                     A"
 Frequencies --    351.0378               379.5120               515.7416
 Red. masses --      1.5686                 7.1352                 2.8750
 Frc consts  --      0.1139                 0.6055                 0.4506
 IR Inten    --     62.7343                 7.6016                25.7930
  Atom  AN      X      Y      Z        X      Y      Z        X      Y      Z
     1   1    -0.00  -0.00   0.98    -0.72  -0.26  -0.00     0.00   0.00   0.93
     2   8    -0.00  -0.00  -0.11    -0.32  -0.32   0.00     0.00   0.00   0.05
     3   8    -0.00   0.00   0.12    -0.07   0.08  -0.00     0.00   0.00  -0.18
     4   7     0.00   0.00  -0.11     0.05   0.09   0.00    -0.00  -0.00   0.27
     5   8     0.00   0.00   0.03     0.39   0.17  -0.00    -0.00  -0.00  -0.16
                      4                      5                      6
                     A'                     A'                     A'
 Frequencies --    702.0882               839.4407               967.5528
 Red. masses --     13.1607                12.4016                 9.9895
 Frc consts  --      3.8222                 5.1488                 5.5099
 IR Inten    --    215.3718                34.9035                13.6926
  Atom  AN      X      Y      Z        X      Y      Z        X      Y      Z
     1   1    -0.38   0.01  -0.00     0.44  -0.15   0.00    -0.62  -0.01   0.00
     2   8    -0.01  -0.08  -0.00     0.53  -0.19  -0.00     0.21  -0.17  -0.00
     3   8     0.37   0.59   0.00    -0.37  -0.02   0.00    -0.38   0.40   0.00
     4   7    -0.39  -0.45  -0.00    -0.45  -0.07  -0.00     0.39   0.05  -0.00
     5   8     0.01  -0.12   0.00     0.21   0.28   0.00    -0.13  -0.27   0.00
                      7                      8                      9
                     A'                     A'                     A'
 Frequencies --   1440.4255              1568.8513              3490.1813
 Red. masses --      1.3028                 6.3389                 1.0641
 Frc consts  --      1.5926                 9.1924                 7.6371
 IR Inten    --     78.8144               152.9019                40.6695
  Atom  AN      X      Y      Z        X      Y      Z        X      Y      Z
     1   1     0.97  -0.20   0.00     0.77  -0.17   0.00     0.15   0.99  -0.00
     2   8    -0.06  -0.05   0.00    -0.02  -0.02   0.00    -0.01  -0.06   0.00
     3   8    -0.03   0.06  -0.00     0.04   0.06  -0.00     0.00  -0.00  -0.00
     4   7     0.06  -0.05   0.00    -0.24   0.40   0.00    -0.00   0.00  -0.00
     5   8    -0.02   0.05  -0.00     0.15  -0.37  -0.00     0.00  -0.00   0.00

 -------------------
 - Thermochemistry -
 -------------------
 Temperature   298.150 Kelvin.  Pressure   1.00000 Atm.
 Atom     1 has atomic number  1 and mass   1.00783
 Atom     2 has atomic number  8 and mass  15.99491
 Atom     3 has atomic number  8 and mass  15.99491
 Atom     4 has atomic number  7 and mass  14.00307
 Atom     5 has atomic number  8 and mass  15.99491
 Molecular mass:    62.99564 amu.
 Principal axes and moments of inertia in atomic units:
                           1         2         3
     Eigenvalues --    83.97923 225.95319 309.93241
           X            0.79096  -0.61187   0.00000
           Y            0.61187   0.79096   0.00000
           Z            0.00000   0.00000   1.00000
 This molecule is an asymmetric top.
 Rotational symmetry number  1.
 Rotational temperatures (Kelvin)      1.03137     0.38333     0.27946
 Rotational constants (GHZ):          21.49033     7.98723     5.82302
 Zero-point vibrational energy      61337.5 (Joules/Mol)
                                   14.66002 (Kcal/Mol)
 Warning -- explicit consideration of   3 degrees of freedom as
           vibrations may cause significant error
 Vibrational temperatures:    505.07   546.03   742.04  1010.15  1207.77
          (Kelvin)           1392.09  2072.45  2257.23  5021.59
 
 Zero-point correction=                           0.023362 (Hartree/Particle)
 Thermal correction to Energy=                    0.027329
 Thermal correction to Enthalpy=                  0.028273
 Thermal correction to Gibbs Free Energy=        -0.002642
 Sum of electronic and zero-point Energies=           -280.431719
 Sum of electronic and thermal Energies=              -280.427752
 Sum of electronic and thermal Enthalpies=            -280.426808
 Sum of electronic and thermal Free Energies=         -280.457723
 
                     E (Thermal)             CV                S
                      KCal/Mol        Cal/Mol-Kelvin    Cal/Mol-Kelvin
 Total                   17.149             12.242             65.065
 Electronic               0.000              0.000              0.000
 Translational            0.889              2.981             38.341
 Rotational               0.889              2.981             23.290
 Vibrational             15.372              6.280              3.434
 Vibration     1          0.728              1.573              1.162
 Vibration     2          0.750              1.514              1.041
 Vibration     3          0.871              1.215              0.620
                       Q            Log10(Q)             Ln(Q)
 Total Bot       0.164080D+02          1.215055          2.797768
 Total V=0       0.913951D+12         11.960923         27.541042
 Vib (Bot)       0.304131D-10        -10.516939        -24.216147
 Vib (Bot)    1  0.525228D+00         -0.279652         -0.643923
 Vib (Bot)    2  0.476578D+00         -0.321866         -0.741124
 Vib (Bot)    3  0.314194D+00         -0.502802         -1.157745
 Vib (V=0)       0.169406D+01          0.228929          0.527128
 Vib (V=0)    1  0.122517D+01          0.088195          0.203076
 Vib (V=0)    2  0.119074D+01          0.075818          0.174578
 Vib (V=0)    3  0.109052D+01          0.037635          0.086658
 Electronic      0.100000D+01          0.000000          0.000000
 Translational   0.196526D+08          7.293420         16.793719
 Rotational      0.274520D+05          4.438574         10.220195
 
                                                                title
                                                             IR Spectrum
 
     3                                                                     1    1                                                    
     4                                                                     5    4                9    8    7      5    33            
     9                                                                     6    4                6    3    0      1    85            
     0                                                                     9    0                8    9    2      6    01            
 
     X                                                                     X    X                X    X    X      X    XX            
     X                                                                     X    X                     X    X      X     X            
     X                                                                     X    X                     X    X            X            
     X                                                                     X    X                          X            X            
                                                                           X    X                          X            X            
                                                                           X    X                          X            X            
                                                                           X    X                          X                         
                                                                           X                               X                         
                                                                           X                               X                         
                                                                           X                               X                         
                                                                           X                               X                         
                                                                           X                               X                         
                                                                           X                               X                         
                                                                           X                               X                         
                                                                                                           X                         
                                                                                                           X                         
                                                                                                           X                         
                                                                                                           X                         
                                                                                                           X                         
                                                                                                           X                         
 
 ***** Axes restored to original set *****
 -------------------------------------------------------------------
 Center     Atomic                   Forces (Hartrees/Bohr)
 Number     Number              X              Y              Z
 -------------------------------------------------------------------
      1        1          -0.000248443   -0.000000000    0.000200307
      2        8          -0.001398253   -0.000000000   -0.000999388
      3        8          -0.001107283   -0.000000000   -0.004315642
      4        7           0.007064179   -0.000000000    0.000023501
      5        8          -0.004310200   -0.000000000    0.005091221
 -------------------------------------------------------------------
 Cartesian Forces:  Max     0.007064179 RMS     0.002796523
 -----------------------------------------------------------------------------------------------
                       Internal Coordinate Forces (Hartree/Bohr or radian)
  Cent   Atom   N1       Length/X         N2         Alpha/Y        N3         Beta/Z          J
 -----------------------------------------------------------------------------------------------
      1  H 
      2  O        1  -0.000200(     1)
      3  O        2   0.001766(     2)      1   0.000462(     5)
      4  N        3  -0.002721(     3)      2  -0.000836(     6)      1   0.000000(     8)     0
      5  O        4  -0.002184(     4)      3  -0.014231(     7)      2   0.000000(     9)     0
 -----------------------------------------------------------------------------------------------
 Internal  Forces:  Max     0.014231074 RMS     0.004930249
 Force constants in Cartesian coordinates: 
                1             2             3             4             5 
      1  0.726978D-01
      2  0.000000D+00  0.598049D-02
      3  0.230874D-01  0.000000D+00  0.437306D+00
      4 -0.517435D-01  0.000000D+00 -0.449686D-02  0.281944D+00
      5  0.000000D+00 -0.254785D-02  0.000000D+00  0.000000D+00  0.119361D-01
      6  0.337540D-01  0.000000D+00 -0.422451D+00 -0.110906D-01  0.000000D+00
      7 -0.255654D-01  0.000000D+00 -0.150378D-01 -0.171922D+00  0.000000D+00
      8  0.000000D+00 -0.411104D-02  0.000000D+00  0.000000D+00 -0.187921D-01
      9 -0.446143D-01  0.000000D+00 -0.192098D-01  0.979659D-02  0.000000D+00
     10 -0.572178D-02  0.000000D+00  0.653067D-02 -0.854789D-01  0.000000D+00
     11  0.000000D+00  0.794458D-02  0.000000D+00  0.000000D+00  0.203827D-01
     12 -0.185838D-01  0.000000D+00  0.116110D-01  0.986603D-02  0.000000D+00
     13  0.103329D-01  0.000000D+00 -0.100834D-01  0.272008D-01  0.000000D+00
     14  0.000000D+00 -0.726619D-02  0.000000D+00  0.000000D+00 -0.109788D-01
     15  0.635663D-02  0.000000D+00 -0.725633D-02 -0.407518D-02  0.000000D+00
                6             7             8             9            10 
      6  0.521938D+00
      7 -0.908807D-01  0.304619D+00
      8  0.000000D+00  0.000000D+00  0.414921D-01
      9 -0.962529D-01  0.811235D-01  0.000000D+00  0.308351D+00
     10  0.404356D-01 -0.143673D+00  0.000000D+00 -0.368467D-01  0.547008D+00
     11  0.000000D+00  0.000000D+00 -0.469337D-01  0.000000D+00  0.000000D+00
     12 -0.878034D-02  0.129329D-01  0.000000D+00 -0.240636D-01  0.243682D+00
     13  0.277817D-01  0.365412D-01  0.000000D+00 -0.945899D-02 -0.312134D+00
     14  0.000000D+00  0.000000D+00  0.283448D-01  0.000000D+00  0.000000D+00
     15  0.554560D-02  0.118622D-01  0.000000D+00 -0.168825D+00 -0.253802D+00
               11            12            13            14            15 
     11  0.542442D-01
     12  0.000000D+00  0.455194D+00
     13  0.000000D+00 -0.247898D+00  0.238059D+00
     14 -0.356377D-01  0.000000D+00  0.000000D+00  0.255379D-01
     15  0.000000D+00 -0.433962D+00  0.239658D+00  0.000000D+00  0.604497D+00
 Force constants in internal coordinates: 
                1             2             3             4             5 
      1  0.437306D+00
      2  0.210129D-01  0.261461D+00
      3  0.559481D-02  0.176005D-01  0.199165D+00
      4 -0.113819D-01  0.221203D-01  0.146229D+00  0.719501D+00
      5  0.427425D-01  0.578833D-01 -0.236989D-01  0.199893D-01  0.251697D+00
      6  0.126295D-01  0.216236D-01  0.812721D-01  0.104855D-01 -0.935464D-02
      7  0.112399D-01 -0.757919D-01  0.105455D+00  0.108988D+00 -0.237605D-01
      8  0.000000D+00  0.000000D+00  0.000000D+00  0.000000D+00  0.000000D+00
      9  0.000000D+00  0.000000D+00  0.000000D+00  0.000000D+00  0.000000D+00
                6             7             8             9 
      6  0.490617D+00
      7  0.375846D-01  0.622376D+00
      8  0.000000D+00  0.000000D+00  0.195861D-01
      9  0.000000D+00  0.000000D+00  0.270792D-01  0.107431D+00
 Leave Link  716 at Sun Mar  6 19:44:00 2022, MaxMem= 16106127360 cpu:               1.0 elap:               0.1
 (Enter /sw/contrib/gaussian/g16/B01/g16/l103.exe)

 GradGradGradGradGradGradGradGradGradGradGradGradGradGradGradGradGradGrad
 Berny optimization.
 Search for a local minimum.
 Step number   1 out of a maximum of    2
 All quantities printed in internal units (Hartrees-Bohrs-Radians)
 Second derivative matrix not updated -- analytic derivatives used.
 The second derivative matrix:
                          r1        r2        r3        r4        a1
           r1           0.43731
           r2           0.02101   0.26146
           r3           0.00559   0.01760   0.19916
           r4          -0.01138   0.02212   0.14623   0.71950
           a1           0.04274   0.05788  -0.02370   0.01999   0.25170
           a2           0.01263   0.02162   0.08127   0.01049  -0.00935
           a3           0.01124  -0.07579   0.10545   0.10899  -0.02376
           d1           0.00000   0.00000   0.00000   0.00000   0.00000
           d2           0.00000   0.00000   0.00000   0.00000   0.00000
                          a2        a3        d1        d2
           a2           0.49062
           a3           0.03758   0.62238
           d1           0.00000   0.00000   0.01959
           d2           0.00000   0.00000   0.02708   0.10743
 ITU=  0
     Eigenvalues ---    0.01191   0.11511   0.12286   0.20327   0.27750
     Eigenvalues ---    0.44771   0.50100   0.58122   0.84858
 Angle between quadratic step and forces=  14.21 degrees.
 Linear search not attempted -- first point.
 Variable       Old X    -DE/DX   Delta X   Delta X   Delta X     New X
                                 (Linear)    (Quad)   (Total)
    r1        1.86209  -0.00020   0.00000   0.00022   0.00022   1.86231
    r2        2.69614   0.00177   0.00000   0.00042   0.00042   2.69656
    r3        2.60992  -0.00272   0.00000  -0.00269  -0.00269   2.60722
    r4        2.25782  -0.00218   0.00000   0.00094   0.00094   2.25876
    a1        1.75642   0.00046   0.00000  -0.00074  -0.00074   1.75568
    a2        1.97463  -0.00084   0.00000   0.00041   0.00041   1.97504
    a3        2.01743  -0.01423   0.00000  -0.02258  -0.02258   1.99485
    d1        0.00000   0.00000   0.00000   0.00000   0.00000   0.00000
    d2        0.00000   0.00000   0.00000   0.00000   0.00000   0.00000
         Item               Value     Threshold  Converged?
 Maximum Force            0.014231     0.000450     NO 
 RMS     Force            0.004930     0.000300     NO 
 Maximum Displacement     0.022579     0.001800     NO 
 RMS     Displacement     0.007593     0.001200     NO 
 Predicted change in Energy=-1.633110D-04
                       ----------------------------
                       ! Non-Optimized Parameters !
                       ! (Angstroms and Degrees)  !
 ----------------------                            ----------------------
 !      Name          Value   Derivative information (Atomic Units)     !
 ------------------------------------------------------------------------
 !       r1          0.9855   -DE/DX =   -0.0002                        !
 !       r2          1.427    -DE/DX =    0.0018                        !
 !       r3          1.3797   -DE/DX =   -0.0027                        !
 !       r4          1.1953   -DE/DX =   -0.0022                        !
 !       a1        100.593    -DE/DX =    0.0005                        !
 !       a2        113.1615   -DE/DX =   -0.0008                        !
 !       a3        114.2965   -DE/DX =   -0.0142                        !
 !       d1          0.0      -DE/DX =    0.0                           !
 !       d2          0.0      -DE/DX =    0.0                           !
 ------------------------------------------------------------------------
 GradGradGradGradGradGradGradGradGradGradGradGradGradGradGradGradGradGrad

 Leave Link  103 at Sun Mar  6 19:44:00 2022, MaxMem= 16106127360 cpu:               2.5 elap:               0.1
 (Enter /sw/contrib/gaussian/g16/B01/g16/l9999.exe)

 ----------------------------------------------------------------------

 Electric dipole moment (input orientation):
 (Debye = 10**-18 statcoulomb cm , SI units = C m)
                  (au)            (Debye)         (10**-30 SI)
   Tot        0.432356D+00      0.109894D+01      0.366566D+01
   x         -0.119025D+00     -0.302532D+00     -0.100914D+01
   y          0.000000D+00      0.000000D+00      0.000000D+00
   z         -0.415649D+00     -0.105648D+01     -0.352402D+01

 Dipole polarizability, Alpha (input orientation).
 (esu units = cm**3 , SI units = C**2 m**2 J**-1)
 Alpha(0;0):
               (au)            (10**-24 esu)      (10**-40 SI)
   iso        0.262097D+02      0.388388D+01      0.432140D+01
   aniso      0.148217D+02      0.219636D+01      0.244378D+01
   xx         0.292389D+02      0.433276D+01      0.482085D+01
   yx         0.000000D+00      0.000000D+00      0.000000D+00
   yy         0.176456D+02      0.261481D+01      0.290937D+01
   zx        -0.408049D+01     -0.604665D+00     -0.672781D+00
   zy         0.000000D+00      0.000000D+00      0.000000D+00
   zz         0.317446D+02      0.470406D+01      0.523398D+01

 ----------------------------------------------------------------------

 Dipole orientation:
     1         -0.00000000          0.00000000          0.00000000
     8         -0.51262403          0.00000000         -1.79014054
     8          1.89782448         -0.00000000         -2.99799697
     7          3.88988045         -0.00000000         -1.31176736
     8          3.31858100          0.00000000          0.87258185

 Electric dipole moment (dipole orientation):
 (Debye = 10**-18 statcoulomb cm , SI units = C m)
                  (au)            (Debye)         (10**-30 SI)
   Tot        0.432356D+00      0.109894D+01      0.366566D+01
   x          0.000000D+00      0.000000D+00      0.000000D+00
   y          0.000000D+00      0.000000D+00      0.000000D+00
   z          0.432356D+00      0.109894D+01      0.366566D+01

 Dipole polarizability, Alpha (dipole orientation).
 (esu units = cm**3 , SI units = C**2 m**2 J**-1)
 Alpha(0;0):
               (au)            (10**-24 esu)      (10**-40 SI)
   iso        0.262097D+02      0.388388D+01      0.432140D+01
   aniso      0.148217D+02      0.219636D+01      0.244378D+01
   xx         0.315887D+02      0.468096D+01      0.520827D+01
   yx         0.000000D+00      0.000000D+00      0.000000D+00
   yy         0.176456D+02      0.261481D+01      0.290937D+01
   zx         0.412513D+01      0.611281D+00      0.680142D+00
   zy         0.000000D+00      0.000000D+00      0.000000D+00
   zz         0.293948D+02      0.435587D+01      0.484656D+01

 ----------------------------------------------------------------------
 1\1\GINC-N2108\Freq\RMP2-FC\Aug-CC-pVTZ\H1N1O3\CGAVINH\06-Mar-2022\1\\
 #p freq mp2/aug-cc-pvtz density=current\\title\\0,1\H\O,1,r1\O,2,r2,1,
 a1\N,3,r3,2,a2,1,d1,0\O,4,r4,3,a3,2,d2,0\\r1=0.98537664\r2=1.42673666\
 r3=1.38110764\r4=1.19478846\a1=100.6355057\a2=113.13777052\a3=115.5901
 9664\d1=0.\d2=0.\\Version=ES64L-G16RevB.01\State=1-A'\HF=-279.5063078\
 MP2=-280.455081\RMSD=4.293e-09\RMSF=2.797e-03\ZeroPoint=0.0233622\Ther
 mal=0.0273288\Dipole=-0.1190252,0.,-0.4156494\DipoleDeriv=0.3139661,0.
 ,0.0396345,0.,0.2985557,0.,-0.0209932,0.,0.1950361,-0.5313954,0.,0.279
 2635,0.,-0.2540499,0.,-0.1086781,0.,-0.12348,0.0053146,0.,0.3417127,0.
 ,-0.0089411,0.,0.4497566,0.,-0.9243717,0.2042919,0.,-0.1589063,0.,0.00
 83327,0.,-0.6810987,0.,1.7294268,0.0078228,0.,-0.5017044,0.,-0.0438974
 ,0.,0.3610135,0.,-0.8766112\Polar=29.2389447,0.,17.6455977,-4.080485,0
 .,31.7446017\Quadrupole=0.1184898,0.6147932,-0.733283,0.,1.4063493,0.\
 PG=CS [SG(H1N1O3)]\NImag=0\\0.07269778,0.,0.00598049,0.02308744,0.,0.4
 3730601,-0.05174347,0.,-0.00449686,0.28194384,0.,-0.00254785,0.,0.,0.0
 1193612,0.03375402,0.,-0.42245083,-0.01109058,0.,0.52193846,-0.0255654
 3,0.,-0.01503780,-0.17192225,0.,-0.09088074,0.30461940,0.,-0.00411104,
 0.,0.,-0.01879213,0.,0.,0.04149209,-0.04461434,0.,-0.01920985,0.009796
 59,0.,-0.09625290,0.08112345,0.,0.30835100,-0.00572178,0.,0.00653067,-
 0.08547887,0.,0.04043557,-0.14367288,0.,-0.03684670,0.54700766,0.,0.00
 794458,0.,0.,0.02038268,0.,0.,-0.04693373,0.,0.,0.05424420,-0.01858375
 ,0.,0.01161100,0.00986603,0.,-0.00878034,0.01293291,0.,-0.02406361,0.2
 4368244,0.,0.45519447,0.01033290,0.,-0.01008345,0.02720075,0.,0.027781
 72,0.03654115,0.,-0.00945899,-0.31213412,0.,-0.24789762,0.23805931,0.,
 -0.00726619,0.,0.,-0.01097881,0.,0.,0.02834481,0.,0.,-0.03563773,0.,0.
 ,0.02553792,0.00635663,0.,-0.00725633,-0.00407518,0.,0.00554560,0.0118
 6218,0.,-0.16882465,-0.25380197,0.,-0.43396153,0.23965834,0.,0.6044969
 0\\0.00024844,0.,-0.00020031,0.00139825,0.,0.00099939,0.00110728,0.,0.
 00431564,-0.00706418,0.,-0.00002350,0.00431020,0.,-0.00509122\\\@


 MODELS ARE TO BE USED, NOT BELIEVED.

    -- PARAPHRASED BY H. THIEL IN "PRINCIPLES OF ECONOMETRICS"
 Job cpu time:       0 days  2 hours  5 minutes 47.8 seconds.
 Elapsed time:       0 days  0 hours  4 minutes 33.1 seconds.
 File lengths (MBytes):  RWF=   7239 Int=      0 D2E=      0 Chk=      8 Scr=      1
 Normal termination of Gaussian 16 at Sun Mar  6 19:44:01 2022.
