 Entering Gaussian System, Link 0=g16
 Input=hoono_a3_113p2721.gjf
 Output=hoono_a3_113p2721.log
 Initial command:
 /sw/contrib/gaussian/g16/B01/g16/l1.exe "/scr/Gau-30694.inp" -scrdir="/scr/"
 Entering Link 1 = /sw/contrib/gaussian/g16/B01/g16/l1.exe PID=     30695.
  
 Copyright (c) 1988-2017, Gaussian, Inc.  All Rights Reserved.
  
 This is part of the Gaussian(R) 16 program.  It is based on
 the Gaussian(R) 09 system (copyright 2009, Gaussian, Inc.),
 the Gaussian(R) 03 system (copyright 2003, Gaussian, Inc.),
 the Gaussian(R) 98 system (copyright 1998, Gaussian, Inc.),
 the Gaussian(R) 94 system (copyright 1995, Gaussian, Inc.),
 the Gaussian 92(TM) system (copyright 1992, Gaussian, Inc.),
 the Gaussian 90(TM) system (copyright 1990, Gaussian, Inc.),
 the Gaussian 88(TM) system (copyright 1988, Gaussian, Inc.),
 the Gaussian 86(TM) system (copyright 1986, Carnegie Mellon
 University), and the Gaussian 82(TM) system (copyright 1983,
 Carnegie Mellon University). Gaussian is a federally registered
 trademark of Gaussian, Inc.
  
 This software contains proprietary and confidential information,
 including trade secrets, belonging to Gaussian, Inc.
  
 This software is provided under written license and may be
 used, copied, transmitted, or stored only in accord with that
 written license.
  
 The following legend is applicable only to US Government
 contracts under FAR:
  
                    RESTRICTED RIGHTS LEGEND
  
 Use, reproduction and disclosure by the US Government is
 subject to restrictions as set forth in subparagraphs (a)
 and (c) of the Commercial Computer Software - Restricted
 Rights clause in FAR 52.227-19.
  
 Gaussian, Inc.
 340 Quinnipiac St., Bldg. 40, Wallingford CT 06492
  
  
 ---------------------------------------------------------------
 Warning -- This program may not be used in any manner that
 competes with the business of Gaussian, Inc. or will provide
 assistance to any competitor of Gaussian, Inc.  The licensee
 of this program is prohibited from giving any competitor of
 Gaussian, Inc. access to this program.  By using this program,
 the user acknowledges that Gaussian, Inc. is engaged in the
 business of creating and licensing software in the field of
 computational chemistry and represents and warrants to the
 licensee that it is not a competitor of Gaussian, Inc. and that
 it will not use this program in any manner prohibited above.
 ---------------------------------------------------------------
  

 Cite this work as:
 Gaussian 16, Revision B.01,
 M. J. Frisch, G. W. Trucks, H. B. Schlegel, G. E. Scuseria, 
 M. A. Robb, J. R. Cheeseman, G. Scalmani, V. Barone, 
 G. A. Petersson, H. Nakatsuji, X. Li, M. Caricato, A. V. Marenich, 
 J. Bloino, B. G. Janesko, R. Gomperts, B. Mennucci, H. P. Hratchian, 
 J. V. Ortiz, A. F. Izmaylov, J. L. Sonnenberg, D. Williams-Young, 
 F. Ding, F. Lipparini, F. Egidi, J. Goings, B. Peng, A. Petrone, 
 T. Henderson, D. Ranasinghe, V. G. Zakrzewski, J. Gao, N. Rega, 
 G. Zheng, W. Liang, M. Hada, M. Ehara, K. Toyota, R. Fukuda, 
 J. Hasegawa, M. Ishida, T. Nakajima, Y. Honda, O. Kitao, H. Nakai, 
 T. Vreven, K. Throssell, J. A. Montgomery, Jr., J. E. Peralta, 
 F. Ogliaro, M. J. Bearpark, J. J. Heyd, E. N. Brothers, K. N. Kudin, 
 V. N. Staroverov, T. A. Keith, R. Kobayashi, J. Normand, 
 K. Raghavachari, A. P. Rendell, J. C. Burant, S. S. Iyengar, 
 J. Tomasi, M. Cossi, J. M. Millam, M. Klene, C. Adamo, R. Cammi, 
 J. W. Ochterski, R. L. Martin, K. Morokuma, O. Farkas, 
 J. B. Foresman, and D. J. Fox, Gaussian, Inc., Wallingford CT, 2016.
 
 ******************************************
 Gaussian 16:  ES64L-G16RevB.01 20-Dec-2017
                 6-Mar-2022 
 ******************************************
 %nproc=28
 Will use up to   28 processors via shared memory.
 %mem=120GB
 %chk=hoono_a3_113p2721.chk
 ---------------------------------------
 #p freq mp2/aug-cc-pvtz density=current
 ---------------------------------------
 1/10=4,30=1,38=1/1,3;
 2/12=2,17=6,18=5,40=1/2;
 3/5=16,6=1,7=10,11=9,25=1,30=1,71=2,140=1/1,2,3;
 4//1;
 5/5=2,38=5,98=1/2;
 8/6=3,8=1,10=1,19=11,30=-1/1;
 9/15=3,16=-3/6;
 11/6=1,8=1,15=11,17=12,24=-1,27=1,28=-2,29=300,32=6,42=3/1,2,10;
 10/6=2,21=1/2;
 8/6=4,8=1,10=1,19=11,30=-1/11,4;
 10/5=1,20=4/2;
 11/12=2,14=11,16=1,17=2,28=-2,42=3,76=2/2,10,12;
 6/7=2,8=2,9=2,10=2,22=-1/1;
 7/8=1,10=1,12=2,25=1,44=2/1,2,3,16;
 1/10=4,30=1/3;
 99//99;
 Leave Link    1 at Sun Mar  6 19:43:21 2022, MaxMem= 16106127360 cpu:               2.0 elap:               0.1
 (Enter /sw/contrib/gaussian/g16/B01/g16/l101.exe)
 -----
 title
 -----
 Symbolic Z-matrix:
 Charge =  0 Multiplicity = 1
 H
 O                    1    r1
 O                    2    r2       1    a1
 N                    3    r3       2    a2       1    d1       0
 O                    4    r4       3    a3       2    d2       0
       Variables:
  r1                    0.98538                  
  r2                    1.42674                  
  r3                    1.38111                  
  r4                    1.19479                  
  a1                  100.63551                  
  a2                  113.13777                  
  a3                  113.27217                  
  d1                    0.                       
  d2                    0.                       
 
 ITRead=  0  0  0  0  0
 MicOpt= -1 -1 -1 -1 -1
 NAtoms=      5 NQM=        5 NQMF=       0 NMMI=      0 NMMIF=      0
                NMic=       0 NMicF=      0.
                    Isotopes and Nuclear Properties:
 (Nuclear quadrupole moments (NQMom) in fm**2, nuclear magnetic moments (NMagM)
  in nuclear magnetons)

  Atom         1           2           3           4           5
 IAtWgt=           1          16          16          14          16
 AtmWgt=   1.0078250  15.9949146  15.9949146  14.0030740  15.9949146
 NucSpn=           1           0           0           2           0
 AtZEff=  -0.0000000  -0.0000000  -0.0000000  -0.0000000  -0.0000000
 NQMom=    0.0000000   0.0000000   0.0000000   2.0440000   0.0000000
 NMagM=    2.7928460   0.0000000   0.0000000   0.4037610   0.0000000
 AtZNuc=   1.0000000   8.0000000   8.0000000   7.0000000   8.0000000
 Leave Link  101 at Sun Mar  6 19:43:21 2022, MaxMem= 16106127360 cpu:               2.3 elap:               0.1
 (Enter /sw/contrib/gaussian/g16/B01/g16/l103.exe)

 GradGradGradGradGradGradGradGradGradGradGradGradGradGradGradGradGradGrad
 Berny optimization.
 Initialization pass.
                       ----------------------------
                       !    Initial Parameters    !
                       ! (Angstroms and Degrees)  !
 ----------------------                            ----------------------
 !      Name          Value   Derivative information (Atomic Units)     !
 ------------------------------------------------------------------------
 !       r1          0.9854   calculate D2E/DX2 analytically            !
 !       r2          1.4267   calculate D2E/DX2 analytically            !
 !       r3          1.3811   calculate D2E/DX2 analytically            !
 !       r4          1.1948   calculate D2E/DX2 analytically            !
 !       a1        100.6355   calculate D2E/DX2 analytically            !
 !       a2        113.1378   calculate D2E/DX2 analytically            !
 !       a3        113.2722   calculate D2E/DX2 analytically            !
 !       d1          0.0      calculate D2E/DX2 analytically            !
 !       d2          0.0      calculate D2E/DX2 analytically            !
 ------------------------------------------------------------------------
 Trust Radius=3.00D-01 FncErr=1.00D-07 GrdErr=1.00D-07 EigMax=2.50D+02 EigMin=1.00D-04
 Number of steps in this run=      2 maximum allowed number of steps=      2.
 GradGradGradGradGradGradGradGradGradGradGradGradGradGradGradGradGradGrad

 Leave Link  103 at Sun Mar  6 19:43:22 2022, MaxMem= 16106127360 cpu:               1.7 elap:               0.1
 (Enter /sw/contrib/gaussian/g16/B01/g16/l202.exe)
                          Input orientation:                          
 ---------------------------------------------------------------------
 Center     Atomic      Atomic             Coordinates (Angstroms)
 Number     Number       Type             X           Y           Z
 ---------------------------------------------------------------------
      1          1           0        0.000000    0.000000    0.000000
      2          8           0        0.000000    0.000000    0.985377
      3          8           0        1.402227    0.000000    1.248696
      4          7           0        2.169996    0.000000    0.100659
      5          8           0        1.520062    0.000000   -0.901891
 ---------------------------------------------------------------------
                    Distance matrix (angstroms):
                    1          2          3          4          5
     1  H    0.000000
     2  O    0.985377   0.000000
     3  O    1.877627   1.426737   0.000000
     4  N    2.172329   2.343418   1.381108   0.000000
     5  O    1.767483   2.423297   2.153813   1.194788   0.000000
 Stoichiometry    HNO3
 Framework group  CS[SG(HNO3)]
 Deg. of freedom     7
 Full point group                 CS      NOp   2
 Largest Abelian subgroup         CS      NOp   2
 Largest concise Abelian subgroup C1      NOp   1
                         Standard orientation:                         
 ---------------------------------------------------------------------
 Center     Atomic      Atomic             Coordinates (Angstroms)
 Number     Number       Type             X           Y           Z
 ---------------------------------------------------------------------
      1          1           0        1.100581   -0.606169   -0.000000
      2          8           0        1.312680    0.356110   -0.000000
      3          8           0       -0.000000    0.915081    0.000000
      4          7           0       -0.996883   -0.040786    0.000000
      5          8           0       -0.577980   -1.159732    0.000000
 ---------------------------------------------------------------------
 Rotational constants (GHZ):          21.2408280           8.2105956           5.9216102
 Leave Link  202 at Sun Mar  6 19:43:22 2022, MaxMem= 16106127360 cpu:               1.0 elap:               0.1
 (Enter /sw/contrib/gaussian/g16/B01/g16/l301.exe)
 Standard basis: Aug-CC-pVTZ (5D, 7F)
 Ernie: Thresh=  0.10000D-02 Tol=  0.10000D-05 Strict=F.
 Ernie:  12 primitive shells out of 131 were deleted.
 There are   166 symmetry adapted cartesian basis functions of A'  symmetry.
 There are    79 symmetry adapted cartesian basis functions of A"  symmetry.
 There are   136 symmetry adapted basis functions of A'  symmetry.
 There are    71 symmetry adapted basis functions of A"  symmetry.
   207 basis functions,   315 primitive gaussians,   245 cartesian basis functions
    16 alpha electrons       16 beta electrons
       nuclear repulsion energy       122.9938754891 Hartrees.
 IExCor=    0 DFT=F Ex=HF Corr=None ExCW=0 ScaHFX=  1.000000
 ScaDFX=  1.000000  1.000000  1.000000  1.000000 ScalE2=  1.000000  1.000000
 IRadAn=      5 IRanWt=     -1 IRanGd=            0 ICorTp=0 IEmpDi=  4
 NAtoms=    5 NActive=    5 NUniq=    5 SFac= 1.00D+00 NAtFMM=   60 NAOKFM=F Big=F
 Integral buffers will be    131072 words long.
 Raffenetti 1 integral format.
 Two-electron integral symmetry is turned on.
 Leave Link  301 at Sun Mar  6 19:43:22 2022, MaxMem= 16106127360 cpu:               1.6 elap:               0.1
 (Enter /sw/contrib/gaussian/g16/B01/g16/l302.exe)
 NPDir=0 NMtPBC=     1 NCelOv=     1 NCel=       1 NClECP=     1 NCelD=      1
         NCelK=      1 NCelE2=     1 NClLst=     1 CellRange=     0.0.
 One-electron integrals computed using PRISM.
 One-electron integral symmetry used in STVInt
 NBasis=   207 RedAO= T EigKep=  1.31D-04  NBF=   136    71
 NBsUse=   207 1.00D-06 EigRej= -1.00D+00 NBFU=   136    71
 Leave Link  302 at Sun Mar  6 19:43:22 2022, MaxMem= 16106127360 cpu:               4.5 elap:               0.2
 (Enter /sw/contrib/gaussian/g16/B01/g16/l303.exe)
 DipDrv:  MaxL=1.
 Leave Link  303 at Sun Mar  6 19:43:22 2022, MaxMem= 16106127360 cpu:               1.2 elap:               0.1
 (Enter /sw/contrib/gaussian/g16/B01/g16/l401.exe)
 ExpMin= 2.53D-02 ExpMax= 1.53D+04 ExpMxC= 5.22D+02 IAcc=3 IRadAn=         5 AccDes= 0.00D+00
 Harris functional with IExCor=  205 and IRadAn=       5 diagonalized for initial guess.
 HarFok:  IExCor=  205 AccDes= 0.00D+00 IRadAn=         5 IDoV= 1 UseB2=F ITyADJ=14
 ICtDFT=  3500011 ScaDFX=  1.000000  1.000000  1.000000  1.000000
 FoFCou: FMM=F IPFlag=           0 FMFlag=      100000 FMFlg1=           0
         NFxFlg=           0 DoJE=T BraDBF=F KetDBF=T FulRan=T
         wScrn=  0.000000 ICntrl=       500 IOpCl=  0 I1Cent=   200000004 NGrid=           0
         NMat0=    1 NMatS0=      1 NMatT0=    0 NMatD0=    1 NMtDS0=    0 NMtDT0=    0
 Petite list used in FoFCou.
 Harris En= -279.645041804700    
 JPrj=0 DoOrth=F DoCkMO=F.
 Initial guess orbital symmetries:
       Occupied  (A') (A') (A') (A') (A') (A') (A') (A') (A') (A')
                 (A") (A') (A") (A') (A") (A')
       Virtual   (A") (A') (A') (A') (A') (A") (A') (A') (A') (A')
                 (A") (A') (A") (A') (A') (A") (A') (A') (A") (A')
                 (A') (A') (A') (A') (A") (A') (A') (A') (A") (A')
                 (A') (A") (A") (A') (A') (A") (A') (A") (A') (A")
                 (A') (A") (A') (A") (A') (A') (A') (A") (A') (A')
                 (A') (A") (A') (A") (A') (A") (A') (A') (A') (A")
                 (A') (A') (A") (A') (A') (A') (A") (A") (A') (A')
                 (A") (A') (A") (A") (A') (A') (A") (A') (A') (A')
                 (A") (A') (A') (A") (A') (A") (A") (A') (A') (A')
                 (A') (A") (A') (A") (A') (A') (A") (A') (A") (A')
                 (A") (A') (A') (A") (A") (A') (A') (A') (A") (A')
                 (A") (A') (A') (A') (A") (A') (A') (A') (A") (A')
                 (A") (A') (A') (A") (A") (A") (A") (A') (A') (A')
                 (A') (A') (A') (A") (A') (A") (A') (A") (A') (A')
                 (A") (A") (A') (A') (A') (A") (A') (A') (A') (A")
                 (A') (A') (A') (A") (A') (A") (A") (A') (A') (A")
                 (A') (A") (A") (A') (A") (A') (A") (A') (A") (A')
                 (A") (A") (A") (A') (A") (A') (A') (A') (A") (A')
                 (A') (A') (A') (A') (A') (A') (A') (A') (A') (A')
                 (A')
 The electronic state of the initial guess is 1-A'.
 Leave Link  401 at Sun Mar  6 19:43:22 2022, MaxMem= 16106127360 cpu:               6.8 elap:               0.3
 (Enter /sw/contrib/gaussian/g16/B01/g16/l502.exe)
 Keep R1 ints in memory in symmetry-blocked form, NReq=348887737.
 FoFCou: FMM=F IPFlag=           0 FMFlag=           0 FMFlg1=           0
         NFxFlg=           0 DoJE=F BraDBF=F KetDBF=F FulRan=T
         wScrn=  0.000000 ICntrl=       600 IOpCl=  0 I1Cent=           0 NGrid=           0
         NMat0=    1 NMatS0=  21528 NMatT0=    0 NMatD0=    1 NMtDS0=    0 NMtDT0=    0
 Petite list used in FoFCou.
 Closed shell SCF:
 Using DIIS extrapolation, IDIIS=  1040.
 NGot= 16106127360 LenX= 15988850015 LenY= 15988789549
 Requested convergence on RMS density matrix=1.00D-08 within 128 cycles.
 Requested convergence on MAX density matrix=1.00D-06.
 Requested convergence on             energy=1.00D-06.
 No special actions if energy rises.

 Cycle   1  Pass 1  IDiag  1:
 E= -279.364058438993    
 DIIS: error= 2.77D-02 at cycle   1 NSaved=   1.
 NSaved= 1 IEnMin= 1 EnMin= -279.364058438993     IErMin= 1 ErrMin= 2.77D-02
 ErrMax= 2.77D-02  0.00D+00 EMaxC= 1.00D-01 BMatC= 4.51D-01 BMatP= 4.51D-01
 IDIUse=3 WtCom= 7.23D-01 WtEn= 2.77D-01
 Coeff-Com:  0.100D+01
 Coeff-En:   0.100D+01
 Coeff:      0.100D+01
 Gap=     0.496 Goal=   None    Shift=    0.000
 GapD=    0.496 DampG=2.000 DampE=0.500 DampFc=1.0000 IDamp=-1.
 RMSDP=1.68D-03 MaxDP=8.96D-02              OVMax= 1.23D-01

 Cycle   2  Pass 1  IDiag  1:
 E= -279.446037492714     Delta-E=       -0.081979053721 Rises=F Damp=F
 DIIS: error= 1.95D-02 at cycle   2 NSaved=   2.
 NSaved= 2 IEnMin= 2 EnMin= -279.446037492714     IErMin= 2 ErrMin= 1.95D-02
 ErrMax= 1.95D-02  0.00D+00 EMaxC= 1.00D-01 BMatC= 8.60D-02 BMatP= 4.51D-01
 IDIUse=3 WtCom= 8.05D-01 WtEn= 1.95D-01
 Coeff-Com:  0.219D+00 0.781D+00
 Coeff-En:   0.783D-01 0.922D+00
 Coeff:      0.191D+00 0.809D+00
 Gap=     0.562 Goal=   None    Shift=    0.000
 RMSDP=9.67D-04 MaxDP=3.66D-02 DE=-8.20D-02 OVMax= 9.17D-02

 Cycle   3  Pass 1  IDiag  1:
 E= -279.483929891545     Delta-E=       -0.037892398831 Rises=F Damp=F
 DIIS: error= 1.10D-02 at cycle   3 NSaved=   3.
 NSaved= 3 IEnMin= 3 EnMin= -279.483929891545     IErMin= 3 ErrMin= 1.10D-02
 ErrMax= 1.10D-02  0.00D+00 EMaxC= 1.00D-01 BMatC= 3.08D-02 BMatP= 8.60D-02
 IDIUse=3 WtCom= 8.90D-01 WtEn= 1.10D-01
 Coeff-Com: -0.347D-01 0.364D+00 0.671D+00
 Coeff-En:   0.000D+00 0.217D+00 0.783D+00
 Coeff:     -0.309D-01 0.348D+00 0.683D+00
 Gap=     0.541 Goal=   None    Shift=    0.000
 RMSDP=4.10D-04 MaxDP=1.60D-02 DE=-3.79D-02 OVMax= 3.86D-02

 Cycle   4  Pass 1  IDiag  1:
 E= -279.504988976436     Delta-E=       -0.021059084891 Rises=F Damp=F
 DIIS: error= 1.61D-03 at cycle   4 NSaved=   4.
 NSaved= 4 IEnMin= 4 EnMin= -279.504988976436     IErMin= 4 ErrMin= 1.61D-03
 ErrMax= 1.61D-03  0.00D+00 EMaxC= 1.00D-01 BMatC= 5.94D-04 BMatP= 3.08D-02
 IDIUse=3 WtCom= 9.84D-01 WtEn= 1.61D-02
 Coeff-Com: -0.119D-01 0.469D-01 0.153D+00 0.812D+00
 Coeff-En:   0.000D+00 0.000D+00 0.000D+00 0.100D+01
 Coeff:     -0.117D-01 0.462D-01 0.151D+00 0.815D+00
 Gap=     0.528 Goal=   None    Shift=    0.000
 RMSDP=9.84D-05 MaxDP=2.29D-03 DE=-2.11D-02 OVMax= 1.17D-02

 Cycle   5  Pass 1  IDiag  1:
 E= -279.505793775490     Delta-E=       -0.000804799054 Rises=F Damp=F
 DIIS: error= 1.10D-03 at cycle   5 NSaved=   5.
 NSaved= 5 IEnMin= 5 EnMin= -279.505793775490     IErMin= 5 ErrMin= 1.10D-03
 ErrMax= 1.10D-03  0.00D+00 EMaxC= 1.00D-01 BMatC= 1.02D-04 BMatP= 5.94D-04
 IDIUse=3 WtCom= 9.89D-01 WtEn= 1.10D-02
 Coeff-Com:  0.538D-02-0.658D-01-0.111D+00 0.598D-01 0.111D+01
 Coeff-En:   0.000D+00 0.000D+00 0.000D+00 0.000D+00 0.100D+01
 Coeff:      0.532D-02-0.651D-01-0.110D+00 0.591D-01 0.111D+01
 Gap=     0.531 Goal=   None    Shift=    0.000
 RMSDP=7.96D-05 MaxDP=2.11D-03 DE=-8.05D-04 OVMax= 1.29D-02

 Cycle   6  Pass 1  IDiag  1:
 E= -279.506154866860     Delta-E=       -0.000361091370 Rises=F Damp=F
 DIIS: error= 3.31D-04 at cycle   6 NSaved=   6.
 NSaved= 6 IEnMin= 6 EnMin= -279.506154866860     IErMin= 6 ErrMin= 3.31D-04
 ErrMax= 3.31D-04  0.00D+00 EMaxC= 1.00D-01 BMatC= 2.41D-05 BMatP= 1.02D-04
 IDIUse=3 WtCom= 9.97D-01 WtEn= 3.31D-03
 Coeff-Com:  0.189D-02-0.716D-02-0.180D-01-0.184D+00 0.158D-01 0.119D+01
 Coeff-En:   0.000D+00 0.000D+00 0.000D+00 0.000D+00 0.000D+00 0.100D+01
 Coeff:      0.188D-02-0.713D-02-0.179D-01-0.184D+00 0.157D-01 0.119D+01
 Gap=     0.532 Goal=   None    Shift=    0.000
 RMSDP=4.66D-05 MaxDP=1.07D-03 DE=-3.61D-04 OVMax= 6.13D-03

 Cycle   7  Pass 1  IDiag  1:
 E= -279.506240659086     Delta-E=       -0.000085792226 Rises=F Damp=F
 DIIS: error= 1.28D-04 at cycle   7 NSaved=   7.
 NSaved= 7 IEnMin= 7 EnMin= -279.506240659086     IErMin= 7 ErrMin= 1.28D-04
 ErrMax= 1.28D-04  0.00D+00 EMaxC= 1.00D-01 BMatC= 3.56D-06 BMatP= 2.41D-05
 IDIUse=3 WtCom= 9.99D-01 WtEn= 1.28D-03
 Coeff-Com: -0.108D-02 0.113D-01 0.249D-01 0.156D-01-0.181D+00-0.146D+00
 Coeff-Com:  0.128D+01
 Coeff-En:   0.000D+00 0.000D+00 0.000D+00 0.000D+00 0.000D+00 0.000D+00
 Coeff-En:   0.100D+01
 Coeff:     -0.108D-02 0.113D-01 0.249D-01 0.156D-01-0.181D+00-0.146D+00
 Coeff:      0.128D+01
 Gap=     0.532 Goal=   None    Shift=    0.000
 RMSDP=1.75D-05 MaxDP=5.10D-04 DE=-8.58D-05 OVMax= 2.33D-03

 Cycle   8  Pass 1  IDiag  1:
 E= -279.506252604259     Delta-E=       -0.000011945173 Rises=F Damp=F
 DIIS: error= 4.70D-05 at cycle   8 NSaved=   8.
 NSaved= 8 IEnMin= 8 EnMin= -279.506252604259     IErMin= 8 ErrMin= 4.70D-05
 ErrMax= 4.70D-05  0.00D+00 EMaxC= 1.00D-01 BMatC= 6.03D-07 BMatP= 3.56D-06
 IDIUse=1 WtCom= 1.00D+00 WtEn= 0.00D+00
 Coeff-Com: -0.564D-03 0.413D-02 0.981D-02 0.252D-01-0.576D-01-0.193D+00
 Coeff-Com:  0.354D+00 0.859D+00
 Coeff:     -0.564D-03 0.413D-02 0.981D-02 0.252D-01-0.576D-01-0.193D+00
 Coeff:      0.354D+00 0.859D+00
 Gap=     0.532 Goal=   None    Shift=    0.000
 RMSDP=5.47D-06 MaxDP=1.53D-04 DE=-1.19D-05 OVMax= 6.55D-04

 Cycle   9  Pass 1  IDiag  1:
 E= -279.506253989913     Delta-E=       -0.000001385654 Rises=F Damp=F
 DIIS: error= 2.45D-05 at cycle   9 NSaved=   9.
 NSaved= 9 IEnMin= 9 EnMin= -279.506253989913     IErMin= 9 ErrMin= 2.45D-05
 ErrMax= 2.45D-05  0.00D+00 EMaxC= 1.00D-01 BMatC= 1.15D-07 BMatP= 6.03D-07
 IDIUse=1 WtCom= 1.00D+00 WtEn= 0.00D+00
 Coeff-Com:  0.240D-03-0.255D-02-0.532D-02-0.561D-02 0.467D-01 0.491D-01
 Coeff-Com: -0.338D+00 0.277D-01 0.123D+01
 Coeff:      0.240D-03-0.255D-02-0.532D-02-0.561D-02 0.467D-01 0.491D-01
 Coeff:     -0.338D+00 0.277D-01 0.123D+01
 Gap=     0.532 Goal=   None    Shift=    0.000
 RMSDP=2.47D-06 MaxDP=6.70D-05 DE=-1.39D-06 OVMax= 2.58D-04

 Cycle  10  Pass 1  IDiag  1:
 E= -279.506254251748     Delta-E=       -0.000000261835 Rises=F Damp=F
 DIIS: error= 5.50D-06 at cycle  10 NSaved=  10.
 NSaved=10 IEnMin=10 EnMin= -279.506254251748     IErMin=10 ErrMin= 5.50D-06
 ErrMax= 5.50D-06  0.00D+00 EMaxC= 1.00D-01 BMatC= 8.18D-09 BMatP= 1.15D-07
 IDIUse=1 WtCom= 1.00D+00 WtEn= 0.00D+00
 Coeff-Com: -0.368D-04 0.476D-03 0.116D-02-0.187D-02-0.106D-01 0.547D-02
 Coeff-Com:  0.705D-01-0.515D-01-0.429D+00 0.142D+01
 Coeff:     -0.368D-04 0.476D-03 0.116D-02-0.187D-02-0.106D-01 0.547D-02
 Coeff:      0.705D-01-0.515D-01-0.429D+00 0.142D+01
 Gap=     0.532 Goal=   None    Shift=    0.000
 RMSDP=6.95D-07 MaxDP=2.51D-05 DE=-2.62D-07 OVMax= 7.47D-05

 Cycle  11  Pass 1  IDiag  1:
 E= -279.506254276257     Delta-E=       -0.000000024509 Rises=F Damp=F
 DIIS: error= 2.18D-06 at cycle  11 NSaved=  11.
 NSaved=11 IEnMin=11 EnMin= -279.506254276257     IErMin=11 ErrMin= 2.18D-06
 ErrMax= 2.18D-06  0.00D+00 EMaxC= 1.00D-01 BMatC= 8.53D-10 BMatP= 8.18D-09
 IDIUse=1 WtCom= 1.00D+00 WtEn= 0.00D+00
 Coeff-Com: -0.169D-04 0.174D-03 0.365D-03 0.882D-03-0.237D-02-0.721D-02
 Coeff-Com:  0.202D-01 0.189D-01-0.575D-01-0.306D+00 0.133D+01
 Coeff:     -0.169D-04 0.174D-03 0.365D-03 0.882D-03-0.237D-02-0.721D-02
 Coeff:      0.202D-01 0.189D-01-0.575D-01-0.306D+00 0.133D+01
 Gap=     0.532 Goal=   None    Shift=    0.000
 RMSDP=2.43D-07 MaxDP=9.02D-06 DE=-2.45D-08 OVMax= 2.85D-05

 Cycle  12  Pass 1  IDiag  1:
 E= -279.506254279289     Delta-E=       -0.000000003032 Rises=F Damp=F
 DIIS: error= 7.56D-07 at cycle  12 NSaved=  12.
 NSaved=12 IEnMin=12 EnMin= -279.506254279289     IErMin=12 ErrMin= 7.56D-07
 ErrMax= 7.56D-07  0.00D+00 EMaxC= 1.00D-01 BMatC= 9.21D-11 BMatP= 8.53D-10
 IDIUse=1 WtCom= 1.00D+00 WtEn= 0.00D+00
 Coeff-Com:  0.243D-05-0.439D-04-0.967D-04 0.160D-03 0.114D-02-0.917D-03
 Coeff-Com: -0.723D-02 0.690D-02 0.421D-01-0.125D+00-0.165D+00 0.125D+01
 Coeff:      0.243D-05-0.439D-04-0.967D-04 0.160D-03 0.114D-02-0.917D-03
 Coeff:     -0.723D-02 0.690D-02 0.421D-01-0.125D+00-0.165D+00 0.125D+01
 Gap=     0.532 Goal=   None    Shift=    0.000
 RMSDP=8.68D-08 MaxDP=2.85D-06 DE=-3.03D-09 OVMax= 1.01D-05

 Cycle  13  Pass 1  IDiag  1:
 E= -279.506254279612     Delta-E=       -0.000000000323 Rises=F Damp=F
 DIIS: error= 1.60D-07 at cycle  13 NSaved=  13.
 NSaved=13 IEnMin=13 EnMin= -279.506254279612     IErMin=13 ErrMin= 1.60D-07
 ErrMax= 1.60D-07  0.00D+00 EMaxC= 1.00D-01 BMatC= 7.81D-12 BMatP= 9.21D-11
 IDIUse=1 WtCom= 1.00D+00 WtEn= 0.00D+00
 Coeff-Com:  0.137D-05-0.132D-04-0.196D-04-0.124D-03 0.682D-04 0.951D-03
 Coeff-Com: -0.121D-02-0.254D-02-0.126D-02 0.546D-01-0.131D+00-0.151D+00
 Coeff-Com:  0.123D+01
 Coeff:      0.137D-05-0.132D-04-0.196D-04-0.124D-03 0.682D-04 0.951D-03
 Coeff:     -0.121D-02-0.254D-02-0.126D-02 0.546D-01-0.131D+00-0.151D+00
 Coeff:      0.123D+01
 Gap=     0.532 Goal=   None    Shift=    0.000
 RMSDP=2.33D-08 MaxDP=6.93D-07 DE=-3.23D-10 OVMax= 2.13D-06

 Cycle  14  Pass 1  IDiag  1:
 E= -279.506254279635     Delta-E=       -0.000000000023 Rises=F Damp=F
 DIIS: error= 4.17D-08 at cycle  14 NSaved=  14.
 NSaved=14 IEnMin=14 EnMin= -279.506254279635     IErMin=14 ErrMin= 4.17D-08
 ErrMax= 4.17D-08  0.00D+00 EMaxC= 1.00D-01 BMatC= 5.07D-13 BMatP= 7.81D-12
 IDIUse=1 WtCom= 1.00D+00 WtEn= 0.00D+00
 Coeff-Com: -0.290D-06 0.439D-05 0.892D-05-0.555D-05-0.114D-03 0.722D-04
 Coeff-Com:  0.640D-03-0.343D-03-0.365D-02 0.860D-02 0.163D-01-0.887D-01
 Coeff-Com: -0.272D-01 0.109D+01
 Coeff:     -0.290D-06 0.439D-05 0.892D-05-0.555D-05-0.114D-03 0.722D-04
 Coeff:      0.640D-03-0.343D-03-0.365D-02 0.860D-02 0.163D-01-0.887D-01
 Coeff:     -0.272D-01 0.109D+01
 Gap=     0.532 Goal=   None    Shift=    0.000
 RMSDP=4.53D-09 MaxDP=1.13D-07 DE=-2.29D-11 OVMax= 4.74D-07

 SCF Done:  E(RHF) =  -279.506254280     A.U. after   14 cycles
            NFock= 14  Conv=0.45D-08     -V/T= 2.0022
 KE= 2.788941357774D+02 PE=-9.068694177075D+02 EE= 2.254751521614D+02
 Leave Link  502 at Sun Mar  6 19:43:26 2022, MaxMem= 16106127360 cpu:              55.9 elap:               3.6
 (Enter /sw/contrib/gaussian/g16/B01/g16/l801.exe)
 ExpMin= 2.53D-02 ExpMax= 1.53D+04 ExpMxC= 5.22D+02 IAcc=3 IRadAn=         5 AccDes= 0.00D+00
 HarFok:  IExCor=  205 AccDes= 0.00D+00 IRadAn=         5 IDoV=-2 UseB2=F ITyADJ=14
 ICtDFT= 12500011 ScaDFX=  1.000000  1.000000  1.000000  1.000000
 Largest valence mixing into a core orbital is  2.07D-04
 Largest core mixing into a valence orbital is  3.13D-05
 Range of M.O.s used for correlation:     5   207
 NBasis=   207 NAE=    16 NBE=    16 NFC=     4 NFV=     0
 NROrb=    203 NOA=    12 NOB=    12 NVA=   191 NVB=   191

 **** Warning!!: The largest alpha MO coefficient is  0.16613636D+02

 Leave Link  801 at Sun Mar  6 19:43:26 2022, MaxMem= 16106127360 cpu:               2.7 elap:               0.1
 (Enter /sw/contrib/gaussian/g16/B01/g16/l906.exe)
 Frozen-core derivative calculation, NFC=   4 NFV=   0.
 FulOut=F Deriv=T AODrv=T NAtomX=     5
   MMem=           0  MDisk=          12 MDiskD=          12
  W3Min=      811440 MinDsk=     2425030 NBas6D=         245
 NBas2D=       30762    NTT=       30135    LW2=     7400000
    MDV= 16105571518 MDiskM=      328644 NBas2p=       30759
 Disk-based method using ON**2 memory for 12 occupieds at a time.
 Permanent disk used for amplitudes=    11516536 words.
 Estimated scratch disk usage=   321863743 words.
 IMap=   1   2   3   4   5   6   7   8   9  10  11  12  13  14  15  16
 Actual    scratch disk usage=   310892607 words.
 JobTyp=1 Pass  1:  I=   5 to  16 NPSUse= 28 ParTrn=T ParDer=T DoDerP=T.
 (rs|ai) integrals will be sorted in core.
 Spin components of T(2) and E(2):
     alpha-alpha T2 =       0.3479791842D-01 E2=     -0.1245935972D+00
     alpha-beta  T2 =       0.1844167465D+00 E2=     -0.6996853428D+00
     beta-beta   T2 =       0.3479791842D-01 E2=     -0.1245935972D+00
 The integrals were generated   1 times.
 ANorm=    0.1119827033D+01
 E2 =    -0.9488725371D+00 EUMP2 =    -0.28045512681675D+03
 Leave Link  906 at Sun Mar  6 19:45:04 2022, MaxMem= 16106127360 cpu:            2739.0 elap:              98.0
 (Enter /sw/contrib/gaussian/g16/B01/g16/l1101.exe)
 Using compressed Sx but separate Hx and Fx, NAtomX=     5.
 Will process      6 centers per pass.
 Leave Link 1101 at Sun Mar  6 19:45:04 2022, MaxMem= 16106127360 cpu:               6.1 elap:               0.2
 (Enter /sw/contrib/gaussian/g16/B01/g16/l1102.exe)
 Leave Link 1102 at Sun Mar  6 19:45:04 2022, MaxMem= 16106127360 cpu:               0.8 elap:               0.0
 (Enter /sw/contrib/gaussian/g16/B01/g16/l1110.exe)
 Forming Gx(P) for the SCF density, NAtomX=     5.
 Integral derivatives from FoFJK, PRISM(SPDF).
 Do as many integral derivatives as possible in FoFJK.
 G2DrvN: MDV=   16106126844.
 G2DrvN: will do     6 centers at a time, making    1 passes.
 Calling FoFCou, ICntrl=  3107 FMM=F I1Cent=   0 AccDes= 0.00D+00.
 FoFJK:  IHMeth= 1 ICntrl=    3107 DoSepK=F KAlg= 0 I1Cent=           0 FoldK=F
 IRaf=         0 NMat=       1 IRICut=       1 DoRegI=T DoRafI=F ISym2E= 1 IDoP0=0 IntGTp=1.
 FoFCou: FMM=F IPFlag=           0 FMFlag=      100000 FMFlg1=           0
         NFxFlg=           0 DoJE=F BraDBF=F KetDBF=F FulRan=T
         wScrn=  0.000000 ICntrl=      3107 IOpCl=  0 I1Cent=           0 NGrid=           0
         NMat0=    1 NMatS0=      1 NMatT0=    0 NMatD0=    1 NMtDS0=    0 NMtDT0=    0
 Petite list used in FoFCou.
 End of G2Drv F.D. properties file   721 does not exist.
 End of G2Drv F.D. properties file   722 does not exist.
 End of G2Drv F.D. properties file   788 does not exist.
 Leave Link 1110 at Sun Mar  6 19:45:07 2022, MaxMem= 16106127360 cpu:              87.0 elap:               3.1
 (Enter /sw/contrib/gaussian/g16/B01/g16/l1002.exe)
 Minotr:  Closed shell wavefunction.
          IDoAtm=11111
          Frozen-core window.
          Direct CPHF calculation.
          Differentiating once with respect to electric field.
                with respect to dipole field.
          Differentiating once with respect to nuclear coordinates.
          Requested convergence is 1.0D-08 RMS, and 1.0D-07 maximum.
          Secondary convergence is 1.0D-12 RMS, and 1.0D-12 maximum.
          NewPWx=T KeepS1=T KeepF1=T KeepIn=T MapXYZ=F SortEE=F KeepMc=T.
 Keep R1 ints in memory in symmetry-blocked form, NReq=348888983.
 FoFCou: FMM=F IPFlag=           0 FMFlag=           0 FMFlg1=           0
         NFxFlg=           0 DoJE=F BraDBF=F KetDBF=F FulRan=T
         wScrn=  0.000000 ICntrl=       600 IOpCl=  0 I1Cent=           0 NGrid=           0
         NMat0=    1 NMatS0=  21528 NMatT0=    0 NMatD0=    1 NMtDS0=    0 NMtDT0=    0
 Petite list used in FoFCou.
          MDV=   16106127360 using IRadAn=       1.
          Solving linear equations simultaneously, MaxMat=       0.
          There are    18 degrees of freedom in the 1st order CPHF.  IDoFFX=6 NUNeed=    18.
     15 vectors produced by pass  0 Test12= 1.70D-14 5.56D-09 XBig12= 7.87D+00 1.23D+00.
 AX will form    15 AO Fock derivatives at one time.
     15 vectors produced by pass  1 Test12= 1.70D-14 5.56D-09 XBig12= 1.34D+00 2.34D-01.
     15 vectors produced by pass  2 Test12= 1.70D-14 5.56D-09 XBig12= 6.57D-02 5.72D-02.
     15 vectors produced by pass  3 Test12= 1.70D-14 5.56D-09 XBig12= 1.90D-03 1.02D-02.
     15 vectors produced by pass  4 Test12= 1.70D-14 5.56D-09 XBig12= 3.98D-05 1.23D-03.
     15 vectors produced by pass  5 Test12= 1.70D-14 5.56D-09 XBig12= 5.55D-07 1.15D-04.
     15 vectors produced by pass  6 Test12= 1.70D-14 5.56D-09 XBig12= 4.45D-09 1.18D-05.
     14 vectors produced by pass  7 Test12= 1.70D-14 5.56D-09 XBig12= 3.53D-11 8.16D-07.
      3 vectors produced by pass  8 Test12= 1.70D-14 5.56D-09 XBig12= 2.51D-13 6.05D-08.
      1 vectors produced by pass  9 Test12= 1.70D-14 5.56D-09 XBig12= 1.70D-15 7.23D-09.
 InvSVY:  IOpt=1 It=  1 EMax= 7.77D-16
 Solved reduced A of dimension   123 with    15 vectors.
 FullF1:  Do perturbations      1 to      18.
 Saving first derivative matrices.
 End of Minotr F.D. properties file   721 does not exist.
 End of Minotr F.D. properties file   722 does not exist.
 End of Minotr F.D. properties file   788 does not exist.
 Leave Link 1002 at Sun Mar  6 19:45:10 2022, MaxMem= 16106127360 cpu:              78.5 elap:               3.0
 (Enter /sw/contrib/gaussian/g16/B01/g16/l811.exe)
 MDV= 16106127360.
 Form MO integral derivatives with frozen-active canonical formalism.
 MOERI=1 MOERIx=1 NAtoms=     5 NAtomX=     5.
 Discarding MO integrals.
 MO basis two electron integral derivatives will not be stored on disk.
 IAlg= 3 DoFC=T DoPWx=T Debug=F.
 Frozen-core window:  NFC=   4 NFV=   0.
 Reordered first order wavefunction length =     18678272
 In DefCFB: NBatch=  1 ICI= 16 ICA=191 LFMax= 96
            Large arrays: LIAPS=   619940160 LIARS=   288257200 words.
 In StABat: MaxSiz= 55 MinSiz= 25 NAtomB=  5
 DoIAMN: NPSUse= 28.
 Leave Link  811 at Sun Mar  6 19:46:30 2022, MaxMem= 16106127360 cpu:            2235.0 elap:              79.9
 (Enter /sw/contrib/gaussian/g16/B01/g16/l804.exe)
 Frozen-core window:  NFC=   4 NFV=   0.
 Closed-shell transformation, MDV= 16106127360 ITran=4 ISComp=1.
 Semi-Direct transformation.
 ModeAB=           2 MOrb=            16 LenV=   16104919855
 LASXX=     67341636 LTotXX=    67341636 LenRXX=    67341636
 LTotAB=    68301760 MaxLAS=    99807120 LenRXY=    99807120
 NonZer=   134683272 LenScr=   202817536 LnRSAI=           0
 LnScr1=           0 LExtra=           0 Total=    369966292
 MaxDsk=          -1 SrtSym=           F ITran=            4
 DoSDTr:  NPSUse= 28
 JobTyp=0 Pass  1:  I=   1 to  16.
 (rs|ai) integrals will be sorted in core.
 Complete sort for first half transformation.
 First half transformation complete.
 Begin second half transformation for I=  10.
 Begin second half transformation for I=  10.
 Complete sort for second half transformation.
 Second half transformation complete.
 Spin components of T(2) and E(2):
     alpha-alpha T2 =       0.3479791842D-01 E2=     -0.1245935972D+00
     alpha-beta  T2 =       0.1844167465D+00 E2=     -0.6996853428D+00
     beta-beta   T2 =       0.3479791842D-01 E2=     -0.1245935972D+00
 ANorm=    0.1583674577D+01
 E2 =    -0.9488725371D+00 EUMP2 =    -0.28045512681675D+03
 Leave Link  804 at Sun Mar  6 19:46:47 2022, MaxMem= 16106127360 cpu:             452.7 elap:              16.2
 (Enter /sw/contrib/gaussian/g16/B01/g16/l1002.exe)
 Minotr:  Closed shell wavefunction.
          Computing MP2/KS-MP2 derivatives.
          Using Z-Vector for PSCF gradient.
          Skipping F1 and S1 gradient terms here.
          IDoAtm=11111
          Frozen-core window.
          Using MO integrals in the linear equations.
          Forming densities via direct SCF.
          Differentiating once with respect to electric field.
                with respect to dipole field.
          Differentiating once with respect to nuclear coordinates.
          Using symmetry in CPHF.
          Requested convergence is 1.0D-10 RMS, and 1.0D-09 maximum.
          NewPWx=F KeepS1=T KeepF1=T KeepIn=T MapXYZ=F SortEE=F KeepMc=T.
          MDV=   16106127360 using IRadAn=       5.
          Solving linear equations separately, MaxMat=       0.
          There are     1 degrees of freedom in the 1st order CPHF.  IDoFFX=0 NUNeed=     1.
 FoFJK:  IHMeth= 1 ICntrl=       0 DoSepK=F KAlg= 0 I1Cent=           0 FoldK=F
 IRaf=         0 NMat=       1 IRICut=       1 DoRegI=T DoRafI=F ISym2E= 0 IDoP0=0 IntGTp=1.
 FoFCou: FMM=F IPFlag=           0 FMFlag=      100000 FMFlg1=           0
         NFxFlg=           0 DoJE=F BraDBF=F KetDBF=F FulRan=T
         wScrn=  0.000000 ICntrl=         0 IOpCl=  0 I1Cent=           0 NGrid=           0
         NMat0=    1 NMatS0=      1 NMatT0=    0 NMatD0=    1 NMtDS0=    0 NMtDT0=    0
 Symmetry not used in FoFCou.
 LinEq1:  Iter=  0 NonCon=     1 RMS=6.60D-03 Max=1.72D-01 NDo=     1
 LinEq1:  Iter=  1 NonCon=     1 RMS=2.00D-03 Max=3.05D-02 NDo=     1
 LinEq1:  Iter=  2 NonCon=     1 RMS=8.88D-04 Max=1.44D-02 NDo=     1
 LinEq1:  Iter=  3 NonCon=     1 RMS=3.78D-04 Max=8.08D-03 NDo=     1
 LinEq1:  Iter=  4 NonCon=     1 RMS=1.37D-04 Max=1.66D-03 NDo=     1
 LinEq1:  Iter=  5 NonCon=     1 RMS=7.60D-05 Max=1.39D-03 NDo=     1
 LinEq1:  Iter=  6 NonCon=     1 RMS=2.43D-05 Max=3.41D-04 NDo=     1
 LinEq1:  Iter=  7 NonCon=     1 RMS=8.23D-06 Max=1.13D-04 NDo=     1
 LinEq1:  Iter=  8 NonCon=     1 RMS=4.01D-06 Max=6.19D-05 NDo=     1
 LinEq1:  Iter=  9 NonCon=     1 RMS=1.05D-06 Max=1.16D-05 NDo=     1
 LinEq1:  Iter= 10 NonCon=     1 RMS=2.33D-07 Max=2.88D-06 NDo=     1
 LinEq1:  Iter= 11 NonCon=     1 RMS=5.05D-08 Max=8.04D-07 NDo=     1
 LinEq1:  Iter= 12 NonCon=     1 RMS=1.19D-08 Max=1.74D-07 NDo=     1
 LinEq1:  Iter= 13 NonCon=     1 RMS=2.08D-09 Max=2.20D-08 NDo=     1
 LinEq1:  Iter= 14 NonCon=     1 RMS=4.31D-10 Max=5.59D-09 NDo=     1
 LinEq1:  Iter= 15 NonCon=     0 RMS=8.80D-11 Max=9.36D-10 NDo=     1
 Linear equations converged to 1.000D-10 1.000D-09 after    15 iterations.
 End of Minotr F.D. properties file   721 does not exist.
 End of Minotr F.D. properties file   722 does not exist.
 End of Minotr F.D. properties file   788 does not exist.
 Leave Link 1002 at Sun Mar  6 19:46:49 2022, MaxMem= 16106127360 cpu:              64.2 elap:               2.3
 (Enter /sw/contrib/gaussian/g16/B01/g16/l1102.exe)
 Use density number 2.
 Symmetrizing basis deriv contribution to polar:
 IMax=3 JMax=2 DiffMx= 0.00D+00
 Leave Link 1102 at Sun Mar  6 19:46:49 2022, MaxMem= 16106127360 cpu:               1.1 elap:               0.1
 (Enter /sw/contrib/gaussian/g16/B01/g16/l1110.exe)
 Forming Gx(P) for generalized density number  2 NAtomX=     5.
 Integral derivatives from FoFJK, PRISM(SPDF).
 Do as many integral derivatives as possible in FoFJK.
 G2DrvN: MDV=   16106126844.
 G2DrvN: will do     6 centers at a time, making    1 passes.
 Calling FoFCou, ICntrl=  3107 FMM=F I1Cent=   0 AccDes= 0.00D+00.
 FoFJK:  IHMeth= 1 ICntrl=    3107 DoSepK=F KAlg= 0 I1Cent=           0 FoldK=F
 IRaf=         0 NMat=       1 IRICut=       1 DoRegI=T DoRafI=F ISym2E= 1 IDoP0=0 IntGTp=1.
 FoFCou: FMM=F IPFlag=           0 FMFlag=      100000 FMFlg1=           0
         NFxFlg=           0 DoJE=F BraDBF=F KetDBF=F FulRan=T
         wScrn=  0.000000 ICntrl=      3107 IOpCl=  0 I1Cent=           0 NGrid=           0
         NMat0=    1 NMatS0=      1 NMatT0=    0 NMatD0=    1 NMtDS0=    0 NMtDT0=    0
 Petite list used in FoFCou.
 End of G2Drv F.D. properties file   721 does not exist.
 End of G2Drv F.D. properties file   722 does not exist.
 End of G2Drv F.D. properties file   788 does not exist.
 Leave Link 1110 at Sun Mar  6 19:46:52 2022, MaxMem= 16106127360 cpu:              88.4 elap:               3.2
 (Enter /sw/contrib/gaussian/g16/B01/g16/l1112.exe)
 MP22nd: MDV=   16106127360
 This link is doing NAtomX=     5 total of    18 degrees of freedom.
 Using ON3 I/O method in MakUI.
 Frozen-core window:  NFC=   4 NFV=   0.
 Using Ix for Sx.
 Use MO integrals over full window.
 Using OV2 memory method for fx*t*t/D, MaxI=    16 DoOO2=F NP=  28.
 R2 and R3 integrals will be kept in memory, NReq=   915591705.
 FoFCou: FMM=F IPFlag=           0 FMFlag=           0 FMFlg1=           0
         NFxFlg=           0 DoJE=F BraDBF=F KetDBF=F FulRan=T
         wScrn=  0.000000 ICntrl=       600 IOpCl=  0 I1Cent=           0 NGrid=           0
         NMat0=    1 NMatS0=      1 NMatT0=    0 NMatD0=    1 NMtDS0=    0 NMtDT0=    0
 Symmetry not used in FoFCou.
 DD1Dir will call FoFMem   1 times, MxPair=       272
 NAB=   136 NAA=     0 NBB=     0.
 Symmetry is being used.
 FoFJK:  IHMeth= 1 ICntrl=       0 DoSepK=F KAlg= 0 I1Cent=           0 FoldK=F
 IRaf=         0 NMat=      18 IRICut=      45 DoRegI=T DoRafI=T ISym2E= 2 IDoP0=3 IntGTp=3.
 Discarding MO integrals.
 Leave Link 1112 at Sun Mar  6 19:47:28 2022, MaxMem= 16106127360 cpu:             976.3 elap:              35.2
 (Enter /sw/contrib/gaussian/g16/B01/g16/l601.exe)
 Copying SCF densities to generalized density rwf, IOpCl= 0 IROHF=0.

 **********************************************************************

            Population analysis using the MP2 Density.

 **********************************************************************

 Orbital symmetries:
       Occupied  (A') (A') (A') (A') (A') (A') (A') (A') (A') (A')
                 (A") (A') (A') (A") (A') (A")
       Virtual   (A') (A") (A') (A') (A") (A') (A') (A') (A") (A')
                 (A") (A') (A') (A') (A") (A') (A') (A") (A') (A')
                 (A') (A') (A') (A') (A") (A') (A') (A") (A') (A')
                 (A') (A") (A") (A') (A') (A') (A") (A') (A") (A')
                 (A") (A") (A') (A') (A") (A') (A') (A") (A') (A')
                 (A') (A") (A') (A') (A") (A') (A") (A') (A") (A')
                 (A') (A') (A") (A') (A') (A") (A') (A") (A') (A')
                 (A") (A') (A") (A") (A') (A') (A") (A') (A') (A')
                 (A") (A') (A') (A") (A') (A") (A") (A') (A') (A')
                 (A') (A') (A") (A") (A') (A') (A") (A") (A') (A")
                 (A') (A') (A") (A') (A") (A') (A') (A') (A") (A")
                 (A') (A') (A') (A') (A") (A') (A') (A') (A") (A')
                 (A") (A") (A') (A') (A") (A") (A') (A") (A') (A')
                 (A') (A') (A") (A') (A') (A") (A") (A') (A') (A')
                 (A") (A") (A') (A') (A') (A") (A') (A') (A') (A")
                 (A') (A') (A') (A") (A') (A") (A") (A') (A') (A")
                 (A') (A") (A') (A") (A") (A') (A") (A') (A") (A")
                 (A') (A") (A") (A') (A') (A") (A') (A') (A") (A')
                 (A') (A') (A') (A') (A') (A') (A') (A') (A') (A')
                 (A')
 The electronic state is 1-A'.
 Alpha  occ. eigenvalues --  -20.71871 -20.68672 -20.66757 -15.82671  -1.64565
 Alpha  occ. eigenvalues --   -1.50365  -1.29332  -0.96001  -0.83614  -0.75915
 Alpha  occ. eigenvalues --   -0.74017  -0.63584  -0.61777  -0.61766  -0.50650
 Alpha  occ. eigenvalues --   -0.49692
 Alpha virt. eigenvalues --    0.03516   0.05963   0.09512   0.10021   0.11969
 Alpha virt. eigenvalues --    0.12254   0.14965   0.15223   0.17737   0.18031
 Alpha virt. eigenvalues --    0.18999   0.21092   0.21667   0.24244   0.24636
 Alpha virt. eigenvalues --    0.26975   0.31400   0.31797   0.33790   0.34439
 Alpha virt. eigenvalues --    0.34770   0.39252   0.45083   0.48870   0.50564
 Alpha virt. eigenvalues --    0.51790   0.54606   0.56011   0.59906   0.61953
 Alpha virt. eigenvalues --    0.63793   0.68990   0.71674   0.72458   0.74698
 Alpha virt. eigenvalues --    0.76248   0.76699   0.79584   0.80811   0.83940
 Alpha virt. eigenvalues --    0.84317   0.85241   0.88575   0.90883   0.93396
 Alpha virt. eigenvalues --    0.94669   0.95374   1.01879   1.03281   1.06668
 Alpha virt. eigenvalues --    1.07054   1.09729   1.14668   1.15702   1.16745
 Alpha virt. eigenvalues --    1.22408   1.22786   1.24582   1.35602   1.35716
 Alpha virt. eigenvalues --    1.37348   1.46740   1.48687   1.50307   1.54331
 Alpha virt. eigenvalues --    1.59786   1.60266   1.60648   1.62948   1.69599
 Alpha virt. eigenvalues --    1.74120   1.80067   1.83114   1.88914   1.89466
 Alpha virt. eigenvalues --    1.93052   1.97831   1.99012   2.05430   2.12704
 Alpha virt. eigenvalues --    2.13069   2.16706   2.18935   2.24526   2.25945
 Alpha virt. eigenvalues --    2.29387   2.35256   2.37098   2.38565   2.40319
 Alpha virt. eigenvalues --    2.43334   2.46908   2.47925   2.53218   2.53911
 Alpha virt. eigenvalues --    2.55363   2.56049   2.62016   2.63163   2.67601
 Alpha virt. eigenvalues --    2.67888   2.75366   2.81067   2.82373   2.83847
 Alpha virt. eigenvalues --    2.91948   2.99519   3.04556   3.04815   3.11313
 Alpha virt. eigenvalues --    3.11995   3.17730   3.21379   3.31147   3.33019
 Alpha virt. eigenvalues --    3.36263   3.47425   3.67913   3.87019   3.93649
 Alpha virt. eigenvalues --    4.18830   4.22952   4.23217   4.27091   4.37412
 Alpha virt. eigenvalues --    4.49895   4.54549   4.55314   4.59855   4.69584
 Alpha virt. eigenvalues --    4.81159   4.89348   4.91590   4.93863   5.00237
 Alpha virt. eigenvalues --    5.00643   5.10602   5.13251   5.18311   5.25308
 Alpha virt. eigenvalues --    5.26185   5.32063   5.34945   5.36606   5.55164
 Alpha virt. eigenvalues --    5.64654   5.71123   5.89361   5.99286   6.26562
 Alpha virt. eigenvalues --    6.29561   6.36310   6.37754   6.59789   6.66079
 Alpha virt. eigenvalues --    6.66960   6.69592   6.72932   6.78620   6.80218
 Alpha virt. eigenvalues --    6.86617   6.96634   7.02158   7.06635   7.07996
 Alpha virt. eigenvalues --    7.13599   7.17456   7.18938   7.20443   7.24750
 Alpha virt. eigenvalues --    7.25042   7.27310   7.35023   7.39198   7.43339
 Alpha virt. eigenvalues --    7.44232   7.46462   7.56086   7.66351   7.68352
 Alpha virt. eigenvalues --    7.79563   7.88428   7.95364   8.07631   8.31012
 Alpha virt. eigenvalues --    8.49824   8.65257  13.62435  14.76321  15.11133
 Alpha virt. eigenvalues --   15.80158
          Condensed to atoms (all electrons):
               1          2          3          4          5
     1  H    0.579565   0.122897   0.024581   0.000155  -0.004469
     2  O    0.122897   8.391749  -0.229130  -0.000986  -0.010268
     3  O    0.024581  -0.229130   8.372248  -0.168353  -0.037399
     4  N    0.000155  -0.000986  -0.168353   7.134705  -0.119259
     5  O   -0.004469  -0.010268  -0.037399  -0.119259   8.366195
 Mulliken charges:
               1
     1  H    0.277271
     2  O   -0.274261
     3  O    0.038052
     4  N    0.153738
     5  O   -0.194800
 Sum of Mulliken charges =  -0.00000
 Mulliken charges with hydrogens summed into heavy atoms:
               1
     2  O    0.003010
     3  O    0.038052
     4  N    0.153738
     5  O   -0.194800
 APT charges:
               1
     1  H    0.273743
     2  O   -0.302862
     3  O   -0.308391
     4  N    0.639184
     5  O   -0.301674
 Sum of APT charges =  -0.00000
 APT charges with hydrogens summed into heavy atoms:
               1
     2  O   -0.029119
     3  O   -0.308391
     4  N    0.639184
     5  O   -0.301674
 Electronic spatial extent (au):  <R**2>=            205.9808
 Charge=             -0.0000 electrons
 Dipole moment (field-independent basis, Debye):
    X=              0.0262    Y=             -1.0927    Z=             -0.0000  Tot=              1.0930
 Quadrupole moment (field-independent basis, Debye-Ang):
   XX=            -23.3558   YY=            -22.9341   ZZ=            -21.9294
   XY=             -1.9839   XZ=              0.0000   YZ=             -0.0000
 Traceless Quadrupole moment (field-independent basis, Debye-Ang):
   XX=             -0.6160   YY=             -0.1944   ZZ=              0.8104
   XY=             -1.9839   XZ=              0.0000   YZ=             -0.0000
 Octapole moment (field-independent basis, Debye-Ang**2):
  XXX=              2.5016  YYY=              0.2349  ZZZ=              0.0000  XYY=              2.4029
  XXY=             -2.7827  XXZ=             -0.0000  XZZ=             -0.5845  YZZ=             -0.6997
  YYZ=             -0.0000  XYZ=              0.0000
 Hexadecapole moment (field-independent basis, Debye-Ang**3):
 XXXX=           -126.6755 YYYY=            -93.9377 ZZZZ=            -18.0359 XXXY=            -21.0144
 XXXZ=              0.0000 YYYX=            -19.4108 YYYZ=             -0.0000 ZZZX=              0.0000
 ZZZY=              0.0000 XXYY=            -35.3717 XXZZ=            -24.2718 YYZZ=            -18.4298
 XXYZ=              0.0000 YYXZ=              0.0000 ZZXY=             -5.7535
 N-N= 1.229938754891D+02 E-N=-9.075520673054D+02  KE= 2.802102201352D+02
 Symmetry A'   KE= 2.663626043708D+02
 Symmetry A"   KE= 1.384761576438D+01
  Exact polarizability:  30.890   4.060  29.720  -0.000   0.000  17.598
 Approx polarizability:  24.616   0.408  27.522  -0.000   0.000  15.504
 No NMR shielding tensors so no spin-rotation constants.
 Leave Link  601 at Sun Mar  6 19:47:28 2022, MaxMem= 16106127360 cpu:               4.2 elap:               0.2
 (Enter /sw/contrib/gaussian/g16/B01/g16/l701.exe)
 ... and contract with generalized density number  2.
 Compute integral second derivatives.
 Leave Link  701 at Sun Mar  6 19:47:28 2022, MaxMem= 16106127360 cpu:               5.7 elap:               0.2
 (Enter /sw/contrib/gaussian/g16/B01/g16/l702.exe)
 L702 exits ... SP integral derivatives will be done elsewhere.
 Leave Link  702 at Sun Mar  6 19:47:28 2022, MaxMem= 16106127360 cpu:               0.8 elap:               0.1
 (Enter /sw/contrib/gaussian/g16/B01/g16/l703.exe)
 Integral derivatives from FoFJK, PRISM(SPDF).
 Compute integral second derivatives, UseDBF=F ICtDFT=           0.
 Calling FoFJK, ICntrl=  10100127 FMM=F ISym2X=1 I1Cent= 0 IOpClX= 0 NMat=1 NMatS=1 NMatT=0.
 FoFJK:  IHMeth= 1 ICntrl=10100127 DoSepK=F KAlg= 0 I1Cent=           0 FoldK=F
 IRaf=         0 NMat=       1 IRICut=       1 DoRegI=T DoRafI=F ISym2E= 1 IDoP0=0 IntGTp=1.
 FoFCou: FMM=F IPFlag=           0 FMFlag=      100000 FMFlg1=         800
         NFxFlg=           0 DoJE=F BraDBF=F KetDBF=F FulRan=T
         wScrn=  0.000000 ICntrl=  10100127 IOpCl=  0 I1Cent=           0 NGrid=           0
         NMat0=    1 NMatS0=      1 NMatT0=    0 NMatD0=    1 NMtDS0=    0 NMtDT0=    0
 Petite list used in FoFCou.
 Leave Link  703 at Sun Mar  6 19:47:44 2022, MaxMem= 16106127360 cpu:             454.1 elap:              16.3
 (Enter /sw/contrib/gaussian/g16/B01/g16/l716.exe)
 Dipole        = 1.02978914D-02-4.29909844D-01-3.53019214D-33
 Polarizability= 3.08900191D+01 4.06032835D+00 2.97198784D+01
                -8.47452940D-31 4.86209587D-31 1.75975543D+01
 Full mass-weighted force constant matrix:
 Low frequencies ---  -56.7134  -27.3105   -0.0013   -0.0004    0.0008   46.6586
 Low frequencies ---  355.6013  412.8412  529.7758
 Diagonal vibrational polarizability:
        7.0987451       9.7262642      15.8096861
 Harmonic frequencies (cm**-1), IR intensities (KM/Mole), Raman scattering
 activities (A**4/AMU), depolarization ratios for plane and unpolarized
 incident light, reduced masses (AMU), force constants (mDyne/A),
 and normal coordinates:
                      1                      2                      3
                     A"                     A'                     A"
 Frequencies --    355.5651               412.8299               529.7519
 Red. masses --      1.5461                 6.9969                 2.9439
 Frc consts  --      0.1152                 0.7026                 0.4868
 IR Inten    --     62.9158                 7.9314                25.2093
  Atom  AN      X      Y      Z        X      Y      Z        X      Y      Z
     1   1    -0.00  -0.00   0.98    -0.73  -0.25  -0.00    -0.00  -0.00   0.93
     2   8    -0.00  -0.00  -0.11    -0.33  -0.31   0.00    -0.00  -0.00   0.06
     3   8     0.00   0.00   0.11    -0.06   0.08  -0.00     0.00   0.00  -0.19
     4   7     0.00   0.00  -0.11     0.06   0.09   0.00    -0.00  -0.00   0.27
     5   8     0.00   0.00   0.03     0.39   0.16  -0.00     0.00  -0.00  -0.17
                      4                      5                      6
                     A'                     A'                     A'
 Frequencies --    718.6847               834.6419               974.0782
 Red. masses --     13.5042                12.3615                 9.5600
 Frc consts  --      4.1096                 5.0737                 5.3444
 IR Inten    --    218.7946                27.2112                11.9745
  Atom  AN      X      Y      Z        X      Y      Z        X      Y      Z
     1   1    -0.34   0.00  -0.00     0.44  -0.16   0.00    -0.64   0.00   0.00
     2   8    -0.00  -0.08   0.00     0.53  -0.21  -0.00     0.19  -0.16   0.00
     3   8     0.38   0.57   0.00    -0.40  -0.02  -0.00    -0.34   0.41  -0.00
     4   7    -0.43  -0.47  -0.00    -0.42  -0.05   0.00     0.37   0.04   0.00
     5   8     0.02  -0.09   0.00     0.21   0.29  -0.00    -0.13  -0.28  -0.00
                      7                      8                      9
                     A'                     A'                     A'
 Frequencies --   1428.0823              1571.6814              3485.1991
 Red. masses --      1.3086                 6.4567                 1.0634
 Frc consts  --      1.5724                 9.3970                 7.6106
 IR Inten    --     81.0297               148.1645                44.5563
  Atom  AN      X      Y      Z        X      Y      Z        X      Y      Z
     1   1     0.97  -0.21   0.00    -0.76   0.17  -0.00     0.16   0.99  -0.00
     2   8    -0.07  -0.05  -0.00     0.02   0.02   0.00    -0.01  -0.06   0.00
     3   8    -0.03   0.06   0.00    -0.04  -0.06  -0.00     0.00  -0.00  -0.00
     4   7     0.07  -0.05   0.00     0.25  -0.40  -0.00    -0.00   0.00  -0.00
     5   8    -0.02   0.05  -0.00    -0.15   0.38   0.00     0.00  -0.00   0.00

 -------------------
 - Thermochemistry -
 -------------------
 Temperature   298.150 Kelvin.  Pressure   1.00000 Atm.
 Atom     1 has atomic number  1 and mass   1.00783
 Atom     2 has atomic number  8 and mass  15.99491
 Atom     3 has atomic number  8 and mass  15.99491
 Atom     4 has atomic number  7 and mass  14.00307
 Atom     5 has atomic number  8 and mass  15.99491
 Molecular mass:    62.99564 amu.
 Principal axes and moments of inertia in atomic units:
                           1         2         3
     Eigenvalues --    84.96567 219.80637 304.77204
           X            0.80105  -0.59860   0.00000
           Y            0.59860   0.80105   0.00000
           Z           -0.00000   0.00000   1.00000
 This molecule is an asymmetric top.
 Rotational symmetry number  1.
 Rotational temperatures (Kelvin)      1.01940     0.39405     0.28419
 Rotational constants (GHZ):          21.24083     8.21060     5.92161
 Zero-point vibrational energy      61670.6 (Joules/Mol)
                                   14.73962 (Kcal/Mol)
 Warning -- explicit consideration of   3 degrees of freedom as
           vibrations may cause significant error
 Vibrational temperatures:    511.58   593.97   762.19  1034.03  1200.86
          (Kelvin)           1401.48  2054.69  2261.30  5014.42
 
 Zero-point correction=                           0.023489 (Hartree/Particle)
 Thermal correction to Energy=                    0.027402
 Thermal correction to Enthalpy=                  0.028346
 Thermal correction to Gibbs Free Energy=        -0.002460
 Sum of electronic and zero-point Energies=           -280.431638
 Sum of electronic and thermal Energies=              -280.427725
 Sum of electronic and thermal Enthalpies=            -280.426780
 Sum of electronic and thermal Free Energies=         -280.457587
 
                     E (Thermal)             CV                S
                      KCal/Mol        Cal/Mol-Kelvin    Cal/Mol-Kelvin
 Total                   17.195             12.102             64.838
 Electronic               0.000              0.000              0.000
 Translational            0.889              2.981             38.341
 Rotational               0.889              2.981             23.258
 Vibrational             15.418              6.140              3.240
 Vibration     1          0.731              1.564              1.141
 Vibration     2          0.777              1.442              0.917
 Vibration     3          0.885              1.184              0.588
                       Q            Log10(Q)             Ln(Q)
 Total Bot       0.135429D+02          1.131712          2.605862
 Total V=0       0.862838D+12         11.935929         27.483492
 Vib (Bot)       0.255163D-10        -10.593183        -24.391705
 Vib (Bot)    1  0.517006D+00         -0.286504         -0.659700
 Vib (Bot)    2  0.427650D+00         -0.368912         -0.849451
 Vib (Bot)    3  0.301963D+00         -0.520046         -1.197450
 Vib (V=0)       0.162568D+01          0.211034          0.485925
 Vib (V=0)    1  0.121923D+01          0.086087          0.198222
 Vib (V=0)    2  0.115794D+01          0.063686          0.146642
 Vib (V=0)    3  0.108411D+01          0.035072          0.080757
 Electronic      0.100000D+01          0.000000          0.000000
 Translational   0.196526D+08          7.293420         16.793719
 Rotational      0.270069D+05          4.431475         10.203848
 
                                                                title
                                                             IR Spectrum
 
     3                                                                     1    1                                                    
     4                                                                     5    4                9    8   7      5   4  3            
     8                                                                     7    2                7    3   1      3   1  5            
     5                                                                     2    8                4    5   9      0   3  6            
 
     X                                                                     X    X                X    X   X      X   X  X            
     X                                                                     X    X                     X   X      X      X            
     X                                                                     X    X                         X             X            
     X                                                                     X    X                         X             X            
                                                                           X    X                         X             X            
                                                                           X    X                         X             X            
                                                                           X    X                         X                          
                                                                           X                              X                          
                                                                           X                              X                          
                                                                           X                              X                          
                                                                           X                              X                          
                                                                           X                              X                          
                                                                           X                              X                          
                                                                           X                              X                          
                                                                                                          X                          
                                                                                                          X                          
                                                                                                          X                          
                                                                                                          X                          
                                                                                                          X                          
                                                                                                          X                          
 
 ***** Axes restored to original set *****
 -------------------------------------------------------------------
 Center     Atomic                   Forces (Hartrees/Bohr)
 Number     Number              X              Y              Z
 -------------------------------------------------------------------
      1        1           0.000245026    0.000000000   -0.000182099
      2        8           0.000808265    0.000000000    0.001163772
      3        8           0.001215196    0.000000000    0.003122916
      4        7          -0.005533840   -0.000000000    0.001033843
      5        8           0.003265353    0.000000000   -0.005138432
 -------------------------------------------------------------------
 Cartesian Forces:  Max     0.005533840 RMS     0.002339350
 -----------------------------------------------------------------------------------------------
                       Internal Coordinate Forces (Hartree/Bohr or radian)
  Cent   Atom   N1       Length/X         N2         Alpha/Y        N3         Beta/Z          J
 -----------------------------------------------------------------------------------------------
      1  H 
      2  O        1   0.000182(     1)
      3  O        2  -0.001216(     2)      1  -0.000456(     5)
      4  N        3   0.002151(     3)      2   0.001621(     6)      1  -0.000000(     8)     0
      5  O        4   0.002535(     4)      3   0.012497(     7)      2   0.000000(     9)     0
 -----------------------------------------------------------------------------------------------
 Internal  Forces:  Max     0.012497359 RMS     0.004366363
 Force constants in Cartesian coordinates: 
                1             2             3             4             5 
      1  0.716683D-01
      2  0.000000D+00  0.618355D-02
      3  0.252133D-01  0.000000D+00  0.436084D+00
      4 -0.520872D-01  0.000000D+00 -0.491034D-02  0.279876D+00
      5  0.000000D+00 -0.229187D-02  0.000000D+00  0.000000D+00  0.124456D-01
      6  0.305960D-01  0.000000D+00 -0.418601D+00 -0.138267D-01  0.000000D+00
      7 -0.246853D-01  0.000000D+00 -0.166841D-01 -0.169199D+00  0.000000D+00
      8  0.000000D+00 -0.432194D-02  0.000000D+00  0.000000D+00 -0.193733D-01
      9 -0.433425D-01  0.000000D+00 -0.205238D-01  0.112439D-01  0.000000D+00
     10 -0.571030D-02  0.000000D+00  0.630237D-02 -0.830626D-01  0.000000D+00
     11  0.000000D+00  0.811887D-02  0.000000D+00  0.000000D+00  0.195771D-01
     12 -0.197686D-01  0.000000D+00  0.122124D-01  0.115883D-01  0.000000D+00
     13  0.108145D-01  0.000000D+00 -0.992128D-02  0.244728D-01  0.000000D+00
     14  0.000000D+00 -0.768861D-02  0.000000D+00  0.000000D+00 -0.103575D-01
     15  0.730175D-02  0.000000D+00 -0.917135D-02 -0.409511D-02  0.000000D+00
                6             7             8             9            10 
      6  0.522924D+00
      7 -0.912550D-01  0.302479D+00
      8  0.000000D+00  0.000000D+00  0.408857D-01
      9 -0.967663D-01  0.819729D-01  0.000000D+00  0.323626D+00
     10  0.402012D-01 -0.143781D+00  0.000000D+00 -0.346028D-01  0.560592D+00
     11  0.000000D+00  0.000000D+00 -0.489955D-01  0.000000D+00  0.000000D+00
     12 -0.118493D-01  0.184787D-01  0.000000D+00 -0.262612D-01  0.243185D+00
     13  0.342845D-01  0.351866D-01  0.000000D+00 -0.152714D-01 -0.328038D+00
     14  0.000000D+00  0.000000D+00  0.318051D-01  0.000000D+00  0.000000D+00
     15  0.429259D-02  0.748760D-02  0.000000D+00 -0.180075D+00 -0.255085D+00
               11            12            13            14            15 
     11  0.603987D-01
     12  0.000000D+00  0.443078D+00
     13  0.000000D+00 -0.253483D+00  0.257564D+00
     14 -0.390992D-01  0.000000D+00  0.000000D+00  0.253402D-01
     15  0.000000D+00 -0.417180D+00  0.244391D+00  0.000000D+00  0.602133D+00
 Force constants in internal coordinates: 
                1             2             3             4             5 
      1  0.436084D+00
      2  0.231808D-01  0.256542D+00
      3  0.453966D-02  0.171954D-01  0.215181D+00
      4 -0.130926D-01  0.232005D-01  0.151193D+00  0.723277D+00
      5  0.471944D-01  0.550154D-01 -0.245802D-01  0.223630D-01  0.248840D+00
      6  0.109710D-01  0.225097D-01  0.102495D+00  0.898328D-02 -0.839154D-02
      7  0.753210D-02 -0.714590D-01  0.136222D+00  0.124339D+00 -0.214531D-01
      8  0.000000D+00  0.000000D+00  0.000000D+00  0.000000D+00  0.000000D+00
      9  0.000000D+00  0.000000D+00  0.000000D+00  0.000000D+00  0.000000D+00
                6             7             8             9 
      6  0.549852D+00
      7  0.854269D-01  0.701161D+00
      8  0.000000D+00  0.000000D+00  0.211207D-01
      9  0.000000D+00  0.000000D+00  0.291851D-01  0.109308D+00
 Leave Link  716 at Sun Mar  6 19:47:45 2022, MaxMem= 16106127360 cpu:               0.9 elap:               0.1
 (Enter /sw/contrib/gaussian/g16/B01/g16/l103.exe)

 GradGradGradGradGradGradGradGradGradGradGradGradGradGradGradGradGradGrad
 Berny optimization.
 Search for a local minimum.
 Step number   1 out of a maximum of    2
 All quantities printed in internal units (Hartrees-Bohrs-Radians)
 Second derivative matrix not updated -- analytic derivatives used.
 The second derivative matrix:
                          r1        r2        r3        r4        a1
           r1           0.43608
           r2           0.02318   0.25654
           r3           0.00454   0.01720   0.21518
           r4          -0.01309   0.02320   0.15119   0.72328
           a1           0.04719   0.05502  -0.02458   0.02236   0.24884
           a2           0.01097   0.02251   0.10250   0.00898  -0.00839
           a3           0.00753  -0.07146   0.13622   0.12434  -0.02145
           d1           0.00000   0.00000   0.00000  -0.00000  -0.00000
           d2           0.00000  -0.00000  -0.00000  -0.00000  -0.00000
                          a2        a3        d1        d2
           a2           0.54985
           a3           0.08543   0.70116
           d1           0.00000  -0.00000   0.02112
           d2           0.00000   0.00000   0.02919   0.10931
 ITU=  0
     Eigenvalues ---    0.01234   0.11809   0.12543   0.20363   0.27261
     Eigenvalues ---    0.45046   0.52484   0.63206   0.92191
 Angle between quadratic step and forces=  21.17 degrees.
 Linear search not attempted -- first point.
 Variable       Old X    -DE/DX   Delta X   Delta X   Delta X     New X
                                 (Linear)    (Quad)   (Total)
    r1        1.86209   0.00018   0.00000   0.00020   0.00020   1.86229
    r2        2.69614  -0.00122   0.00000   0.00048   0.00048   2.69662
    r3        2.60992   0.00215   0.00000  -0.00250  -0.00250   2.60742
    r4        2.25782   0.00254   0.00000   0.00092   0.00092   2.25874
    a1        1.75642  -0.00046   0.00000  -0.00073  -0.00073   1.75569
    a2        1.97463   0.00162   0.00000   0.00055   0.00055   1.97518
    a3        1.97697   0.01250   0.00000   0.01810   0.01810   1.99508
    d1        0.00000  -0.00000   0.00000   0.00000   0.00000   0.00000
    d2        0.00000   0.00000   0.00000   0.00000   0.00000   0.00000
         Item               Value     Threshold  Converged?
 Maximum Force            0.012497     0.000450     NO 
 RMS     Force            0.004366     0.000300     NO 
 Maximum Displacement     0.018103     0.001800     NO 
 RMS     Displacement     0.006109     0.001200     NO 
 Predicted change in Energy=-1.119405D-04
                       ----------------------------
                       ! Non-Optimized Parameters !
                       ! (Angstroms and Degrees)  !
 ----------------------                            ----------------------
 !      Name          Value   Derivative information (Atomic Units)     !
 ------------------------------------------------------------------------
 !       r1          0.9855   -DE/DX =    0.0002                        !
 !       r2          1.427    -DE/DX =   -0.0012                        !
 !       r3          1.3798   -DE/DX =    0.0022                        !
 !       r4          1.1953   -DE/DX =    0.0025                        !
 !       a1        100.5938   -DE/DX =   -0.0005                        !
 !       a2        113.1694   -DE/DX =    0.0016                        !
 !       a3        114.3094   -DE/DX =    0.0125                        !
 !       d1          0.0      -DE/DX =    0.0                           !
 !       d2          0.0      -DE/DX =    0.0                           !
 ------------------------------------------------------------------------
 GradGradGradGradGradGradGradGradGradGradGradGradGradGradGradGradGradGrad

 Leave Link  103 at Sun Mar  6 19:47:45 2022, MaxMem= 16106127360 cpu:               0.7 elap:               0.1
 (Enter /sw/contrib/gaussian/g16/B01/g16/l9999.exe)

 ----------------------------------------------------------------------

 Electric dipole moment (input orientation):
 (Debye = 10**-18 statcoulomb cm , SI units = C m)
                  (au)            (Debye)         (10**-30 SI)
   Tot        0.430033D+00      0.109304D+01      0.364597D+01
   x         -0.102593D+00     -0.260766D+00     -0.869821D+00
   y          0.000000D+00      0.000000D+00      0.000000D+00
   z         -0.417616D+00     -0.106147D+01     -0.354070D+01

 Dipole polarizability, Alpha (input orientation).
 (esu units = cm**3 , SI units = C**2 m**2 J**-1)
 Alpha(0;0):
               (au)            (10**-24 esu)      (10**-40 SI)
   iso        0.260692D+02      0.386305D+01      0.429822D+01
   aniso      0.145590D+02      0.215742D+01      0.240045D+01
   xx         0.291288D+02      0.431645D+01      0.480270D+01
   yx         0.000000D+00      0.000000D+00      0.000000D+00
   yy         0.175976D+02      0.260769D+01      0.290144D+01
   zx        -0.393005D+01     -0.582374D+00     -0.647978D+00
   zy         0.000000D+00      0.000000D+00      0.000000D+00
   zz         0.314811D+02      0.466501D+01      0.519053D+01

 ----------------------------------------------------------------------

 Dipole orientation:
     1          0.00000000          0.00000000         -0.00000000
     8         -0.44423979          0.00000000         -1.80832451
     8          2.01035930          0.00000000         -2.92372691
     7          3.93691081         -0.00000000         -1.16302916
     8          3.19616059         -0.00000000          0.96982191

 Electric dipole moment (dipole orientation):
 (Debye = 10**-18 statcoulomb cm , SI units = C m)
                  (au)            (Debye)         (10**-30 SI)
   Tot        0.430033D+00      0.109304D+01      0.364597D+01
   x          0.000000D+00      0.000000D+00      0.000000D+00
   y          0.000000D+00      0.000000D+00      0.000000D+00
   z          0.430033D+00      0.109304D+01      0.364597D+01

 Dipole polarizability, Alpha (dipole orientation).
 (esu units = cm**3 , SI units = C**2 m**2 J**-1)
 Alpha(0;0):
               (au)            (10**-24 esu)      (10**-40 SI)
   iso        0.260692D+02      0.386305D+01      0.429822D+01
   aniso      0.145590D+02      0.215742D+01      0.240045D+01
   xx         0.310838D+02      0.460614D+01      0.512502D+01
   yx         0.000000D+00      0.000000D+00      0.000000D+00
   yy         0.175976D+02      0.260769D+01      0.290144D+01
   zx         0.402766D+01      0.596837D+00      0.664071D+00
   zy         0.000000D+00      0.000000D+00      0.000000D+00
   zz         0.295261D+02      0.437532D+01      0.486820D+01

 ----------------------------------------------------------------------
 1\1\GINC-N2218\Freq\RMP2-FC\Aug-CC-pVTZ\H1N1O3\CGAVINH\06-Mar-2022\1\\
 #p freq mp2/aug-cc-pvtz density=current\\title\\0,1\H\O,1,r1\O,2,r2,1,
 a1\N,3,r3,2,a2,1,d1,0\O,4,r4,3,a3,2,d2,0\\r1=0.98537664\r2=1.42673666\
 r3=1.38110764\r4=1.19478846\a1=100.6355057\a2=113.13777052\a3=113.2721
 7286\d1=0.\d2=0.\\Version=ES64L-G16RevB.01\State=1-A'\HF=-279.5062543\
 MP2=-280.4551268\RMSD=4.526e-09\RMSF=2.339e-03\ZeroPoint=0.0234891\The
 rmal=0.0274022\Dipole=-0.1025931,0.,-0.4176161\DipoleDeriv=0.319524,0.
 ,0.0363812,0.,0.2976592,0.,-0.027343,0.,0.2040458,-0.5264565,0.,0.2836
 471,0.,-0.2544014,0.,-0.1014255,0.,-0.1277284,0.0042229,0.,0.3305143,0
 .,-0.0115805,0.,0.4346408,0.,-0.9178144,0.1948735,0.,-0.1226579,0.,0.0
 155397,0.,-0.6530876,0.,1.7071375,0.0078362,0.,-0.5278847,0.,-0.047217
 ,0.,0.3472153,0.,-0.8656404\Polar=29.128834,0.,17.5975543,-3.9300544,0
 .,31.4810636\Quadrupole=0.1766093,0.6024949,-0.7791041,0.,1.4042006,0.
 \PG=CS [SG(H1N1O3)]\NImag=0\\0.07166828,0.,0.00618355,0.02521333,0.,0.
 43608395,-0.05208720,0.,-0.00491034,0.27987627,0.,-0.00229187,0.,0.,0.
 01244560,0.03059603,0.,-0.41860122,-0.01382672,0.,0.52292430,-0.024685
 32,0.,-0.01668408,-0.16919924,0.,-0.09125504,0.30247922,0.,-0.00432194
 ,0.,0.,-0.01937330,0.,0.,0.04088569,-0.04334251,0.,-0.02052381,0.01124
 387,0.,-0.09676633,0.08197286,0.,0.32362597,-0.00571030,0.,0.00630237,
 -0.08306265,0.,0.04020118,-0.14378122,0.,-0.03460279,0.56059176,0.,0.0
 0811887,0.,0.,0.01957711,0.,0.,-0.04899553,0.,0.,0.06039871,-0.0197685
 9,0.,0.01221242,0.01158829,0.,-0.01184934,0.01847865,0.,-0.02626124,0.
 24318455,0.,0.44307803,0.01081454,0.,-0.00992128,0.02447281,0.,0.03428
 455,0.03518656,0.,-0.01527143,-0.32803760,0.,-0.25348291,0.25756369,0.
 ,-0.00768861,0.,0.,-0.01035753,0.,0.,0.03180508,0.,0.,-0.03909915,0.,0
 .,0.02534022,0.00730175,0.,-0.00917135,-0.00409511,0.,0.00429259,0.007
 48760,0.,-0.18007458,-0.25508530,0.,-0.41717987,0.24439107,0.,0.602133
 20\\-0.00024503,0.,0.00018210,-0.00080826,0.,-0.00116377,-0.00121520,0
 .,-0.00312292,0.00553384,0.,-0.00103384,-0.00326535,0.,0.00513843\\\@


 ...THOSE SCIENCES ARE VAIN AND FULL OF ERRORS WHICH 
 ARE NOT BORN FROM EXPERIMENT, THE MOTHER OF CERTAINTY...

                          -- LEONARDO DA VINCI, 1452-1519
 Job cpu time:       0 days  2 hours  1 minutes 17.0 seconds.
 Elapsed time:       0 days  0 hours  4 minutes 23.1 seconds.
 File lengths (MBytes):  RWF=   7239 Int=      0 D2E=      0 Chk=      8 Scr=      1
 Normal termination of Gaussian 16 at Sun Mar  6 19:47:46 2022.
