 Entering Gaussian System, Link 0=g16
 Input=hoono_a3_113p1708.gjf
 Output=hoono_a3_113p1708.log
 Initial command:
 /sw/contrib/gaussian/g16/B01/g16/l1.exe "/scr/Gau-26748.inp" -scrdir="/scr/"
 Entering Link 1 = /sw/contrib/gaussian/g16/B01/g16/l1.exe PID=     26749.
  
 Copyright (c) 1988-2017, Gaussian, Inc.  All Rights Reserved.
  
 This is part of the Gaussian(R) 16 program.  It is based on
 the Gaussian(R) 09 system (copyright 2009, Gaussian, Inc.),
 the Gaussian(R) 03 system (copyright 2003, Gaussian, Inc.),
 the Gaussian(R) 98 system (copyright 1998, Gaussian, Inc.),
 the Gaussian(R) 94 system (copyright 1995, Gaussian, Inc.),
 the Gaussian 92(TM) system (copyright 1992, Gaussian, Inc.),
 the Gaussian 90(TM) system (copyright 1990, Gaussian, Inc.),
 the Gaussian 88(TM) system (copyright 1988, Gaussian, Inc.),
 the Gaussian 86(TM) system (copyright 1986, Carnegie Mellon
 University), and the Gaussian 82(TM) system (copyright 1983,
 Carnegie Mellon University). Gaussian is a federally registered
 trademark of Gaussian, Inc.
  
 This software contains proprietary and confidential information,
 including trade secrets, belonging to Gaussian, Inc.
  
 This software is provided under written license and may be
 used, copied, transmitted, or stored only in accord with that
 written license.
  
 The following legend is applicable only to US Government
 contracts under FAR:
  
                    RESTRICTED RIGHTS LEGEND
  
 Use, reproduction and disclosure by the US Government is
 subject to restrictions as set forth in subparagraphs (a)
 and (c) of the Commercial Computer Software - Restricted
 Rights clause in FAR 52.227-19.
  
 Gaussian, Inc.
 340 Quinnipiac St., Bldg. 40, Wallingford CT 06492
  
  
 ---------------------------------------------------------------
 Warning -- This program may not be used in any manner that
 competes with the business of Gaussian, Inc. or will provide
 assistance to any competitor of Gaussian, Inc.  The licensee
 of this program is prohibited from giving any competitor of
 Gaussian, Inc. access to this program.  By using this program,
 the user acknowledges that Gaussian, Inc. is engaged in the
 business of creating and licensing software in the field of
 computational chemistry and represents and warrants to the
 licensee that it is not a competitor of Gaussian, Inc. and that
 it will not use this program in any manner prohibited above.
 ---------------------------------------------------------------
  

 Cite this work as:
 Gaussian 16, Revision B.01,
 M. J. Frisch, G. W. Trucks, H. B. Schlegel, G. E. Scuseria, 
 M. A. Robb, J. R. Cheeseman, G. Scalmani, V. Barone, 
 G. A. Petersson, H. Nakatsuji, X. Li, M. Caricato, A. V. Marenich, 
 J. Bloino, B. G. Janesko, R. Gomperts, B. Mennucci, H. P. Hratchian, 
 J. V. Ortiz, A. F. Izmaylov, J. L. Sonnenberg, D. Williams-Young, 
 F. Ding, F. Lipparini, F. Egidi, J. Goings, B. Peng, A. Petrone, 
 T. Henderson, D. Ranasinghe, V. G. Zakrzewski, J. Gao, N. Rega, 
 G. Zheng, W. Liang, M. Hada, M. Ehara, K. Toyota, R. Fukuda, 
 J. Hasegawa, M. Ishida, T. Nakajima, Y. Honda, O. Kitao, H. Nakai, 
 T. Vreven, K. Throssell, J. A. Montgomery, Jr., J. E. Peralta, 
 F. Ogliaro, M. J. Bearpark, J. J. Heyd, E. N. Brothers, K. N. Kudin, 
 V. N. Staroverov, T. A. Keith, R. Kobayashi, J. Normand, 
 K. Raghavachari, A. P. Rendell, J. C. Burant, S. S. Iyengar, 
 J. Tomasi, M. Cossi, J. M. Millam, M. Klene, C. Adamo, R. Cammi, 
 J. W. Ochterski, R. L. Martin, K. Morokuma, O. Farkas, 
 J. B. Foresman, and D. J. Fox, Gaussian, Inc., Wallingford CT, 2016.
 
 ******************************************
 Gaussian 16:  ES64L-G16RevB.01 20-Dec-2017
                 6-Mar-2022 
 ******************************************
 %nproc=28
 Will use up to   28 processors via shared memory.
 %mem=120GB
 %chk=hoono_a3_113p1708.chk
 ---------------------------------------
 #p freq mp2/aug-cc-pvtz density=current
 ---------------------------------------
 1/10=4,30=1,38=1/1,3;
 2/12=2,17=6,18=5,40=1/2;
 3/5=16,6=1,7=10,11=9,25=1,30=1,71=2,140=1/1,2,3;
 4//1;
 5/5=2,38=5,98=1/2;
 8/6=3,8=1,10=1,19=11,30=-1/1;
 9/15=3,16=-3/6;
 11/6=1,8=1,15=11,17=12,24=-1,27=1,28=-2,29=300,32=6,42=3/1,2,10;
 10/6=2,21=1/2;
 8/6=4,8=1,10=1,19=11,30=-1/11,4;
 10/5=1,20=4/2;
 11/12=2,14=11,16=1,17=2,28=-2,42=3,76=2/2,10,12;
 6/7=2,8=2,9=2,10=2,22=-1/1;
 7/8=1,10=1,12=2,25=1,44=2/1,2,3,16;
 1/10=4,30=1/3;
 99//99;
 Leave Link    1 at Sun Mar  6 19:43:02 2022, MaxMem= 16106127360 cpu:               6.8 elap:               0.3
 (Enter /sw/contrib/gaussian/g16/B01/g16/l101.exe)
 -----
 title
 -----
 Symbolic Z-matrix:
 Charge =  0 Multiplicity = 1
 H
 O                    1    r1
 O                    2    r2       1    a1
 N                    3    r3       2    a2       1    d1       0
 O                    4    r4       3    a3       2    d2       0
       Variables:
  r1                    0.98538                  
  r2                    1.42674                  
  r3                    1.38111                  
  r4                    1.19479                  
  a1                  100.63551                  
  a2                  113.13777                  
  a3                  113.17083                  
  d1                    0.                       
  d2                    0.                       
 
 ITRead=  0  0  0  0  0
 MicOpt= -1 -1 -1 -1 -1
 NAtoms=      5 NQM=        5 NQMF=       0 NMMI=      0 NMMIF=      0
                NMic=       0 NMicF=      0.
                    Isotopes and Nuclear Properties:
 (Nuclear quadrupole moments (NQMom) in fm**2, nuclear magnetic moments (NMagM)
  in nuclear magnetons)

  Atom         1           2           3           4           5
 IAtWgt=           1          16          16          14          16
 AtmWgt=   1.0078250  15.9949146  15.9949146  14.0030740  15.9949146
 NucSpn=           1           0           0           2           0
 AtZEff=  -0.0000000  -0.0000000  -0.0000000  -0.0000000  -0.0000000
 NQMom=    0.0000000   0.0000000   0.0000000   2.0440000   0.0000000
 NMagM=    2.7928460   0.0000000   0.0000000   0.4037610   0.0000000
 AtZNuc=   1.0000000   8.0000000   8.0000000   7.0000000   8.0000000
 Leave Link  101 at Sun Mar  6 19:43:02 2022, MaxMem= 16106127360 cpu:               2.5 elap:               0.1
 (Enter /sw/contrib/gaussian/g16/B01/g16/l103.exe)

 GradGradGradGradGradGradGradGradGradGradGradGradGradGradGradGradGradGrad
 Berny optimization.
 Initialization pass.
                       ----------------------------
                       !    Initial Parameters    !
                       ! (Angstroms and Degrees)  !
 ----------------------                            ----------------------
 !      Name          Value   Derivative information (Atomic Units)     !
 ------------------------------------------------------------------------
 !       r1          0.9854   calculate D2E/DX2 analytically            !
 !       r2          1.4267   calculate D2E/DX2 analytically            !
 !       r3          1.3811   calculate D2E/DX2 analytically            !
 !       r4          1.1948   calculate D2E/DX2 analytically            !
 !       a1        100.6355   calculate D2E/DX2 analytically            !
 !       a2        113.1378   calculate D2E/DX2 analytically            !
 !       a3        113.1708   calculate D2E/DX2 analytically            !
 !       d1          0.0      calculate D2E/DX2 analytically            !
 !       d2          0.0      calculate D2E/DX2 analytically            !
 ------------------------------------------------------------------------
 Trust Radius=3.00D-01 FncErr=1.00D-07 GrdErr=1.00D-07 EigMax=2.50D+02 EigMin=1.00D-04
 Number of steps in this run=      2 maximum allowed number of steps=      2.
 GradGradGradGradGradGradGradGradGradGradGradGradGradGradGradGradGradGrad

 Leave Link  103 at Sun Mar  6 19:43:02 2022, MaxMem= 16106127360 cpu:               0.5 elap:               0.0
 (Enter /sw/contrib/gaussian/g16/B01/g16/l202.exe)
                          Input orientation:                          
 ---------------------------------------------------------------------
 Center     Atomic      Atomic             Coordinates (Angstroms)
 Number     Number       Type             X           Y           Z
 ---------------------------------------------------------------------
      1          1           0        0.000000    0.000000    0.000000
      2          8           0        0.000000    0.000000    0.985377
      3          8           0        1.402227    0.000000    1.248696
      4          7           0        2.169996    0.000000    0.100659
      5          8           0        1.518290    0.000000   -0.900740
 ---------------------------------------------------------------------
                    Distance matrix (angstroms):
                    1          2          3          4          5
     1  H    0.000000
     2  O    0.985377   0.000000
     3  O    1.877627   1.426737   0.000000
     4  N    2.172329   2.343418   1.381108   0.000000
     5  O    1.765372   2.421289   2.152567   1.194788   0.000000
 Stoichiometry    HNO3
 Framework group  CS[SG(HNO3)]
 Deg. of freedom     7
 Full point group                 CS      NOp   2
 Largest Abelian subgroup         CS      NOp   2
 Largest concise Abelian subgroup C1      NOp   1
                         Standard orientation:                         
 ---------------------------------------------------------------------
 Center     Atomic      Atomic             Coordinates (Angstroms)
 Number     Number       Type             X           Y           Z
 ---------------------------------------------------------------------
      1          1           0        1.099758   -0.606950    0.000000
      2          8           0        1.312377    0.355215    0.000000
      3          8           0        0.000000    0.914896    0.000000
      4          7           0       -0.997400   -0.040433    0.000000
      5          8           0       -0.577123   -1.158863    0.000000
 ---------------------------------------------------------------------
 Rotational constants (GHZ):          21.2307134           8.2205504           5.9259986
 Leave Link  202 at Sun Mar  6 19:43:02 2022, MaxMem= 16106127360 cpu:               3.4 elap:               0.2
 (Enter /sw/contrib/gaussian/g16/B01/g16/l301.exe)
 Standard basis: Aug-CC-pVTZ (5D, 7F)
 Ernie: Thresh=  0.10000D-02 Tol=  0.10000D-05 Strict=F.
 Ernie:  12 primitive shells out of 131 were deleted.
 There are   166 symmetry adapted cartesian basis functions of A'  symmetry.
 There are    79 symmetry adapted cartesian basis functions of A"  symmetry.
 There are   136 symmetry adapted basis functions of A'  symmetry.
 There are    71 symmetry adapted basis functions of A"  symmetry.
   207 basis functions,   315 primitive gaussians,   245 cartesian basis functions
    16 alpha electrons       16 beta electrons
       nuclear repulsion energy       123.0174300363 Hartrees.
 IExCor=    0 DFT=F Ex=HF Corr=None ExCW=0 ScaHFX=  1.000000
 ScaDFX=  1.000000  1.000000  1.000000  1.000000 ScalE2=  1.000000  1.000000
 IRadAn=      5 IRanWt=     -1 IRanGd=            0 ICorTp=0 IEmpDi=  4
 NAtoms=    5 NActive=    5 NUniq=    5 SFac= 1.00D+00 NAtFMM=   60 NAOKFM=F Big=F
 Integral buffers will be    131072 words long.
 Raffenetti 1 integral format.
 Two-electron integral symmetry is turned on.
 Leave Link  301 at Sun Mar  6 19:43:02 2022, MaxMem= 16106127360 cpu:               1.4 elap:               0.1
 (Enter /sw/contrib/gaussian/g16/B01/g16/l302.exe)
 NPDir=0 NMtPBC=     1 NCelOv=     1 NCel=       1 NClECP=     1 NCelD=      1
         NCelK=      1 NCelE2=     1 NClLst=     1 CellRange=     0.0.
 One-electron integrals computed using PRISM.
 One-electron integral symmetry used in STVInt
 NBasis=   207 RedAO= T EigKep=  1.31D-04  NBF=   136    71
 NBsUse=   207 1.00D-06 EigRej= -1.00D+00 NBFU=   136    71
 Leave Link  302 at Sun Mar  6 19:43:02 2022, MaxMem= 16106127360 cpu:               5.0 elap:               0.2
 (Enter /sw/contrib/gaussian/g16/B01/g16/l303.exe)
 DipDrv:  MaxL=1.
 Leave Link  303 at Sun Mar  6 19:43:03 2022, MaxMem= 16106127360 cpu:               0.8 elap:               0.1
 (Enter /sw/contrib/gaussian/g16/B01/g16/l401.exe)
 ExpMin= 2.53D-02 ExpMax= 1.53D+04 ExpMxC= 5.22D+02 IAcc=3 IRadAn=         5 AccDes= 0.00D+00
 Harris functional with IExCor=  205 and IRadAn=       5 diagonalized for initial guess.
 HarFok:  IExCor=  205 AccDes= 0.00D+00 IRadAn=         5 IDoV= 1 UseB2=F ITyADJ=14
 ICtDFT=  3500011 ScaDFX=  1.000000  1.000000  1.000000  1.000000
 FoFCou: FMM=F IPFlag=           0 FMFlag=      100000 FMFlg1=           0
         NFxFlg=           0 DoJE=T BraDBF=F KetDBF=T FulRan=T
         wScrn=  0.000000 ICntrl=       500 IOpCl=  0 I1Cent=   200000004 NGrid=           0
         NMat0=    1 NMatS0=      1 NMatT0=    0 NMatD0=    1 NMtDS0=    0 NMtDT0=    0
 Petite list used in FoFCou.
 Harris En= -279.645037323191    
 JPrj=0 DoOrth=F DoCkMO=F.
 Initial guess orbital symmetries:
       Occupied  (A') (A') (A') (A') (A') (A') (A') (A') (A') (A')
                 (A") (A') (A") (A') (A") (A')
       Virtual   (A") (A') (A') (A') (A') (A") (A') (A') (A') (A')
                 (A") (A') (A") (A') (A') (A") (A') (A') (A") (A')
                 (A') (A') (A') (A') (A") (A') (A') (A') (A") (A')
                 (A') (A") (A") (A') (A') (A") (A') (A") (A') (A")
                 (A') (A") (A') (A") (A') (A') (A') (A") (A') (A')
                 (A') (A") (A') (A") (A') (A") (A') (A') (A') (A")
                 (A') (A') (A") (A') (A') (A') (A") (A") (A') (A')
                 (A") (A') (A") (A") (A') (A') (A") (A') (A') (A')
                 (A") (A') (A') (A") (A') (A") (A") (A') (A') (A')
                 (A') (A") (A') (A") (A') (A') (A") (A') (A") (A')
                 (A") (A') (A') (A") (A") (A') (A') (A') (A") (A')
                 (A") (A') (A') (A') (A") (A') (A') (A') (A") (A')
                 (A") (A') (A') (A") (A") (A") (A") (A') (A') (A')
                 (A') (A') (A') (A") (A') (A") (A') (A") (A') (A')
                 (A") (A") (A') (A') (A') (A") (A') (A') (A') (A")
                 (A') (A') (A') (A") (A') (A") (A") (A') (A') (A")
                 (A') (A") (A") (A') (A") (A') (A") (A') (A") (A')
                 (A") (A") (A") (A') (A") (A') (A') (A') (A") (A')
                 (A') (A') (A') (A') (A') (A') (A') (A') (A') (A')
                 (A')
 The electronic state of the initial guess is 1-A'.
 Leave Link  401 at Sun Mar  6 19:43:03 2022, MaxMem= 16106127360 cpu:               7.2 elap:               0.3
 (Enter /sw/contrib/gaussian/g16/B01/g16/l502.exe)
 Keep R1 ints in memory in symmetry-blocked form, NReq=348887737.
 FoFCou: FMM=F IPFlag=           0 FMFlag=           0 FMFlg1=           0
         NFxFlg=           0 DoJE=F BraDBF=F KetDBF=F FulRan=T
         wScrn=  0.000000 ICntrl=       600 IOpCl=  0 I1Cent=           0 NGrid=           0
         NMat0=    1 NMatS0=  21528 NMatT0=    0 NMatD0=    1 NMtDS0=    0 NMtDT0=    0
 Petite list used in FoFCou.
 Closed shell SCF:
 Using DIIS extrapolation, IDIIS=  1040.
 NGot= 16106127360 LenX= 15988850015 LenY= 15988789549
 Requested convergence on RMS density matrix=1.00D-08 within 128 cycles.
 Requested convergence on MAX density matrix=1.00D-06.
 Requested convergence on             energy=1.00D-06.
 No special actions if energy rises.

 Cycle   1  Pass 1  IDiag  1:
 E= -279.364029556996    
 DIIS: error= 2.77D-02 at cycle   1 NSaved=   1.
 NSaved= 1 IEnMin= 1 EnMin= -279.364029556996     IErMin= 1 ErrMin= 2.77D-02
 ErrMax= 2.77D-02  0.00D+00 EMaxC= 1.00D-01 BMatC= 4.51D-01 BMatP= 4.51D-01
 IDIUse=3 WtCom= 7.23D-01 WtEn= 2.77D-01
 Coeff-Com:  0.100D+01
 Coeff-En:   0.100D+01
 Coeff:      0.100D+01
 Gap=     0.496 Goal=   None    Shift=    0.000
 GapD=    0.496 DampG=2.000 DampE=0.500 DampFc=1.0000 IDamp=-1.
 RMSDP=1.68D-03 MaxDP=8.98D-02              OVMax= 1.23D-01

 Cycle   2  Pass 1  IDiag  1:
 E= -279.446002317061     Delta-E=       -0.081972760065 Rises=F Damp=F
 DIIS: error= 1.95D-02 at cycle   2 NSaved=   2.
 NSaved= 2 IEnMin= 2 EnMin= -279.446002317061     IErMin= 2 ErrMin= 1.95D-02
 ErrMax= 1.95D-02  0.00D+00 EMaxC= 1.00D-01 BMatC= 8.60D-02 BMatP= 4.51D-01
 IDIUse=3 WtCom= 8.05D-01 WtEn= 1.95D-01
 Coeff-Com:  0.219D+00 0.781D+00
 Coeff-En:   0.785D-01 0.922D+00
 Coeff:      0.191D+00 0.809D+00
 Gap=     0.562 Goal=   None    Shift=    0.000
 RMSDP=9.67D-04 MaxDP=3.66D-02 DE=-8.20D-02 OVMax= 9.18D-02

 Cycle   3  Pass 1  IDiag  1:
 E= -279.483907692142     Delta-E=       -0.037905375081 Rises=F Damp=F
 DIIS: error= 1.09D-02 at cycle   3 NSaved=   3.
 NSaved= 3 IEnMin= 3 EnMin= -279.483907692142     IErMin= 3 ErrMin= 1.09D-02
 ErrMax= 1.09D-02  0.00D+00 EMaxC= 1.00D-01 BMatC= 3.08D-02 BMatP= 8.60D-02
 IDIUse=3 WtCom= 8.91D-01 WtEn= 1.09D-01
 Coeff-Com: -0.347D-01 0.364D+00 0.671D+00
 Coeff-En:   0.000D+00 0.216D+00 0.784D+00
 Coeff:     -0.309D-01 0.348D+00 0.683D+00
 Gap=     0.541 Goal=   None    Shift=    0.000
 RMSDP=4.10D-04 MaxDP=1.61D-02 DE=-3.79D-02 OVMax= 3.86D-02

 Cycle   4  Pass 1  IDiag  1:
 E= -279.504959108317     Delta-E=       -0.021051416175 Rises=F Damp=F
 DIIS: error= 1.60D-03 at cycle   4 NSaved=   4.
 NSaved= 4 IEnMin= 4 EnMin= -279.504959108317     IErMin= 4 ErrMin= 1.60D-03
 ErrMax= 1.60D-03  0.00D+00 EMaxC= 1.00D-01 BMatC= 5.93D-04 BMatP= 3.08D-02
 IDIUse=3 WtCom= 9.84D-01 WtEn= 1.60D-02
 Coeff-Com: -0.119D-01 0.470D-01 0.153D+00 0.812D+00
 Coeff-En:   0.000D+00 0.000D+00 0.000D+00 0.100D+01
 Coeff:     -0.117D-01 0.462D-01 0.151D+00 0.815D+00
 Gap=     0.528 Goal=   None    Shift=    0.000
 RMSDP=9.83D-05 MaxDP=2.29D-03 DE=-2.11D-02 OVMax= 1.17D-02

 Cycle   5  Pass 1  IDiag  1:
 E= -279.505763334537     Delta-E=       -0.000804226220 Rises=F Damp=F
 DIIS: error= 1.10D-03 at cycle   5 NSaved=   5.
 NSaved= 5 IEnMin= 5 EnMin= -279.505763334537     IErMin= 5 ErrMin= 1.10D-03
 ErrMax= 1.10D-03  0.00D+00 EMaxC= 1.00D-01 BMatC= 1.02D-04 BMatP= 5.93D-04
 IDIUse=3 WtCom= 9.89D-01 WtEn= 1.10D-02
 Coeff-Com:  0.537D-02-0.658D-01-0.111D+00 0.598D-01 0.111D+01
 Coeff-En:   0.000D+00 0.000D+00 0.000D+00 0.000D+00 0.100D+01
 Coeff:      0.532D-02-0.651D-01-0.110D+00 0.591D-01 0.111D+01
 Gap=     0.531 Goal=   None    Shift=    0.000
 RMSDP=7.96D-05 MaxDP=2.11D-03 DE=-8.04D-04 OVMax= 1.29D-02

 Cycle   6  Pass 1  IDiag  1:
 E= -279.506124351185     Delta-E=       -0.000361016648 Rises=F Damp=F
 DIIS: error= 3.31D-04 at cycle   6 NSaved=   6.
 NSaved= 6 IEnMin= 6 EnMin= -279.506124351185     IErMin= 6 ErrMin= 3.31D-04
 ErrMax= 3.31D-04  0.00D+00 EMaxC= 1.00D-01 BMatC= 2.41D-05 BMatP= 1.02D-04
 IDIUse=3 WtCom= 9.97D-01 WtEn= 3.31D-03
 Coeff-Com:  0.189D-02-0.717D-02-0.180D-01-0.185D+00 0.160D-01 0.119D+01
 Coeff-En:   0.000D+00 0.000D+00 0.000D+00 0.000D+00 0.000D+00 0.100D+01
 Coeff:      0.188D-02-0.714D-02-0.179D-01-0.184D+00 0.159D-01 0.119D+01
 Gap=     0.531 Goal=   None    Shift=    0.000
 RMSDP=4.66D-05 MaxDP=1.07D-03 DE=-3.61D-04 OVMax= 6.13D-03

 Cycle   7  Pass 1  IDiag  1:
 E= -279.506210160158     Delta-E=       -0.000085808973 Rises=F Damp=F
 DIIS: error= 1.28D-04 at cycle   7 NSaved=   7.
 NSaved= 7 IEnMin= 7 EnMin= -279.506210160158     IErMin= 7 ErrMin= 1.28D-04
 ErrMax= 1.28D-04  0.00D+00 EMaxC= 1.00D-01 BMatC= 3.57D-06 BMatP= 2.41D-05
 IDIUse=3 WtCom= 9.99D-01 WtEn= 1.28D-03
 Coeff-Com: -0.108D-02 0.113D-01 0.249D-01 0.155D-01-0.181D+00-0.145D+00
 Coeff-Com:  0.128D+01
 Coeff-En:   0.000D+00 0.000D+00 0.000D+00 0.000D+00 0.000D+00 0.000D+00
 Coeff-En:   0.100D+01
 Coeff:     -0.108D-02 0.113D-01 0.249D-01 0.155D-01-0.181D+00-0.145D+00
 Coeff:      0.128D+01
 Gap=     0.532 Goal=   None    Shift=    0.000
 RMSDP=1.74D-05 MaxDP=5.10D-04 DE=-8.58D-05 OVMax= 2.33D-03

 Cycle   8  Pass 1  IDiag  1:
 E= -279.506222105105     Delta-E=       -0.000011944947 Rises=F Damp=F
 DIIS: error= 4.69D-05 at cycle   8 NSaved=   8.
 NSaved= 8 IEnMin= 8 EnMin= -279.506222105105     IErMin= 8 ErrMin= 4.69D-05
 ErrMax= 4.69D-05  0.00D+00 EMaxC= 1.00D-01 BMatC= 6.03D-07 BMatP= 3.57D-06
 IDIUse=1 WtCom= 1.00D+00 WtEn= 0.00D+00
 Coeff-Com: -0.564D-03 0.414D-02 0.982D-02 0.252D-01-0.576D-01-0.193D+00
 Coeff-Com:  0.353D+00 0.859D+00
 Coeff:     -0.564D-03 0.414D-02 0.982D-02 0.252D-01-0.576D-01-0.193D+00
 Coeff:      0.353D+00 0.859D+00
 Gap=     0.532 Goal=   None    Shift=    0.000
 RMSDP=5.47D-06 MaxDP=1.53D-04 DE=-1.19D-05 OVMax= 6.56D-04

 Cycle   9  Pass 1  IDiag  1:
 E= -279.506223492563     Delta-E=       -0.000001387457 Rises=F Damp=F
 DIIS: error= 2.45D-05 at cycle   9 NSaved=   9.
 NSaved= 9 IEnMin= 9 EnMin= -279.506223492563     IErMin= 9 ErrMin= 2.45D-05
 ErrMax= 2.45D-05  0.00D+00 EMaxC= 1.00D-01 BMatC= 1.15D-07 BMatP= 6.03D-07
 IDIUse=1 WtCom= 1.00D+00 WtEn= 0.00D+00
 Coeff-Com:  0.240D-03-0.255D-02-0.532D-02-0.561D-02 0.467D-01 0.491D-01
 Coeff-Com: -0.338D+00 0.272D-01 0.123D+01
 Coeff:      0.240D-03-0.255D-02-0.532D-02-0.561D-02 0.467D-01 0.491D-01
 Coeff:     -0.338D+00 0.272D-01 0.123D+01
 Gap=     0.532 Goal=   None    Shift=    0.000
 RMSDP=2.47D-06 MaxDP=6.70D-05 DE=-1.39D-06 OVMax= 2.59D-04

 Cycle  10  Pass 1  IDiag  1:
 E= -279.506223754384     Delta-E=       -0.000000261821 Rises=F Damp=F
 DIIS: error= 5.48D-06 at cycle  10 NSaved=  10.
 NSaved=10 IEnMin=10 EnMin= -279.506223754384     IErMin=10 ErrMin= 5.48D-06
 ErrMax= 5.48D-06  0.00D+00 EMaxC= 1.00D-01 BMatC= 8.17D-09 BMatP= 1.15D-07
 IDIUse=1 WtCom= 1.00D+00 WtEn= 0.00D+00
 Coeff-Com: -0.367D-04 0.475D-03 0.116D-02-0.187D-02-0.106D-01 0.548D-02
 Coeff-Com:  0.703D-01-0.513D-01-0.429D+00 0.142D+01
 Coeff:     -0.367D-04 0.475D-03 0.116D-02-0.187D-02-0.106D-01 0.548D-02
 Coeff:      0.703D-01-0.513D-01-0.429D+00 0.142D+01
 Gap=     0.532 Goal=   None    Shift=    0.000
 RMSDP=6.95D-07 MaxDP=2.51D-05 DE=-2.62D-07 OVMax= 7.47D-05

 Cycle  11  Pass 1  IDiag  1:
 E= -279.506223778879     Delta-E=       -0.000000024495 Rises=F Damp=F
 DIIS: error= 2.18D-06 at cycle  11 NSaved=  11.
 NSaved=11 IEnMin=11 EnMin= -279.506223778879     IErMin=11 ErrMin= 2.18D-06
 ErrMax= 2.18D-06  0.00D+00 EMaxC= 1.00D-01 BMatC= 8.55D-10 BMatP= 8.17D-09
 IDIUse=1 WtCom= 1.00D+00 WtEn= 0.00D+00
 Coeff-Com: -0.170D-04 0.174D-03 0.367D-03 0.881D-03-0.239D-02-0.721D-02
 Coeff-Com:  0.203D-01 0.188D-01-0.582D-01-0.305D+00 0.133D+01
 Coeff:     -0.170D-04 0.174D-03 0.367D-03 0.881D-03-0.239D-02-0.721D-02
 Coeff:      0.203D-01 0.188D-01-0.582D-01-0.305D+00 0.133D+01
 Gap=     0.532 Goal=   None    Shift=    0.000
 RMSDP=2.43D-07 MaxDP=9.02D-06 DE=-2.45D-08 OVMax= 2.85D-05

 Cycle  12  Pass 1  IDiag  1:
 E= -279.506223781914     Delta-E=       -0.000000003035 Rises=F Damp=F
 DIIS: error= 7.59D-07 at cycle  12 NSaved=  12.
 NSaved=12 IEnMin=12 EnMin= -279.506223781914     IErMin=12 ErrMin= 7.59D-07
 ErrMax= 7.59D-07  0.00D+00 EMaxC= 1.00D-01 BMatC= 9.25D-11 BMatP= 8.55D-10
 IDIUse=1 WtCom= 1.00D+00 WtEn= 0.00D+00
 Coeff-Com:  0.242D-05-0.438D-04-0.967D-04 0.162D-03 0.114D-02-0.928D-03
 Coeff-Com: -0.723D-02 0.693D-02 0.422D-01-0.126D+00-0.164D+00 0.125D+01
 Coeff:      0.242D-05-0.438D-04-0.967D-04 0.162D-03 0.114D-02-0.928D-03
 Coeff:     -0.723D-02 0.693D-02 0.422D-01-0.126D+00-0.164D+00 0.125D+01
 Gap=     0.532 Goal=   None    Shift=    0.000
 RMSDP=8.70D-08 MaxDP=2.86D-06 DE=-3.04D-09 OVMax= 1.02D-05

 Cycle  13  Pass 1  IDiag  1:
 E= -279.506223782240     Delta-E=       -0.000000000326 Rises=F Damp=F
 DIIS: error= 1.60D-07 at cycle  13 NSaved=  13.
 NSaved=13 IEnMin=13 EnMin= -279.506223782240     IErMin=13 ErrMin= 1.60D-07
 ErrMax= 1.60D-07  0.00D+00 EMaxC= 1.00D-01 BMatC= 7.84D-12 BMatP= 9.25D-11
 IDIUse=1 WtCom= 1.00D+00 WtEn= 0.00D+00
 Coeff-Com:  0.137D-05-0.133D-04-0.197D-04-0.125D-03 0.695D-04 0.952D-03
 Coeff-Com: -0.122D-02-0.254D-02-0.121D-02 0.546D-01-0.131D+00-0.151D+00
 Coeff-Com:  0.123D+01
 Coeff:      0.137D-05-0.133D-04-0.197D-04-0.125D-03 0.695D-04 0.952D-03
 Coeff:     -0.122D-02-0.254D-02-0.121D-02 0.546D-01-0.131D+00-0.151D+00
 Coeff:      0.123D+01
 Gap=     0.532 Goal=   None    Shift=    0.000
 RMSDP=2.34D-08 MaxDP=6.95D-07 DE=-3.26D-10 OVMax= 2.14D-06

 Cycle  14  Pass 1  IDiag  1:
 E= -279.506223782261     Delta-E=       -0.000000000021 Rises=F Damp=F
 DIIS: error= 4.17D-08 at cycle  14 NSaved=  14.
 NSaved=14 IEnMin=14 EnMin= -279.506223782261     IErMin=14 ErrMin= 4.17D-08
 ErrMax= 4.17D-08  0.00D+00 EMaxC= 1.00D-01 BMatC= 5.08D-13 BMatP= 7.84D-12
 IDIUse=1 WtCom= 1.00D+00 WtEn= 0.00D+00
 Coeff-Com: -0.290D-06 0.438D-05 0.892D-05-0.564D-05-0.114D-03 0.729D-04
 Coeff-Com:  0.640D-03-0.344D-03-0.365D-02 0.862D-02 0.163D-01-0.886D-01
 Coeff-Com: -0.277D-01 0.109D+01
 Coeff:     -0.290D-06 0.438D-05 0.892D-05-0.564D-05-0.114D-03 0.729D-04
 Coeff:      0.640D-03-0.344D-03-0.365D-02 0.862D-02 0.163D-01-0.886D-01
 Coeff:     -0.277D-01 0.109D+01
 Gap=     0.532 Goal=   None    Shift=    0.000
 RMSDP=4.54D-09 MaxDP=1.13D-07 DE=-2.11D-11 OVMax= 4.75D-07

 SCF Done:  E(RHF) =  -279.506223782     A.U. after   14 cycles
            NFock= 14  Conv=0.45D-08     -V/T= 2.0022
 KE= 2.788950386112D+02 PE=-9.069179227210D+02 EE= 2.254992302913D+02
 Leave Link  502 at Sun Mar  6 19:43:06 2022, MaxMem= 16106127360 cpu:              56.9 elap:               3.6
 (Enter /sw/contrib/gaussian/g16/B01/g16/l801.exe)
 ExpMin= 2.53D-02 ExpMax= 1.53D+04 ExpMxC= 5.22D+02 IAcc=3 IRadAn=         5 AccDes= 0.00D+00
 HarFok:  IExCor=  205 AccDes= 0.00D+00 IRadAn=         5 IDoV=-2 UseB2=F ITyADJ=14
 ICtDFT= 12500011 ScaDFX=  1.000000  1.000000  1.000000  1.000000
 Largest valence mixing into a core orbital is  2.07D-04
 Largest core mixing into a valence orbital is  3.13D-05
 Range of M.O.s used for correlation:     5   207
 NBasis=   207 NAE=    16 NBE=    16 NFC=     4 NFV=     0
 NROrb=    203 NOA=    12 NOB=    12 NVA=   191 NVB=   191

 **** Warning!!: The largest alpha MO coefficient is  0.16611008D+02

 Leave Link  801 at Sun Mar  6 19:43:07 2022, MaxMem= 16106127360 cpu:               2.1 elap:               0.1
 (Enter /sw/contrib/gaussian/g16/B01/g16/l906.exe)
 Frozen-core derivative calculation, NFC=   4 NFV=   0.
 FulOut=F Deriv=T AODrv=T NAtomX=     5
   MMem=           0  MDisk=          12 MDiskD=          12
  W3Min=      811440 MinDsk=     2425030 NBas6D=         245
 NBas2D=       30762    NTT=       30135    LW2=     7400000
    MDV= 16105571518 MDiskM=      328644 NBas2p=       30759
 Disk-based method using ON**2 memory for 12 occupieds at a time.
 Permanent disk used for amplitudes=    11516536 words.
 Estimated scratch disk usage=   321863743 words.
 IMap=   1   2   3   4   5   6   7   8   9  10  11  12  13  14  15  16
 Actual    scratch disk usage=   310892607 words.
 JobTyp=1 Pass  1:  I=   5 to  16 NPSUse= 28 ParTrn=T ParDer=T DoDerP=T.
 (rs|ai) integrals will be sorted in core.
 Spin components of T(2) and E(2):
     alpha-alpha T2 =       0.3479787541D-01 E2=     -0.1245977730D+00
     alpha-beta  T2 =       0.1844088271D+00 E2=     -0.6996842856D+00
     beta-beta   T2 =       0.3479787541D-01 E2=     -0.1245977730D+00
 The integrals were generated   1 times.
 ANorm=    0.1119823458D+01
 E2 =    -0.9488798317D+00 EUMP2 =    -0.28045510361396D+03
 Leave Link  906 at Sun Mar  6 19:44:44 2022, MaxMem= 16106127360 cpu:            2720.6 elap:              97.3
 (Enter /sw/contrib/gaussian/g16/B01/g16/l1101.exe)
 Using compressed Sx but separate Hx and Fx, NAtomX=     5.
 Will process      6 centers per pass.
 Leave Link 1101 at Sun Mar  6 19:44:44 2022, MaxMem= 16106127360 cpu:               5.7 elap:               0.2
 (Enter /sw/contrib/gaussian/g16/B01/g16/l1102.exe)
 Leave Link 1102 at Sun Mar  6 19:44:44 2022, MaxMem= 16106127360 cpu:               0.6 elap:               0.0
 (Enter /sw/contrib/gaussian/g16/B01/g16/l1110.exe)
 Forming Gx(P) for the SCF density, NAtomX=     5.
 Integral derivatives from FoFJK, PRISM(SPDF).
 Do as many integral derivatives as possible in FoFJK.
 G2DrvN: MDV=   16106126844.
 G2DrvN: will do     6 centers at a time, making    1 passes.
 Calling FoFCou, ICntrl=  3107 FMM=F I1Cent=   0 AccDes= 0.00D+00.
 FoFJK:  IHMeth= 1 ICntrl=    3107 DoSepK=F KAlg= 0 I1Cent=           0 FoldK=F
 IRaf=         0 NMat=       1 IRICut=       1 DoRegI=T DoRafI=F ISym2E= 1 IDoP0=0 IntGTp=1.
 FoFCou: FMM=F IPFlag=           0 FMFlag=      100000 FMFlg1=           0
         NFxFlg=           0 DoJE=F BraDBF=F KetDBF=F FulRan=T
         wScrn=  0.000000 ICntrl=      3107 IOpCl=  0 I1Cent=           0 NGrid=           0
         NMat0=    1 NMatS0=      1 NMatT0=    0 NMatD0=    1 NMtDS0=    0 NMtDT0=    0
 Petite list used in FoFCou.
 End of G2Drv F.D. properties file   721 does not exist.
 End of G2Drv F.D. properties file   722 does not exist.
 End of G2Drv F.D. properties file   788 does not exist.
 Leave Link 1110 at Sun Mar  6 19:44:47 2022, MaxMem= 16106127360 cpu:              87.4 elap:               3.1
 (Enter /sw/contrib/gaussian/g16/B01/g16/l1002.exe)
 Minotr:  Closed shell wavefunction.
          IDoAtm=11111
          Frozen-core window.
          Direct CPHF calculation.
          Differentiating once with respect to electric field.
                with respect to dipole field.
          Differentiating once with respect to nuclear coordinates.
          Requested convergence is 1.0D-08 RMS, and 1.0D-07 maximum.
          Secondary convergence is 1.0D-12 RMS, and 1.0D-12 maximum.
          NewPWx=T KeepS1=T KeepF1=T KeepIn=T MapXYZ=F SortEE=F KeepMc=T.
 Keep R1 ints in memory in symmetry-blocked form, NReq=348888983.
 FoFCou: FMM=F IPFlag=           0 FMFlag=           0 FMFlg1=           0
         NFxFlg=           0 DoJE=F BraDBF=F KetDBF=F FulRan=T
         wScrn=  0.000000 ICntrl=       600 IOpCl=  0 I1Cent=           0 NGrid=           0
         NMat0=    1 NMatS0=  21528 NMatT0=    0 NMatD0=    1 NMtDS0=    0 NMtDT0=    0
 Petite list used in FoFCou.
          MDV=   16106127360 using IRadAn=       1.
          Solving linear equations simultaneously, MaxMat=       0.
          There are    18 degrees of freedom in the 1st order CPHF.  IDoFFX=6 NUNeed=    18.
     15 vectors produced by pass  0 Test12= 1.70D-14 5.56D-09 XBig12= 7.86D+00 1.23D+00.
 AX will form    15 AO Fock derivatives at one time.
     15 vectors produced by pass  1 Test12= 1.70D-14 5.56D-09 XBig12= 1.34D+00 2.35D-01.
     15 vectors produced by pass  2 Test12= 1.70D-14 5.56D-09 XBig12= 6.56D-02 5.72D-02.
     15 vectors produced by pass  3 Test12= 1.70D-14 5.56D-09 XBig12= 1.89D-03 1.01D-02.
     15 vectors produced by pass  4 Test12= 1.70D-14 5.56D-09 XBig12= 3.96D-05 1.23D-03.
     15 vectors produced by pass  5 Test12= 1.70D-14 5.56D-09 XBig12= 5.53D-07 1.14D-04.
     15 vectors produced by pass  6 Test12= 1.70D-14 5.56D-09 XBig12= 4.45D-09 1.18D-05.
     14 vectors produced by pass  7 Test12= 1.70D-14 5.56D-09 XBig12= 3.54D-11 8.25D-07.
      3 vectors produced by pass  8 Test12= 1.70D-14 5.56D-09 XBig12= 2.52D-13 6.05D-08.
      1 vectors produced by pass  9 Test12= 1.70D-14 5.56D-09 XBig12= 1.71D-15 7.26D-09.
 InvSVY:  IOpt=1 It=  1 EMax= 9.99D-16
 Solved reduced A of dimension   123 with    15 vectors.
 FullF1:  Do perturbations      1 to      18.
 Saving first derivative matrices.
 End of Minotr F.D. properties file   721 does not exist.
 End of Minotr F.D. properties file   722 does not exist.
 End of Minotr F.D. properties file   788 does not exist.
 Leave Link 1002 at Sun Mar  6 19:44:50 2022, MaxMem= 16106127360 cpu:              78.5 elap:               3.0
 (Enter /sw/contrib/gaussian/g16/B01/g16/l811.exe)
 MDV= 16106127360.
 Form MO integral derivatives with frozen-active canonical formalism.
 MOERI=1 MOERIx=1 NAtoms=     5 NAtomX=     5.
 Discarding MO integrals.
 MO basis two electron integral derivatives will not be stored on disk.
 IAlg= 3 DoFC=T DoPWx=T Debug=F.
 Frozen-core window:  NFC=   4 NFV=   0.
 Reordered first order wavefunction length =     18678272
 In DefCFB: NBatch=  1 ICI= 16 ICA=191 LFMax= 96
            Large arrays: LIAPS=   619940160 LIARS=   288257200 words.
 In StABat: MaxSiz= 55 MinSiz= 25 NAtomB=  5
 DoIAMN: NPSUse= 28.
 Leave Link  811 at Sun Mar  6 19:46:19 2022, MaxMem= 16106127360 cpu:            2475.6 elap:              88.8
 (Enter /sw/contrib/gaussian/g16/B01/g16/l804.exe)
 Frozen-core window:  NFC=   4 NFV=   0.
 Closed-shell transformation, MDV= 16106127360 ITran=4 ISComp=1.
 Semi-Direct transformation.
 ModeAB=           2 MOrb=            16 LenV=   16104919855
 LASXX=     67341636 LTotXX=    67341636 LenRXX=    67341636
 LTotAB=    68301760 MaxLAS=    99807120 LenRXY=    99807120
 NonZer=   134683272 LenScr=   202817536 LnRSAI=           0
 LnScr1=           0 LExtra=           0 Total=    369966292
 MaxDsk=          -1 SrtSym=           F ITran=            4
 DoSDTr:  NPSUse= 28
 JobTyp=0 Pass  1:  I=   1 to  16.
 (rs|ai) integrals will be sorted in core.
 Complete sort for first half transformation.
 First half transformation complete.
 Begin second half transformation for I=  10.
 Begin second half transformation for I=  10.
 Complete sort for second half transformation.
 Second half transformation complete.
 Spin components of T(2) and E(2):
     alpha-alpha T2 =       0.3479787541D-01 E2=     -0.1245977730D+00
     alpha-beta  T2 =       0.1844088271D+00 E2=     -0.6996842856D+00
     beta-beta   T2 =       0.3479787541D-01 E2=     -0.1245977730D+00
 ANorm=    0.1583669522D+01
 E2 =    -0.9488798317D+00 EUMP2 =    -0.28045510361396D+03
 Leave Link  804 at Sun Mar  6 19:46:35 2022, MaxMem= 16106127360 cpu:             435.5 elap:              15.6
 (Enter /sw/contrib/gaussian/g16/B01/g16/l1002.exe)
 Minotr:  Closed shell wavefunction.
          Computing MP2/KS-MP2 derivatives.
          Using Z-Vector for PSCF gradient.
          Skipping F1 and S1 gradient terms here.
          IDoAtm=11111
          Frozen-core window.
          Using MO integrals in the linear equations.
          Forming densities via direct SCF.
          Differentiating once with respect to electric field.
                with respect to dipole field.
          Differentiating once with respect to nuclear coordinates.
          Using symmetry in CPHF.
          Requested convergence is 1.0D-10 RMS, and 1.0D-09 maximum.
          NewPWx=F KeepS1=T KeepF1=T KeepIn=T MapXYZ=F SortEE=F KeepMc=T.
          MDV=   16106127360 using IRadAn=       5.
          Solving linear equations separately, MaxMat=       0.
          There are     1 degrees of freedom in the 1st order CPHF.  IDoFFX=0 NUNeed=     1.
 FoFJK:  IHMeth= 1 ICntrl=       0 DoSepK=F KAlg= 0 I1Cent=           0 FoldK=F
 IRaf=         0 NMat=       1 IRICut=       1 DoRegI=T DoRafI=F ISym2E= 0 IDoP0=0 IntGTp=1.
 FoFCou: FMM=F IPFlag=           0 FMFlag=      100000 FMFlg1=           0
         NFxFlg=           0 DoJE=F BraDBF=F KetDBF=F FulRan=T
         wScrn=  0.000000 ICntrl=         0 IOpCl=  0 I1Cent=           0 NGrid=           0
         NMat0=    1 NMatS0=      1 NMatT0=    0 NMatD0=    1 NMtDS0=    0 NMtDT0=    0
 Symmetry not used in FoFCou.
 LinEq1:  Iter=  0 NonCon=     1 RMS=6.60D-03 Max=1.72D-01 NDo=     1
 LinEq1:  Iter=  1 NonCon=     1 RMS=2.00D-03 Max=3.05D-02 NDo=     1
 LinEq1:  Iter=  2 NonCon=     1 RMS=8.88D-04 Max=1.45D-02 NDo=     1
 LinEq1:  Iter=  3 NonCon=     1 RMS=3.78D-04 Max=8.07D-03 NDo=     1
 LinEq1:  Iter=  4 NonCon=     1 RMS=1.36D-04 Max=1.66D-03 NDo=     1
 LinEq1:  Iter=  5 NonCon=     1 RMS=7.59D-05 Max=1.39D-03 NDo=     1
 LinEq1:  Iter=  6 NonCon=     1 RMS=2.43D-05 Max=3.42D-04 NDo=     1
 LinEq1:  Iter=  7 NonCon=     1 RMS=8.24D-06 Max=1.13D-04 NDo=     1
 LinEq1:  Iter=  8 NonCon=     1 RMS=4.02D-06 Max=6.20D-05 NDo=     1
 LinEq1:  Iter=  9 NonCon=     1 RMS=1.05D-06 Max=1.16D-05 NDo=     1
 LinEq1:  Iter= 10 NonCon=     1 RMS=2.33D-07 Max=2.88D-06 NDo=     1
 LinEq1:  Iter= 11 NonCon=     1 RMS=5.05D-08 Max=8.04D-07 NDo=     1
 LinEq1:  Iter= 12 NonCon=     1 RMS=1.20D-08 Max=1.74D-07 NDo=     1
 LinEq1:  Iter= 13 NonCon=     1 RMS=2.08D-09 Max=2.22D-08 NDo=     1
 LinEq1:  Iter= 14 NonCon=     1 RMS=4.32D-10 Max=5.58D-09 NDo=     1
 LinEq1:  Iter= 15 NonCon=     0 RMS=8.81D-11 Max=9.38D-10 NDo=     1
 Linear equations converged to 1.000D-10 1.000D-09 after    15 iterations.
 End of Minotr F.D. properties file   721 does not exist.
 End of Minotr F.D. properties file   722 does not exist.
 End of Minotr F.D. properties file   788 does not exist.
 Leave Link 1002 at Sun Mar  6 19:46:37 2022, MaxMem= 16106127360 cpu:              65.1 elap:               2.4
 (Enter /sw/contrib/gaussian/g16/B01/g16/l1102.exe)
 Use density number 2.
 Symmetrizing basis deriv contribution to polar:
 IMax=3 JMax=2 DiffMx= 0.00D+00
 Leave Link 1102 at Sun Mar  6 19:46:37 2022, MaxMem= 16106127360 cpu:               0.6 elap:               0.1
 (Enter /sw/contrib/gaussian/g16/B01/g16/l1110.exe)
 Forming Gx(P) for generalized density number  2 NAtomX=     5.
 Integral derivatives from FoFJK, PRISM(SPDF).
 Do as many integral derivatives as possible in FoFJK.
 G2DrvN: MDV=   16106126844.
 G2DrvN: will do     6 centers at a time, making    1 passes.
 Calling FoFCou, ICntrl=  3107 FMM=F I1Cent=   0 AccDes= 0.00D+00.
 FoFJK:  IHMeth= 1 ICntrl=    3107 DoSepK=F KAlg= 0 I1Cent=           0 FoldK=F
 IRaf=         0 NMat=       1 IRICut=       1 DoRegI=T DoRafI=F ISym2E= 1 IDoP0=0 IntGTp=1.
 FoFCou: FMM=F IPFlag=           0 FMFlag=      100000 FMFlg1=           0
         NFxFlg=           0 DoJE=F BraDBF=F KetDBF=F FulRan=T
         wScrn=  0.000000 ICntrl=      3107 IOpCl=  0 I1Cent=           0 NGrid=           0
         NMat0=    1 NMatS0=      1 NMatT0=    0 NMatD0=    1 NMtDS0=    0 NMtDT0=    0
 Petite list used in FoFCou.
 End of G2Drv F.D. properties file   721 does not exist.
 End of G2Drv F.D. properties file   722 does not exist.
 End of G2Drv F.D. properties file   788 does not exist.
 Leave Link 1110 at Sun Mar  6 19:46:40 2022, MaxMem= 16106127360 cpu:              86.8 elap:               3.1
 (Enter /sw/contrib/gaussian/g16/B01/g16/l1112.exe)
 MP22nd: MDV=   16106127360
 This link is doing NAtomX=     5 total of    18 degrees of freedom.
 Using ON3 I/O method in MakUI.
 Frozen-core window:  NFC=   4 NFV=   0.
 Using Ix for Sx.
 Use MO integrals over full window.
 Using OV2 memory method for fx*t*t/D, MaxI=    16 DoOO2=F NP=  28.
 R2 and R3 integrals will be kept in memory, NReq=   915591705.
 FoFCou: FMM=F IPFlag=           0 FMFlag=           0 FMFlg1=           0
         NFxFlg=           0 DoJE=F BraDBF=F KetDBF=F FulRan=T
         wScrn=  0.000000 ICntrl=       600 IOpCl=  0 I1Cent=           0 NGrid=           0
         NMat0=    1 NMatS0=      1 NMatT0=    0 NMatD0=    1 NMtDS0=    0 NMtDT0=    0
 Symmetry not used in FoFCou.
 DD1Dir will call FoFMem   1 times, MxPair=       272
 NAB=   136 NAA=     0 NBB=     0.
 Symmetry is being used.
 FoFJK:  IHMeth= 1 ICntrl=       0 DoSepK=F KAlg= 0 I1Cent=           0 FoldK=F
 IRaf=         0 NMat=      18 IRICut=      45 DoRegI=T DoRafI=T ISym2E= 2 IDoP0=3 IntGTp=3.
 Discarding MO integrals.
 Leave Link 1112 at Sun Mar  6 19:47:10 2022, MaxMem= 16106127360 cpu:             810.1 elap:              29.0
 (Enter /sw/contrib/gaussian/g16/B01/g16/l601.exe)
 Copying SCF densities to generalized density rwf, IOpCl= 0 IROHF=0.

 **********************************************************************

            Population analysis using the MP2 Density.

 **********************************************************************

 Orbital symmetries:
       Occupied  (A') (A') (A') (A') (A') (A') (A') (A') (A') (A')
                 (A") (A') (A') (A") (A') (A")
       Virtual   (A') (A") (A') (A') (A") (A') (A') (A') (A") (A')
                 (A") (A') (A') (A') (A") (A') (A') (A") (A') (A')
                 (A') (A') (A') (A') (A") (A') (A') (A") (A') (A')
                 (A') (A") (A") (A') (A') (A') (A") (A') (A") (A')
                 (A") (A") (A') (A') (A") (A') (A') (A") (A') (A')
                 (A') (A") (A') (A') (A") (A') (A") (A') (A") (A')
                 (A') (A') (A") (A') (A') (A") (A') (A") (A') (A')
                 (A") (A') (A") (A") (A') (A') (A") (A') (A') (A')
                 (A") (A') (A') (A") (A') (A") (A") (A') (A') (A')
                 (A') (A') (A") (A") (A') (A') (A") (A") (A') (A")
                 (A') (A') (A") (A') (A") (A') (A') (A') (A") (A")
                 (A') (A') (A') (A') (A") (A') (A') (A') (A") (A')
                 (A") (A") (A') (A') (A") (A") (A') (A") (A') (A')
                 (A') (A') (A") (A') (A') (A") (A") (A') (A') (A')
                 (A") (A") (A') (A') (A') (A") (A') (A') (A') (A")
                 (A') (A') (A') (A") (A') (A") (A") (A') (A') (A")
                 (A') (A") (A') (A") (A") (A') (A") (A') (A") (A")
                 (A') (A") (A") (A') (A') (A") (A') (A') (A") (A')
                 (A') (A') (A') (A') (A') (A') (A') (A') (A') (A')
                 (A')
 The electronic state is 1-A'.
 Alpha  occ. eigenvalues --  -20.71861 -20.68666 -20.66750 -15.82677  -1.64579
 Alpha  occ. eigenvalues --   -1.50350  -1.29327  -0.95998  -0.83628  -0.75917
 Alpha  occ. eigenvalues --   -0.74019  -0.63569  -0.61768  -0.61759  -0.50667
 Alpha  occ. eigenvalues --   -0.49686
 Alpha virt. eigenvalues --    0.03517   0.05957   0.09512   0.10019   0.11969
 Alpha virt. eigenvalues --    0.12254   0.14967   0.15225   0.17735   0.18031
 Alpha virt. eigenvalues --    0.19001   0.21091   0.21667   0.24243   0.24636
 Alpha virt. eigenvalues --    0.26982   0.31413   0.31808   0.33788   0.34442
 Alpha virt. eigenvalues --    0.34780   0.39251   0.45101   0.48870   0.50569
 Alpha virt. eigenvalues --    0.51785   0.54617   0.56001   0.59906   0.61945
 Alpha virt. eigenvalues --    0.63786   0.68993   0.71671   0.72461   0.74735
 Alpha virt. eigenvalues --    0.76236   0.76697   0.79585   0.80826   0.83936
 Alpha virt. eigenvalues --    0.84317   0.85248   0.88579   0.90893   0.93427
 Alpha virt. eigenvalues --    0.94657   0.95371   1.01883   1.03287   1.06674
 Alpha virt. eigenvalues --    1.07123   1.09748   1.14694   1.15709   1.16726
 Alpha virt. eigenvalues --    1.22421   1.22791   1.24581   1.35625   1.35679
 Alpha virt. eigenvalues --    1.37364   1.46727   1.48703   1.50291   1.54344
 Alpha virt. eigenvalues --    1.59790   1.60323   1.60657   1.62953   1.69603
 Alpha virt. eigenvalues --    1.74125   1.80065   1.83127   1.88922   1.89447
 Alpha virt. eigenvalues --    1.93060   1.97822   1.99024   2.05450   2.12734
 Alpha virt. eigenvalues --    2.13072   2.16719   2.18948   2.24542   2.25943
 Alpha virt. eigenvalues --    2.29384   2.35260   2.37142   2.38553   2.40330
 Alpha virt. eigenvalues --    2.43329   2.46908   2.47920   2.53243   2.53920
 Alpha virt. eigenvalues --    2.55401   2.56066   2.62059   2.63175   2.67636
 Alpha virt. eigenvalues --    2.67938   2.75355   2.81074   2.82433   2.83831
 Alpha virt. eigenvalues --    2.91951   2.99615   3.04539   3.04788   3.11289
 Alpha virt. eigenvalues --    3.12009   3.17771   3.21381   3.31175   3.33001
 Alpha virt. eigenvalues --    3.36283   3.47390   3.67919   3.87025   3.93704
 Alpha virt. eigenvalues --    4.18864   4.23014   4.23281   4.27117   4.37455
 Alpha virt. eigenvalues --    4.49884   4.54703   4.55287   4.59862   4.69600
 Alpha virt. eigenvalues --    4.81170   4.89300   4.91607   4.93838   5.00268
 Alpha virt. eigenvalues --    5.00651   5.10590   5.13248   5.18346   5.25332
 Alpha virt. eigenvalues --    5.26218   5.32086   5.34950   5.36718   5.55206
 Alpha virt. eigenvalues --    5.64669   5.71178   5.89403   5.99238   6.26570
 Alpha virt. eigenvalues --    6.29554   6.36327   6.37761   6.59787   6.66093
 Alpha virt. eigenvalues --    6.67052   6.69653   6.72960   6.78508   6.80196
 Alpha virt. eigenvalues --    6.86768   6.96618   7.02164   7.06635   7.07998
 Alpha virt. eigenvalues --    7.13575   7.17449   7.19062   7.20451   7.24765
 Alpha virt. eigenvalues --    7.25070   7.27328   7.35033   7.39174   7.43384
 Alpha virt. eigenvalues --    7.44234   7.46471   7.56104   7.66351   7.68510
 Alpha virt. eigenvalues --    7.79576   7.88430   7.95376   8.07734   8.31047
 Alpha virt. eigenvalues --    8.49801   8.65263  13.62471  14.76341  15.11176
 Alpha virt. eigenvalues --   15.80521
          Condensed to atoms (all electrons):
               1          2          3          4          5
     1  H    0.579661   0.122767   0.024623   0.000182  -0.004432
     2  O    0.122767   8.391901  -0.228990  -0.001009  -0.010400
     3  O    0.024623  -0.228990   8.372334  -0.168293  -0.037738
     4  N    0.000182  -0.001009  -0.168293   7.134630  -0.119220
     5  O   -0.004432  -0.010400  -0.037738  -0.119220   8.366498
 Mulliken charges:
               1
     1  H    0.277200
     2  O   -0.274269
     3  O    0.038066
     4  N    0.153711
     5  O   -0.194707
 Sum of Mulliken charges =  -0.00000
 Mulliken charges with hydrogens summed into heavy atoms:
               1
     2  O    0.002930
     3  O    0.038066
     4  N    0.153711
     5  O   -0.194707
 APT charges:
               1
     1  H    0.273948
     2  O   -0.302891
     3  O   -0.308320
     4  N    0.638812
     5  O   -0.301549
 Sum of APT charges =  -0.00000
 APT charges with hydrogens summed into heavy atoms:
               1
     2  O   -0.028943
     3  O   -0.308320
     4  N    0.638812
     5  O   -0.301549
 Electronic spatial extent (au):  <R**2>=            205.8639
 Charge=             -0.0000 electrons
 Dipole moment (field-independent basis, Debye):
    X=              0.0237    Y=             -1.0926    Z=              0.0000  Tot=              1.0929
 Quadrupole moment (field-independent basis, Debye-Ang):
   XX=            -23.3536   YY=            -22.9334   ZZ=            -21.9290
   XY=             -1.9848   XZ=              0.0000   YZ=              0.0000
 Traceless Quadrupole moment (field-independent basis, Debye-Ang):
   XX=             -0.6149   YY=             -0.1947   ZZ=              0.8097
   XY=             -1.9848   XZ=              0.0000   YZ=              0.0000
 Octapole moment (field-independent basis, Debye-Ang**2):
  XXX=              2.4958  YYY=              0.2308  ZZZ=              0.0000  XYY=              2.4067
  XXY=             -2.7797  XXZ=              0.0000  XZZ=             -0.5843  YZZ=             -0.6991
  YYZ=              0.0000  XYZ=              0.0000
 Hexadecapole moment (field-independent basis, Debye-Ang**3):
 XXXX=           -126.6396 YYYY=            -93.8559 ZZZZ=            -18.0353 XXXY=            -20.9595
 XXXZ=              0.0000 YYYX=            -19.3714 YYYZ=              0.0000 ZZZX=              0.0000
 ZZZY=              0.0000 XXYY=            -35.3467 XXZZ=            -24.2648 YYZZ=            -18.4154
 XXYZ=              0.0000 YYXZ=              0.0000 ZZXY=             -5.7374
 N-N= 1.230174300363D+02 E-N=-9.076000382008D+02  KE= 2.802109977303D+02
 Symmetry A'   KE= 2.663636773163D+02
 Symmetry A"   KE= 1.384732041401D+01
  Exact polarizability:  30.887   4.053  29.707   0.000   0.000  17.596
 Approx polarizability:  24.622   0.398  27.509  -0.000  -0.000  15.503
 No NMR shielding tensors so no spin-rotation constants.
 Leave Link  601 at Sun Mar  6 19:47:10 2022, MaxMem= 16106127360 cpu:               4.6 elap:               0.2
 (Enter /sw/contrib/gaussian/g16/B01/g16/l701.exe)
 ... and contract with generalized density number  2.
 Compute integral second derivatives.
 Leave Link  701 at Sun Mar  6 19:47:10 2022, MaxMem= 16106127360 cpu:               7.0 elap:               0.3
 (Enter /sw/contrib/gaussian/g16/B01/g16/l702.exe)
 L702 exits ... SP integral derivatives will be done elsewhere.
 Leave Link  702 at Sun Mar  6 19:47:10 2022, MaxMem= 16106127360 cpu:               0.5 elap:               0.0
 (Enter /sw/contrib/gaussian/g16/B01/g16/l703.exe)
 Integral derivatives from FoFJK, PRISM(SPDF).
 Compute integral second derivatives, UseDBF=F ICtDFT=           0.
 Calling FoFJK, ICntrl=  10100127 FMM=F ISym2X=1 I1Cent= 0 IOpClX= 0 NMat=1 NMatS=1 NMatT=0.
 FoFJK:  IHMeth= 1 ICntrl=10100127 DoSepK=F KAlg= 0 I1Cent=           0 FoldK=F
 IRaf=         0 NMat=       1 IRICut=       1 DoRegI=T DoRafI=F ISym2E= 1 IDoP0=0 IntGTp=1.
 FoFCou: FMM=F IPFlag=           0 FMFlag=      100000 FMFlg1=         800
         NFxFlg=           0 DoJE=F BraDBF=F KetDBF=F FulRan=T
         wScrn=  0.000000 ICntrl=  10100127 IOpCl=  0 I1Cent=           0 NGrid=           0
         NMat0=    1 NMatS0=      1 NMatT0=    0 NMatD0=    1 NMtDS0=    0 NMtDT0=    0
 Petite list used in FoFCou.
 Leave Link  703 at Sun Mar  6 19:47:26 2022, MaxMem= 16106127360 cpu:             448.6 elap:              16.1
 (Enter /sw/contrib/gaussian/g16/B01/g16/l716.exe)
 Dipole        = 9.32994935D-03-4.29868190D-01 0.00000000D+00
 Polarizability= 3.08872804D+01 4.05265085D+00 2.97070181D+01
                 0.00000000D+00 0.00000000D+00 1.75955228D+01
 Full mass-weighted force constant matrix:
 Low frequencies ---  -59.4643  -28.6475    0.0009    0.0011    0.0012   48.9443
 Low frequencies ---  355.7630  414.3686  530.3641
 Diagonal vibrational polarizability:
        7.0871014       9.7033930      15.7923879
 Harmonic frequencies (cm**-1), IR intensities (KM/Mole), Raman scattering
 activities (A**4/AMU), depolarization ratios for plane and unpolarized
 incident light, reduced masses (AMU), force constants (mDyne/A),
 and normal coordinates:
                      1                      2                      3
                     A"                     A'                     A"
 Frequencies --    355.7197               414.3550               530.3352
 Red. masses --      1.5451                 6.9907                 2.9472
 Frc consts  --      0.1152                 0.7072                 0.4884
 IR Inten    --     62.9270                 7.9476                25.1809
  Atom  AN      X      Y      Z        X      Y      Z        X      Y      Z
     1   1    -0.00  -0.00   0.98    -0.73  -0.25  -0.00    -0.00  -0.00   0.93
     2   8    -0.00  -0.00  -0.11    -0.33  -0.31   0.00    -0.00  -0.00   0.06
     3   8    -0.00   0.00   0.11    -0.06   0.08  -0.00    -0.00  -0.00  -0.19
     4   7    -0.00   0.00  -0.11     0.06   0.09   0.00     0.00   0.00   0.27
     5   8     0.00   0.00   0.03     0.39   0.16   0.00     0.00   0.00  -0.17
                      4                      5                      6
                     A'                     A'                     A'
 Frequencies --    719.3462               834.4248               974.3845
 Red. masses --     13.5208                12.3602                 9.5401
 Frc consts  --      4.1222                 5.0705                 5.3366
 IR Inten    --    218.9435                26.8687                11.9033
  Atom  AN      X      Y      Z        X      Y      Z        X      Y      Z
     1   1    -0.33   0.00   0.00     0.44  -0.16   0.00    -0.64   0.00  -0.00
     2   8    -0.00  -0.08   0.00     0.53  -0.22   0.00     0.19  -0.16   0.00
     3   8     0.38   0.57  -0.00    -0.40  -0.02  -0.00    -0.34   0.41  -0.00
     4   7    -0.43  -0.47   0.00    -0.41  -0.05   0.00     0.37   0.04   0.00
     5   8     0.02  -0.08  -0.00     0.21   0.29  -0.00    -0.13  -0.28  -0.00
                      7                      8                      9
                     A'                     A'                     A'
 Frequencies --   1427.5072              1571.8035              3484.9698
 Red. masses --      1.3089                 6.4616                 1.0634
 Frc consts  --      1.5715                 9.4057                 7.6094
 IR Inten    --     81.1379               147.9671                44.7328
  Atom  AN      X      Y      Z        X      Y      Z        X      Y      Z
     1   1     0.97  -0.21  -0.00    -0.76   0.17   0.00     0.16   0.99   0.00
     2   8    -0.07  -0.05  -0.00     0.02   0.02   0.00    -0.01  -0.06  -0.00
     3   8    -0.03   0.06   0.00    -0.04  -0.06  -0.00     0.00  -0.00   0.00
     4   7     0.07  -0.05  -0.00     0.25  -0.40   0.00    -0.00   0.00   0.00
     5   8    -0.02   0.05   0.00    -0.15   0.38  -0.00     0.00  -0.00  -0.00

 -------------------
 - Thermochemistry -
 -------------------
 Temperature   298.150 Kelvin.  Pressure   1.00000 Atm.
 Atom     1 has atomic number  1 and mass   1.00783
 Atom     2 has atomic number  8 and mass  15.99491
 Atom     3 has atomic number  8 and mass  15.99491
 Atom     4 has atomic number  7 and mass  14.00307
 Atom     5 has atomic number  8 and mass  15.99491
 Molecular mass:    62.99564 amu.
 Principal axes and moments of inertia in atomic units:
                           1         2         3
     Eigenvalues --    85.00615 219.54019 304.54634
           X            0.80151  -0.59798   0.00000
           Y            0.59798   0.80151   0.00000
           Z            0.00000   0.00000   1.00000
 This molecule is an asymmetric top.
 Rotational symmetry number  1.
 Rotational temperatures (Kelvin)      1.01891     0.39452     0.28440
 Rotational constants (GHZ):          21.23071     8.22055     5.92600
 Zero-point vibrational energy      61684.5 (Joules/Mol)
                                   14.74295 (Kcal/Mol)
 Warning -- explicit consideration of   3 degrees of freedom as
           vibrations may cause significant error
 Vibrational temperatures:    511.80   596.16   763.03  1034.98  1200.55
          (Kelvin)           1401.92  2053.86  2261.47  5014.09
 
 Zero-point correction=                           0.023494 (Hartree/Particle)
 Thermal correction to Energy=                    0.027405
 Thermal correction to Enthalpy=                  0.028349
 Thermal correction to Gibbs Free Energy=        -0.002453
 Sum of electronic and zero-point Energies=           -280.431609
 Sum of electronic and thermal Energies=              -280.427698
 Sum of electronic and thermal Enthalpies=            -280.426754
 Sum of electronic and thermal Free Energies=         -280.457556
 
                     E (Thermal)             CV                S
                      KCal/Mol        Cal/Mol-Kelvin    Cal/Mol-Kelvin
 Total                   17.197             12.096             64.829
 Electronic               0.000              0.000              0.000
 Translational            0.889              2.981             38.341
 Rotational               0.889              2.981             23.256
 Vibrational             15.420              6.134              3.232
 Vibration     1          0.731              1.564              1.141
 Vibration     2          0.778              1.439              0.911
 Vibration     3          0.885              1.183              0.586
                       Q            Log10(Q)             Ln(Q)
 Total Bot       0.134348D+02          1.128231          2.597847
 Total V=0       0.860778D+12         11.934891         27.481102
 Vib (Bot)       0.253312D-10        -10.596344        -24.398983
 Vib (Bot)    1  0.516729D+00         -0.286737         -0.660237
 Vib (Bot)    2  0.425586D+00         -0.371013         -0.854288
 Vib (Bot)    3  0.301467D+00         -0.520760         -1.199093
 Vib (V=0)       0.162299D+01          0.210317          0.484273
 Vib (V=0)    1  0.121903D+01          0.086016          0.198058
 Vib (V=0)    2  0.115660D+01          0.063183          0.145485
 Vib (V=0)    3  0.108385D+01          0.034970          0.080521
 Electronic      0.100000D+01          0.000000          0.000000
 Translational   0.196526D+08          7.293420         16.793719
 Rotational      0.269870D+05          4.431154         10.203110
 
                                                                title
                                                             IR Spectrum
 
     3                                                                     1    1                                                    
     4                                                                     5    4                9    8   7      5   4  3            
     8                                                                     7    2                7    3   1      3   1  5            
     5                                                                     2    8                4    4   9      0   4  6            
 
     X                                                                     X    X                X    X   X      X   X  X            
     X                                                                     X    X                     X   X      X      X            
     X                                                                     X    X                         X             X            
     X                                                                     X    X                         X             X            
                                                                           X    X                         X             X            
                                                                           X    X                         X             X            
                                                                           X    X                         X                          
                                                                           X                              X                          
                                                                           X                              X                          
                                                                           X                              X                          
                                                                           X                              X                          
                                                                           X                              X                          
                                                                           X                              X                          
                                                                           X                              X                          
                                                                                                          X                          
                                                                                                          X                          
                                                                                                          X                          
                                                                                                          X                          
                                                                                                          X                          
                                                                                                          X                          
 
 ***** Axes restored to original set *****
 -------------------------------------------------------------------
 Center     Atomic                   Forces (Hartrees/Bohr)
 Number     Number              X              Y              Z
 -------------------------------------------------------------------
      1        1           0.000265341   -0.000000000   -0.000195262
      2        8           0.000898909   -0.000000000    0.001269839
      3        8           0.001316841   -0.000000000    0.003463598
      4        7          -0.006078661   -0.000000000    0.001091244
      5        8           0.003597570   -0.000000000   -0.005629419
 -------------------------------------------------------------------
 Cartesian Forces:  Max     0.006078661 RMS     0.002569481
 -----------------------------------------------------------------------------------------------
                       Internal Coordinate Forces (Hartree/Bohr or radian)
  Cent   Atom   N1       Length/X         N2         Alpha/Y        N3         Beta/Z          J
 -----------------------------------------------------------------------------------------------
      1  H 
      2  O        1   0.000195(     1)
      3  O        2  -0.001343(     2)      1  -0.000494(     5)
      4  N        3   0.002393(     3)      2   0.001774(     6)      1   0.000000(     8)     0
      5  O        4   0.002756(     4)      3   0.013741(     7)      2   0.000000(     9)     0
 -----------------------------------------------------------------------------------------------
 Internal  Forces:  Max     0.013740815 RMS     0.004800038
 Force constants in Cartesian coordinates: 
                1             2             3             4             5 
      1  0.716214D-01
      2  0.000000D+00  0.619120D-02
      3  0.253091D-01  0.000000D+00  0.436027D+00
      4 -0.521014D-01  0.000000D+00 -0.493028D-02  0.279781D+00
      5  0.000000D+00 -0.227949D-02  0.000000D+00  0.000000D+00  0.124650D-01
      6  0.304470D-01  0.000000D+00 -0.418423D+00 -0.139569D-01  0.000000D+00
      7 -0.246439D-01  0.000000D+00 -0.167586D-01 -0.169066D+00  0.000000D+00
      8  0.000000D+00 -0.433212D-02  0.000000D+00  0.000000D+00 -0.194008D-01
      9 -0.432834D-01  0.000000D+00 -0.205833D-01  0.113041D-01  0.000000D+00
     10 -0.570939D-02  0.000000D+00  0.629261D-02 -0.829620D-01  0.000000D+00
     11  0.000000D+00  0.812633D-02  0.000000D+00  0.000000D+00  0.195444D-01
     12 -0.198218D-01  0.000000D+00  0.122410D-01  0.116654D-01  0.000000D+00
     13  0.108334D-01  0.000000D+00 -0.991285D-02  0.243487D-01  0.000000D+00
     14  0.000000D+00 -0.770592D-02  0.000000D+00  0.000000D+00 -0.103291D-01
     15  0.734906D-02  0.000000D+00 -0.926248D-02 -0.408234D-02  0.000000D+00
                6             7             8             9            10 
      6  0.522970D+00
      7 -0.912713D-01  0.302362D+00
      8  0.000000D+00  0.000000D+00  0.408548D-01
      9 -0.967862D-01  0.820258D-01  0.000000D+00  0.324309D+00
     10  0.401885D-01 -0.143768D+00  0.000000D+00 -0.345062D-01  0.561169D+00
     11  0.000000D+00  0.000000D+00 -0.490849D-01  0.000000D+00  0.000000D+00
     12 -0.119875D-01  0.187116D-01  0.000000D+00 -0.263445D-01  0.243147D+00
     13  0.345927D-01  0.351160D-01  0.000000D+00 -0.155403D-01 -0.328730D+00
     14  0.000000D+00  0.000000D+00  0.319630D-01  0.000000D+00  0.000000D+00
     15  0.422631D-02  0.729257D-02  0.000000D+00 -0.180595D+00 -0.255122D+00
               11            12            13            14            15 
     11  0.606600D-01
     12  0.000000D+00  0.442528D+00
     13  0.000000D+00 -0.253702D+00  0.258432D+00
     14 -0.392458D-01  0.000000D+00  0.000000D+00  0.253178D-01
     15  0.000000D+00 -0.416437D+00  0.244563D+00  0.000000D+00  0.602069D+00
 Force constants in internal coordinates: 
                1             2             3             4             5 
      1  0.436027D+00
      2  0.232779D-01  0.256315D+00
      3  0.448840D-02  0.171948D-01  0.215914D+00
      4 -0.131703D-01  0.232571D-01  0.151421D+00  0.723442D+00
      5  0.473932D-01  0.548853D-01 -0.246098D-01  0.224728D-01  0.248702D+00
      6  0.108842D-01  0.225666D-01  0.103523D+00  0.889784D-02 -0.832366D-02
      7  0.735161D-02 -0.712440D-01  0.137687D+00  0.125011D+00 -0.213216D-01
      8  0.000000D+00  0.000000D+00  0.000000D+00  0.000000D+00  0.000000D+00
      9  0.000000D+00  0.000000D+00  0.000000D+00  0.000000D+00  0.000000D+00
                6             7             8             9 
      6  0.552712D+00
      7  0.877420D-01  0.704917D+00
      8  0.000000D+00  0.000000D+00  0.211769D-01
      9  0.000000D+00  0.000000D+00  0.292730D-01  0.109371D+00
 Leave Link  716 at Sun Mar  6 19:47:26 2022, MaxMem= 16106127360 cpu:               0.8 elap:               0.0
 (Enter /sw/contrib/gaussian/g16/B01/g16/l103.exe)

 GradGradGradGradGradGradGradGradGradGradGradGradGradGradGradGradGradGrad
 Berny optimization.
 Search for a local minimum.
 Step number   1 out of a maximum of    2
 All quantities printed in internal units (Hartrees-Bohrs-Radians)
 Second derivative matrix not updated -- analytic derivatives used.
 The second derivative matrix:
                          r1        r2        r3        r4        a1
           r1           0.43603
           r2           0.02328   0.25632
           r3           0.00449   0.01719   0.21591
           r4          -0.01317   0.02326   0.15142   0.72344
           a1           0.04739   0.05489  -0.02461   0.02247   0.24870
           a2           0.01088   0.02257   0.10352   0.00890  -0.00832
           a3           0.00735  -0.07124   0.13769   0.12501  -0.02132
           d1           0.00000   0.00000   0.00000   0.00000   0.00000
           d2           0.00000   0.00000   0.00000   0.00000   0.00000
                          a2        a3        d1        d2
           a2           0.55271
           a3           0.08774   0.70492
           d1           0.00000   0.00000   0.02118
           d2           0.00000   0.00000   0.02927   0.10937
 ITU=  0
     Eigenvalues ---    0.01235   0.11820   0.12551   0.20364   0.27236
     Eigenvalues ---    0.45054   0.52566   0.63435   0.92596
 Angle between quadratic step and forces=  20.89 degrees.
 Linear search not attempted -- first point.
 Variable       Old X    -DE/DX   Delta X   Delta X   Delta X     New X
                                 (Linear)    (Quad)   (Total)
    r1        1.86209   0.00020   0.00000   0.00021   0.00021   1.86231
    r2        2.69614  -0.00134   0.00000   0.00044   0.00044   2.69659
    r3        2.60992   0.00239   0.00000  -0.00255  -0.00255   2.60737
    r4        2.25782   0.00276   0.00000   0.00093   0.00093   2.25875
    a1        1.75642  -0.00049   0.00000  -0.00075  -0.00075   1.75567
    a2        1.97463   0.00177   0.00000   0.00050   0.00050   1.97512
    a3        1.97520   0.01374   0.00000   0.01978   0.01978   1.99499
    d1        0.00000   0.00000   0.00000   0.00000   0.00000   0.00000
    d2        0.00000   0.00000   0.00000   0.00000   0.00000   0.00000
         Item               Value     Threshold  Converged?
 Maximum Force            0.013741     0.000450     NO 
 RMS     Force            0.004800     0.000300     NO 
 Maximum Displacement     0.019784     0.001800     NO 
 RMS     Displacement     0.006665     0.001200     NO 
 Predicted change in Energy=-1.345040D-04
                       ----------------------------
                       ! Non-Optimized Parameters !
                       ! (Angstroms and Degrees)  !
 ----------------------                            ----------------------
 !      Name          Value   Derivative information (Atomic Units)     !
 ------------------------------------------------------------------------
 !       r1          0.9855   -DE/DX =    0.0002                        !
 !       r2          1.427    -DE/DX =   -0.0013                        !
 !       r3          1.3798   -DE/DX =    0.0024                        !
 !       r4          1.1953   -DE/DX =    0.0028                        !
 !       a1        100.5925   -DE/DX =   -0.0005                        !
 !       a2        113.1663   -DE/DX =    0.0018                        !
 !       a3        114.3044   -DE/DX =    0.0137                        !
 !       d1          0.0      -DE/DX =    0.0                           !
 !       d2          0.0      -DE/DX =    0.0                           !
 ------------------------------------------------------------------------
 GradGradGradGradGradGradGradGradGradGradGradGradGradGradGradGradGradGrad

 Leave Link  103 at Sun Mar  6 19:47:26 2022, MaxMem= 16106127360 cpu:               0.6 elap:               0.0
 (Enter /sw/contrib/gaussian/g16/B01/g16/l9999.exe)

 ----------------------------------------------------------------------

 Electric dipole moment (input orientation):
 (Debye = 10**-18 statcoulomb cm , SI units = C m)
                  (au)            (Debye)         (10**-30 SI)
   Tot        0.429969D+00      0.109287D+01      0.364543D+01
   x         -0.101865D+00     -0.258914D+00     -0.863645D+00
   y          0.000000D+00      0.000000D+00      0.000000D+00
   z         -0.417729D+00     -0.106176D+01     -0.354165D+01

 Dipole polarizability, Alpha (input orientation).
 (esu units = cm**3 , SI units = C**2 m**2 J**-1)
 Alpha(0;0):
               (au)            (10**-24 esu)      (10**-40 SI)
   iso        0.260633D+02      0.386218D+01      0.429725D+01
   aniso      0.145481D+02      0.215581D+01      0.239866D+01
   xx         0.291246D+02      0.431582D+01      0.480200D+01
   yx         0.000000D+00      0.000000D+00      0.000000D+00
   yy         0.175955D+02      0.260739D+01      0.290111D+01
   zx        -0.392395D+01     -0.581469D+00     -0.646972D+00
   zy         0.000000D+00      0.000000D+00      0.000000D+00
   zz         0.314697D+02      0.466333D+01      0.518865D+01

 ----------------------------------------------------------------------

 Dipole orientation:
     1          0.00000000         -0.00000000         -0.00000000
     8         -0.44115122         -0.00000000         -1.80908047
     8          2.01534896         -0.00000000         -2.92028973
     7          3.93889107         -0.00000000         -1.15630475
     8          3.19073091          0.00000000          0.97395836

 Electric dipole moment (dipole orientation):
 (Debye = 10**-18 statcoulomb cm , SI units = C m)
                  (au)            (Debye)         (10**-30 SI)
   Tot        0.429969D+00      0.109287D+01      0.364543D+01
   x          0.000000D+00      0.000000D+00      0.000000D+00
   y          0.000000D+00      0.000000D+00      0.000000D+00
   z          0.429969D+00      0.109287D+01      0.364543D+01

 Dipole polarizability, Alpha (dipole orientation).
 (esu units = cm**3 , SI units = C**2 m**2 J**-1)
 Alpha(0;0):
               (au)            (10**-24 esu)      (10**-40 SI)
   iso        0.260633D+02      0.386218D+01      0.429725D+01
   aniso      0.145481D+02      0.215581D+01      0.239866D+01
   xx         0.310626D+02      0.460300D+01      0.512152D+01
   yx         0.000000D+00      0.000000D+00      0.000000D+00
   yy         0.175955D+02      0.260739D+01      0.290111D+01
   zx         0.402323D+01      0.596181D+00      0.663341D+00
   zy         0.000000D+00      0.000000D+00      0.000000D+00
   zz         0.295317D+02      0.437615D+01      0.486913D+01

 ----------------------------------------------------------------------
 1\1\GINC-N2219\Freq\RMP2-FC\Aug-CC-pVTZ\H1N1O3\CGAVINH\06-Mar-2022\1\\
 #p freq mp2/aug-cc-pvtz density=current\\title\\0,1\H\O,1,r1\O,2,r2,1,
 a1\N,3,r3,2,a2,1,d1,0\O,4,r4,3,a3,2,d2,0\\r1=0.98537664\r2=1.42673666\
 r3=1.38110764\r4=1.19478846\a1=100.6355057\a2=113.13777052\a3=113.1708
 3426\d1=0.\d2=0.\\Version=ES64L-G16RevB.01\State=1-A'\HF=-279.5062238\
 MP2=-280.4551036\RMSD=4.535e-09\RMSF=2.569e-03\ZeroPoint=0.0234944\The
 rmal=0.0274053\Dipole=-0.1018648,0.,-0.4177287\DipoleDeriv=0.3197793,0
 .,0.0362384,0.,0.2976207,0.,-0.0276168,0.,0.2044428,-0.5263254,0.,0.28
 38722,0.,-0.2544212,0.,-0.1010964,0.,-0.1279257,0.0042494,0.,0.3299906
 ,0.,-0.0116926,0.,0.4339573,0.,-0.9175182,0.1944459,0.,-0.1210594,0.,0
 .0158471,0.,-0.6518684,0.,1.7061439,0.0078508,0.,-0.5290419,0.,-0.0473
 539,0.,0.3466243,0.,-0.8651428\Polar=29.1246106,0.,17.5955228,-3.92395
 04,0.,31.469688\Quadrupole=0.1791778,0.6019549,-0.7811327,0.,1.4040961
 ,0.\PG=CS [SG(H1N1O3)]\NImag=0\\0.07162140,0.,0.00619120,0.02530915,0.
 ,0.43602736,-0.05210143,0.,-0.00493028,0.27978063,0.,-0.00227949,0.,0.
 ,0.01246495,0.03044701,0.,-0.41842260,-0.01395689,0.,0.52297000,-0.024
 64394,0.,-0.01675862,-0.16906595,0.,-0.09127133,0.30236174,0.,-0.00433
 212,0.,0.,-0.01940079,0.,0.,0.04085479,-0.04328337,0.,-0.02058329,0.01
 130413,0.,-0.09678618,0.08202582,0.,0.32430897,-0.00570939,0.,0.006292
 61,-0.08296197,0.,0.04018851,-0.14376789,0.,-0.03450625,0.56116937,0.,
 0.00812633,0.,0.,0.01954438,0.,0.,-0.04908486,0.,0.,0.06065999,-0.0198
 2184,0.,0.01224101,0.01166538,0.,-0.01198753,0.01871156,0.,-0.02634446
 ,0.24314718,0.,0.44252832,0.01083337,0.,-0.00991285,0.02434871,0.,0.03
 459269,0.03511604,0.,-0.01554032,-0.32873012,0.,-0.25370228,0.25843200
 ,0.,-0.00770592,0.,0.,-0.01032905,0.,0.,0.03196298,0.,0.,-0.03924584,0
 .,0.,0.02531783,0.00734906,0.,-0.00926248,-0.00408234,0.,0.00422631,0.
 00729257,0.,-0.18059504,-0.25512206,0.,-0.41643734,0.24456276,0.,0.602
 06855\\-0.00026534,0.,0.00019526,-0.00089891,0.,-0.00126984,-0.0013168
 4,0.,-0.00346360,0.00607866,0.,-0.00109124,-0.00359757,0.,0.00562942\\
 \@


 AN AIRPLANE IS A COLLECTION OF SPARE PARTS
 FLYING IN CLOSE FORMATION.
 Job cpu time:       0 days  2 hours  1 minutes 56.5 seconds.
 Elapsed time:       0 days  0 hours  4 minutes 24.5 seconds.
 File lengths (MBytes):  RWF=   7239 Int=      0 D2E=      0 Chk=      8 Scr=      1
 Normal termination of Gaussian 16 at Sun Mar  6 19:47:27 2022.
