title                                                                   
Freq      RMP2-FC                                                     Aug-CC-pVTZ         
Number of atoms                            I                5
Info1-9                                    I   N=           9
          33          24           0           0           0         100
           6           2           1
Full Title                                 C   N=           1
title       
Route                                      C   N=           4
#p freq mp2/aug-cc-pvtz density=current         
Charge                                     I                0
Multiplicity                               I                1
Number of electrons                        I               32
Number of alpha electrons                  I               16
Number of beta electrons                   I               16
Number of basis functions                  I              207
Number of independent functions            I              207
Number of point charges in /Mol/           I                0
Number of translation vectors              I                0
Atomic numbers                             I   N=           5
           1           8           8           7           8
Nuclear charges                            R   N=           5
  1.00000000E+00  8.00000000E+00  8.00000000E+00  7.00000000E+00  8.00000000E+00
Current cartesian coordinates              R   N=          15
  2.11066855E+00 -1.14765521E+00  0.00000000E+00  2.50922227E+00  6.71284445E-01
  0.00000000E+00  5.57560925E-17  1.73609937E+00  0.00000000E+00 -1.88159476E+00
 -7.25626897E-02  0.00000000E+00 -1.12666043E+00 -2.20043456E+00  0.00000000E+00
Number of symbols in /Mol/                 I                0
Force Field                                I                0
Atom Types                                 C   N=           5
                                                            
Int Atom Types                             I   N=           5
           0           0           0           0           0
MM charges                                 R   N=           5
  0.00000000E+00  0.00000000E+00  0.00000000E+00  0.00000000E+00  0.00000000E+00
Integer atomic weights                     I   N=           5
           1          16          16          14          16
Real atomic weights                        R   N=           5
  1.00782504E+00  1.59949146E+01  1.59949146E+01  1.40030740E+01  1.59949146E+01
Atom fragment info                         I   N=           5
           0           0           0           0           0
Atom residue num                           I   N=           5
           0           0           0           0           0
Nuclear spins                              I   N=           5
           1           0           0           2           0
Nuclear ZEff                               R   N=           5
 -1.00000000E+00 -5.60000000E+00 -5.60000000E+00 -4.55000000E+00 -5.60000000E+00
Nuclear ZNuc                               R   N=           5
  1.00000000E+00  8.00000000E+00  8.00000000E+00  7.00000000E+00  8.00000000E+00
Nuclear QMom                               R   N=           5
  0.00000000E+00  0.00000000E+00  0.00000000E+00  2.04400000E+00  0.00000000E+00
Nuclear GFac                               R   N=           5
  2.79284600E+00  0.00000000E+00  0.00000000E+00  4.03761000E-01  0.00000000E+00
MicOpt                                     I   N=           5
          -1          -1          -1          -1          -1
Number of residues                         I                0
Number of secondary structures             I                0
SymInf integers                            I   N=          26
           1           2           1           1           1           1
           1          -1           0           0           0           0
           0           0           0           0           0           0
           0           0           0           0           0           0
           0           0
RotTr to input orientation                 R   N=          12
 -9.76825890E-01  0.00000000E+00  2.14035464E-01  2.14035464E-01  0.00000000E+00
  9.76825890E-01  0.00000000E+00  1.00000000E+00  0.00000000E+00  2.30739460E+00
  0.00000000E+00  6.69301398E-01
Number of contracted shells                I               65
Number of primitive shells                 I              119
Pure/Cartesian d shells                    I                0
Pure/Cartesian f shells                    I                0
Highest angular momentum                   I                3
Largest degree of contraction              I                7
Shell types                                I   N=          65
           0           0           0           0           1           1
           1          -2          -2           0           0           0
           0           0           1           1           1           1
          -2          -2          -2          -3          -3           0
           0           0           0           0           1           1
           1           1          -2          -2          -2          -3
          -3           0           0           0           0           0
           1           1           1           1          -2          -2
          -2          -3          -3           0           0           0
           0           0           1           1           1           1
          -2          -2          -2          -3          -3
Number of primitives per shell             I   N=          65
           3           1           1           1           1           1
           1           1           1           7           6           1
           1           1           3           1           1           1
           1           1           1           1           1           7
           6           1           1           1           3           1
           1           1           1           1           1           1
           1           7           6           1           1           1
           3           1           1           1           1           1
           1           1           1           7           6           1
           1           1           3           1           1           1
           1           1           1           1           1
Shell to atom map                          I   N=          65
           1           1           1           1           1           1
           1           1           1           2           2           2
           2           2           2           2           2           2
           2           2           2           2           2           3
           3           3           3           3           3           3
           3           3           3           3           3           3
           3           4           4           4           4           4
           4           4           4           4           4           4
           4           4           4           5           5           5
           5           5           5           5           5           5
           5           5           5           5           5
Primitive exponents                        R   N=         119
  3.38700000E+01  5.09500000E+00  1.15900000E+00  3.25800000E-01  1.02700000E-01
  2.52600000E-02  1.40700000E+00  3.88000000E-01  1.02000000E-01  1.05700000E+00
  2.47000000E-01  1.53300000E+04  2.29900000E+03  5.22400000E+02  1.47300000E+02
  4.75500000E+01  1.67600000E+01  6.20700000E+00  5.22400000E+02  1.47300000E+02
  4.75500000E+01  1.67600000E+01  6.20700000E+00  6.88200000E-01  1.75200000E+00
  2.38400000E-01  7.37600000E-02  3.44600000E+01  7.74900000E+00  2.28000000E+00
  7.15600000E-01  2.14000000E-01  5.97400000E-02  2.31400000E+00  6.45000000E-01
  2.14000000E-01  1.42800000E+00  5.00000000E-01  1.53300000E+04  2.29900000E+03
  5.22400000E+02  1.47300000E+02  4.75500000E+01  1.67600000E+01  6.20700000E+00
  5.22400000E+02  1.47300000E+02  4.75500000E+01  1.67600000E+01  6.20700000E+00
  6.88200000E-01  1.75200000E+00  2.38400000E-01  7.37600000E-02  3.44600000E+01
  7.74900000E+00  2.28000000E+00  7.15600000E-01  2.14000000E-01  5.97400000E-02
  2.31400000E+00  6.45000000E-01  2.14000000E-01  1.42800000E+00  5.00000000E-01
  1.14200000E+04  1.71200000E+03  3.89300000E+02  1.10000000E+02  3.55700000E+01
  1.25400000E+01  4.64400000E+00  3.89300000E+02  1.10000000E+02  3.55700000E+01
  1.25400000E+01  4.64400000E+00  5.11800000E-01  1.29300000E+00  1.78700000E-01
  5.76000000E-02  2.66300000E+01  5.94800000E+00  1.74200000E+00  5.55000000E-01
  1.72500000E-01  4.91000000E-02  1.65400000E+00  4.69000000E-01  1.51000000E-01
  1.09300000E+00  3.64000000E-01  1.53300000E+04  2.29900000E+03  5.22400000E+02
  1.47300000E+02  4.75500000E+01  1.67600000E+01  6.20700000E+00  5.22400000E+02
  1.47300000E+02  4.75500000E+01  1.67600000E+01  6.20700000E+00  6.88200000E-01
  1.75200000E+00  2.38400000E-01  7.37600000E-02  3.44600000E+01  7.74900000E+00
  2.28000000E+00  7.15600000E-01  2.14000000E-01  5.97400000E-02  2.31400000E+00
  6.45000000E-01  2.14000000E-01  1.42800000E+00  5.00000000E-01
Contraction coefficients                   R   N=         119
  2.54948632E-02  1.90362766E-01  8.52162022E-01  1.00000000E+00  1.00000000E+00
  1.00000000E+00  1.00000000E+00  1.00000000E+00  1.00000000E+00  1.00000000E+00
  1.00000000E+00  5.19808943E-04  4.02025621E-03  2.07128267E-02  8.10105536E-02
  2.35962985E-01  4.42653446E-01  3.57064423E-01 -4.42115008E-05 -1.22591041E-03
 -1.05517725E-02 -6.74452633E-02 -1.71198607E-01  1.07329856E+00  1.00000000E+00
  1.00000000E+00  1.00000000E+00  4.11634896E-02  2.57762836E-01  8.02419274E-01
  1.00000000E+00  1.00000000E+00  1.00000000E+00  1.00000000E+00  1.00000000E+00
  1.00000000E+00  1.00000000E+00  1.00000000E+00  5.19808943E-04  4.02025621E-03
  2.07128267E-02  8.10105536E-02  2.35962985E-01  4.42653446E-01  3.57064423E-01
 -4.42115008E-05 -1.22591041E-03 -1.05517725E-02 -6.74452633E-02 -1.71198607E-01
  1.07329856E+00  1.00000000E+00  1.00000000E+00  1.00000000E+00  4.11634896E-02
  2.57762836E-01  8.02419274E-01  1.00000000E+00  1.00000000E+00  1.00000000E+00
  1.00000000E+00  1.00000000E+00  1.00000000E+00  1.00000000E+00  1.00000000E+00
  5.34563860E-04  4.13435660E-03  2.12335358E-02  8.25006224E-02  2.38138871E-01
  4.42551547E-01  3.53757422E-01 -4.89867350E-05 -1.19527323E-03 -1.03490714E-02
 -6.48680190E-02 -1.71552477E-01  1.07289568E+00  1.00000000E+00  1.00000000E+00
  1.00000000E+00  3.98072123E-02  2.49002660E-01  8.10479727E-01  1.00000000E+00
  1.00000000E+00  1.00000000E+00  1.00000000E+00  1.00000000E+00  1.00000000E+00
  1.00000000E+00  1.00000000E+00  5.19808943E-04  4.02025621E-03  2.07128267E-02
  8.10105536E-02  2.35962985E-01  4.42653446E-01  3.57064423E-01 -4.42115008E-05
 -1.22591041E-03 -1.05517725E-02 -6.74452633E-02 -1.71198607E-01  1.07329856E+00
  1.00000000E+00  1.00000000E+00  1.00000000E+00  4.11634896E-02  2.57762836E-01
  8.02419274E-01  1.00000000E+00  1.00000000E+00  1.00000000E+00  1.00000000E+00
  1.00000000E+00  1.00000000E+00  1.00000000E+00  1.00000000E+00
Coordinates of each shell                  R   N=         195
  2.11066855E+00 -1.14765521E+00  0.00000000E+00  2.11066855E+00 -1.14765521E+00
  0.00000000E+00  2.11066855E+00 -1.14765521E+00  0.00000000E+00  2.11066855E+00
 -1.14765521E+00  0.00000000E+00  2.11066855E+00 -1.14765521E+00  0.00000000E+00
  2.11066855E+00 -1.14765521E+00  0.00000000E+00  2.11066855E+00 -1.14765521E+00
  0.00000000E+00  2.11066855E+00 -1.14765521E+00  0.00000000E+00  2.11066855E+00
 -1.14765521E+00  0.00000000E+00  2.50922227E+00  6.71284445E-01  0.00000000E+00
  2.50922227E+00  6.71284445E-01  0.00000000E+00  2.50922227E+00  6.71284445E-01
  0.00000000E+00  2.50922227E+00  6.71284445E-01  0.00000000E+00  2.50922227E+00
  6.71284445E-01  0.00000000E+00  2.50922227E+00  6.71284445E-01  0.00000000E+00
  2.50922227E+00  6.71284445E-01  0.00000000E+00  2.50922227E+00  6.71284445E-01
  0.00000000E+00  2.50922227E+00  6.71284445E-01  0.00000000E+00  2.50922227E+00
  6.71284445E-01  0.00000000E+00  2.50922227E+00  6.71284445E-01  0.00000000E+00
  2.50922227E+00  6.71284445E-01  0.00000000E+00  2.50922227E+00  6.71284445E-01
  0.00000000E+00  2.50922227E+00  6.71284445E-01  0.00000000E+00 -1.76810153E-18
  1.73609937E+00  0.00000000E+00 -1.76810153E-18  1.73609937E+00  0.00000000E+00
 -1.76810153E-18  1.73609937E+00  0.00000000E+00 -1.76810153E-18  1.73609937E+00
  0.00000000E+00 -1.76810153E-18  1.73609937E+00  0.00000000E+00 -1.76810153E-18
  1.73609937E+00  0.00000000E+00 -1.76810153E-18  1.73609937E+00  0.00000000E+00
 -1.76810153E-18  1.73609937E+00  0.00000000E+00 -1.76810153E-18  1.73609937E+00
  0.00000000E+00 -1.76810153E-18  1.73609937E+00  0.00000000E+00 -1.76810153E-18
  1.73609937E+00  0.00000000E+00 -1.76810153E-18  1.73609937E+00  0.00000000E+00
 -1.76810153E-18  1.73609937E+00  0.00000000E+00 -1.76810153E-18  1.73609937E+00
  0.00000000E+00 -1.88159476E+00 -7.25626897E-02  0.00000000E+00 -1.88159476E+00
 -7.25626897E-02  0.00000000E+00 -1.88159476E+00 -7.25626897E-02  0.00000000E+00
 -1.88159476E+00 -7.25626897E-02  0.00000000E+00 -1.88159476E+00 -7.25626897E-02
  0.00000000E+00 -1.88159476E+00 -7.25626897E-02  0.00000000E+00 -1.88159476E+00
 -7.25626897E-02  0.00000000E+00 -1.88159476E+00 -7.25626897E-02  0.00000000E+00
 -1.88159476E+00 -7.25626897E-02  0.00000000E+00 -1.88159476E+00 -7.25626897E-02
  0.00000000E+00 -1.88159476E+00 -7.25626897E-02  0.00000000E+00 -1.88159476E+00
 -7.25626897E-02  0.00000000E+00 -1.88159476E+00 -7.25626897E-02  0.00000000E+00
 -1.88159476E+00 -7.25626897E-02  0.00000000E+00 -1.12666043E+00 -2.20043456E+00
  0.00000000E+00 -1.12666043E+00 -2.20043456E+00  0.00000000E+00 -1.12666043E+00
 -2.20043456E+00  0.00000000E+00 -1.12666043E+00 -2.20043456E+00  0.00000000E+00
 -1.12666043E+00 -2.20043456E+00  0.00000000E+00 -1.12666043E+00 -2.20043456E+00
  0.00000000E+00 -1.12666043E+00 -2.20043456E+00  0.00000000E+00 -1.12666043E+00
 -2.20043456E+00  0.00000000E+00 -1.12666043E+00 -2.20043456E+00  0.00000000E+00
 -1.12666043E+00 -2.20043456E+00  0.00000000E+00 -1.12666043E+00 -2.20043456E+00
  0.00000000E+00 -1.12666043E+00 -2.20043456E+00  0.00000000E+00 -1.12666043E+00
 -2.20043456E+00  0.00000000E+00 -1.12666043E+00 -2.20043456E+00  0.00000000E+00
Num ILSW                                   I              100
ILSW                                       I   N=         100
           0           0           0           0           2           0
           0           0           0           0           0          -1
           5           0           0           0           2           0
           0           0           0           0           1           0
           1           0           0           0           0           0
           0           0      100000           0          -1           0
           0           0           0           0           0           0
           0           0           0           1           1           0
           0 -2000000000           1           0           0           0
           0           0           4          52           0           0
           0           0           0           0           0           0
           0           0           0           5           4           1
           0           0           0           0           0           0
           0           0           0           0           0           0
           0           0           0           0           0           0
           0           0           0           0           0           0
           0           0           0           0
Num RLSW                                   I               52
RLSW                                       R   N=          52
  1.00000000E+00  1.00000000E+00  1.00000000E+00  1.00000000E+00  1.00000000E+00
  0.00000000E+00  0.00000000E+00  1.00000000E+00  0.00000000E+00  0.00000000E+00
  0.00000000E+00  0.00000000E+00  1.00000000E+00  0.00000000E+00  0.00000000E+00
  0.00000000E+00  0.00000000E+00  1.00000000E+00  0.00000000E+00  0.00000000E+00
  0.00000000E+00  0.00000000E+00  1.00000000E+00  0.00000000E+00  0.00000000E+00
  0.00000000E+00  0.00000000E+00  1.00000000E+00  0.00000000E+00  0.00000000E+00
  0.00000000E+00  0.00000000E+00  1.00000000E+00  0.00000000E+00  0.00000000E+00
  0.00000000E+00  0.00000000E+00  0.00000000E+00  1.00000000E+00  1.00000000E+00
  0.00000000E+00  1.00000000E+00  0.00000000E+00  0.00000000E+00  0.00000000E+00
  0.00000000E+00  0.00000000E+00  0.00000000E+00  0.00000000E+00  0.00000000E+00
  0.00000000E+00  0.00000000E+00
MxBond                                     I                2
NBond                                      I   N=           5
           1           2           2           2           1
IBond                                      I   N=          10
           2           0           1           3           2           4
           3           5           4           0
RBond                                      R   N=          10
  1.00000000E+00  0.00000000E+00  1.00000000E+00  1.00000000E+00  1.00000000E+00
  1.00000000E+00  1.00000000E+00  2.00000000E+00  2.00000000E+00  0.00000000E+00
Virial Ratio                               R      2.002323489539979E+00
SCF Energy                                 R     -2.795053532129689E+02
MP2 Energy                                 R     -2.804551336788394E+02
Total Energy                               R     -2.804551336788394E+02
Post-SCF wavefunction norm                 R      1.584520610884159E+00
RMS Force                                  R      2.345673336982635E-03
RMS Density                                R      4.720152739106216E-09
NImag                                      I                0
Job Status                                 I                1
Nuclear derivative order                   I                2
External E-field                           R   N=          35
  0.00000000E+00  0.00000000E+00  0.00000000E+00  0.00000000E+00  0.00000000E+00
  0.00000000E+00  0.00000000E+00  0.00000000E+00  0.00000000E+00  0.00000000E+00
  0.00000000E+00  0.00000000E+00  0.00000000E+00  0.00000000E+00  0.00000000E+00
  0.00000000E+00  0.00000000E+00  0.00000000E+00  0.00000000E+00  0.00000000E+00
  0.00000000E+00  0.00000000E+00  0.00000000E+00  0.00000000E+00  0.00000000E+00
  0.00000000E+00  0.00000000E+00  0.00000000E+00  0.00000000E+00  0.00000000E+00
  0.00000000E+00  0.00000000E+00  0.00000000E+00  0.00000000E+00  0.00000000E+00
IOpCl                                      I                0
IROHF                                      I                0
Alpha Orbital Energies                     R   N=         207
 -2.07197136E+01 -2.06870162E+01 -2.06697776E+01 -1.58262232E+01 -1.64188838E+00
 -1.49987788E+00 -1.29576957E+00 -9.59522024E-01 -8.31880830E-01 -7.57832736E-01
 -7.37828375E-01 -6.39603812E-01 -6.16796862E-01 -6.15044749E-01 -5.04131442E-01
 -5.00117198E-01  3.48789958E-02  6.03357669E-02  9.50764960E-02  1.00170649E-01
  1.19837952E-01  1.22237925E-01  1.48340453E-01  1.50954372E-01  1.77570422E-01
  1.80566312E-01  1.89875600E-01  2.10916938E-01  2.16549231E-01  2.35240671E-01
  2.46332787E-01  2.69241748E-01  3.11677053E-01  3.16382295E-01  3.37675313E-01
  3.43367494E-01  3.45713686E-01  3.92846975E-01  4.48558135E-01  4.87619544E-01
  5.04803720E-01  5.18258935E-01  5.45601705E-01  5.61133075E-01  5.99042223E-01
  6.19786289E-01  6.38435975E-01  6.89109212E-01  7.17169020E-01  7.24644821E-01
  7.41593550E-01  7.62997560E-01  7.65684889E-01  7.96733235E-01  8.06284076E-01
  8.40698998E-01  8.42923322E-01  8.51892121E-01  8.84729553E-01  9.06316681E-01
  9.28698888E-01  9.47476516E-01  9.54905139E-01  1.01769206E+00  1.03076984E+00
  1.06027027E+00  1.06599343E+00  1.09338999E+00  1.14287591E+00  1.15533347E+00
  1.16964315E+00  1.22159392E+00  1.22717682E+00  1.24510027E+00  1.35072465E+00
  1.36248710E+00  1.37133306E+00  1.46922271E+00  1.48612233E+00  1.50529603E+00
  1.54132596E+00  1.59548045E+00  1.59699367E+00  1.60537082E+00  1.62751674E+00
  1.69496589E+00  1.73853490E+00  1.80087344E+00  1.82972086E+00  1.88806977E+00
  1.89088800E+00  1.92812874E+00  1.97670226E+00  1.98926725E+00  2.05159938E+00
  2.12267864E+00  2.12957767E+00  2.16349756E+00  2.18717276E+00  2.24366149E+00
  2.25286599E+00  2.29179128E+00  2.34876387E+00  2.36516316E+00  2.38592666E+00
  2.40275928E+00  2.42575037E+00  2.46797172E+00  2.47650550E+00  2.52897823E+00
  2.53734280E+00  2.54675869E+00  2.55774947E+00  2.61464574E+00  2.62531413E+00
  2.66831450E+00  2.66998075E+00  2.74719958E+00  2.80536825E+00  2.81559607E+00
  2.83647137E+00  2.91446762E+00  2.98403324E+00  3.04257374E+00  3.04713735E+00
  3.11383526E+00  3.11416691E+00  3.16781072E+00  3.20305110E+00  3.30294976E+00
  3.32752057E+00  3.36135753E+00  3.46283068E+00  3.67850535E+00  3.86759697E+00
  3.92478270E+00  4.18003477E+00  4.21868651E+00  4.22270335E+00  4.26471683E+00
  4.36787365E+00  4.48479352E+00  4.51980899E+00  4.55248312E+00  4.59514685E+00
  4.69592026E+00  4.80697548E+00  4.89688308E+00  4.91286602E+00  4.93871031E+00
  4.99960976E+00  5.00591356E+00  5.10644448E+00  5.13002904E+00  5.18004512E+00
  5.24989135E+00  5.25845972E+00  5.31589015E+00  5.33658892E+00  5.35369793E+00
  5.54929091E+00  5.64462860E+00  5.70211123E+00  5.86345152E+00  5.99228142E+00
  6.29167787E+00  6.29285813E+00  6.35054112E+00  6.38432215E+00  6.60258122E+00
  6.65719413E+00  6.67009428E+00  6.69033890E+00  6.72838919E+00  6.79792693E+00
  6.79980283E+00  6.85446591E+00  6.96604046E+00  7.00930800E+00  7.05503828E+00
  7.07184090E+00  7.13192617E+00  7.16627718E+00  7.16817916E+00  7.19157137E+00
  7.23529929E+00  7.24257713E+00  7.26879570E+00  7.34432202E+00  7.38465313E+00
  7.41665300E+00  7.44195125E+00  7.45442875E+00  7.55727313E+00  7.65232256E+00
  7.65811529E+00  7.78199580E+00  7.86618642E+00  7.94526143E+00  8.05244743E+00
  8.28025842E+00  8.49064671E+00  8.63679536E+00  1.35603192E+01  1.47373611E+01
  1.50881636E+01  1.57437697E+01
Alpha MO coefficients                      R   N=       42849
  6.37156550E-05 -2.45243684E-05 -1.10434041E-03  8.21202641E-06 -5.59436491E-05
  4.51600822E-05  0.00000000E+00 -1.14219515E-04 -2.97254390E-04  0.00000000E+00
 -2.63135230E-05 -3.64578334E-04  0.00000000E+00  4.28043172E-05  0.00000000E+00
  0.00000000E+00 -2.46108126E-05  4.35001586E-06  2.25681323E-04  0.00000000E+00
  0.00000000E+00 -3.44714493E-05 -2.03069050E-04  3.02322913E-03 -1.24495026E-04
 -8.65418010E-05  3.35327717E-03  2.39488619E-03  9.70870831E-05 -5.13718883E-05
  0.00000000E+00 -6.58795128E-04  2.49198590E-04  0.00000000E+00 -1.85631148E-03
  1.07415827E-03  0.00000000E+00 -5.14165294E-04  2.84622409E-05  0.00000000E+00
  2.49194828E-05  0.00000000E+00  0.00000000E+00 -1.32885925E-05  5.19944258E-05
 -4.26881782E-04  0.00000000E+00  0.00000000E+00  3.96072875E-04 -6.52078920E-04
 -3.51993445E-04  0.00000000E+00  0.00000000E+00  5.17062896E-04 -7.44436421E-04
  0.00000000E+00  7.10524746E-05 -5.09131976E-05  0.00000000E+00  0.00000000E+00
 -2.51819306E-05  1.04660368E-04  0.00000000E+00  2.05696530E-04 -5.59978709E-05
  0.00000000E+00  0.00000000E+00 -1.67788332E-04  3.12978019E-04  9.76914455E-01
 -9.17159363E-03  4.33811679E-02  7.01000367E-04 -2.13000739E-03  4.00850194E-04
 -2.13373982E-03  0.00000000E+00 -2.50446265E-04  2.23385035E-03  0.00000000E+00
 -2.20923449E-03 -5.17783387E-04  0.00000000E+00 -2.01406938E-04  9.44872873E-05
  0.00000000E+00  1.10601719E-05  0.00000000E+00  0.00000000E+00 -9.11418687E-06
  4.30299285E-05  8.08866033E-04  0.00000000E+00  0.00000000E+00 -4.50261556E-04
 -1.92730649E-04 -1.53273886E-04  0.00000000E+00  0.00000000E+00 -5.28988460E-04
  3.40269084E-04  0.00000000E+00 -9.75694077E-06 -7.84585028E-05  0.00000000E+00
  0.00000000E+00 -7.07431956E-06  4.55225087E-05  0.00000000E+00  8.52501547E-05
  3.88720222E-06  0.00000000E+00  0.00000000E+00 -3.30858938E-04  3.70589131E-04
  1.04448792E-04  4.57246248E-04 -3.25509834E-04 -8.25141953E-04  3.84197180E-04
 -4.57555160E-05 -1.00160502E-04  0.00000000E+00  7.05509782E-04  1.10694855E-03
  0.00000000E+00 -7.61665700E-04 -6.41953121E-04  0.00000000E+00  2.03097146E-04
  2.16753023E-04  0.00000000E+00 -5.26465544E-05  0.00000000E+00  0.00000000E+00
  1.98939976E-05  9.25792959E-05 -4.17688362E-04  0.00000000E+00  0.00000000E+00
  5.72732119E-05  1.08634522E-03  2.68155778E-05  0.00000000E+00  0.00000000E+00
 -3.14432441E-04  3.91286681E-05  0.00000000E+00 -8.02211992E-05 -1.13656791E-04
  0.00000000E+00  0.00000000E+00 -9.43605249E-05  1.08814243E-04  0.00000000E+00
 -1.24293268E-04  4.56161682E-05  0.00000000E+00  0.00000000E+00  2.55267121E-05
  5.24789954E-04 -7.03459049E-04  5.15471986E-05 -7.01301847E-05  2.06250294E-04
 -2.08121381E-04 -2.91763236E-05 -4.13649939E-05  0.00000000E+00  1.70607961E-04
  2.55348449E-04  0.00000000E+00  5.20291188E-04  3.20027072E-04  0.00000000E+00
 -2.26853052E-04 -6.82077126E-05  0.00000000E+00 -1.32123289E-05  0.00000000E+00
  0.00000000E+00  3.66821550E-06  1.53692781E-05 -1.15534621E-06  0.00000000E+00
  0.00000000E+00 -1.66319817E-04  1.13465743E-05 -1.90761536E-05  0.00000000E+00
  0.00000000E+00 -1.74410207E-04 -4.24715031E-05  0.00000000E+00 -6.07695176E-06
 -9.11060405E-06  0.00000000E+00  0.00000000E+00 -2.17918908E-05  9.70945146E-06
  0.00000000E+00  4.12579989E-05  6.15612025E-05  0.00000000E+00  0.00000000E+00
  1.56305601E-04 -1.07201354E-04  4.09193353E-05  5.79270907E-05 -1.23981160E-04
 -2.89366220E-05  1.60318829E-05  9.75687772E-06  0.00000000E+00  2.39027531E-04
  5.60200143E-05  0.00000000E+00  1.31106816E-04  2.32017895E-05  0.00000000E+00
  1.46599353E-05  0.00000000E+00  0.00000000E+00 -1.32176721E-05  1.56176490E-05
  2.40029621E-05  0.00000000E+00  0.00000000E+00 -9.57381156E-05  6.30064414E-05
 -2.82649665E-04  2.76102691E-05 -1.63970453E-05 -5.24204513E-04  1.62319464E-04
  7.35201533E-06  1.35370339E-05  0.00000000E+00 -2.10251896E-06 -4.01031532E-05
  0.00000000E+00  1.70229822E-04  1.19598701E-04  0.00000000E+00 -4.88691099E-05
  4.97042460E-05  0.00000000E+00 -1.29397682E-06  0.00000000E+00  0.00000000E+00
 -8.41151150E-06 -1.18386639E-05  1.98328867E-05  0.00000000E+00  0.00000000E+00
  4.91986051E-05  1.06307971E-04  5.98271038E-05  0.00000000E+00  0.00000000E+00
 -2.56694009E-05 -7.12574600E-05  0.00000000E+00  7.74114443E-06  1.01575662E-05
  0.00000000E+00  0.00000000E+00 -1.08566578E-06 -2.38264665E-05  0.00000000E+00
 -1.45134427E-05 -3.39663444E-05  0.00000000E+00  0.00000000E+00 -3.57529874E-06
 -2.02385084E-05  7.32733090E-04  2.41715338E-05 -1.82907457E-05  2.78408434E-04
 -3.91230555E-04  1.68099529E-05  2.70803535E-05  0.00000000E+00 -6.73609917E-05
 -1.52184447E-04  0.00000000E+00  1.41566270E-04 -1.85934189E-04  0.00000000E+00
 -1.57268648E-04  1.42684769E-04  0.00000000E+00 -4.17052797E-06  0.00000000E+00
  0.00000000E+00 -2.92656624E-05 -9.28796509E-06 -4.99202929E-05  0.00000000E+00
  0.00000000E+00  7.86654810E-05  1.19887799E-04 -6.30602382E-05  0.00000000E+00
  0.00000000E+00  4.86381144E-05  3.12935934E-05  0.00000000E+00  3.12743517E-06
  3.40951861E-06  0.00000000E+00  0.00000000E+00 -8.22087724E-06 -2.04282030E-06
  0.00000000E+00  4.01535851E-06 -2.55603899E-05  0.00000000E+00  0.00000000E+00
  9.15157581E-05 -1.55085506E-04  2.37400221E-04  1.35923633E-03 -1.47843215E-04
 -6.88711211E-04  8.98674375E-04  6.27544329E-05 -7.14728306E-05  0.00000000E+00
  5.64410461E-04 -2.08245136E-03  0.00000000E+00  1.19027633E-04  4.88208732E-04
  0.00000000E+00  1.83294314E-04 -3.07993277E-04  0.00000000E+00 -1.27874210E-04
  0.00000000E+00  0.00000000E+00 -2.05134287E-04 -1.56704804E-04 -4.60568102E-04
  0.00000000E+00  0.00000000E+00 -6.10912389E-04 -9.11199128E-04 -4.19966266E-05
  0.00000000E+00  0.00000000E+00  6.27999318E-05  1.14055174E-04  0.00000000E+00
  8.52686465E-06  3.66046822E-05  0.00000000E+00  0.00000000E+00 -2.43693421E-05
 -3.79247630E-06  0.00000000E+00 -1.33801042E-04  1.59471441E-04  0.00000000E+00
  0.00000000E+00 -3.15422709E-04 -2.61563445E-05  9.76646253E-01 -9.88620061E-03
  4.35750030E-02  3.68358391E-03 -8.90348471E-04 -4.42926443E-04  2.13131562E-03
  0.00000000E+00  5.05022997E-04 -2.50537402E-03  0.00000000E+00 -6.70477322E-05
  8.13130017E-04  0.00000000E+00  1.04895420E-04 -6.46163802E-05  0.00000000E+00
 -1.94319181E-04  0.00000000E+00  0.00000000E+00 -7.44203613E-05 -4.25743535E-05
  4.08479704E-04  0.00000000E+00  0.00000000E+00  8.61440372E-04  4.77059350E-04
 -2.06871721E-04  0.00000000E+00  0.00000000E+00 -1.38719056E-04 -3.84243699E-05
  0.00000000E+00 -4.42134757E-06  7.03113788E-05  0.00000000E+00  0.00000000E+00
 -2.94131695E-05  1.08069866E-05  0.00000000E+00 -8.87125120E-05  9.20957175E-05
  0.00000000E+00  0.00000000E+00 -1.61681524E-04  2.06320333E-04  3.79347853E-04
  2.02445823E-03  1.33328773E-03 -1.27324763E-05  5.25300790E-05  2.74917154E-04
  0.00000000E+00  3.82495760E-04  1.04888584E-03  0.00000000E+00 -1.04581923E-04
  2.46203001E-04  0.00000000E+00 -2.51264486E-05  0.00000000E+00  0.00000000E+00
  2.66646129E-05 -2.85374660E-05 -2.15121235E-04  0.00000000E+00  0.00000000E+00
 -3.49672563E-04  3.98644970E-04  9.76847139E-01 -9.18602719E-03  4.34359977E-02
  2.75884809E-04 -1.79587628E-03 -2.01358262E-03 -8.49322624E-04  0.00000000E+00
  2.03257750E-03  8.02409344E-04  0.00000000E+00 -4.92947999E-04  6.74722149E-04
  0.00000000E+00  2.01815770E-04 -2.83471493E-04  0.00000000E+00  3.54775889E-05
  0.00000000E+00  0.00000000E+00 -8.01492084E-05  6.79630341E-05  7.49527795E-04
  0.00000000E+00  0.00000000E+00 -1.70367938E-04  3.26203382E-04 -2.50429393E-04
  0.00000000E+00  0.00000000E+00  3.60042954E-04 -1.53539992E-05  0.00000000E+00
 -7.79992391E-05 -1.04119109E-06  0.00000000E+00  0.00000000E+00  1.30429125E-05