 Entering Gaussian System, Link 0=g16
 Input=hoono_a3_110p6440.gjf
 Output=hoono_a3_110p6440.log
 Initial command:
 /sw/contrib/gaussian/g16/B01/g16/l1.exe "/scr/Gau-23748.inp" -scrdir="/scr/"
 Entering Link 1 = /sw/contrib/gaussian/g16/B01/g16/l1.exe PID=     23749.
  
 Copyright (c) 1988-2017, Gaussian, Inc.  All Rights Reserved.
  
 This is part of the Gaussian(R) 16 program.  It is based on
 the Gaussian(R) 09 system (copyright 2009, Gaussian, Inc.),
 the Gaussian(R) 03 system (copyright 2003, Gaussian, Inc.),
 the Gaussian(R) 98 system (copyright 1998, Gaussian, Inc.),
 the Gaussian(R) 94 system (copyright 1995, Gaussian, Inc.),
 the Gaussian 92(TM) system (copyright 1992, Gaussian, Inc.),
 the Gaussian 90(TM) system (copyright 1990, Gaussian, Inc.),
 the Gaussian 88(TM) system (copyright 1988, Gaussian, Inc.),
 the Gaussian 86(TM) system (copyright 1986, Carnegie Mellon
 University), and the Gaussian 82(TM) system (copyright 1983,
 Carnegie Mellon University). Gaussian is a federally registered
 trademark of Gaussian, Inc.
  
 This software contains proprietary and confidential information,
 including trade secrets, belonging to Gaussian, Inc.
  
 This software is provided under written license and may be
 used, copied, transmitted, or stored only in accord with that
 written license.
  
 The following legend is applicable only to US Government
 contracts under FAR:
  
                    RESTRICTED RIGHTS LEGEND
  
 Use, reproduction and disclosure by the US Government is
 subject to restrictions as set forth in subparagraphs (a)
 and (c) of the Commercial Computer Software - Restricted
 Rights clause in FAR 52.227-19.
  
 Gaussian, Inc.
 340 Quinnipiac St., Bldg. 40, Wallingford CT 06492
  
  
 ---------------------------------------------------------------
 Warning -- This program may not be used in any manner that
 competes with the business of Gaussian, Inc. or will provide
 assistance to any competitor of Gaussian, Inc.  The licensee
 of this program is prohibited from giving any competitor of
 Gaussian, Inc. access to this program.  By using this program,
 the user acknowledges that Gaussian, Inc. is engaged in the
 business of creating and licensing software in the field of
 computational chemistry and represents and warrants to the
 licensee that it is not a competitor of Gaussian, Inc. and that
 it will not use this program in any manner prohibited above.
 ---------------------------------------------------------------
  

 Cite this work as:
 Gaussian 16, Revision B.01,
 M. J. Frisch, G. W. Trucks, H. B. Schlegel, G. E. Scuseria, 
 M. A. Robb, J. R. Cheeseman, G. Scalmani, V. Barone, 
 G. A. Petersson, H. Nakatsuji, X. Li, M. Caricato, A. V. Marenich, 
 J. Bloino, B. G. Janesko, R. Gomperts, B. Mennucci, H. P. Hratchian, 
 J. V. Ortiz, A. F. Izmaylov, J. L. Sonnenberg, D. Williams-Young, 
 F. Ding, F. Lipparini, F. Egidi, J. Goings, B. Peng, A. Petrone, 
 T. Henderson, D. Ranasinghe, V. G. Zakrzewski, J. Gao, N. Rega, 
 G. Zheng, W. Liang, M. Hada, M. Ehara, K. Toyota, R. Fukuda, 
 J. Hasegawa, M. Ishida, T. Nakajima, Y. Honda, O. Kitao, H. Nakai, 
 T. Vreven, K. Throssell, J. A. Montgomery, Jr., J. E. Peralta, 
 F. Ogliaro, M. J. Bearpark, J. J. Heyd, E. N. Brothers, K. N. Kudin, 
 V. N. Staroverov, T. A. Keith, R. Kobayashi, J. Normand, 
 K. Raghavachari, A. P. Rendell, J. C. Burant, S. S. Iyengar, 
 J. Tomasi, M. Cossi, J. M. Millam, M. Klene, C. Adamo, R. Cammi, 
 J. W. Ochterski, R. L. Martin, K. Morokuma, O. Farkas, 
 J. B. Foresman, and D. J. Fox, Gaussian, Inc., Wallingford CT, 2016.
 
 ******************************************
 Gaussian 16:  ES64L-G16RevB.01 20-Dec-2017
                21-Feb-2022 
 ******************************************
 %nproc=28
 Will use up to   28 processors via shared memory.
 %mem=120GB
 %chk=hoono_a3_110p6440.chk
 ---------------------------------------
 #p freq mp2/aug-cc-pvtz density=current
 ---------------------------------------
 1/10=4,30=1,38=1/1,3;
 2/12=2,17=6,18=5,40=1/2;
 3/5=16,6=1,7=10,11=9,25=1,30=1,71=2,140=1/1,2,3;
 4//1;
 5/5=2,38=5,98=1/2;
 8/6=3,8=1,10=1,19=11,30=-1/1;
 9/15=3,16=-3/6;
 11/6=1,8=1,15=11,17=12,24=-1,27=1,28=-2,29=300,32=6,42=3/1,2,10;
 10/6=2,21=1/2;
 8/6=4,8=1,10=1,19=11,30=-1/11,4;
 10/5=1,20=4/2;
 11/12=2,14=11,16=1,17=2,28=-2,42=3,76=2/2,10,12;
 6/7=2,8=2,9=2,10=2,22=-1/1;
 7/8=1,10=1,12=2,25=1,44=2/1,2,3,16;
 1/10=4,30=1/3;
 99//99;
 Leave Link    1 at Mon Feb 21 20:51:23 2022, MaxMem= 16106127360 cpu:               2.4 elap:               0.1
 (Enter /sw/contrib/gaussian/g16/B01/g16/l101.exe)
 -----
 title
 -----
 Symbolic Z-matrix:
 Charge =  0 Multiplicity = 1
 H
 O                    1    r1
 O                    2    r2       1    a1
 N                    3    r3       2    a2       1    d1       0
 O                    4    r4       3    a3       2    d2       0
       Variables:
  r1                    0.96898                  
  r2                    1.45492                  
  r3                    1.45878                  
  r4                    1.17073                  
  a1                   97.59495                  
  a2                  102.29752                  
  a3                  110.64407                  
  d1                  180.                       
  d2                  180.                       
 
 ITRead=  0  0  0  0  0
 MicOpt= -1 -1 -1 -1 -1
 NAtoms=      5 NQM=        5 NQMF=       0 NMMI=      0 NMMIF=      0
                NMic=       0 NMicF=      0.
                    Isotopes and Nuclear Properties:
 (Nuclear quadrupole moments (NQMom) in fm**2, nuclear magnetic moments (NMagM)
  in nuclear magnetons)

  Atom         1           2           3           4           5
 IAtWgt=           1          16          16          14          16
 AtmWgt=   1.0078250  15.9949146  15.9949146  14.0030740  15.9949146
 NucSpn=           1           0           0           2           0
 AtZEff=  -0.0000000  -0.0000000  -0.0000000  -0.0000000  -0.0000000
 NQMom=    0.0000000   0.0000000   0.0000000   2.0440000   0.0000000
 NMagM=    2.7928460   0.0000000   0.0000000   0.4037610   0.0000000
 AtZNuc=   1.0000000   8.0000000   8.0000000   7.0000000   8.0000000
 Leave Link  101 at Mon Feb 21 20:51:23 2022, MaxMem= 16106127360 cpu:               2.6 elap:               0.1
 (Enter /sw/contrib/gaussian/g16/B01/g16/l103.exe)

 GradGradGradGradGradGradGradGradGradGradGradGradGradGradGradGradGradGrad
 Berny optimization.
 Initialization pass.
                       ----------------------------
                       !    Initial Parameters    !
                       ! (Angstroms and Degrees)  !
 ----------------------                            ----------------------
 !      Name          Value   Derivative information (Atomic Units)     !
 ------------------------------------------------------------------------
 !       r1          0.969    calculate D2E/DX2 analytically            !
 !       r2          1.4549   calculate D2E/DX2 analytically            !
 !       r3          1.4588   calculate D2E/DX2 analytically            !
 !       r4          1.1707   calculate D2E/DX2 analytically            !
 !       a1         97.5949   calculate D2E/DX2 analytically            !
 !       a2        102.2975   calculate D2E/DX2 analytically            !
 !       a3        110.6441   calculate D2E/DX2 analytically            !
 !       d1        180.0      calculate D2E/DX2 analytically            !
 !       d2        180.0      calculate D2E/DX2 analytically            !
 ------------------------------------------------------------------------
 Trust Radius=3.00D-01 FncErr=1.00D-07 GrdErr=1.00D-07 EigMax=2.50D+02 EigMin=1.00D-04
 Number of steps in this run=      2 maximum allowed number of steps=      2.
 GradGradGradGradGradGradGradGradGradGradGradGradGradGradGradGradGradGrad

 Leave Link  103 at Mon Feb 21 20:51:23 2022, MaxMem= 16106127360 cpu:               0.5 elap:               0.0
 (Enter /sw/contrib/gaussian/g16/B01/g16/l202.exe)
                          Input orientation:                          
 ---------------------------------------------------------------------
 Center     Atomic      Atomic             Coordinates (Angstroms)
 Number     Number       Type             X           Y           Z
 ---------------------------------------------------------------------
      1          1           0        0.000000    0.000000    0.000000
      2          8           0        0.000000    0.000000    0.968976
      3          8           0        1.442156    0.000000    1.161271
      4          7           0        1.561752    0.000000    2.615144
      5          8           0        2.687457    0.000000    2.936691
 ---------------------------------------------------------------------
                    Distance matrix (angstroms):
                    1          2          3          4          5
     1  H    0.000000
     2  O    0.968976   0.000000
     3  O    1.851584   1.454919   0.000000
     4  N    3.045989   2.269127   1.458784   0.000000
     5  O    3.980777   3.330816   2.168616   1.170729   0.000000
 Stoichiometry    HNO3
 Framework group  CS[SG(HNO3)]
 Deg. of freedom     7
 Full point group                 CS      NOp   2
 Largest Abelian subgroup         CS      NOp   2
 Largest concise Abelian subgroup C1      NOp   1
                         Standard orientation:                         
 ---------------------------------------------------------------------
 Center     Atomic      Atomic             Coordinates (Angstroms)
 Number     Number       Type             X           Y           Z
 ---------------------------------------------------------------------
      1          1           0        1.551091    1.692119    0.000000
      2          8           0        1.454158    0.728004    0.000000
      3          8           0       -0.000000    0.680942   -0.000000
      4          7           0       -0.264437   -0.753674   -0.000000
      5          8           0       -1.416662   -0.960997   -0.000000
 ---------------------------------------------------------------------
 Rotational constants (GHZ):          55.3624587           4.9731809           4.5632652
 Leave Link  202 at Mon Feb 21 20:51:24 2022, MaxMem= 16106127360 cpu:               0.3 elap:               0.0
 (Enter /sw/contrib/gaussian/g16/B01/g16/l301.exe)
 Standard basis: Aug-CC-pVTZ (5D, 7F)
 Ernie: Thresh=  0.10000D-02 Tol=  0.10000D-05 Strict=F.
 Ernie:  12 primitive shells out of 131 were deleted.
 There are   166 symmetry adapted cartesian basis functions of A'  symmetry.
 There are    79 symmetry adapted cartesian basis functions of A"  symmetry.
 There are   136 symmetry adapted basis functions of A'  symmetry.
 There are    71 symmetry adapted basis functions of A"  symmetry.
   207 basis functions,   315 primitive gaussians,   245 cartesian basis functions
    16 alpha electrons       16 beta electrons
       nuclear repulsion energy       116.6837474338 Hartrees.
 IExCor=    0 DFT=F Ex=HF Corr=None ExCW=0 ScaHFX=  1.000000
 ScaDFX=  1.000000  1.000000  1.000000  1.000000 ScalE2=  1.000000  1.000000
 IRadAn=      5 IRanWt=     -1 IRanGd=            0 ICorTp=0 IEmpDi=  4
 NAtoms=    5 NActive=    5 NUniq=    5 SFac= 1.00D+00 NAtFMM=   60 NAOKFM=F Big=F
 Integral buffers will be    131072 words long.
 Raffenetti 1 integral format.
 Two-electron integral symmetry is turned on.
 Leave Link  301 at Mon Feb 21 20:51:24 2022, MaxMem= 16106127360 cpu:               2.1 elap:               0.1
 (Enter /sw/contrib/gaussian/g16/B01/g16/l302.exe)
 NPDir=0 NMtPBC=     1 NCelOv=     1 NCel=       1 NClECP=     1 NCelD=      1
         NCelK=      1 NCelE2=     1 NClLst=     1 CellRange=     0.0.
 One-electron integrals computed using PRISM.
 One-electron integral symmetry used in STVInt
 NBasis=   207 RedAO= T EigKep=  1.82D-04  NBF=   136    71
 NBsUse=   207 1.00D-06 EigRej= -1.00D+00 NBFU=   136    71
 Leave Link  302 at Mon Feb 21 20:51:24 2022, MaxMem= 16106127360 cpu:               5.0 elap:               0.2
 (Enter /sw/contrib/gaussian/g16/B01/g16/l303.exe)
 DipDrv:  MaxL=1.
 Leave Link  303 at Mon Feb 21 20:51:24 2022, MaxMem= 16106127360 cpu:               1.5 elap:               0.1
 (Enter /sw/contrib/gaussian/g16/B01/g16/l401.exe)
 ExpMin= 2.53D-02 ExpMax= 1.53D+04 ExpMxC= 5.22D+02 IAcc=3 IRadAn=         5 AccDes= 0.00D+00
 Harris functional with IExCor=  205 and IRadAn=       5 diagonalized for initial guess.
 HarFok:  IExCor=  205 AccDes= 0.00D+00 IRadAn=         5 IDoV= 1 UseB2=F ITyADJ=14
 ICtDFT=  3500011 ScaDFX=  1.000000  1.000000  1.000000  1.000000
 FoFCou: FMM=F IPFlag=           0 FMFlag=      100000 FMFlg1=           0
         NFxFlg=           0 DoJE=T BraDBF=F KetDBF=T FulRan=T
         wScrn=  0.000000 ICntrl=       500 IOpCl=  0 I1Cent=   200000004 NGrid=           0
         NMat0=    1 NMatS0=      1 NMatT0=    0 NMatD0=    1 NMtDS0=    0 NMtDT0=    0
 Petite list used in FoFCou.
 Harris En= -279.628524913026    
 JPrj=0 DoOrth=F DoCkMO=F.
 Initial guess orbital symmetries:
       Occupied  (A') (A') (A') (A') (A') (A') (A') (A') (A') (A')
                 (A") (A') (A') (A") (A") (A')
       Virtual   (A") (A') (A') (A') (A') (A') (A") (A') (A') (A')
                 (A") (A') (A") (A') (A') (A") (A') (A") (A') (A')
                 (A') (A') (A') (A') (A') (A") (A') (A") (A') (A')
                 (A") (A') (A") (A') (A') (A") (A') (A") (A') (A')
                 (A") (A') (A") (A') (A") (A') (A') (A') (A") (A")
                 (A') (A') (A') (A') (A") (A') (A") (A') (A") (A')
                 (A') (A') (A") (A') (A') (A") (A') (A") (A') (A')
                 (A") (A') (A') (A") (A") (A') (A') (A") (A') (A')
                 (A') (A") (A') (A") (A') (A") (A') (A") (A') (A')
                 (A') (A") (A') (A") (A') (A") (A") (A') (A') (A")
                 (A') (A') (A") (A') (A') (A') (A") (A') (A") (A')
                 (A") (A') (A') (A') (A") (A') (A') (A') (A") (A')
                 (A") (A') (A') (A") (A") (A') (A') (A") (A") (A')
                 (A') (A') (A') (A") (A") (A') (A") (A') (A') (A')
                 (A') (A") (A") (A') (A') (A") (A') (A') (A') (A')
                 (A") (A') (A') (A") (A') (A") (A') (A") (A") (A')
                 (A') (A") (A') (A") (A') (A") (A") (A") (A') (A')
                 (A") (A') (A") (A') (A") (A') (A") (A") (A') (A')
                 (A') (A') (A') (A') (A') (A') (A') (A') (A') (A')
                 (A')
 The electronic state of the initial guess is 1-A'.
 Leave Link  401 at Mon Feb 21 20:51:24 2022, MaxMem= 16106127360 cpu:               6.8 elap:               0.3
 (Enter /sw/contrib/gaussian/g16/B01/g16/l502.exe)
 Keep R1 ints in memory in symmetry-blocked form, NReq=348887737.
 FoFCou: FMM=F IPFlag=           0 FMFlag=           0 FMFlg1=           0
         NFxFlg=           0 DoJE=F BraDBF=F KetDBF=F FulRan=T
         wScrn=  0.000000 ICntrl=       600 IOpCl=  0 I1Cent=           0 NGrid=           0
         NMat0=    1 NMatS0=  21528 NMatT0=    0 NMatD0=    1 NMtDS0=    0 NMtDT0=    0
 Petite list used in FoFCou.
 Closed shell SCF:
 Using DIIS extrapolation, IDIIS=  1040.
 NGot= 16106127360 LenX= 15988850015 LenY= 15988789549
 Requested convergence on RMS density matrix=1.00D-08 within 128 cycles.
 Requested convergence on MAX density matrix=1.00D-06.
 Requested convergence on             energy=1.00D-06.
 No special actions if energy rises.

 Cycle   1  Pass 1  IDiag  1:
 E= -279.370652499135    
 DIIS: error= 2.92D-02 at cycle   1 NSaved=   1.
 NSaved= 1 IEnMin= 1 EnMin= -279.370652499135     IErMin= 1 ErrMin= 2.92D-02
 ErrMax= 2.92D-02  0.00D+00 EMaxC= 1.00D-01 BMatC= 4.37D-01 BMatP= 4.37D-01
 IDIUse=3 WtCom= 7.08D-01 WtEn= 2.92D-01
 Coeff-Com:  0.100D+01
 Coeff-En:   0.100D+01
 Coeff:      0.100D+01
 Gap=     0.515 Goal=   None    Shift=    0.000
 GapD=    0.515 DampG=2.000 DampE=0.500 DampFc=1.0000 IDamp=-1.
 RMSDP=1.62D-03 MaxDP=9.73D-02              OVMax= 1.12D-01

 Cycle   2  Pass 1  IDiag  1:
 E= -279.452231226872     Delta-E=       -0.081578727737 Rises=F Damp=F
 DIIS: error= 1.76D-02 at cycle   2 NSaved=   2.
 NSaved= 2 IEnMin= 2 EnMin= -279.452231226872     IErMin= 2 ErrMin= 1.76D-02
 ErrMax= 1.76D-02  0.00D+00 EMaxC= 1.00D-01 BMatC= 7.15D-02 BMatP= 4.37D-01
 IDIUse=3 WtCom= 8.24D-01 WtEn= 1.76D-01
 Coeff-Com:  0.194D+00 0.806D+00
 Coeff-En:   0.000D+00 0.100D+01
 Coeff:      0.160D+00 0.840D+00
 Gap=     0.527 Goal=   None    Shift=    0.000
 RMSDP=9.01D-04 MaxDP=3.71D-02 DE=-8.16D-02 OVMax= 6.90D-02

 Cycle   3  Pass 1  IDiag  1:
 E= -279.481041161344     Delta-E=       -0.028809934472 Rises=F Damp=F
 DIIS: error= 1.02D-02 at cycle   3 NSaved=   3.
 NSaved= 3 IEnMin= 3 EnMin= -279.481041161344     IErMin= 3 ErrMin= 1.02D-02
 ErrMax= 1.02D-02  0.00D+00 EMaxC= 1.00D-01 BMatC= 2.90D-02 BMatP= 7.15D-02
 IDIUse=3 WtCom= 8.98D-01 WtEn= 1.02D-01
 Coeff-Com: -0.331D-01 0.380D+00 0.653D+00
 Coeff-En:   0.000D+00 0.245D+00 0.755D+00
 Coeff:     -0.297D-01 0.366D+00 0.663D+00
 Gap=     0.508 Goal=   None    Shift=    0.000
 RMSDP=3.77D-04 MaxDP=1.51D-02 DE=-2.88D-02 OVMax= 3.83D-02

 Cycle   4  Pass 1  IDiag  1:
 E= -279.500308002482     Delta-E=       -0.019266841139 Rises=F Damp=F
 DIIS: error= 1.31D-03 at cycle   4 NSaved=   4.
 NSaved= 4 IEnMin= 4 EnMin= -279.500308002482     IErMin= 4 ErrMin= 1.31D-03
 ErrMax= 1.31D-03  0.00D+00 EMaxC= 1.00D-01 BMatC= 4.90D-04 BMatP= 2.90D-02
 IDIUse=3 WtCom= 9.87D-01 WtEn= 1.31D-02
 Coeff-Com: -0.117D-01 0.578D-01 0.157D+00 0.797D+00
 Coeff-En:   0.000D+00 0.000D+00 0.000D+00 0.100D+01
 Coeff:     -0.115D-01 0.570D-01 0.155D+00 0.800D+00
 Gap=     0.500 Goal=   None    Shift=    0.000
 RMSDP=9.08D-05 MaxDP=2.80D-03 DE=-1.93D-02 OVMax= 1.12D-02

 Cycle   5  Pass 1  IDiag  1:
 E= -279.500983182943     Delta-E=       -0.000675180460 Rises=F Damp=F
 DIIS: error= 7.43D-04 at cycle   5 NSaved=   5.
 NSaved= 5 IEnMin= 5 EnMin= -279.500983182943     IErMin= 5 ErrMin= 7.43D-04
 ErrMax= 7.43D-04  0.00D+00 EMaxC= 1.00D-01 BMatC= 8.76D-05 BMatP= 4.90D-04
 IDIUse=3 WtCom= 9.93D-01 WtEn= 7.43D-03
 Coeff-Com:  0.608D-02-0.721D-01-0.117D+00 0.241D-01 0.116D+01
 Coeff-En:   0.000D+00 0.000D+00 0.000D+00 0.000D+00 0.100D+01
 Coeff:      0.604D-02-0.716D-01-0.116D+00 0.239D-01 0.116D+01
 Gap=     0.500 Goal=   None    Shift=    0.000
 RMSDP=7.60D-05 MaxDP=2.09D-03 DE=-6.75D-04 OVMax= 1.10D-02

 Cycle   6  Pass 1  IDiag  1:
 E= -279.501298353469     Delta-E=       -0.000315170527 Rises=F Damp=F
 DIIS: error= 2.95D-04 at cycle   6 NSaved=   6.
 NSaved= 6 IEnMin= 6 EnMin= -279.501298353469     IErMin= 6 ErrMin= 2.95D-04
 ErrMax= 2.95D-04  0.00D+00 EMaxC= 1.00D-01 BMatC= 1.68D-05 BMatP= 8.76D-05
 IDIUse=3 WtCom= 9.97D-01 WtEn= 2.95D-03
 Coeff-Com:  0.638D-03 0.116D-02 0.365D-02-0.130D+00-0.226D+00 0.135D+01
 Coeff-En:   0.000D+00 0.000D+00 0.000D+00 0.000D+00 0.000D+00 0.100D+01
 Coeff:      0.636D-03 0.115D-02 0.364D-02-0.130D+00-0.226D+00 0.135D+01
 Gap=     0.500 Goal=   None    Shift=    0.000
 RMSDP=4.57D-05 MaxDP=1.27D-03 DE=-3.15D-04 OVMax= 5.55D-03

 Cycle   7  Pass 1  IDiag  1:
 E= -279.501371969934     Delta-E=       -0.000073616464 Rises=F Damp=F
 DIIS: error= 1.24D-04 at cycle   7 NSaved=   7.
 NSaved= 7 IEnMin= 7 EnMin= -279.501371969934     IErMin= 7 ErrMin= 1.24D-04
 ErrMax= 1.24D-04  0.00D+00 EMaxC= 1.00D-01 BMatC= 4.66D-06 BMatP= 1.68D-05
 IDIUse=3 WtCom= 9.99D-01 WtEn= 1.24D-03
 Coeff-Com: -0.940D-03 0.137D-01 0.265D-01-0.254D-01-0.291D+00 0.400D+00
 Coeff-Com:  0.877D+00
 Coeff-En:   0.000D+00 0.000D+00 0.000D+00 0.000D+00 0.000D+00 0.000D+00
 Coeff-En:   0.100D+01
 Coeff:     -0.939D-03 0.137D-01 0.265D-01-0.254D-01-0.291D+00 0.400D+00
 Coeff:      0.877D+00
 Gap=     0.500 Goal=   None    Shift=    0.000
 RMSDP=1.35D-05 MaxDP=3.87D-04 DE=-7.36D-05 OVMax= 1.56D-03

 Cycle   8  Pass 1  IDiag  1:
 E= -279.501381133299     Delta-E=       -0.000009163365 Rises=F Damp=F
 DIIS: error= 5.92D-05 at cycle   8 NSaved=   8.
 NSaved= 8 IEnMin= 8 EnMin= -279.501381133299     IErMin= 8 ErrMin= 5.92D-05
 ErrMax= 5.92D-05  0.00D+00 EMaxC= 1.00D-01 BMatC= 6.10D-07 BMatP= 4.66D-06
 IDIUse=1 WtCom= 1.00D+00 WtEn= 0.00D+00
 Coeff-Com: -0.451D-03 0.349D-02 0.760D-02 0.277D-01-0.415D-01-0.196D+00
 Coeff-Com:  0.160D+00 0.104D+01
 Coeff:     -0.451D-03 0.349D-02 0.760D-02 0.277D-01-0.415D-01-0.196D+00
 Coeff:      0.160D+00 0.104D+01
 Gap=     0.500 Goal=   None    Shift=    0.000
 RMSDP=7.03D-06 MaxDP=2.04D-04 DE=-9.16D-06 OVMax= 7.67D-04

 Cycle   9  Pass 1  IDiag  1:
 E= -279.501382950675     Delta-E=       -0.000001817376 Rises=F Damp=F
 DIIS: error= 1.53D-05 at cycle   9 NSaved=   9.
 NSaved= 9 IEnMin= 9 EnMin= -279.501382950675     IErMin= 9 ErrMin= 1.53D-05
 ErrMax= 1.53D-05  0.00D+00 EMaxC= 1.00D-01 BMatC= 6.88D-08 BMatP= 6.10D-07
 IDIUse=1 WtCom= 1.00D+00 WtEn= 0.00D+00
 Coeff-Com:  0.121D-03-0.171D-02-0.303D-02-0.196D-02 0.340D-01-0.335D-03
 Coeff-Com: -0.162D+00-0.106D+00 0.124D+01
 Coeff:      0.121D-03-0.171D-02-0.303D-02-0.196D-02 0.340D-01-0.335D-03
 Coeff:     -0.162D+00-0.106D+00 0.124D+01
 Gap=     0.500 Goal=   None    Shift=    0.000
 RMSDP=1.95D-06 MaxDP=6.60D-05 DE=-1.82D-06 OVMax= 1.76D-04

 Cycle  10  Pass 1  IDiag  1:
 E= -279.501383111636     Delta-E=       -0.000000160962 Rises=F Damp=F
 DIIS: error= 4.13D-06 at cycle  10 NSaved=  10.
 NSaved=10 IEnMin=10 EnMin= -279.501383111636     IErMin=10 ErrMin= 4.13D-06
 ErrMax= 4.13D-06  0.00D+00 EMaxC= 1.00D-01 BMatC= 5.64D-09 BMatP= 6.88D-08
 IDIUse=1 WtCom= 1.00D+00 WtEn= 0.00D+00
 Coeff-Com:  0.318D-04-0.252D-03-0.334D-03-0.274D-02 0.173D-02 0.197D-01
 Coeff-Com: -0.127D-01-0.757D-01-0.789D-01 0.115D+01
 Coeff:      0.318D-04-0.252D-03-0.334D-03-0.274D-02 0.173D-02 0.197D-01
 Coeff:     -0.127D-01-0.757D-01-0.789D-01 0.115D+01
 Gap=     0.500 Goal=   None    Shift=    0.000
 RMSDP=5.16D-07 MaxDP=2.12D-05 DE=-1.61D-07 OVMax= 4.25D-05

 Cycle  11  Pass 1  IDiag  1:
 E= -279.501383124435     Delta-E=       -0.000000012798 Rises=F Damp=F
 DIIS: error= 2.05D-06 at cycle  11 NSaved=  11.
 NSaved=11 IEnMin=11 EnMin= -279.501383124435     IErMin=11 ErrMin= 2.05D-06
 ErrMax= 2.05D-06  0.00D+00 EMaxC= 1.00D-01 BMatC= 6.72D-10 BMatP= 5.64D-09
 IDIUse=1 WtCom= 1.00D+00 WtEn= 0.00D+00
 Coeff-Com: -0.213D-04 0.245D-03 0.486D-03 0.540D-03-0.430D-02-0.356D-02
 Coeff-Com:  0.204D-01 0.321D-01-0.139D+00-0.182D+00 0.128D+01
 Coeff:     -0.213D-04 0.245D-03 0.486D-03 0.540D-03-0.430D-02-0.356D-02
 Coeff:      0.204D-01 0.321D-01-0.139D+00-0.182D+00 0.128D+01
 Gap=     0.500 Goal=   None    Shift=    0.000
 RMSDP=1.82D-07 MaxDP=6.80D-06 DE=-1.28D-08 OVMax= 1.74D-05

 Cycle  12  Pass 1  IDiag  1:
 E= -279.501383126279     Delta-E=       -0.000000001845 Rises=F Damp=F
 DIIS: error= 6.02D-07 at cycle  12 NSaved=  12.
 NSaved=12 IEnMin=12 EnMin= -279.501383126279     IErMin=12 ErrMin= 6.02D-07
 ErrMax= 6.02D-07  0.00D+00 EMaxC= 1.00D-01 BMatC= 7.24D-11 BMatP= 6.72D-10
 IDIUse=1 WtCom= 1.00D+00 WtEn= 0.00D+00
 Coeff-Com:  0.121D-05-0.291D-04-0.624D-04 0.185D-03 0.108D-02-0.227D-02
 Coeff-Com: -0.413D-02 0.537D-02 0.420D-01-0.112D+00-0.283D+00 0.135D+01
 Coeff:      0.121D-05-0.291D-04-0.624D-04 0.185D-03 0.108D-02-0.227D-02
 Coeff:     -0.413D-02 0.537D-02 0.420D-01-0.112D+00-0.283D+00 0.135D+01
 Gap=     0.500 Goal=   None    Shift=    0.000
 RMSDP=7.25D-08 MaxDP=2.95D-06 DE=-1.84D-09 OVMax= 6.68D-06

 Cycle  13  Pass 1  IDiag  1:
 E= -279.501383126511     Delta-E=       -0.000000000231 Rises=F Damp=F
 DIIS: error= 1.73D-07 at cycle  13 NSaved=  13.
 NSaved=13 IEnMin=13 EnMin= -279.501383126511     IErMin=13 ErrMin= 1.73D-07
 ErrMax= 1.73D-07  0.00D+00 EMaxC= 1.00D-01 BMatC= 4.12D-12 BMatP= 7.24D-11
 IDIUse=1 WtCom= 1.00D+00 WtEn= 0.00D+00
 Coeff-Com:  0.128D-05-0.139D-04-0.221D-04-0.911D-04 0.118D-03 0.767D-03
 Coeff-Com: -0.785D-03-0.331D-02 0.339D-03 0.413D-01-0.339D-01-0.332D+00
 Coeff-Com:  0.133D+01
 Coeff:      0.128D-05-0.139D-04-0.221D-04-0.911D-04 0.118D-03 0.767D-03
 Coeff:     -0.785D-03-0.331D-02 0.339D-03 0.413D-01-0.339D-01-0.332D+00
 Coeff:      0.133D+01
 Gap=     0.500 Goal=   None    Shift=    0.000
 RMSDP=1.94D-08 MaxDP=5.64D-07 DE=-2.31D-10 OVMax= 1.58D-06

 Cycle  14  Pass 1  IDiag  1:
 E= -279.501383126523     Delta-E=       -0.000000000012 Rises=F Damp=F
 DIIS: error= 2.45D-08 at cycle  14 NSaved=  14.
 NSaved=14 IEnMin=14 EnMin= -279.501383126523     IErMin=14 ErrMin= 2.45D-08
 ErrMax= 2.45D-08  0.00D+00 EMaxC= 1.00D-01 BMatC= 2.03D-13 BMatP= 4.12D-12
 IDIUse=1 WtCom= 1.00D+00 WtEn= 0.00D+00
 Coeff-Com: -0.194D-06 0.318D-05 0.559D-05 0.477D-05-0.831D-04 0.431D-04
 Coeff-Com:  0.278D-03 0.243D-03-0.244D-02 0.127D-02 0.171D-01-0.247D-01
 Coeff-Com: -0.204D+00 0.121D+01
 Coeff:     -0.194D-06 0.318D-05 0.559D-05 0.477D-05-0.831D-04 0.431D-04
 Coeff:      0.278D-03 0.243D-03-0.244D-02 0.127D-02 0.171D-01-0.247D-01
 Coeff:     -0.204D+00 0.121D+01
 Gap=     0.500 Goal=   None    Shift=    0.000
 RMSDP=3.87D-09 MaxDP=9.35D-08 DE=-1.22D-11 OVMax= 3.49D-07

 SCF Done:  E(RHF) =  -279.501383127     A.U. after   14 cycles
            NFock= 14  Conv=0.39D-08     -V/T= 2.0024
 KE= 2.788351800738D+02 PE=-8.946765915237D+02 EE= 2.196562808896D+02
 Leave Link  502 at Mon Feb 21 20:51:28 2022, MaxMem= 16106127360 cpu:              56.3 elap:               3.6
 (Enter /sw/contrib/gaussian/g16/B01/g16/l801.exe)
 ExpMin= 2.53D-02 ExpMax= 1.53D+04 ExpMxC= 5.22D+02 IAcc=3 IRadAn=         5 AccDes= 0.00D+00
 HarFok:  IExCor=  205 AccDes= 0.00D+00 IRadAn=         5 IDoV=-2 UseB2=F ITyADJ=14
 ICtDFT= 12500011 ScaDFX=  1.000000  1.000000  1.000000  1.000000
 Largest valence mixing into a core orbital is  2.08D-04
 Largest core mixing into a valence orbital is  3.61D-05
 Range of M.O.s used for correlation:     5   207
 NBasis=   207 NAE=    16 NBE=    16 NFC=     4 NFV=     0
 NROrb=    203 NOA=    12 NOB=    12 NVA=   191 NVB=   191

 **** Warning!!: The largest alpha MO coefficient is  0.17765060D+02

 Leave Link  801 at Mon Feb 21 20:51:28 2022, MaxMem= 16106127360 cpu:               2.1 elap:               0.1
 (Enter /sw/contrib/gaussian/g16/B01/g16/l906.exe)
 Frozen-core derivative calculation, NFC=   4 NFV=   0.
 FulOut=F Deriv=T AODrv=T NAtomX=     5
   MMem=           0  MDisk=          12 MDiskD=          12
  W3Min=      811440 MinDsk=     2425030 NBas6D=         245
 NBas2D=       30762    NTT=       30135    LW2=     7400000
    MDV= 16105574311 MDiskM=      328644 NBas2p=       30702
 Disk-based method using ON**2 memory for 12 occupieds at a time.
 Permanent disk used for amplitudes=    11516536 words.
 Estimated scratch disk usage=   321251614 words.
 IMap=   1   2   3   4   5   6   7   8   9  10  11  12  13  14  15  16
 Actual    scratch disk usage=   310331678 words.
 JobTyp=1 Pass  1:  I=   5 to  16 NPSUse= 28 ParTrn=T ParDer=T DoDerP=T.
 (rs|ai) integrals will be sorted in core.
 Spin components of T(2) and E(2):
     alpha-alpha T2 =       0.3406399719D-01 E2=     -0.1224366771D+00
     alpha-beta  T2 =       0.1869388979D+00 E2=     -0.7002973205D+00
     beta-beta   T2 =       0.3406399719D-01 E2=     -0.1224366771D+00
 The integrals were generated   1 times.
 ANorm=    0.1120297680D+01
 E2 =    -0.9451706747D+00 EUMP2 =    -0.28044655380126D+03
 Leave Link  906 at Mon Feb 21 20:53:05 2022, MaxMem= 16106127360 cpu:            2707.8 elap:              96.8
 (Enter /sw/contrib/gaussian/g16/B01/g16/l1101.exe)
 Using compressed Sx but separate Hx and Fx, NAtomX=     5.
 Will process      6 centers per pass.
 Leave Link 1101 at Mon Feb 21 20:53:05 2022, MaxMem= 16106127360 cpu:               5.1 elap:               0.2
 (Enter /sw/contrib/gaussian/g16/B01/g16/l1102.exe)
 Leave Link 1102 at Mon Feb 21 20:53:05 2022, MaxMem= 16106127360 cpu:               0.5 elap:               0.0
 (Enter /sw/contrib/gaussian/g16/B01/g16/l1110.exe)
 Forming Gx(P) for the SCF density, NAtomX=     5.
 Integral derivatives from FoFJK, PRISM(SPDF).
 Do as many integral derivatives as possible in FoFJK.
 G2DrvN: MDV=   16106126844.
 G2DrvN: will do     6 centers at a time, making    1 passes.
 Calling FoFCou, ICntrl=  3107 FMM=F I1Cent=   0 AccDes= 0.00D+00.
 FoFJK:  IHMeth= 1 ICntrl=    3107 DoSepK=F KAlg= 0 I1Cent=           0 FoldK=F
 IRaf=         0 NMat=       1 IRICut=       1 DoRegI=T DoRafI=F ISym2E= 1 IDoP0=0 IntGTp=1.
 FoFCou: FMM=F IPFlag=           0 FMFlag=      100000 FMFlg1=           0
         NFxFlg=           0 DoJE=F BraDBF=F KetDBF=F FulRan=T
         wScrn=  0.000000 ICntrl=      3107 IOpCl=  0 I1Cent=           0 NGrid=           0
         NMat0=    1 NMatS0=      1 NMatT0=    0 NMatD0=    1 NMtDS0=    0 NMtDT0=    0
 Petite list used in FoFCou.
 End of G2Drv F.D. properties file   721 does not exist.
 End of G2Drv F.D. properties file   722 does not exist.
 End of G2Drv F.D. properties file   788 does not exist.
 Leave Link 1110 at Mon Feb 21 20:53:08 2022, MaxMem= 16106127360 cpu:              84.9 elap:               3.1
 (Enter /sw/contrib/gaussian/g16/B01/g16/l1002.exe)
 Minotr:  Closed shell wavefunction.
          IDoAtm=11111
          Frozen-core window.
          Direct CPHF calculation.
          Differentiating once with respect to electric field.
                with respect to dipole field.
          Differentiating once with respect to nuclear coordinates.
          Requested convergence is 1.0D-08 RMS, and 1.0D-07 maximum.
          Secondary convergence is 1.0D-12 RMS, and 1.0D-12 maximum.
          NewPWx=T KeepS1=T KeepF1=T KeepIn=T MapXYZ=F SortEE=F KeepMc=T.
 Keep R1 ints in memory in symmetry-blocked form, NReq=348888983.
 FoFCou: FMM=F IPFlag=           0 FMFlag=           0 FMFlg1=           0
         NFxFlg=           0 DoJE=F BraDBF=F KetDBF=F FulRan=T
         wScrn=  0.000000 ICntrl=       600 IOpCl=  0 I1Cent=           0 NGrid=           0
         NMat0=    1 NMatS0=  21528 NMatT0=    0 NMatD0=    1 NMtDS0=    0 NMtDT0=    0
 Petite list used in FoFCou.
          MDV=   16106127360 using IRadAn=       1.
          Solving linear equations simultaneously, MaxMat=       0.
          There are    18 degrees of freedom in the 1st order CPHF.  IDoFFX=6 NUNeed=    18.
     15 vectors produced by pass  0 Test12= 1.70D-14 5.56D-09 XBig12= 8.27D+00 1.03D+00.
 AX will form    15 AO Fock derivatives at one time.
     15 vectors produced by pass  1 Test12= 1.70D-14 5.56D-09 XBig12= 1.33D+00 2.61D-01.
     15 vectors produced by pass  2 Test12= 1.70D-14 5.56D-09 XBig12= 1.41D-01 9.68D-02.
     15 vectors produced by pass  3 Test12= 1.70D-14 5.56D-09 XBig12= 4.94D-03 1.11D-02.
     15 vectors produced by pass  4 Test12= 1.70D-14 5.56D-09 XBig12= 9.84D-05 1.87D-03.
     15 vectors produced by pass  5 Test12= 1.70D-14 5.56D-09 XBig12= 1.37D-06 1.66D-04.
     15 vectors produced by pass  6 Test12= 1.70D-14 5.56D-09 XBig12= 1.07D-08 1.45D-05.
     13 vectors produced by pass  7 Test12= 1.70D-14 5.56D-09 XBig12= 7.86D-11 1.26D-06.
      3 vectors produced by pass  8 Test12= 1.70D-14 5.56D-09 XBig12= 5.48D-13 1.19D-07.
      2 vectors produced by pass  9 Test12= 1.70D-14 5.56D-09 XBig12= 3.61D-15 9.78D-09.
 InvSVY:  IOpt=1 It=  1 EMax= 1.33D-15
 Solved reduced A of dimension   123 with    15 vectors.
 FullF1:  Do perturbations      1 to      18.
 Saving first derivative matrices.
 End of Minotr F.D. properties file   721 does not exist.
 End of Minotr F.D. properties file   722 does not exist.
 End of Minotr F.D. properties file   788 does not exist.
 Leave Link 1002 at Mon Feb 21 20:53:11 2022, MaxMem= 16106127360 cpu:              81.0 elap:               2.9
 (Enter /sw/contrib/gaussian/g16/B01/g16/l811.exe)
 MDV= 16106127360.
 Form MO integral derivatives with frozen-active canonical formalism.
 MOERI=1 MOERIx=1 NAtoms=     5 NAtomX=     5.
 Discarding MO integrals.
 MO basis two electron integral derivatives will not be stored on disk.
 IAlg= 3 DoFC=T DoPWx=T Debug=F.
 Frozen-core window:  NFC=   4 NFV=   0.
 Reordered first order wavefunction length =     18678272
 In DefCFB: NBatch=  1 ICI= 16 ICA=191 LFMax= 96
            Large arrays: LIAPS=   619940160 LIARS=   288257200 words.
 In StABat: MaxSiz= 55 MinSiz= 25 NAtomB=  5
 DoIAMN: NPSUse= 28.
 Leave Link  811 at Mon Feb 21 20:54:32 2022, MaxMem= 16106127360 cpu:            2265.5 elap:              81.1
 (Enter /sw/contrib/gaussian/g16/B01/g16/l804.exe)
 Frozen-core window:  NFC=   4 NFV=   0.
 Closed-shell transformation, MDV= 16106127360 ITran=4 ISComp=1.
 Semi-Direct transformation.
 ModeAB=           2 MOrb=            16 LenV=   16104923079
 LASXX=     67341636 LTotXX=    67341636 LenRXX=    67341636
 LTotAB=    68301760 MaxLAS=    99807120 LenRXY=    99807120
 NonZer=   134683272 LenScr=   202817536 LnRSAI=           0
 LnScr1=           0 LExtra=           0 Total=    369966292
 MaxDsk=          -1 SrtSym=           F ITran=            4
 DoSDTr:  NPSUse= 28
 JobTyp=0 Pass  1:  I=   1 to  16.
 (rs|ai) integrals will be sorted in core.
 Complete sort for first half transformation.
 First half transformation complete.
 Begin second half transformation for I=  10.
 Begin second half transformation for I=  10.
 Complete sort for second half transformation.
 Second half transformation complete.
 Spin components of T(2) and E(2):
     alpha-alpha T2 =       0.3406399719D-01 E2=     -0.1224366771D+00
     alpha-beta  T2 =       0.1869388979D+00 E2=     -0.7002973205D+00
     beta-beta   T2 =       0.3406399719D-01 E2=     -0.1224366771D+00
 ANorm=    0.1584340173D+01
 E2 =    -0.9451706747D+00 EUMP2 =    -0.28044655380126D+03
 Leave Link  804 at Mon Feb 21 20:54:48 2022, MaxMem= 16106127360 cpu:             430.0 elap:              15.4
 (Enter /sw/contrib/gaussian/g16/B01/g16/l1002.exe)
 Minotr:  Closed shell wavefunction.
          Computing MP2/KS-MP2 derivatives.
          Using Z-Vector for PSCF gradient.
          Skipping F1 and S1 gradient terms here.
          IDoAtm=11111
          Frozen-core window.
          Using MO integrals in the linear equations.
          Forming densities via direct SCF.
          Differentiating once with respect to electric field.
                with respect to dipole field.
          Differentiating once with respect to nuclear coordinates.
          Using symmetry in CPHF.
          Requested convergence is 1.0D-10 RMS, and 1.0D-09 maximum.
          NewPWx=F KeepS1=T KeepF1=T KeepIn=T MapXYZ=F SortEE=F KeepMc=T.
          MDV=   16106127360 using IRadAn=       5.
          Solving linear equations separately, MaxMat=       0.
          There are     1 degrees of freedom in the 1st order CPHF.  IDoFFX=0 NUNeed=     1.
 FoFJK:  IHMeth= 1 ICntrl=       0 DoSepK=F KAlg= 0 I1Cent=           0 FoldK=F
 IRaf=         0 NMat=       1 IRICut=       1 DoRegI=T DoRafI=F ISym2E= 0 IDoP0=0 IntGTp=1.
 FoFCou: FMM=F IPFlag=           0 FMFlag=      100000 FMFlg1=           0
         NFxFlg=           0 DoJE=F BraDBF=F KetDBF=F FulRan=T
         wScrn=  0.000000 ICntrl=         0 IOpCl=  0 I1Cent=           0 NGrid=           0
         NMat0=    1 NMatS0=      1 NMatT0=    0 NMatD0=    1 NMtDS0=    0 NMtDT0=    0
 Symmetry not used in FoFCou.
 LinEq1:  Iter=  0 NonCon=     1 RMS=5.99D-03 Max=1.34D-01 NDo=     1
 LinEq1:  Iter=  1 NonCon=     1 RMS=1.92D-03 Max=3.84D-02 NDo=     1
 LinEq1:  Iter=  2 NonCon=     1 RMS=8.74D-04 Max=1.41D-02 NDo=     1
 LinEq1:  Iter=  3 NonCon=     1 RMS=3.89D-04 Max=7.83D-03 NDo=     1
 LinEq1:  Iter=  4 NonCon=     1 RMS=1.21D-04 Max=1.96D-03 NDo=     1
 LinEq1:  Iter=  5 NonCon=     1 RMS=4.77D-05 Max=7.60D-04 NDo=     1
 LinEq1:  Iter=  6 NonCon=     1 RMS=2.11D-05 Max=2.39D-04 NDo=     1
 LinEq1:  Iter=  7 NonCon=     1 RMS=8.39D-06 Max=1.58D-04 NDo=     1
 LinEq1:  Iter=  8 NonCon=     1 RMS=3.53D-06 Max=3.46D-05 NDo=     1
 LinEq1:  Iter=  9 NonCon=     1 RMS=9.49D-07 Max=1.32D-05 NDo=     1
 LinEq1:  Iter= 10 NonCon=     1 RMS=1.86D-07 Max=2.01D-06 NDo=     1
 LinEq1:  Iter= 11 NonCon=     1 RMS=3.44D-08 Max=3.51D-07 NDo=     1
 LinEq1:  Iter= 12 NonCon=     1 RMS=8.32D-09 Max=1.24D-07 NDo=     1
 LinEq1:  Iter= 13 NonCon=     1 RMS=1.51D-09 Max=2.58D-08 NDo=     1
 LinEq1:  Iter= 14 NonCon=     1 RMS=2.74D-10 Max=3.83D-09 NDo=     1
 LinEq1:  Iter= 15 NonCon=     0 RMS=4.84D-11 Max=5.60D-10 NDo=     1
 Linear equations converged to 1.000D-10 1.000D-09 after    15 iterations.
 End of Minotr F.D. properties file   721 does not exist.
 End of Minotr F.D. properties file   722 does not exist.
 End of Minotr F.D. properties file   788 does not exist.
 Leave Link 1002 at Mon Feb 21 20:54:50 2022, MaxMem= 16106127360 cpu:              62.9 elap:               2.3
 (Enter /sw/contrib/gaussian/g16/B01/g16/l1102.exe)
 Use density number 2.
 Symmetrizing basis deriv contribution to polar:
 IMax=3 JMax=2 DiffMx= 0.00D+00
 Leave Link 1102 at Mon Feb 21 20:54:50 2022, MaxMem= 16106127360 cpu:               0.6 elap:               0.1
 (Enter /sw/contrib/gaussian/g16/B01/g16/l1110.exe)
 Forming Gx(P) for generalized density number  2 NAtomX=     5.
 Integral derivatives from FoFJK, PRISM(SPDF).
 Do as many integral derivatives as possible in FoFJK.
 G2DrvN: MDV=   16106126844.
 G2DrvN: will do     6 centers at a time, making    1 passes.
 Calling FoFCou, ICntrl=  3107 FMM=F I1Cent=   0 AccDes= 0.00D+00.
 FoFJK:  IHMeth= 1 ICntrl=    3107 DoSepK=F KAlg= 0 I1Cent=           0 FoldK=F
 IRaf=         0 NMat=       1 IRICut=       1 DoRegI=T DoRafI=F ISym2E= 1 IDoP0=0 IntGTp=1.
 FoFCou: FMM=F IPFlag=           0 FMFlag=      100000 FMFlg1=           0
         NFxFlg=           0 DoJE=F BraDBF=F KetDBF=F FulRan=T
         wScrn=  0.000000 ICntrl=      3107 IOpCl=  0 I1Cent=           0 NGrid=           0
         NMat0=    1 NMatS0=      1 NMatT0=    0 NMatD0=    1 NMtDS0=    0 NMtDT0=    0
 Petite list used in FoFCou.
 End of G2Drv F.D. properties file   721 does not exist.
 End of G2Drv F.D. properties file   722 does not exist.
 End of G2Drv F.D. properties file   788 does not exist.
 Leave Link 1110 at Mon Feb 21 20:54:53 2022, MaxMem= 16106127360 cpu:              83.4 elap:               3.0
 (Enter /sw/contrib/gaussian/g16/B01/g16/l1112.exe)
 MP22nd: MDV=   16106127360
 This link is doing NAtomX=     5 total of    18 degrees of freedom.
 Using ON3 I/O method in MakUI.
 Frozen-core window:  NFC=   4 NFV=   0.
 Using Ix for Sx.
 Use MO integrals over full window.
 Using OV2 memory method for fx*t*t/D, MaxI=    16 DoOO2=F NP=  28.
 R2 and R3 integrals will be kept in memory, NReq=   915591705.
 FoFCou: FMM=F IPFlag=           0 FMFlag=           0 FMFlg1=           0
         NFxFlg=           0 DoJE=F BraDBF=F KetDBF=F FulRan=T
         wScrn=  0.000000 ICntrl=       600 IOpCl=  0 I1Cent=           0 NGrid=           0
         NMat0=    1 NMatS0=      1 NMatT0=    0 NMatD0=    1 NMtDS0=    0 NMtDT0=    0
 Symmetry not used in FoFCou.
 DD1Dir will call FoFMem   1 times, MxPair=       272
 NAB=   136 NAA=     0 NBB=     0.
 Symmetry is being used.
 FoFJK:  IHMeth= 1 ICntrl=       0 DoSepK=F KAlg= 0 I1Cent=           0 FoldK=F
 IRaf=         0 NMat=      18 IRICut=      45 DoRegI=T DoRafI=T ISym2E= 2 IDoP0=3 IntGTp=3.
 Discarding MO integrals.
 Leave Link 1112 at Mon Feb 21 20:55:25 2022, MaxMem= 16106127360 cpu:             891.8 elap:              32.2
 (Enter /sw/contrib/gaussian/g16/B01/g16/l601.exe)
 Copying SCF densities to generalized density rwf, IOpCl= 0 IROHF=0.

 **********************************************************************

            Population analysis using the MP2 Density.

 **********************************************************************

 Orbital symmetries:
       Occupied  (A') (A') (A') (A') (A') (A') (A') (A') (A') (A')
                 (A") (A') (A") (A') (A") (A')
       Virtual   (A') (A") (A') (A') (A') (A") (A') (A') (A") (A')
                 (A") (A') (A') (A') (A") (A') (A') (A") (A') (A')
                 (A') (A') (A') (A') (A") (A') (A') (A") (A') (A')
                 (A") (A') (A") (A') (A') (A") (A') (A') (A") (A')
                 (A") (A') (A") (A') (A') (A") (A') (A') (A") (A')
                 (A") (A') (A') (A') (A") (A') (A") (A') (A") (A')
                 (A') (A') (A") (A') (A') (A") (A') (A") (A') (A')
                 (A") (A') (A') (A") (A") (A') (A') (A") (A') (A')
                 (A') (A") (A') (A") (A') (A") (A') (A") (A') (A')
                 (A") (A') (A') (A") (A') (A") (A') (A") (A') (A')
                 (A") (A') (A") (A') (A') (A") (A') (A') (A") (A')
                 (A") (A') (A') (A') (A") (A') (A') (A') (A") (A')
                 (A") (A') (A") (A') (A') (A") (A") (A') (A") (A')
                 (A') (A') (A') (A") (A") (A") (A') (A') (A') (A')
                 (A") (A') (A") (A') (A') (A") (A') (A') (A') (A')
                 (A") (A') (A') (A") (A') (A") (A') (A") (A') (A")
                 (A') (A") (A') (A') (A") (A") (A") (A') (A") (A')
                 (A") (A') (A") (A') (A") (A') (A") (A") (A') (A')
                 (A') (A') (A') (A') (A') (A') (A') (A') (A') (A')
                 (A')
 The electronic state is 1-A'.
 Alpha  occ. eigenvalues --  -20.69154 -20.68484 -20.66096 -15.81227  -1.62275
 Alpha  occ. eigenvalues --   -1.49688  -1.25565  -0.94767  -0.77361  -0.75867
 Alpha  occ. eigenvalues --   -0.71151  -0.67977  -0.62106  -0.59076  -0.48595
 Alpha  occ. eigenvalues --   -0.47053
 Alpha virt. eigenvalues --    0.02951   0.07233   0.08563   0.10173   0.13404
 Alpha virt. eigenvalues --    0.13405   0.14402   0.15463   0.17809   0.19423
 Alpha virt. eigenvalues --    0.19975   0.20604   0.22081   0.23388   0.23717
 Alpha virt. eigenvalues --    0.26494   0.29459   0.30439   0.31074   0.34291
 Alpha virt. eigenvalues --    0.34997   0.38667   0.42134   0.43113   0.52587
 Alpha virt. eigenvalues --    0.53049   0.55916   0.58322   0.62687   0.63486
 Alpha virt. eigenvalues --    0.67402   0.68416   0.70879   0.71066   0.72462
 Alpha virt. eigenvalues --    0.72981   0.74625   0.78903   0.79128   0.80951
 Alpha virt. eigenvalues --    0.81213   0.82995   0.86830   0.90722   0.92158
 Alpha virt. eigenvalues --    0.92300   0.95678   0.98040   0.98430   1.01585
 Alpha virt. eigenvalues --    1.05220   1.05460   1.08153   1.11840   1.14025
 Alpha virt. eigenvalues --    1.18863   1.22400   1.23193   1.33809   1.34839
 Alpha virt. eigenvalues --    1.38343   1.45110   1.48809   1.51056   1.53920
 Alpha virt. eigenvalues --    1.56533   1.58014   1.61424   1.66333   1.66753
 Alpha virt. eigenvalues --    1.70470   1.79353   1.83343   1.83378   1.87558
 Alpha virt. eigenvalues --    1.91239   1.95542   1.99047   2.01016   2.07368
 Alpha virt. eigenvalues --    2.11857   2.13380   2.14826   2.22250   2.26051
 Alpha virt. eigenvalues --    2.26344   2.28991   2.31416   2.33976   2.38601
 Alpha virt. eigenvalues --    2.42140   2.42862   2.45728   2.46755   2.47582
 Alpha virt. eigenvalues --    2.50232   2.58981   2.59390   2.61599   2.62757
 Alpha virt. eigenvalues --    2.63501   2.66380   2.76251   2.83474   2.86461
 Alpha virt. eigenvalues --    2.87434   2.89467   2.90553   2.96539   3.02244
 Alpha virt. eigenvalues --    3.07352   3.11568   3.20490   3.23084   3.31360
 Alpha virt. eigenvalues --    3.34680   3.50581   3.64989   3.83858   3.84488
 Alpha virt. eigenvalues --    4.14760   4.15737   4.18271   4.25722   4.35603
 Alpha virt. eigenvalues --    4.39283   4.46332   4.51790   4.66866   4.70892
 Alpha virt. eigenvalues --    4.80845   4.81876   4.82666   4.89474   5.02133
 Alpha virt. eigenvalues --    5.07875   5.09854   5.14191   5.18572   5.24028
 Alpha virt. eigenvalues --    5.26928   5.31251   5.32827   5.35926   5.61020
 Alpha virt. eigenvalues --    5.67352   5.75136   5.82933   5.95815   6.16734
 Alpha virt. eigenvalues --    6.30629   6.34031   6.39362   6.49049   6.50113
 Alpha virt. eigenvalues --    6.61206   6.66753   6.69304   6.75662   6.76118
 Alpha virt. eigenvalues --    6.82491   6.90409   7.01244   7.05451   7.05686
 Alpha virt. eigenvalues --    7.08778   7.12634   7.14665   7.18049   7.22409
 Alpha virt. eigenvalues --    7.24061   7.30684   7.32465   7.34841   7.40036
 Alpha virt. eigenvalues --    7.43283   7.48669   7.60610   7.61475   7.63075
 Alpha virt. eigenvalues --    7.66031   7.77943   7.89543   8.09156   8.31398
 Alpha virt. eigenvalues --    8.40914   8.54540  13.37607  14.41225  15.15270
 Alpha virt. eigenvalues --   16.15043
          Condensed to atoms (all electrons):
               1          2          3          4          5
     1  H    0.589420   0.128833   0.019870   0.012274  -0.000695
     2  O    0.128833   8.317121  -0.170917  -0.091963   0.015156
     3  O    0.019870  -0.170917   8.469958  -0.136414  -0.033198
     4  N    0.012274  -0.091963  -0.136414   6.984536  -0.058359
     5  O   -0.000695   0.015156  -0.033198  -0.058359   8.269790
 Mulliken charges:
               1
     1  H    0.250299
     2  O   -0.198230
     3  O   -0.149299
     4  N    0.289925
     5  O   -0.192695
 Sum of Mulliken charges =  -0.00000
 Mulliken charges with hydrogens summed into heavy atoms:
               1
     2  O    0.052068
     3  O   -0.149299
     4  N    0.289925
     5  O   -0.192695
 APT charges:
               1
     1  H    0.300338
     2  O   -0.286425
     3  O   -0.507047
     4  N    0.887701
     5  O   -0.394567
 Sum of APT charges =  -0.00000
 APT charges with hydrogens summed into heavy atoms:
               1
     2  O    0.013913
     3  O   -0.507047
     4  N    0.887701
     5  O   -0.394567
 Electronic spatial extent (au):  <R**2>=            254.1661
 Charge=              0.0000 electrons
 Dipole moment (field-independent basis, Debye):
    X=              0.5031    Y=              1.3807    Z=              0.0000  Tot=              1.4695
 Quadrupole moment (field-independent basis, Debye-Ang):
   XX=            -22.4188   YY=            -18.6261   ZZ=            -22.0183
   XY=              3.2944   XZ=             -0.0000   YZ=              0.0000
 Traceless Quadrupole moment (field-independent basis, Debye-Ang):
   XX=             -1.3977   YY=              2.3950   ZZ=             -0.9972
   XY=              3.2944   XZ=             -0.0000   YZ=              0.0000
 Octapole moment (field-independent basis, Debye-Ang**2):
  XXX=              2.9429  YYY=             11.3224  ZZZ=             -0.0000  XYY=              7.9563
  XXY=              6.5993  XXZ=              0.0000  XZZ=             -1.5685  YZZ=             -0.8626
  YYZ=              0.0000  XYZ=              0.0000
 Hexadecapole moment (field-independent basis, Debye-Ang**3):
 XXXX=           -158.2237 YYYY=            -91.0678 ZZZZ=            -18.2648 XXXY=            -37.0366
 XXXZ=             -0.0000 YYYX=            -31.0800 YYYZ=             -0.0000 ZZZX=             -0.0000
 ZZZY=             -0.0000 XXYY=            -33.9687 XXZZ=            -30.8538 YYZZ=            -20.9199
 XXYZ=             -0.0000 YYXZ=             -0.0000 ZZXY=            -15.2290
 N-N= 1.166837474338D+02 E-N=-8.954626285758D+02  KE= 2.801876315775D+02
 Symmetry A'   KE= 2.662202124023D+02
 Symmetry A"   KE= 1.396741917518D+01
  Exact polarizability:  34.041   9.617  30.492   0.000   0.000  17.957
 Approx polarizability:  28.961   5.308  23.687   0.000   0.000  15.536
 No NMR shielding tensors so no spin-rotation constants.
 Leave Link  601 at Mon Feb 21 20:55:26 2022, MaxMem= 16106127360 cpu:               4.2 elap:               0.2
 (Enter /sw/contrib/gaussian/g16/B01/g16/l701.exe)
 ... and contract with generalized density number  2.
 Compute integral second derivatives.
 Leave Link  701 at Mon Feb 21 20:55:26 2022, MaxMem= 16106127360 cpu:               6.2 elap:               0.2
 (Enter /sw/contrib/gaussian/g16/B01/g16/l702.exe)
 L702 exits ... SP integral derivatives will be done elsewhere.
 Leave Link  702 at Mon Feb 21 20:55:26 2022, MaxMem= 16106127360 cpu:               1.7 elap:               0.1
 (Enter /sw/contrib/gaussian/g16/B01/g16/l703.exe)
 Integral derivatives from FoFJK, PRISM(SPDF).
 Compute integral second derivatives, UseDBF=F ICtDFT=           0.
 Calling FoFJK, ICntrl=  10100127 FMM=F ISym2X=1 I1Cent= 0 IOpClX= 0 NMat=1 NMatS=1 NMatT=0.
 FoFJK:  IHMeth= 1 ICntrl=10100127 DoSepK=F KAlg= 0 I1Cent=           0 FoldK=F
 IRaf=         0 NMat=       1 IRICut=       1 DoRegI=T DoRafI=F ISym2E= 1 IDoP0=0 IntGTp=1.
 FoFCou: FMM=F IPFlag=           0 FMFlag=      100000 FMFlg1=         800
         NFxFlg=           0 DoJE=F BraDBF=F KetDBF=F FulRan=T
         wScrn=  0.000000 ICntrl=  10100127 IOpCl=  0 I1Cent=           0 NGrid=           0
         NMat0=    1 NMatS0=      1 NMatT0=    0 NMatD0=    1 NMtDS0=    0 NMtDT0=    0
 Petite list used in FoFCou.
 Leave Link  703 at Mon Feb 21 20:55:41 2022, MaxMem= 16106127360 cpu:             427.9 elap:              15.3
 (Enter /sw/contrib/gaussian/g16/B01/g16/l716.exe)
 Dipole        = 1.97947970D-01 5.43193349D-01 8.61684943D-33
 Polarizability= 3.40409802D+01 9.61735134D+00 3.04922458D+01
                 9.46372198D-31 8.61569901D-31 1.79570644D+01
 Full mass-weighted force constant matrix:
 Low frequencies --- -274.4624 -102.5164   -0.0009   -0.0008    0.0009   24.8478
 Low frequencies ---   39.6934  228.3925  340.4641
 ******    1 imaginary frequencies (negative Signs) ****** 
 Diagonal vibrational polarizability:
       14.7197888      27.0382565      45.0610887
 Harmonic frequencies (cm**-1), IR intensities (KM/Mole), Raman scattering
 activities (A**4/AMU), depolarization ratios for plane and unpolarized
 incident light, reduced masses (AMU), force constants (mDyne/A),
 and normal coordinates:
                      1                      2                      3
                     A"                     A"                     A'
 Frequencies --   -274.3946               226.5135               340.4597
 Red. masses --      1.1452                 9.9038                 8.5621
 Frc consts  --      0.0508                 0.2994                 0.5847
 IR Inten    --    124.2705                 1.2278                 7.4306
  Atom  AN      X      Y      Z        X      Y      Z        X      Y      Z
     1   1     0.00   0.00   1.00     0.00   0.00  -0.61     0.55  -0.43   0.00
     2   8     0.00   0.00  -0.07     0.00  -0.00  -0.29    -0.08  -0.37   0.00
     3   8     0.00   0.00  -0.04     0.00   0.00   0.31    -0.14   0.44  -0.00
     4   7    -0.00  -0.00   0.06    -0.00  -0.00   0.52     0.03   0.24  -0.00
     5   8    -0.00  -0.00  -0.01    -0.00  -0.00  -0.43     0.16  -0.26   0.00
                      4                      5                      6
                     A'                     A'                     A'
 Frequencies --    438.3584               787.3589               965.9032
 Red. masses --     12.5194                12.9030                15.2763
 Frc consts  --      1.4174                 4.7129                 8.3972
 IR Inten    --    198.7774               176.9205                25.5176
  Atom  AN      X      Y      Z        X      Y      Z        X      Y      Z
     1   1     0.38   0.22   0.00    -0.34   0.19  -0.00    -0.19  -0.04   0.00
     2   8     0.33   0.22   0.00     0.42   0.08  -0.00    -0.52   0.03   0.00
     3   8     0.19   0.42  -0.00    -0.07  -0.27   0.00     0.74  -0.03  -0.00
     4   7    -0.35  -0.41  -0.00    -0.15   0.62   0.00    -0.12   0.25  -0.00
     5   8    -0.23  -0.30   0.00    -0.20  -0.37  -0.00    -0.11  -0.22   0.00
                      7                      8                      9
                     A'                     A'                     A'
 Frequencies --   1370.9076              1676.8237              3778.9719
 Red. masses --      1.1338                13.1374                 1.0676
 Frc consts  --      1.2554                21.7639                 8.9823
 IR Inten    --    155.9327               145.0049                83.7744
  Atom  AN      X      Y      Z        X      Y      Z        X      Y      Z
     1   1     0.99  -0.05   0.00    -0.35   0.01  -0.00     0.10   0.99  -0.00
     2   8    -0.03   0.05   0.00    -0.00  -0.04  -0.00    -0.01  -0.06  -0.00
     3   8    -0.02  -0.05  -0.00    -0.00   0.15   0.00     0.00   0.00   0.00
     4   7     0.02   0.01  -0.00     0.70  -0.04   0.00    -0.00  -0.00   0.00
     5   8    -0.03  -0.01   0.00    -0.59  -0.08  -0.00     0.00   0.00  -0.00

 -------------------
 - Thermochemistry -
 -------------------
 Temperature   298.150 Kelvin.  Pressure   1.00000 Atm.
 Atom     1 has atomic number  1 and mass   1.00783
 Atom     2 has atomic number  8 and mass  15.99491
 Atom     3 has atomic number  8 and mass  15.99491
 Atom     4 has atomic number  7 and mass  14.00307
 Atom     5 has atomic number  8 and mass  15.99491
 Molecular mass:    62.99564 amu.
 Principal axes and moments of inertia in atomic units:
                           1         2         3
     Eigenvalues --    32.59865 362.89474 395.49339
           X            0.80650  -0.59123   0.00000
           Y            0.59123   0.80650   0.00000
           Z           -0.00000   0.00000   1.00000
 This molecule is an asymmetric top.
 Rotational symmetry number  1.
 Rotational temperatures (Kelvin)      2.65698     0.23868     0.21900
 Rotational constants (GHZ):          55.36246     4.97318     4.56327
    1 imaginary frequencies ignored.
 Zero-point vibrational energy      57332.8 (Joules/Mol)
                                   13.70287 (Kcal/Mol)
 Warning -- explicit consideration of   3 degrees of freedom as
           vibrations may cause significant error
 Vibrational temperatures:    325.90   489.85   630.70  1132.83  1389.72
          (Kelvin)           1972.43  2412.58  5437.10
 
 Zero-point correction=                           0.021837 (Hartree/Particle)
 Thermal correction to Energy=                    0.025971
 Thermal correction to Enthalpy=                  0.026915
 Thermal correction to Gibbs Free Energy=        -0.004303
 Sum of electronic and zero-point Energies=           -280.424717
 Sum of electronic and thermal Energies=              -280.420583
 Sum of electronic and thermal Enthalpies=            -280.419639
 Sum of electronic and thermal Free Energies=         -280.450857
 
                     E (Thermal)             CV                S
                      KCal/Mol        Cal/Mol-Kelvin    Cal/Mol-Kelvin
 Total                   16.297             11.988             65.703
 Electronic               0.000              0.000              0.000
 Translational            0.889              2.981             38.341
 Rotational               0.889              2.981             23.063
 Vibrational             14.519              6.026              4.299
 Vibration     1          0.650              1.801              1.906
 Vibration     2          0.720              1.595              1.210
 Vibration     3          0.799              1.387              0.832
                       Q            Log10(Q)             Ln(Q)
 Total Bot       0.953177D+02          1.979174          4.557216
 Total V=0       0.105547D+13         12.023447         27.685011
 Vib (Bot)       0.198084D-09         -9.703151        -22.342332
 Vib (Bot)    1  0.870838D+00         -0.060063         -0.138299
 Vib (Bot)    2  0.545236D+00         -0.263416         -0.606537
 Vib (Bot)    3  0.394874D+00         -0.403541         -0.929188
 Vib (V=0)       0.219342D+01          0.341122          0.785464
 Vib (V=0)    1  0.150417D+01          0.177297          0.408242
 Vib (V=0)    2  0.123979D+01          0.093346          0.214938
 Vib (V=0)    3  0.113712D+01          0.055807          0.128501
 Electronic      0.100000D+01          0.000000          0.000000
 Translational   0.196526D+08          7.293420         16.793719
 Rotational      0.244853D+05          4.388905         10.105828
 
                                                                title
                                                             IR Spectrum
 
     3                                                                      1         1                                              
     7                                                                      6         3             9     7           4  3   2       
     7                                                                      7         7             6     8           3  4   2       
     9                                                                      7         1             6     7           8  0   7       
 
     X                                                                      X         X             X     X           X  X   X       
     X                                                                      X         X             X     X           X              
     X                                                                      X         X             X     X           X              
     X                                                                      X         X                   X           X              
     X                                                                      X         X                   X           X              
     X                                                                      X         X                   X           X              
     X                                                                      X         X                   X           X              
     X                                                                      X         X                   X           X              
                                                                            X         X                   X           X              
                                                                            X         X                   X           X              
                                                                            X         X                   X           X              
                                                                            X         X                   X           X              
                                                                            X         X                   X           X              
                                                                            X         X                   X           X              
                                                                            X         X                   X           X              
                                                                                      X                   X           X              
                                                                                                          X           X              
                                                                                                          X           X              
                                                                                                                      X              
                                                                                                                      X              
 
 ***** Axes restored to original set *****
 -------------------------------------------------------------------
 Center     Atomic                   Forces (Hartrees/Bohr)
 Number     Number              X              Y              Z
 -------------------------------------------------------------------
      1        1           0.000384452   -0.000000000   -0.000031429
      2        8           0.000690940    0.000000000    0.001408374
      3        8           0.004663530   -0.000000000   -0.001007497
      4        7          -0.005611114    0.000000000    0.005790352
      5        8          -0.000127808   -0.000000000   -0.006159800
 -------------------------------------------------------------------
 Cartesian Forces:  Max     0.006159800 RMS     0.002925127
 -----------------------------------------------------------------------------------------------
                       Internal Coordinate Forces (Hartree/Bohr or radian)
  Cent   Atom   N1       Length/X         N2         Alpha/Y        N3         Beta/Z          J
 -----------------------------------------------------------------------------------------------
      1  H 
      2  O        1   0.000031(     1)
      3  O        2  -0.001248(     2)      1  -0.000704(     5)
      4  N        3  -0.000839(     3)      2  -0.002658(     6)      1  -0.000000(     8)     0
      5  O        4  -0.001815(     4)      3  -0.013026(     7)      2   0.000000(     9)     0
 -----------------------------------------------------------------------------------------------
 Internal  Forces:  Max     0.013025930 RMS     0.004506654
 Force constants in Cartesian coordinates: 
                1             2             3             4             5 
      1  0.646396D-01
      2  0.000000D+00 -0.243350D-02
      3  0.513448D-02  0.000000D+00  0.512439D+00
      4 -0.358845D-01  0.000000D+00 -0.162568D-01  0.272184D+00
      5  0.000000D+00  0.323011D-02  0.000000D+00  0.000000D+00  0.208866D-02
      6  0.484018D-01  0.000000D+00 -0.508581D+00  0.324860D-01  0.000000D+00
      7 -0.183551D-01  0.000000D+00  0.126894D-01 -0.220742D+00  0.000000D+00
      8  0.000000D+00  0.934879D-03  0.000000D+00  0.000000D+00 -0.624921D-02
      9 -0.531404D-01  0.000000D+00 -0.322868D-03 -0.192843D-01  0.000000D+00
     10 -0.949453D-02  0.000000D+00 -0.490870D-02 -0.162192D-01  0.000000D+00
     11  0.000000D+00 -0.275541D-02  0.000000D+00  0.000000D+00 -0.545988D-02
     12  0.523346D-02  0.000000D+00 -0.508273D-02  0.113062D-01  0.000000D+00
     13 -0.905521D-03  0.000000D+00  0.334162D-02  0.662016D-03  0.000000D+00
     14  0.000000D+00  0.102391D-02  0.000000D+00  0.000000D+00  0.639032D-02
     15 -0.562928D-02  0.000000D+00  0.154788D-02 -0.825110D-02  0.000000D+00
                6             7             8             9            10 
      6  0.594763D+00
      7 -0.208196D-01  0.339483D+00
      8  0.000000D+00  0.000000D+00  0.298223D-02
      9 -0.786508D-01  0.309480D-01  0.000000D+00  0.178149D+00
     10 -0.533698D-01 -0.809198D-01  0.000000D+00  0.178901D+00  0.826883D+00
     11  0.000000D+00  0.000000D+00  0.115804D-01  0.000000D+00  0.000000D+00
     12  0.165589D-01  0.642156D-01  0.000000D+00 -0.787728D-01 -0.605028D-02
     13 -0.669838D-02 -0.194660D-01  0.000000D+00 -0.137424D+00 -0.720249D+00
     14  0.000000D+00  0.000000D+00 -0.924831D-02  0.000000D+00  0.000000D+00
     15 -0.240896D-01 -0.870335D-01  0.000000D+00 -0.204023D-01 -0.114572D+00
               11            12            13            14            15 
     11  0.416420D-02
     12  0.000000D+00  0.190073D+00
     13  0.000000D+00 -0.747050D-01  0.739959D+00
     14 -0.752932D-02  0.000000D+00  0.000000D+00  0.936339D-02
     15  0.000000D+00 -0.122776D+00  0.215486D+00  0.000000D+00  0.165720D+00
 Force constants in internal coordinates: 
                1             2             3             4             5 
      1  0.512439D+00
      2 -0.105149D-01  0.280277D+00
      3  0.365142D-02  0.160776D-02  0.113643D+00
      4 -0.363825D-02  0.525585D-02  0.150492D+00  0.810457D+00
      5  0.978623D-02  0.651481D-01  0.228376D-02  0.442540D-02  0.216790D+00
      6  0.476880D-02  0.581462D-01  0.417321D-01  0.197732D-01  0.312359D-01
      7 -0.126227D-02  0.351899D-01  0.224083D-01  0.751848D-01  0.209212D-01
      8  0.000000D+00  0.000000D+00  0.000000D+00  0.000000D+00  0.000000D+00
      9  0.000000D+00  0.000000D+00  0.000000D+00  0.000000D+00  0.000000D+00
                6             7             8             9 
      6  0.282860D+00
      7  0.935278D-01  0.462049D+00
      8  0.000000D+00  0.000000D+00 -0.786739D-02
      9  0.000000D+00  0.000000D+00 -0.384689D-02  0.409146D-01
 Leave Link  716 at Mon Feb 21 20:55:41 2022, MaxMem= 16106127360 cpu:               0.8 elap:               0.1
 (Enter /sw/contrib/gaussian/g16/B01/g16/l103.exe)

 GradGradGradGradGradGradGradGradGradGradGradGradGradGradGradGradGradGrad
 Berny optimization.
 Search for a local minimum.
 Step number   1 out of a maximum of    2
 All quantities printed in internal units (Hartrees-Bohrs-Radians)
 Second derivative matrix not updated -- analytic derivatives used.
 The second derivative matrix:
                          r1        r2        r3        r4        a1
           r1           0.51244
           r2          -0.01051   0.28028
           r3           0.00365   0.00161   0.11364
           r4          -0.00364   0.00526   0.15049   0.81046
           a1           0.00979   0.06515   0.00228   0.00443   0.21679
           a2           0.00477   0.05815   0.04173   0.01977   0.03124
           a3          -0.00126   0.03519   0.02241   0.07518   0.02092
           d1           0.00000   0.00000   0.00000   0.00000   0.00000
           d2           0.00000  -0.00000  -0.00000  -0.00000  -0.00000
                          a2        a3        d1        d2
           a2           0.28286
           a3           0.09353   0.46205
           d1           0.00000   0.00000  -0.00787
           d2          -0.00000  -0.00000  -0.00385   0.04091
 ITU=  0
     Eigenvalues ---   -0.00817   0.04122   0.07518   0.17525   0.22602
     Eigenvalues ---    0.32259   0.50467   0.51320   0.86160
 Eigenvalue     1 is  -8.17D-03 should be greater than     0.000000 Eigenvector:
                          d1        d2        r3        a2        a3
   1                    0.99694   0.07813  -0.00000  -0.00000   0.00000
                          a1        r4        r2        r1
   1                    0.00000  -0.00000  -0.00000  -0.00000
 Angle between quadratic step and forces=  16.73 degrees.
 Linear search not attempted -- first point.
 Variable       Old X    -DE/DX   Delta X   Delta X   Delta X     New X
                                 (Linear)    (Quad)   (Total)
    r1        1.83110   0.00003   0.00000   0.00000   0.00000   1.83110
    r2        2.74940  -0.00125   0.00000  -0.00096  -0.00096   2.74844
    r3        2.75670  -0.00084   0.00000  -0.00332  -0.00332   2.75338
    r4        2.21236  -0.00181   0.00000   0.00099   0.00099   2.21335
    a1        1.70335  -0.00070   0.00000  -0.00031  -0.00031   1.70305
    a2        1.78543  -0.00266   0.00000   0.00059   0.00059   1.78602
    a3        1.93110  -0.01303   0.00000  -0.02822  -0.02822   1.90288
    d1        3.14159  -0.00000   0.00000  -0.00000   0.00000   3.14159
    d2        3.14159   0.00000   0.00000   0.00000   0.00000   3.14159
         Item               Value     Threshold  Converged?
 Maximum Force            0.013026     0.000450     NO 
 RMS     Force            0.004507     0.000300     NO 
 Maximum Displacement     0.028224     0.001800     NO 
 RMS     Displacement     0.009487     0.001200     NO 
 Predicted change in Energy=-1.842399D-04
                       ----------------------------
                       ! Non-Optimized Parameters !
                       ! (Angstroms and Degrees)  !
 ----------------------                            ----------------------
 !      Name          Value   Derivative information (Atomic Units)     !
 ------------------------------------------------------------------------
 !       r1          0.969    -DE/DX =    0.0                           !
 !       r2          1.4544   -DE/DX =   -0.0012                        !
 !       r3          1.457    -DE/DX =   -0.0008                        !
 !       r4          1.1713   -DE/DX =   -0.0018                        !
 !       a1         97.5775   -DE/DX =   -0.0007                        !
 !       a2        102.3312   -DE/DX =   -0.0027                        !
 !       a3        109.027    -DE/DX =   -0.013                         !
 !       d1        180.0      -DE/DX =    0.0                           !
 !       d2        180.0      -DE/DX =    0.0                           !
 ------------------------------------------------------------------------
 GradGradGradGradGradGradGradGradGradGradGradGradGradGradGradGradGradGrad

 Leave Link  103 at Mon Feb 21 20:55:41 2022, MaxMem= 16106127360 cpu:               1.9 elap:               0.1
 (Enter /sw/contrib/gaussian/g16/B01/g16/l9999.exe)

 ----------------------------------------------------------------------

 Electric dipole moment (input orientation):
 (Debye = 10**-18 statcoulomb cm , SI units = C m)
                  (au)            (Debye)         (10**-30 SI)
   Tot        0.578137D+00      0.146948D+01      0.490165D+01
   x         -0.142616D+00     -0.362493D+00     -0.120915D+01
   y          0.000000D+00      0.000000D+00      0.000000D+00
   z         -0.560271D+00     -0.142407D+01     -0.475017D+01

 Dipole polarizability, Alpha (input orientation).
 (esu units = cm**3 , SI units = C**2 m**2 J**-1)
 Alpha(0;0):
               (au)            (10**-24 esu)      (10**-40 SI)
   iso        0.274968D+02      0.407460D+01      0.453360D+01
   aniso      0.221741D+02      0.328586D+01      0.365601D+01
   xx         0.320909D+02      0.475539D+01      0.529108D+01
   yx         0.000000D+00      0.000000D+00      0.000000D+00
   yy         0.179571D+02      0.266096D+01      0.296072D+01
   zx         0.977809D+01      0.144896D+01      0.161219D+01
   zy         0.000000D+00      0.000000D+00      0.000000D+00
   zz         0.324423D+02      0.480745D+01      0.534901D+01

 ----------------------------------------------------------------------

 Dipole orientation:
     1          0.00000000         -0.00000000          0.00000000
     8         -0.45169818         -0.00000000         -1.77451126
     8          2.09972007          0.00000000         -2.79894280
     7          1.64100096          0.00000000         -5.51721148
     8          3.55264381          0.00000000         -6.63082930

 Electric dipole moment (dipole orientation):
 (Debye = 10**-18 statcoulomb cm , SI units = C m)
                  (au)            (Debye)         (10**-30 SI)
   Tot        0.578137D+00      0.146948D+01      0.490165D+01
   x          0.000000D+00      0.000000D+00      0.000000D+00
   y          0.000000D+00      0.000000D+00      0.000000D+00
   z          0.578137D+00      0.146948D+01      0.490165D+01

 Dipole polarizability, Alpha (dipole orientation).
 (esu units = cm**3 , SI units = C**2 m**2 J**-1)
 Alpha(0;0):
               (au)            (10**-24 esu)      (10**-40 SI)
   iso        0.274968D+02      0.407460D+01      0.453360D+01
   aniso      0.221741D+02      0.328586D+01      0.365601D+01
   xx         0.274373D+02      0.406578D+01      0.452379D+01
   yx         0.000000D+00      0.000000D+00      0.000000D+00
   yy         0.179571D+02      0.266096D+01      0.296072D+01
   zx        -0.850407D+01     -0.126017D+01     -0.140213D+01
   zy         0.000000D+00      0.000000D+00      0.000000D+00
   zz         0.370960D+02      0.549706D+01      0.611630D+01

 ----------------------------------------------------------------------
 1\1\GINC-N2126\Freq\RMP2-FC\Aug-CC-pVTZ\H1N1O3\CGAVINH\21-Feb-2022\1\\
 #p freq mp2/aug-cc-pvtz density=current\\title\\0,1\H\O,1,r1\O,2,r2,1,
 a1\N,3,r3,2,a2,1,d1,0\O,4,r4,3,a3,2,d2,0\\r1=0.96897556\r2=1.45491931\
 r3=1.45878406\r4=1.17072885\a1=97.59494903\a2=102.29752444\a3=110.6440
 6752\d1=180.\d2=180.\\Version=ES64L-G16RevB.01\State=1-A'\HF=-279.5013
 831\MP2=-280.4465538\RMSD=3.869e-09\RMSF=2.925e-03\ZeroPoint=0.0218369
 \Thermal=0.0259705\Dipole=-0.1426157,0.,-0.5602706\DipoleDeriv=0.26723
 ,0.,0.0487463,0.,0.3558393,0.,0.0834293,0.,0.2779455,-0.3249765,0.,-0.
 206085,0.,-0.313944,0.,-0.1090173,0.,-0.2203547,-0.0544244,0.,0.142226
 ,0.,-0.0846307,0.,-0.7591509,0.,-1.3820866,0.890825,0.,0.9169374,0.,0.
 0606446,0.,0.9352199,0.,1.7116345,-0.7786541,0.,-0.9018247,0.,-0.01790
 91,0.,-0.150481,0.,-0.3871387\Polar=32.0909423,0.,17.9570644,9.778086,
 0.,32.4422837\Quadrupole=-1.4985547,-0.7414164,2.2399711,0.,2.1196311,
 0.\PG=CS [SG(H1N1O3)]\NImag=1\\0.06463963,0.,-0.00243350,0.00513448,0.
 ,0.51243884,-0.03588450,0.,-0.01625678,0.27218381,0.,0.00323011,0.,0.,
 0.00208866,0.04840178,0.,-0.50858113,0.03248598,0.,0.59476254,-0.01835
 508,0.,0.01268937,-0.22074216,0.,-0.02081959,0.33948312,0.,0.00093488,
 0.,0.,-0.00624921,0.,0.,0.00298223,-0.05314044,0.,-0.00032287,-0.01928
 431,0.,-0.07865076,0.03094804,0.,0.17814875,-0.00949453,0.,-0.00490870
 ,-0.01621916,0.,-0.05336979,-0.08091983,0.,0.17890071,0.82688253,0.,-0
 .00275541,0.,0.,-0.00545988,0.,0.,0.01158041,0.,0.,0.00416420,0.005233
 46,0.,-0.00508273,0.01130621,0.,0.01655894,0.06421563,0.,-0.07877284,-
 0.00605028,0.,0.19007260,-0.00090552,0.,0.00334162,0.00066202,0.,-0.00
 669838,-0.01946604,0.,-0.13742400,-0.72024901,0.,-0.07470502,0.7399585
 6,0.,0.00102391,0.,0.,0.00639032,0.,0.,-0.00924831,0.,0.,-0.00752932,0
 .,0.,0.00936339,-0.00562928,0.,0.00154788,-0.00825110,0.,-0.02408959,-
 0.08703346,0.,-0.02040227,-0.11457194,0.,-0.12277598,0.21548579,0.,0.1
 6571997\\-0.00038445,0.,0.00003143,-0.00069094,0.,-0.00140837,-0.00466
 353,0.,0.00100750,0.00561111,0.,-0.00579035,0.00012781,0.,0.00615980\\
 \@


 EVERYTHING'S GOT A MORAL, IF ONLY YOU CAN FIND IT.

                                    -- LEWIS CARROL, ALICE IN WONDERLAND
 Job cpu time:       0 days  1 hours 58 minutes 57.1 seconds.
 Elapsed time:       0 days  0 hours  4 minutes 17.9 seconds.
 File lengths (MBytes):  RWF=   7239 Int=      0 D2E=      0 Chk=      8 Scr=      1
 Normal termination of Gaussian 16 at Mon Feb 21 20:55:42 2022.
