title                                                                   
Freq      RMP2-FC                                                     Aug-CC-pVTZ         
Number of atoms                            I                5
Info1-9                                    I   N=           9
          33          24           0           0           0         100
           6           2           1
Full Title                                 C   N=           1
title       
Route                                      C   N=           4
#p freq mp2/aug-cc-pvtz density=current         
Charge                                     I                0
Multiplicity                               I                1
Number of electrons                        I               32
Number of alpha electrons                  I               16
Number of beta electrons                   I               16
Number of basis functions                  I              207
Number of independent functions            I              207
Number of point charges in /Mol/           I                0
Number of translation vectors              I                0
Atomic numbers                             I   N=           5
           1           8           8           7           8
Nuclear charges                            R   N=           5
  1.00000000E+00  8.00000000E+00  8.00000000E+00  7.00000000E+00  8.00000000E+00
Current cartesian coordinates              R   N=          15
  2.07252373E+00 -1.16075164E+00  0.00000000E+00  2.47792763E+00  6.56673517E-01
  0.00000000E+00  2.12179908E-16  1.71924297E+00  0.00000000E+00 -1.85808273E+00
 -5.33981237E-02  0.00000000E+00 -1.11117071E+00 -2.18409917E+00  0.00000000E+00
Number of symbols in /Mol/                 I                0
Force Field                                I                0
Atom Types                                 C   N=           5
                                                            
Int Atom Types                             I   N=           5
           0           0           0           0           0
MM charges                                 R   N=           5
  0.00000000E+00  0.00000000E+00  0.00000000E+00  0.00000000E+00  0.00000000E+00
Integer atomic weights                     I   N=           5
           1          16          16          14          16
Real atomic weights                        R   N=           5
  1.00782504E+00  1.59949146E+01  1.59949146E+01  1.40030740E+01  1.59949146E+01
Atom fragment info                         I   N=           5
           0           0           0           0           0
Atom residue num                           I   N=           5
           0           0           0           0           0
Nuclear spins                              I   N=           5
           1           0           0           2           0
Nuclear ZEff                               R   N=           5
 -1.00000000E+00 -5.60000000E+00 -5.60000000E+00 -4.55000000E+00 -5.60000000E+00
Nuclear ZNuc                               R   N=           5
  1.00000000E+00  8.00000000E+00  8.00000000E+00  7.00000000E+00  8.00000000E+00
Nuclear QMom                               R   N=           5
  0.00000000E+00  0.00000000E+00  0.00000000E+00  2.04400000E+00  0.00000000E+00
Nuclear GFac                               R   N=           5
  2.79284600E+00  0.00000000E+00  0.00000000E+00  4.03761000E-01  0.00000000E+00
MicOpt                                     I   N=           5
          -1          -1          -1          -1          -1
Number of residues                         I                0
Number of secondary structures             I                0
SymInf integers                            I   N=          26
           1           2           1           1           1           1
           1          -1           0           0           0           0
           0           0           0           0           0           0
           0           0           0           0           0           0
           0           0
RotTr to input orientation                 R   N=          12
 -9.76012560E-01  0.00000000E+00  2.17714222E-01  2.17714222E-01  0.00000000E+00
  9.76012560E-01  0.00000000E+00  1.00000000E+00  0.00000000E+00  2.27552133E+00
  0.00000000E+00  6.81690292E-01
Number of contracted shells                I               65
Number of primitive shells                 I              119
Pure/Cartesian d shells                    I                0
Pure/Cartesian f shells                    I                0
Highest angular momentum                   I                3
Largest degree of contraction              I                7
Shell types                                I   N=          65
           0           0           0           0           1           1
           1          -2          -2           0           0           0
           0           0           1           1           1           1
          -2          -2          -2          -3          -3           0
           0           0           0           0           1           1
           1           1          -2          -2          -2          -3
          -3           0           0           0           0           0
           1           1           1           1          -2          -2
          -2          -3          -3           0           0           0
           0           0           1           1           1           1
          -2          -2          -2          -3          -3
Number of primitives per shell             I   N=          65
           3           1           1           1           1           1
           1           1           1           7           6           1
           1           1           3           1           1           1
           1           1           1           1           1           7
           6           1           1           1           3           1
           1           1           1           1           1           1
           1           7           6           1           1           1
           3           1           1           1           1           1
           1           1           1           7           6           1
           1           1           3           1           1           1
           1           1           1           1           1
Shell to atom map                          I   N=          65
           1           1           1           1           1           1
           1           1           1           2           2           2
           2           2           2           2           2           2
           2           2           2           2           2           3
           3           3           3           3           3           3
           3           3           3           3           3           3
           3           4           4           4           4           4
           4           4           4           4           4           4
           4           4           4           5           5           5
           5           5           5           5           5           5
           5           5           5           5           5
Primitive exponents                        R   N=         119
  3.38700000E+01  5.09500000E+00  1.15900000E+00  3.25800000E-01  1.02700000E-01
  2.52600000E-02  1.40700000E+00  3.88000000E-01  1.02000000E-01  1.05700000E+00
  2.47000000E-01  1.53300000E+04  2.29900000E+03  5.22400000E+02  1.47300000E+02
  4.75500000E+01  1.67600000E+01  6.20700000E+00  5.22400000E+02  1.47300000E+02
  4.75500000E+01  1.67600000E+01  6.20700000E+00  6.88200000E-01  1.75200000E+00
  2.38400000E-01  7.37600000E-02  3.44600000E+01  7.74900000E+00  2.28000000E+00
  7.15600000E-01  2.14000000E-01  5.97400000E-02  2.31400000E+00  6.45000000E-01
  2.14000000E-01  1.42800000E+00  5.00000000E-01  1.53300000E+04  2.29900000E+03
  5.22400000E+02  1.47300000E+02  4.75500000E+01  1.67600000E+01  6.20700000E+00
  5.22400000E+02  1.47300000E+02  4.75500000E+01  1.67600000E+01  6.20700000E+00
  6.88200000E-01  1.75200000E+00  2.38400000E-01  7.37600000E-02  3.44600000E+01
  7.74900000E+00  2.28000000E+00  7.15600000E-01  2.14000000E-01  5.97400000E-02
  2.31400000E+00  6.45000000E-01  2.14000000E-01  1.42800000E+00  5.00000000E-01
  1.14200000E+04  1.71200000E+03  3.89300000E+02  1.10000000E+02  3.55700000E+01
  1.25400000E+01  4.64400000E+00  3.89300000E+02  1.10000000E+02  3.55700000E+01
  1.25400000E+01  4.64400000E+00  5.11800000E-01  1.29300000E+00  1.78700000E-01
  5.76000000E-02  2.66300000E+01  5.94800000E+00  1.74200000E+00  5.55000000E-01
  1.72500000E-01  4.91000000E-02  1.65400000E+00  4.69000000E-01  1.51000000E-01
  1.09300000E+00  3.64000000E-01  1.53300000E+04  2.29900000E+03  5.22400000E+02
  1.47300000E+02  4.75500000E+01  1.67600000E+01  6.20700000E+00  5.22400000E+02
  1.47300000E+02  4.75500000E+01  1.67600000E+01  6.20700000E+00  6.88200000E-01
  1.75200000E+00  2.38400000E-01  7.37600000E-02  3.44600000E+01  7.74900000E+00
  2.28000000E+00  7.15600000E-01  2.14000000E-01  5.97400000E-02  2.31400000E+00
  6.45000000E-01  2.14000000E-01  1.42800000E+00  5.00000000E-01
Contraction coefficients                   R   N=         119
  2.54948632E-02  1.90362766E-01  8.52162022E-01  1.00000000E+00  1.00000000E+00
  1.00000000E+00  1.00000000E+00  1.00000000E+00  1.00000000E+00  1.00000000E+00
  1.00000000E+00  5.19808943E-04  4.02025621E-03  2.07128267E-02  8.10105536E-02
  2.35962985E-01  4.42653446E-01  3.57064423E-01 -4.42115008E-05 -1.22591041E-03
 -1.05517725E-02 -6.74452633E-02 -1.71198607E-01  1.07329856E+00  1.00000000E+00
  1.00000000E+00  1.00000000E+00  4.11634896E-02  2.57762836E-01  8.02419274E-01
  1.00000000E+00  1.00000000E+00  1.00000000E+00  1.00000000E+00  1.00000000E+00
  1.00000000E+00  1.00000000E+00  1.00000000E+00  5.19808943E-04  4.02025621E-03
  2.07128267E-02  8.10105536E-02  2.35962985E-01  4.42653446E-01  3.57064423E-01
 -4.42115008E-05 -1.22591041E-03 -1.05517725E-02 -6.74452633E-02 -1.71198607E-01
  1.07329856E+00  1.00000000E+00  1.00000000E+00  1.00000000E+00  4.11634896E-02
  2.57762836E-01  8.02419274E-01  1.00000000E+00  1.00000000E+00  1.00000000E+00
  1.00000000E+00  1.00000000E+00  1.00000000E+00  1.00000000E+00  1.00000000E+00
  5.34563860E-04  4.13435660E-03  2.12335358E-02  8.25006224E-02  2.38138871E-01
  4.42551547E-01  3.53757422E-01 -4.89867350E-05 -1.19527323E-03 -1.03490714E-02
 -6.48680190E-02 -1.71552477E-01  1.07289568E+00  1.00000000E+00  1.00000000E+00
  1.00000000E+00  3.98072123E-02  2.49002660E-01  8.10479727E-01  1.00000000E+00
  1.00000000E+00  1.00000000E+00  1.00000000E+00  1.00000000E+00  1.00000000E+00
  1.00000000E+00  1.00000000E+00  5.19808943E-04  4.02025621E-03  2.07128267E-02
  8.10105536E-02  2.35962985E-01  4.42653446E-01  3.57064423E-01 -4.42115008E-05
 -1.22591041E-03 -1.05517725E-02 -6.74452633E-02 -1.71198607E-01  1.07329856E+00
  1.00000000E+00  1.00000000E+00  1.00000000E+00  4.11634896E-02  2.57762836E-01
  8.02419274E-01  1.00000000E+00  1.00000000E+00  1.00000000E+00  1.00000000E+00
  1.00000000E+00  1.00000000E+00  1.00000000E+00  1.00000000E+00
Coordinates of each shell                  R   N=         195
  2.07252373E+00 -1.16075164E+00  0.00000000E+00  2.07252373E+00 -1.16075164E+00
  0.00000000E+00  2.07252373E+00 -1.16075164E+00  0.00000000E+00  2.07252373E+00
 -1.16075164E+00  0.00000000E+00  2.07252373E+00 -1.16075164E+00  0.00000000E+00
  2.07252373E+00 -1.16075164E+00  0.00000000E+00  2.07252373E+00 -1.16075164E+00
  0.00000000E+00  2.07252373E+00 -1.16075164E+00  0.00000000E+00  2.07252373E+00
 -1.16075164E+00  0.00000000E+00  2.47792763E+00  6.56673517E-01  0.00000000E+00
  2.47792763E+00  6.56673517E-01  0.00000000E+00  2.47792763E+00  6.56673517E-01
  0.00000000E+00  2.47792763E+00  6.56673517E-01  0.00000000E+00  2.47792763E+00
  6.56673517E-01  0.00000000E+00  2.47792763E+00  6.56673517E-01  0.00000000E+00
  2.47792763E+00  6.56673517E-01  0.00000000E+00  2.47792763E+00  6.56673517E-01
  0.00000000E+00  2.47792763E+00  6.56673517E-01  0.00000000E+00  2.47792763E+00
  6.56673517E-01  0.00000000E+00  2.47792763E+00  6.56673517E-01  0.00000000E+00
  2.47792763E+00  6.56673517E-01  0.00000000E+00  2.47792763E+00  6.56673517E-01
  0.00000000E+00  2.47792763E+00  6.56673517E-01  0.00000000E+00  3.46184096E-17
  1.71924297E+00  0.00000000E+00  3.46184096E-17  1.71924297E+00  0.00000000E+00
  3.46184096E-17  1.71924297E+00  0.00000000E+00  3.46184096E-17  1.71924297E+00
  0.00000000E+00  3.46184096E-17  1.71924297E+00  0.00000000E+00  3.46184096E-17
  1.71924297E+00  0.00000000E+00  3.46184096E-17  1.71924297E+00  0.00000000E+00
  3.46184096E-17  1.71924297E+00  0.00000000E+00  3.46184096E-17  1.71924297E+00
  0.00000000E+00  3.46184096E-17  1.71924297E+00  0.00000000E+00  3.46184096E-17
  1.71924297E+00  0.00000000E+00  3.46184096E-17  1.71924297E+00  0.00000000E+00
  3.46184096E-17  1.71924297E+00  0.00000000E+00  3.46184096E-17  1.71924297E+00
  0.00000000E+00 -1.85808273E+00 -5.33981237E-02  0.00000000E+00 -1.85808273E+00
 -5.33981237E-02  0.00000000E+00 -1.85808273E+00 -5.33981237E-02  0.00000000E+00
 -1.85808273E+00 -5.33981237E-02  0.00000000E+00 -1.85808273E+00 -5.33981237E-02
  0.00000000E+00 -1.85808273E+00 -5.33981237E-02  0.00000000E+00 -1.85808273E+00
 -5.33981237E-02  0.00000000E+00 -1.85808273E+00 -5.33981237E-02  0.00000000E+00
 -1.85808273E+00 -5.33981237E-02  0.00000000E+00 -1.85808273E+00 -5.33981237E-02
  0.00000000E+00 -1.85808273E+00 -5.33981237E-02  0.00000000E+00 -1.85808273E+00
 -5.33981237E-02  0.00000000E+00 -1.85808273E+00 -5.33981237E-02  0.00000000E+00
 -1.85808273E+00 -5.33981237E-02  0.00000000E+00 -1.11117071E+00 -2.18409917E+00
  0.00000000E+00 -1.11117071E+00 -2.18409917E+00  0.00000000E+00 -1.11117071E+00
 -2.18409917E+00  0.00000000E+00 -1.11117071E+00 -2.18409917E+00  0.00000000E+00
 -1.11117071E+00 -2.18409917E+00  0.00000000E+00 -1.11117071E+00 -2.18409917E+00
  0.00000000E+00 -1.11117071E+00 -2.18409917E+00  0.00000000E+00 -1.11117071E+00
 -2.18409917E+00  0.00000000E+00 -1.11117071E+00 -2.18409917E+00  0.00000000E+00
 -1.11117071E+00 -2.18409917E+00  0.00000000E+00 -1.11117071E+00 -2.18409917E+00
  0.00000000E+00 -1.11117071E+00 -2.18409917E+00  0.00000000E+00 -1.11117071E+00
 -2.18409917E+00  0.00000000E+00 -1.11117071E+00 -2.18409917E+00  0.00000000E+00
Num ILSW                                   I              100
ILSW                                       I   N=         100
           0           0           0           0           2           0
           0           0           0           0           0          -1
           5           0           0           0           2           0
           0           0           0           0           1           0
           1           0           0           0           0           0
           0           0      100000           0          -1           0
           0           0           0           0           0           0
           0           0           0           1           1           0
           0 -2000000000           1           0           0           0
           0           0           4          52           0           0
           0           0           0           0           0           0
           0           0           0           5           4           1
           0           0           0           0           0           0
           0           0           0           0           0           0
           0           0           0           0           0           0
           0           0           0           0           0           0
           0           0           0           0
Num RLSW                                   I               52
RLSW                                       R   N=          52
  1.00000000E+00  1.00000000E+00  1.00000000E+00  1.00000000E+00  1.00000000E+00
  0.00000000E+00  0.00000000E+00  1.00000000E+00  0.00000000E+00  0.00000000E+00
  0.00000000E+00  0.00000000E+00  1.00000000E+00  0.00000000E+00  0.00000000E+00
  0.00000000E+00  0.00000000E+00  1.00000000E+00  0.00000000E+00  0.00000000E+00
  0.00000000E+00  0.00000000E+00  1.00000000E+00  0.00000000E+00  0.00000000E+00
  0.00000000E+00  0.00000000E+00  1.00000000E+00  0.00000000E+00  0.00000000E+00
  0.00000000E+00  0.00000000E+00  1.00000000E+00  0.00000000E+00  0.00000000E+00
  0.00000000E+00  0.00000000E+00  0.00000000E+00  1.00000000E+00  1.00000000E+00
  0.00000000E+00  1.00000000E+00  0.00000000E+00  0.00000000E+00  0.00000000E+00
  0.00000000E+00  0.00000000E+00  0.00000000E+00  0.00000000E+00  0.00000000E+00
  0.00000000E+00  0.00000000E+00
MxBond                                     I                2
NBond                                      I   N=           5
           1           2           2           2           1
IBond                                      I   N=          10
           2           0           1           3           2           4
           3           5           4           0
RBond                                      R   N=          10
  1.00000000E+00  0.00000000E+00  1.00000000E+00  1.00000000E+00  1.00000000E+00
  1.00000000E+00  1.00000000E+00  2.00000000E+00  2.00000000E+00  0.00000000E+00
Virial Ratio                               R      2.002057182238961E+00
SCF Energy                                 R     -2.795081010512473E+02
MP2 Energy                                 R     -2.804550555278399E+02
Total Energy                               R     -2.804550555278399E+02
Post-SCF wavefunction norm                 R      1.582466917027176E+00
RMS Force                                  R      3.153997653379579E-03
RMS Density                                R      3.820476427514214E-09
NImag                                      I                0
Job Status                                 I                1
Nuclear derivative order                   I                2
External E-field                           R   N=          35
  0.00000000E+00  0.00000000E+00  0.00000000E+00  0.00000000E+00  0.00000000E+00
  0.00000000E+00  0.00000000E+00  0.00000000E+00  0.00000000E+00  0.00000000E+00
  0.00000000E+00  0.00000000E+00  0.00000000E+00  0.00000000E+00  0.00000000E+00
  0.00000000E+00  0.00000000E+00  0.00000000E+00  0.00000000E+00  0.00000000E+00
  0.00000000E+00  0.00000000E+00  0.00000000E+00  0.00000000E+00  0.00000000E+00
  0.00000000E+00  0.00000000E+00  0.00000000E+00  0.00000000E+00  0.00000000E+00
  0.00000000E+00  0.00000000E+00  0.00000000E+00  0.00000000E+00  0.00000000E+00
IOpCl                                      I                0
IROHF                                      I                0
Alpha Orbital Energies                     R   N=         207
 -2.07235196E+01 -2.06820311E+01 -2.06695106E+01 -1.58232882E+01 -1.65021588E+00
 -1.50507588E+00 -1.30180186E+00 -9.59252111E-01 -8.37056212E-01 -7.61834643E-01
 -7.45193344E-01 -6.38277883E-01 -6.17915098E-01 -6.16294721E-01 -5.04791093E-01
 -4.99670526E-01  3.49675333E-02  6.35985643E-02  9.51429468E-02  1.00486458E-01
  1.19704066E-01  1.23053426E-01  1.48654150E-01  1.51602658E-01  1.77398853E-01
  1.80684163E-01  1.89620493E-01  2.11214456E-01  2.16618144E-01  2.42675004E-01
  2.46458110E-01  2.69612347E-01  3.13921928E-01  3.17591589E-01  3.38661026E-01
  3.44884758E-01  3.54386554E-01  3.99079511E-01  4.49694848E-01  4.89155581E-01
  5.05277356E-01  5.18895486E-01  5.46153026E-01  5.61748762E-01  6.00242044E-01
  6.20527808E-01  6.40377799E-01  6.90219081E-01  7.14244955E-01  7.24776366E-01
  7.44218182E-01  7.64561059E-01  7.68071955E-01  7.95720539E-01  8.08304330E-01
  8.39633377E-01  8.42446244E-01  8.51781423E-01  8.86714824E-01  9.08505899E-01
  9.33064241E-01  9.49527380E-01  9.52120051E-01  1.01925347E+00  1.03316509E+00
  1.06612094E+00  1.06744287E+00  1.09761201E+00  1.14547005E+00  1.15871024E+00
  1.17224656E+00  1.22356329E+00  1.22665133E+00  1.24673801E+00  1.35500529E+00
  1.35558959E+00  1.37343914E+00  1.46970991E+00  1.48601322E+00  1.50433944E+00
  1.54212539E+00  1.59727630E+00  1.59980733E+00  1.61114011E+00  1.63642408E+00
  1.69724482E+00  1.74036451E+00  1.80121202E+00  1.83327050E+00  1.88972837E+00
  1.89601822E+00  1.93705165E+00  1.98235877E+00  1.99319108E+00  2.05344149E+00
  2.12961682E+00  2.13346713E+00  2.16850139E+00  2.19150997E+00  2.24672792E+00
  2.25995448E+00  2.29311671E+00  2.35488943E+00  2.37062158E+00  2.38536501E+00
  2.40247253E+00  2.44169080E+00  2.47216626E+00  2.48273663E+00  2.52931762E+00
  2.54635752E+00  2.55330571E+00  2.56345160E+00  2.62225973E+00  2.63250664E+00
  2.67972522E+00  2.68203102E+00  2.75964817E+00  2.81502924E+00  2.82672749E+00
  2.84020222E+00  2.92580306E+00  2.99748120E+00  3.05403859E+00  3.05561723E+00
  3.11795327E+00  3.12115564E+00  3.17580721E+00  3.21397959E+00  3.31251624E+00
  3.33607984E+00  3.37528505E+00  3.47472542E+00  3.69716910E+00  3.88018731E+00
  3.93727603E+00  4.18800520E+00  4.22869728E+00  4.23259884E+00  4.28099501E+00
  4.37331536E+00  4.50434250E+00  4.54659099E+00  4.56037652E+00  4.60419977E+00
  4.69642509E+00  4.81282432E+00  4.91523162E+00  4.91780971E+00  4.94409879E+00
  5.00906164E+00  5.01370476E+00  5.11688474E+00  5.13683659E+00  5.18161823E+00
  5.25336346E+00  5.26043197E+00  5.33217288E+00  5.34478224E+00  5.37256742E+00
  5.54906941E+00  5.65043186E+00  5.71423671E+00  5.89226723E+00  5.99352809E+00
  6.26423530E+00  6.30348301E+00  6.37532532E+00  6.38209661E+00  6.60039697E+00
  6.66396648E+00  6.67034112E+00  6.70044823E+00  6.73227025E+00  6.78678607E+00
  6.80078725E+00  6.86873592E+00  6.98766710E+00  7.02060684E+00  7.06400265E+00
  7.08053818E+00  7.13578561E+00  7.18249966E+00  7.19541441E+00  7.20191794E+00
  7.24965353E+00  7.25077929E+00  7.27648556E+00  7.35712735E+00  7.41088061E+00
  7.44454188E+00  7.44678038E+00  7.46273172E+00  7.58682181E+00  7.66957584E+00
  7.68579130E+00  7.80169924E+00  7.89301255E+00  7.98402842E+00  8.08814958E+00
  8.31206176E+00  8.50800482E+00  8.66813340E+00  1.37646650E+01  1.48822434E+01
  1.52103781E+01  1.58266390E+01
Alpha MO coefficients                      R   N=       42849
  6.05511602E-05  5.42295736E-06 -1.04386958E-03  1.86656793E-05 -5.06456077E-05
  4.02643800E-05  0.00000000E+00 -8.67811049E-05 -2.71180146E-04  0.00000000E+00
 -7.12878983E-06 -3.34049309E-04  0.00000000E+00  4.08486340E-05  0.00000000E+00
  0.00000000E+00 -2.48439441E-05  1.09729178E-05  2.26105763E-04  0.00000000E+00
  0.00000000E+00 -3.74719121E-05 -2.12168769E-04  2.93018252E-03 -1.00065856E-04
 -1.03110646E-04  3.59959590E-03  2.47108364E-03  1.00784995E-04 -5.42109123E-05
  0.00000000E+00 -7.24625938E-04  2.96850194E-04  0.00000000E+00 -2.01990474E-03
  1.17788947E-03  0.00000000E+00 -5.36811799E-04  5.53264479E-05  0.00000000E+00
  2.00692005E-05  0.00000000E+00  0.00000000E+00 -7.03242687E-06  4.38142202E-05
 -4.40365406E-04  0.00000000E+00  0.00000000E+00  4.10313370E-04 -6.70483774E-04
 -3.65748359E-04  0.00000000E+00  0.00000000E+00  5.43462084E-04 -7.54929063E-04
  0.00000000E+00  7.26595743E-05 -5.25965657E-05  0.00000000E+00  0.00000000E+00
 -2.52328732E-05  1.09534342E-04  0.00000000E+00  2.05206030E-04 -5.18218079E-05
  0.00000000E+00  0.00000000E+00 -1.53692301E-04  2.99148458E-04  9.76883899E-01
 -9.20371856E-03  4.34416104E-02  4.23189770E-04 -2.21871291E-03  3.88865443E-04
 -2.18185764E-03  0.00000000E+00 -2.34286535E-04  2.30922121E-03  0.00000000E+00
 -2.43258879E-03 -4.06360279E-04  0.00000000E+00 -2.41177785E-04  9.61185706E-05
  0.00000000E+00 -1.25530316E-06  0.00000000E+00  0.00000000E+00 -6.78937416E-06
  4.61464643E-05  8.40807944E-04  0.00000000E+00  0.00000000E+00 -4.65976158E-04
 -2.04366739E-04 -1.17946726E-04  0.00000000E+00  0.00000000E+00 -5.44292921E-04
  3.78849780E-04  0.00000000E+00 -1.01649051E-05 -7.92356033E-05  0.00000000E+00
  0.00000000E+00 -6.97703390E-06  4.74826972E-05  0.00000000E+00  9.28111960E-05
 -9.55402133E-06  0.00000000E+00  0.00000000E+00 -3.48574144E-04  3.94512138E-04
  1.14299055E-04  5.34847167E-04 -3.19164744E-04 -1.00947502E-03  2.95368294E-04
 -3.99789469E-05 -9.49503712E-05  0.00000000E+00  7.93812897E-04  1.21641809E-03
  0.00000000E+00 -7.77478839E-04 -6.43475040E-04  0.00000000E+00  1.95128462E-04
  2.13885790E-04  0.00000000E+00 -6.31969416E-05  0.00000000E+00  0.00000000E+00
  1.74772229E-05  1.14685760E-04 -4.16140102E-04  0.00000000E+00  0.00000000E+00
  1.23817976E-04  1.10458695E-03  3.40842560E-05  0.00000000E+00  0.00000000E+00
 -2.86702942E-04  1.56504990E-05  0.00000000E+00 -7.73634711E-05 -1.11873455E-04
  0.00000000E+00  0.00000000E+00 -8.77650108E-05  1.01566371E-04  0.00000000E+00
 -1.28219490E-04  5.14322789E-05  0.00000000E+00  0.00000000E+00  4.53719451E-05
  5.18205173E-04 -5.65798682E-04  6.30323391E-05 -6.48591595E-05  3.10177914E-04
 -1.21732612E-04 -2.55737698E-05 -4.11229560E-05  0.00000000E+00  1.51032541E-04
  2.73905751E-04  0.00000000E+00  4.76582750E-04  3.62902220E-04  0.00000000E+00
 -2.28771082E-04 -4.85818842E-05  0.00000000E+00 -1.45274669E-05  0.00000000E+00
  0.00000000E+00  2.07746110E-06  1.73450041E-05 -2.27377388E-06  0.00000000E+00
  0.00000000E+00 -1.63582425E-04 -1.66256262E-05 -2.96374376E-05  0.00000000E+00
  0.00000000E+00 -1.78029503E-04 -6.07645669E-05  0.00000000E+00 -3.61650592E-06
 -7.34701535E-06  0.00000000E+00  0.00000000E+00 -1.61032204E-05  1.19798946E-05
  0.00000000E+00  3.85869554E-05  5.94965952E-05  0.00000000E+00  0.00000000E+00
  1.65190495E-04 -1.05367636E-04  3.84485433E-05  9.62357838E-05 -7.01168415E-05
 -2.84458351E-05  2.45697515E-05  1.57983592E-05  0.00000000E+00  2.30568135E-04
  4.96454166E-05  0.00000000E+00  1.10370410E-04  1.89106769E-05  0.00000000E+00
  1.04620738E-05  0.00000000E+00  0.00000000E+00 -8.62816830E-06  2.09022277E-05
  1.85760324E-05  0.00000000E+00  0.00000000E+00 -8.17916867E-05  7.25427986E-05
 -4.34152669E-04  3.56508000E-05 -2.18054789E-05 -5.60383487E-04  1.37637620E-04
  7.60239727E-06  1.36622767E-05  0.00000000E+00 -1.02482301E-06 -4.45884799E-05
  0.00000000E+00  1.83506462E-04  1.76226431E-04  0.00000000E+00 -3.73184069E-05
  5.60686705E-05  0.00000000E+00 -2.52311940E-06  0.00000000E+00  0.00000000E+00
 -8.45794887E-06 -1.05462111E-05  2.75834340E-05  0.00000000E+00  0.00000000E+00
  5.46580989E-05  1.08495421E-04  6.94260558E-05  0.00000000E+00  0.00000000E+00
 -2.62888727E-05 -9.14724680E-05  0.00000000E+00  7.70080326E-06  9.87028547E-06
  0.00000000E+00  0.00000000E+00 -1.59878542E-06 -2.72966235E-05  0.00000000E+00
 -1.58142193E-05 -4.06063100E-05  0.00000000E+00  0.00000000E+00 -3.34315088E-06
 -1.79456309E-05  5.98119352E-04  2.81398233E-05 -2.59622907E-05  3.59915307E-04
 -3.54293363E-04  1.76891024E-05  2.66419927E-05  0.00000000E+00 -7.90741906E-05
 -1.62239829E-04  0.00000000E+00  8.34838060E-05 -2.57605210E-04  0.00000000E+00
 -1.69724751E-04  1.37612632E-04  0.00000000E+00 -4.43918823E-06  0.00000000E+00
  0.00000000E+00 -3.17922122E-05 -9.60534012E-06 -5.43777014E-05  0.00000000E+00
  0.00000000E+00  9.60237275E-05  1.31809927E-04 -7.37518454E-05  0.00000000E+00
  0.00000000E+00  3.05649274E-05  5.03802651E-05  0.00000000E+00  3.15723034E-06
  1.27054887E-06  0.00000000E+00  0.00000000E+00 -9.79791036E-06 -6.07783963E-06
  0.00000000E+00  4.77406091E-06 -2.32694747E-05  0.00000000E+00  0.00000000E+00
  9.49729793E-05 -1.65101406E-04  2.33898872E-04  1.34373168E-03 -1.42890247E-04
 -8.21168772E-04  8.80598384E-04  6.29106406E-05 -6.94297514E-05  0.00000000E+00
  5.39263832E-04 -2.12014622E-03  0.00000000E+00  7.84462710E-05  5.07453474E-04
  0.00000000E+00  1.83634022E-04 -3.13834299E-04  0.00000000E+00 -1.27128884E-04
  0.00000000E+00  0.00000000E+00 -2.08871770E-04 -1.56455144E-04 -4.54657791E-04
  0.00000000E+00  0.00000000E+00 -6.01949757E-04 -9.31176108E-04 -3.47311280E-05
  0.00000000E+00  0.00000000E+00  6.84327185E-05  1.16529280E-04  0.00000000E+00
  8.80787317E-06  3.85638739E-05  0.00000000E+00  0.00000000E+00 -2.10446110E-05
 -4.25563025E-06  0.00000000E+00 -1.36307101E-04  1.55719973E-04  0.00000000E+00
  0.00000000E+00 -3.09879142E-04 -3.69109120E-05  9.76639472E-01 -9.87908213E-03
  4.35898472E-02  3.71739600E-03 -9.00961229E-04 -4.26869693E-04  2.14056644E-03
  0.00000000E+00  4.87853188E-04 -2.51411050E-03  0.00000000E+00 -8.69212729E-05
  8.18123582E-04  0.00000000E+00  1.01024208E-04 -6.59776120E-05  0.00000000E+00
 -1.92944482E-04  0.00000000E+00  0.00000000E+00 -7.56343559E-05 -3.99411295E-05
  4.14146627E-04  0.00000000E+00  0.00000000E+00  8.74048393E-04  4.68204027E-04
 -2.00578421E-04  0.00000000E+00  0.00000000E+00 -1.41721287E-04 -3.55522586E-05
  0.00000000E+00 -4.61888346E-06  7.05158130E-05  0.00000000E+00  0.00000000E+00
 -2.73843191E-05  1.12929937E-05  0.00000000E+00 -8.79098771E-05  9.49450030E-05
  0.00000000E+00  0.00000000E+00 -1.63923485E-04  2.11580148E-04  3.70384380E-04
  2.00859604E-03  1.47022627E-03 -1.83367991E-05  5.46118607E-05  2.66823826E-04
  0.00000000E+00  3.70793888E-04  1.01728462E-03  0.00000000E+00 -1.48359616E-04
  2.52538444E-04  0.00000000E+00 -2.46010377E-05  0.00000000E+00  0.00000000E+00
  3.44926581E-05 -3.06890151E-05 -2.21292187E-04  0.00000000E+00  0.00000000E+00
 -3.33229029E-04  4.11318670E-04  9.76832459E-01 -9.19110064E-03  4.34699927E-02
  1.70027191E-04 -1.95193107E-03 -2.05614364E-03 -8.11215859E-04  0.00000000E+00
  2.09622522E-03  7.46479529E-04  0.00000000E+00 -4.23388023E-04  6.64944160E-04
  0.00000000E+00  2.31870045E-04 -3.01944844E-04  0.00000000E+00  2.94918480E-05
  0.00000000E+00  0.00000000E+00 -7.41448536E-05  6.61852828E-05  7.67065362E-04
  0.00000000E+00  0.00000000E+00 -2.12344341E-04  3.56659257E-04 -2.40590919E-04
  0.00000000E+00  0.00000000E+00  3.38228873E-04 -5.35021086E-07  0.00000000E+00
 -8.13778258E-05  2.76726093E-06  0.00000000E+00  0.00000000E+00  1.49107655E-05