 Entering Gaussian System, Link 0=g16
 Input=hoono_d2_2p347748.gjf
 Output=hoono_d2_2p347748.log
 Initial command:
 /sw/contrib/gaussian/g16/B01/g16/l1.exe "/scr/Gau-17159.inp" -scrdir="/scr/"
 Entering Link 1 = /sw/contrib/gaussian/g16/B01/g16/l1.exe PID=     17160.
  
 Copyright (c) 1988-2017, Gaussian, Inc.  All Rights Reserved.
  
 This is part of the Gaussian(R) 16 program.  It is based on
 the Gaussian(R) 09 system (copyright 2009, Gaussian, Inc.),
 the Gaussian(R) 03 system (copyright 2003, Gaussian, Inc.),
 the Gaussian(R) 98 system (copyright 1998, Gaussian, Inc.),
 the Gaussian(R) 94 system (copyright 1995, Gaussian, Inc.),
 the Gaussian 92(TM) system (copyright 1992, Gaussian, Inc.),
 the Gaussian 90(TM) system (copyright 1990, Gaussian, Inc.),
 the Gaussian 88(TM) system (copyright 1988, Gaussian, Inc.),
 the Gaussian 86(TM) system (copyright 1986, Carnegie Mellon
 University), and the Gaussian 82(TM) system (copyright 1983,
 Carnegie Mellon University). Gaussian is a federally registered
 trademark of Gaussian, Inc.
  
 This software contains proprietary and confidential information,
 including trade secrets, belonging to Gaussian, Inc.
  
 This software is provided under written license and may be
 used, copied, transmitted, or stored only in accord with that
 written license.
  
 The following legend is applicable only to US Government
 contracts under FAR:
  
                    RESTRICTED RIGHTS LEGEND
  
 Use, reproduction and disclosure by the US Government is
 subject to restrictions as set forth in subparagraphs (a)
 and (c) of the Commercial Computer Software - Restricted
 Rights clause in FAR 52.227-19.
  
 Gaussian, Inc.
 340 Quinnipiac St., Bldg. 40, Wallingford CT 06492
  
  
 ---------------------------------------------------------------
 Warning -- This program may not be used in any manner that
 competes with the business of Gaussian, Inc. or will provide
 assistance to any competitor of Gaussian, Inc.  The licensee
 of this program is prohibited from giving any competitor of
 Gaussian, Inc. access to this program.  By using this program,
 the user acknowledges that Gaussian, Inc. is engaged in the
 business of creating and licensing software in the field of
 computational chemistry and represents and warrants to the
 licensee that it is not a competitor of Gaussian, Inc. and that
 it will not use this program in any manner prohibited above.
 ---------------------------------------------------------------
  

 Cite this work as:
 Gaussian 16, Revision B.01,
 M. J. Frisch, G. W. Trucks, H. B. Schlegel, G. E. Scuseria, 
 M. A. Robb, J. R. Cheeseman, G. Scalmani, V. Barone, 
 G. A. Petersson, H. Nakatsuji, X. Li, M. Caricato, A. V. Marenich, 
 J. Bloino, B. G. Janesko, R. Gomperts, B. Mennucci, H. P. Hratchian, 
 J. V. Ortiz, A. F. Izmaylov, J. L. Sonnenberg, D. Williams-Young, 
 F. Ding, F. Lipparini, F. Egidi, J. Goings, B. Peng, A. Petrone, 
 T. Henderson, D. Ranasinghe, V. G. Zakrzewski, J. Gao, N. Rega, 
 G. Zheng, W. Liang, M. Hada, M. Ehara, K. Toyota, R. Fukuda, 
 J. Hasegawa, M. Ishida, T. Nakajima, Y. Honda, O. Kitao, H. Nakai, 
 T. Vreven, K. Throssell, J. A. Montgomery, Jr., J. E. Peralta, 
 F. Ogliaro, M. J. Bearpark, J. J. Heyd, E. N. Brothers, K. N. Kudin, 
 V. N. Staroverov, T. A. Keith, R. Kobayashi, J. Normand, 
 K. Raghavachari, A. P. Rendell, J. C. Burant, S. S. Iyengar, 
 J. Tomasi, M. Cossi, J. M. Millam, M. Klene, C. Adamo, R. Cammi, 
 J. W. Ochterski, R. L. Martin, K. Morokuma, O. Farkas, 
 J. B. Foresman, and D. J. Fox, Gaussian, Inc., Wallingford CT, 2016.
 
 ******************************************
 Gaussian 16:  ES64L-G16RevB.01 20-Dec-2017
                 6-Mar-2022 
 ******************************************
 %nproc=28
 Will use up to   28 processors via shared memory.
 %mem=120GB
 %chk=hoono_d2_2p347748.chk
 ---------------------------------------
 #p freq mp2/aug-cc-pvtz density=current
 ---------------------------------------
 1/10=4,30=1,38=1/1,3;
 2/12=2,17=6,18=5,40=1/2;
 3/5=16,6=1,7=10,11=9,25=1,30=1,71=2,140=1/1,2,3;
 4//1;
 5/5=2,38=5,98=1/2;
 8/6=3,8=1,10=1,19=11,30=-1/1;
 9/15=3,16=-3/6;
 11/6=1,8=1,15=11,17=12,24=-1,27=1,28=-2,29=300,32=6,42=3/1,2,10;
 10/6=2,21=1/2;
 8/6=4,8=1,10=1,19=11,30=-1/11,4;
 10/5=1,20=4/2;
 11/12=2,14=11,16=1,17=2,28=-2,42=3,76=2/2,10,12;
 6/7=2,8=2,9=2,10=2,22=-1/1;
 7/8=1,10=1,12=2,25=1,44=2/1,2,3,16;
 1/10=4,30=1/3;
 99//99;
 Leave Link    1 at Sun Mar  6 19:56:19 2022, MaxMem= 16106127360 cpu:               3.1 elap:               0.1
 (Enter /sw/contrib/gaussian/g16/B01/g16/l101.exe)
 -----
 title
 -----
 Symbolic Z-matrix:
 Charge =  0 Multiplicity = 1
 H
 O                    1    r1
 O                    2    r2       1    a1
 N                    3    r3       2    a2       1    d1       0
 O                    4    r4       3    a3       2    d2       0
       Variables:
  r1                    0.98538                  
  r2                    1.42674                  
  r3                    1.38111                  
  r4                    1.19479                  
  a1                  100.63551                  
  a2                  113.13777                  
  a3                  114.33392                  
  d1                    0.                       
  d2                    2.34775                  
 
 ITRead=  0  0  0  0  0
 MicOpt= -1 -1 -1 -1 -1
 NAtoms=      5 NQM=        5 NQMF=       0 NMMI=      0 NMMIF=      0
                NMic=       0 NMicF=      0.
                    Isotopes and Nuclear Properties:
 (Nuclear quadrupole moments (NQMom) in fm**2, nuclear magnetic moments (NMagM)
  in nuclear magnetons)

  Atom         1           2           3           4           5
 IAtWgt=           1          16          16          14          16
 AtmWgt=   1.0078250  15.9949146  15.9949146  14.0030740  15.9949146
 NucSpn=           1           0           0           2           0
 AtZEff=  -0.0000000  -0.0000000  -0.0000000  -0.0000000  -0.0000000
 NQMom=    0.0000000   0.0000000   0.0000000   2.0440000   0.0000000
 NMagM=    2.7928460   0.0000000   0.0000000   0.4037610   0.0000000
 AtZNuc=   1.0000000   8.0000000   8.0000000   7.0000000   8.0000000
 Leave Link  101 at Sun Mar  6 19:56:19 2022, MaxMem= 16106127360 cpu:               3.5 elap:               0.1
 (Enter /sw/contrib/gaussian/g16/B01/g16/l103.exe)

 GradGradGradGradGradGradGradGradGradGradGradGradGradGradGradGradGradGrad
 Berny optimization.
 Initialization pass.
                       ----------------------------
                       !    Initial Parameters    !
                       ! (Angstroms and Degrees)  !
 ----------------------                            ----------------------
 !      Name          Value   Derivative information (Atomic Units)     !
 ------------------------------------------------------------------------
 !       r1          0.9854   calculate D2E/DX2 analytically            !
 !       r2          1.4267   calculate D2E/DX2 analytically            !
 !       r3          1.3811   calculate D2E/DX2 analytically            !
 !       r4          1.1948   calculate D2E/DX2 analytically            !
 !       a1        100.6355   calculate D2E/DX2 analytically            !
 !       a2        113.1378   calculate D2E/DX2 analytically            !
 !       a3        114.3339   calculate D2E/DX2 analytically            !
 !       d1          0.0      calculate D2E/DX2 analytically            !
 !       d2          2.3477   calculate D2E/DX2 analytically            !
 ------------------------------------------------------------------------
 Trust Radius=3.00D-01 FncErr=1.00D-07 GrdErr=1.00D-07 EigMax=2.50D+02 EigMin=1.00D-04
 Number of steps in this run=      2 maximum allowed number of steps=      2.
 GradGradGradGradGradGradGradGradGradGradGradGradGradGradGradGradGradGrad

 Leave Link  103 at Sun Mar  6 19:56:19 2022, MaxMem= 16106127360 cpu:               1.8 elap:               0.1
 (Enter /sw/contrib/gaussian/g16/B01/g16/l202.exe)
                          Input orientation:                          
 ---------------------------------------------------------------------
 Center     Atomic      Atomic             Coordinates (Angstroms)
 Number     Number       Type             X           Y           Z
 ---------------------------------------------------------------------
      1          1           0        0.000000    0.000000    0.000000
      2          8           0        0.000000    0.000000    0.985377
      3          8           0        1.402227    0.000000    1.248696
      4          7           0        2.169996    0.000000    0.100659
      5          8           0        1.539511    0.044596   -0.913254
 ---------------------------------------------------------------------
                    Distance matrix (angstroms):
                    1          2          3          4          5
     1  H    0.000000
     2  O    0.985377   0.000000
     3  O    1.877627   1.426737   0.000000
     4  N    2.172329   2.343418   1.381108   0.000000
     5  O    1.790563   2.444766   2.166763   1.194788   0.000000
 Stoichiometry    HNO3
 Framework group  C1[X(HNO3)]
 Deg. of freedom     9
 Full point group                 C1      NOp   1
 Largest Abelian subgroup         C1      NOp   1
 Largest concise Abelian subgroup C1      NOp   1
                         Standard orientation:                         
 ---------------------------------------------------------------------
 Center     Atomic      Atomic             Coordinates (Angstroms)
 Number     Number       Type             X           Y           Z
 ---------------------------------------------------------------------
      1          1           0       -0.540190   -1.138521    0.023306
      2          8           0       -1.276959   -0.484531    0.002424
      3          8           0       -0.542903    0.738832   -0.008596
      4          7           0        0.825210    0.551031    0.012753
      5          8           0        1.165327   -0.594138   -0.007900
 ---------------------------------------------------------------------
 Rotational constants (GHZ):          21.3549702           8.1046102           5.8756459
 Leave Link  202 at Sun Mar  6 19:56:19 2022, MaxMem= 16106127360 cpu:               0.4 elap:               0.0
 (Enter /sw/contrib/gaussian/g16/B01/g16/l301.exe)
 Standard basis: Aug-CC-pVTZ (5D, 7F)
 Ernie: Thresh=  0.10000D-02 Tol=  0.10000D-05 Strict=F.
 Ernie:  12 primitive shells out of 131 were deleted.
 There are   245 symmetry adapted cartesian basis functions of A   symmetry.
 There are   207 symmetry adapted basis functions of A   symmetry.
   207 basis functions,   315 primitive gaussians,   245 cartesian basis functions
    16 alpha electrons       16 beta electrons
       nuclear repulsion energy       122.7462902207 Hartrees.
 IExCor=    0 DFT=F Ex=HF Corr=None ExCW=0 ScaHFX=  1.000000
 ScaDFX=  1.000000  1.000000  1.000000  1.000000 ScalE2=  1.000000  1.000000
 IRadAn=      5 IRanWt=     -1 IRanGd=            0 ICorTp=0 IEmpDi=  4
 NAtoms=    5 NActive=    5 NUniq=    5 SFac= 1.00D+00 NAtFMM=   60 NAOKFM=F Big=F
 Integral buffers will be    131072 words long.
 Raffenetti 1 integral format.
 Two-electron integral symmetry is turned on.
 Leave Link  301 at Sun Mar  6 19:56:19 2022, MaxMem= 16106127360 cpu:               2.7 elap:               0.1
 (Enter /sw/contrib/gaussian/g16/B01/g16/l302.exe)
 NPDir=0 NMtPBC=     1 NCelOv=     1 NCel=       1 NClECP=     1 NCelD=      1
         NCelK=      1 NCelE2=     1 NClLst=     1 CellRange=     0.0.
 One-electron integrals computed using PRISM.
 One-electron integral symmetry used in STVInt
 NBasis=   207 RedAO= T EigKep=  1.31D-04  NBF=   207
 NBsUse=   207 1.00D-06 EigRej= -1.00D+00 NBFU=   207
 Leave Link  302 at Sun Mar  6 19:56:19 2022, MaxMem= 16106127360 cpu:               4.3 elap:               0.2
 (Enter /sw/contrib/gaussian/g16/B01/g16/l303.exe)
 DipDrv:  MaxL=1.
 Leave Link  303 at Sun Mar  6 19:56:19 2022, MaxMem= 16106127360 cpu:               0.9 elap:               0.1
 (Enter /sw/contrib/gaussian/g16/B01/g16/l401.exe)
 ExpMin= 2.53D-02 ExpMax= 1.53D+04 ExpMxC= 5.22D+02 IAcc=3 IRadAn=         5 AccDes= 0.00D+00
 Harris functional with IExCor=  205 and IRadAn=       5 diagonalized for initial guess.
 HarFok:  IExCor=  205 AccDes= 0.00D+00 IRadAn=         5 IDoV= 1 UseB2=F ITyADJ=14
 ICtDFT=  3500011 ScaDFX=  1.000000  1.000000  1.000000  1.000000
 FoFCou: FMM=F IPFlag=           0 FMFlag=      100000 FMFlg1=           0
         NFxFlg=           0 DoJE=T BraDBF=F KetDBF=T FulRan=T
         wScrn=  0.000000 ICntrl=       500 IOpCl=  0 I1Cent=   200000004 NGrid=           0
         NMat0=    1 NMatS0=      1 NMatT0=    0 NMatD0=    1 NMtDS0=    0 NMtDT0=    0
 Petite list used in FoFCou.
 Harris En= -279.644897293654    
 JPrj=0 DoOrth=F DoCkMO=F.
 Leave Link  401 at Sun Mar  6 19:56:20 2022, MaxMem= 16106127360 cpu:               5.9 elap:               0.2
 (Enter /sw/contrib/gaussian/g16/B01/g16/l502.exe)
 Keep R1 ints in memory in canonical form, NReq=245623665.
 FoFCou: FMM=F IPFlag=           0 FMFlag=           0 FMFlg1=           0
         NFxFlg=           0 DoJE=F BraDBF=F KetDBF=F FulRan=T
         wScrn=  0.000000 ICntrl=       600 IOpCl=  0 I1Cent=           0 NGrid=           0
         NMat0=    1 NMatS0=  21528 NMatT0=    0 NMatD0=    1 NMtDS0=    0 NMtDT0=    0
 Symmetry not used in FoFCou.
 Two-electron integral symmetry not used.
 Closed shell SCF:
 Using DIIS extrapolation, IDIIS=  1040.
 NGot= 16106127360 LenX= 15874260251 LenY= 15874199785
 Requested convergence on RMS density matrix=1.00D-08 within 128 cycles.
 Requested convergence on MAX density matrix=1.00D-06.
 Requested convergence on             energy=1.00D-06.
 No special actions if energy rises.

 Cycle   1  Pass 1  IDiag  1:
 E= -279.364131116130    
 DIIS: error= 2.70D-02 at cycle   1 NSaved=   1.
 NSaved= 1 IEnMin= 1 EnMin= -279.364131116130     IErMin= 1 ErrMin= 2.70D-02
 ErrMax= 2.70D-02  0.00D+00 EMaxC= 1.00D-01 BMatC= 4.51D-01 BMatP= 4.51D-01
 IDIUse=3 WtCom= 7.30D-01 WtEn= 2.70D-01
 Coeff-Com:  0.100D+01
 Coeff-En:   0.100D+01
 Coeff:      0.100D+01
 Gap=     0.520 Goal=   None    Shift=    0.000
 GapD=    0.520 DampG=2.000 DampE=0.500 DampFc=1.0000 IDamp=-1.
 RMSDP=1.68D-03 MaxDP=8.78D-02              OVMax= 1.23D-01

 Cycle   2  Pass 1  IDiag  1:
 E= -279.446185492312     Delta-E=       -0.082054376182 Rises=F Damp=F
 DIIS: error= 1.91D-02 at cycle   2 NSaved=   2.
 NSaved= 2 IEnMin= 2 EnMin= -279.446185492312     IErMin= 2 ErrMin= 1.91D-02
 ErrMax= 1.91D-02  0.00D+00 EMaxC= 1.00D-01 BMatC= 8.60D-02 BMatP= 4.51D-01
 IDIUse=3 WtCom= 8.09D-01 WtEn= 1.91D-01
 Coeff-Com:  0.219D+00 0.781D+00
 Coeff-En:   0.769D-01 0.923D+00
 Coeff:      0.191D+00 0.809D+00
 Gap=     0.587 Goal=   None    Shift=    0.000
 RMSDP=9.66D-04 MaxDP=3.67D-02 DE=-8.21D-02 OVMax= 9.12D-02

 Cycle   3  Pass 1  IDiag  1:
 E= -279.484000499574     Delta-E=       -0.037815007262 Rises=F Damp=F
 DIIS: error= 9.06D-03 at cycle   3 NSaved=   3.
 NSaved= 3 IEnMin= 3 EnMin= -279.484000499574     IErMin= 3 ErrMin= 9.06D-03
 ErrMax= 9.06D-03  0.00D+00 EMaxC= 1.00D-01 BMatC= 3.09D-02 BMatP= 8.60D-02
 IDIUse=3 WtCom= 9.09D-01 WtEn= 9.06D-02
 Coeff-Com: -0.347D-01 0.364D+00 0.671D+00
 Coeff-En:   0.000D+00 0.217D+00 0.783D+00
 Coeff:     -0.316D-01 0.351D+00 0.681D+00
 Gap=     0.541 Goal=   None    Shift=    0.000
 RMSDP=4.07D-04 MaxDP=1.57D-02 DE=-3.78D-02 OVMax= 3.83D-02

 Cycle   4  Pass 1  IDiag  1:
 E= -279.505114473374     Delta-E=       -0.021113973800 Rises=F Damp=F
 DIIS: error= 1.61D-03 at cycle   4 NSaved=   4.
 NSaved= 4 IEnMin= 4 EnMin= -279.505114473374     IErMin= 4 ErrMin= 1.61D-03
 ErrMax= 1.61D-03  0.00D+00 EMaxC= 1.00D-01 BMatC= 5.65D-04 BMatP= 3.09D-02
 IDIUse=3 WtCom= 9.84D-01 WtEn= 1.61D-02
 Coeff-Com: -0.119D-01 0.483D-01 0.150D+00 0.814D+00
 Coeff-En:   0.000D+00 0.000D+00 0.000D+00 0.100D+01
 Coeff:     -0.117D-01 0.475D-01 0.147D+00 0.817D+00
 Gap=     0.528 Goal=   None    Shift=    0.000
 RMSDP=9.85D-05 MaxDP=2.40D-03 DE=-2.11D-02 OVMax= 1.16D-02

 Cycle   5  Pass 1  IDiag  1:
 E= -279.505904806949     Delta-E=       -0.000790333574 Rises=F Damp=F
 DIIS: error= 1.09D-03 at cycle   5 NSaved=   5.
 NSaved= 5 IEnMin= 5 EnMin= -279.505904806949     IErMin= 5 ErrMin= 1.09D-03
 ErrMax= 1.09D-03  0.00D+00 EMaxC= 1.00D-01 BMatC= 1.02D-04 BMatP= 5.65D-04
 IDIUse=3 WtCom= 9.89D-01 WtEn= 1.09D-02
 Coeff-Com:  0.538D-02-0.658D-01-0.111D+00 0.596D-01 0.111D+01
 Coeff-En:   0.000D+00 0.000D+00 0.000D+00 0.000D+00 0.100D+01
 Coeff:      0.532D-02-0.651D-01-0.110D+00 0.590D-01 0.111D+01
 Gap=     0.532 Goal=   None    Shift=    0.000
 RMSDP=7.98D-05 MaxDP=2.12D-03 DE=-7.90D-04 OVMax= 1.29D-02

 Cycle   6  Pass 1  IDiag  1:
 E= -279.506266868884     Delta-E=       -0.000362061935 Rises=F Damp=F
 DIIS: error= 3.29D-04 at cycle   6 NSaved=   6.
 NSaved= 6 IEnMin= 6 EnMin= -279.506266868884     IErMin= 6 ErrMin= 3.29D-04
 ErrMax= 3.29D-04  0.00D+00 EMaxC= 1.00D-01 BMatC= 2.40D-05 BMatP= 1.02D-04
 IDIUse=3 WtCom= 9.97D-01 WtEn= 3.29D-03
 Coeff-Com:  0.188D-02-0.741D-02-0.169D-01-0.184D+00 0.137D-01 0.119D+01
 Coeff-En:   0.000D+00 0.000D+00 0.000D+00 0.000D+00 0.000D+00 0.100D+01
 Coeff:      0.188D-02-0.739D-02-0.169D-01-0.183D+00 0.136D-01 0.119D+01
 Gap=     0.532 Goal=   None    Shift=    0.000
 RMSDP=4.66D-05 MaxDP=1.07D-03 DE=-3.62D-04 OVMax= 6.10D-03

 Cycle   7  Pass 1  IDiag  1:
 E= -279.506352604649     Delta-E=       -0.000085735766 Rises=F Damp=F
 DIIS: error= 1.07D-04 at cycle   7 NSaved=   7.
 NSaved= 7 IEnMin= 7 EnMin= -279.506352604649     IErMin= 7 ErrMin= 1.07D-04
 ErrMax= 1.07D-04  0.00D+00 EMaxC= 1.00D-01 BMatC= 3.57D-06 BMatP= 2.40D-05
 IDIUse=3 WtCom= 9.99D-01 WtEn= 1.07D-03
 Coeff-Com: -0.109D-02 0.114D-01 0.249D-01 0.164D-01-0.181D+00-0.149D+00
 Coeff-Com:  0.128D+01
 Coeff-En:   0.000D+00 0.000D+00 0.000D+00 0.000D+00 0.000D+00 0.000D+00
 Coeff-En:   0.100D+01
 Coeff:     -0.109D-02 0.114D-01 0.249D-01 0.164D-01-0.181D+00-0.149D+00
 Coeff:      0.128D+01
 Gap=     0.532 Goal=   None    Shift=    0.000
 RMSDP=1.75D-05 MaxDP=5.10D-04 DE=-8.57D-05 OVMax= 2.32D-03

 Cycle   8  Pass 1  IDiag  1:
 E= -279.506364579134     Delta-E=       -0.000011974485 Rises=F Damp=F
 DIIS: error= 4.61D-05 at cycle   8 NSaved=   8.
 NSaved= 8 IEnMin= 8 EnMin= -279.506364579134     IErMin= 8 ErrMin= 4.61D-05
 ErrMax= 4.61D-05  0.00D+00 EMaxC= 1.00D-01 BMatC= 6.00D-07 BMatP= 3.57D-06
 IDIUse=1 WtCom= 1.00D+00 WtEn= 0.00D+00
 Coeff-Com: -0.560D-03 0.414D-02 0.960D-02 0.251D-01-0.572D-01-0.193D+00
 Coeff-Com:  0.354D+00 0.858D+00
 Coeff:     -0.560D-03 0.414D-02 0.960D-02 0.251D-01-0.572D-01-0.193D+00
 Coeff:      0.354D+00 0.858D+00
 Gap=     0.532 Goal=   None    Shift=    0.000
 RMSDP=5.44D-06 MaxDP=1.49D-04 DE=-1.20D-05 OVMax= 6.50D-04

 Cycle   9  Pass 1  IDiag  1:
 E= -279.506365959920     Delta-E=       -0.000001380786 Rises=F Damp=F
 DIIS: error= 2.13D-05 at cycle   9 NSaved=   9.
 NSaved= 9 IEnMin= 9 EnMin= -279.506365959920     IErMin= 9 ErrMin= 2.13D-05
 ErrMax= 2.13D-05  0.00D+00 EMaxC= 1.00D-01 BMatC= 1.16D-07 BMatP= 6.00D-07
 IDIUse=1 WtCom= 1.00D+00 WtEn= 0.00D+00
 Coeff-Com:  0.241D-03-0.256D-02-0.530D-02-0.565D-02 0.469D-01 0.490D-01
 Coeff-Com: -0.339D+00 0.303D-01 0.123D+01
 Coeff:      0.241D-03-0.256D-02-0.530D-02-0.565D-02 0.469D-01 0.490D-01
 Coeff:     -0.339D+00 0.303D-01 0.123D+01
 Gap=     0.532 Goal=   None    Shift=    0.000
 RMSDP=2.47D-06 MaxDP=7.41D-05 DE=-1.38D-06 OVMax= 2.23D-04

 Cycle  10  Pass 1  IDiag  1:
 E= -279.506366224246     Delta-E=       -0.000000264326 Rises=F Damp=F
 DIIS: error= 5.58D-06 at cycle  10 NSaved=  10.
 NSaved=10 IEnMin=10 EnMin= -279.506366224246     IErMin=10 ErrMin= 5.58D-06
 ErrMax= 5.58D-06  0.00D+00 EMaxC= 1.00D-01 BMatC= 8.29D-09 BMatP= 1.16D-07
 IDIUse=1 WtCom= 1.00D+00 WtEn= 0.00D+00
 Coeff-Com: -0.378D-04 0.486D-03 0.120D-02-0.187D-02-0.109D-01 0.540D-02
 Coeff-Com:  0.722D-01-0.536D-01-0.435D+00 0.142D+01
 Coeff:     -0.378D-04 0.486D-03 0.120D-02-0.187D-02-0.109D-01 0.540D-02
 Coeff:      0.722D-01-0.536D-01-0.435D+00 0.142D+01
 Gap=     0.532 Goal=   None    Shift=    0.000
 RMSDP=7.09D-07 MaxDP=2.54D-05 DE=-2.64D-07 OVMax= 6.62D-05

 Cycle  11  Pass 1  IDiag  1:
 E= -279.506366249379     Delta-E=       -0.000000025133 Rises=F Damp=F
 DIIS: error= 2.20D-06 at cycle  11 NSaved=  11.
 NSaved=11 IEnMin=11 EnMin= -279.506366249379     IErMin=11 ErrMin= 2.20D-06
 ErrMax= 2.20D-06  0.00D+00 EMaxC= 1.00D-01 BMatC= 8.50D-10 BMatP= 8.29D-09
 IDIUse=1 WtCom= 1.00D+00 WtEn= 0.00D+00
 Coeff-Com: -0.163D-04 0.167D-03 0.340D-03 0.906D-03-0.218D-02-0.723D-02
 Coeff-Com:  0.189D-01 0.194D-01-0.491D-01-0.327D+00 0.135D+01
 Coeff:     -0.163D-04 0.167D-03 0.340D-03 0.906D-03-0.218D-02-0.723D-02
 Coeff:      0.189D-01 0.194D-01-0.491D-01-0.327D+00 0.135D+01
 Gap=     0.532 Goal=   None    Shift=    0.000
 RMSDP=2.49D-07 MaxDP=8.93D-06 DE=-2.51D-08 OVMax= 2.47D-05

 Cycle  12  Pass 1  IDiag  1:
 E= -279.506366252480     Delta-E=       -0.000000003101 Rises=F Damp=F
 DIIS: error= 7.18D-07 at cycle  12 NSaved=  12.
 NSaved=12 IEnMin=12 EnMin= -279.506366252480     IErMin=12 ErrMin= 7.18D-07
 ErrMax= 7.18D-07  0.00D+00 EMaxC= 1.00D-01 BMatC= 9.19D-11 BMatP= 8.50D-10
 IDIUse=1 WtCom= 1.00D+00 WtEn= 0.00D+00
 Coeff-Com:  0.267D-05-0.460D-04-0.101D-03 0.138D-03 0.116D-02-0.765D-03
 Coeff-Com: -0.745D-02 0.650D-02 0.420D-01-0.116D+00-0.183D+00 0.126D+01
 Coeff:      0.267D-05-0.460D-04-0.101D-03 0.138D-03 0.116D-02-0.765D-03
 Coeff:     -0.745D-02 0.650D-02 0.420D-01-0.116D+00-0.183D+00 0.126D+01
 Gap=     0.532 Goal=   None    Shift=    0.000
 RMSDP=8.93D-08 MaxDP=2.72D-06 DE=-3.10D-09 OVMax= 8.65D-06

 Cycle  13  Pass 1  IDiag  1:
 E= -279.506366252818     Delta-E=       -0.000000000338 Rises=F Damp=F
 DIIS: error= 1.65D-07 at cycle  13 NSaved=  13.
 NSaved=13 IEnMin=13 EnMin= -279.506366252818     IErMin=13 ErrMin= 1.65D-07
 ErrMax= 1.65D-07  0.00D+00 EMaxC= 1.00D-01 BMatC= 8.84D-12 BMatP= 9.19D-11
 IDIUse=1 WtCom= 1.00D+00 WtEn= 0.00D+00
 Coeff-Com:  0.135D-05-0.128D-04-0.175D-04-0.128D-03 0.433D-04 0.982D-03
 Coeff-Com: -0.106D-02-0.274D-02-0.230D-02 0.582D-01-0.133D+00-0.166D+00
 Coeff-Com:  0.125D+01
 Coeff:      0.135D-05-0.128D-04-0.175D-04-0.128D-03 0.433D-04 0.982D-03
 Coeff:     -0.106D-02-0.274D-02-0.230D-02 0.582D-01-0.133D+00-0.166D+00
 Coeff:      0.125D+01
 Gap=     0.532 Goal=   None    Shift=    0.000
 RMSDP=2.68D-08 MaxDP=5.19D-07 DE=-3.38D-10 OVMax= 3.06D-06

 Cycle  14  Pass 1  IDiag  1:
 E= -279.506366252848     Delta-E=       -0.000000000030 Rises=F Damp=F
 DIIS: error= 5.64D-08 at cycle  14 NSaved=  14.
 NSaved=14 IEnMin=14 EnMin= -279.506366252848     IErMin=14 ErrMin= 5.64D-08
 ErrMax= 5.64D-08  0.00D+00 EMaxC= 1.00D-01 BMatC= 1.10D-12 BMatP= 8.84D-12
 IDIUse=1 WtCom= 1.00D+00 WtEn= 0.00D+00
 Coeff-Com: -0.431D-06 0.606D-05 0.116D-04 0.284D-05-0.136D-03 0.120D-04
 Coeff-Com:  0.838D-03-0.264D-03-0.409D-02 0.612D-02 0.280D-01-0.957D-01
 Coeff-Com: -0.107D+00 0.117D+01
 Coeff:     -0.431D-06 0.606D-05 0.116D-04 0.284D-05-0.136D-03 0.120D-04
 Coeff:      0.838D-03-0.264D-03-0.409D-02 0.612D-02 0.280D-01-0.957D-01
 Coeff:     -0.107D+00 0.117D+01
 Gap=     0.532 Goal=   None    Shift=    0.000
 RMSDP=8.90D-09 MaxDP=1.95D-07 DE=-2.97D-11 OVMax= 1.49D-06

 SCF Done:  E(RHF) =  -279.506366253     A.U. after   14 cycles
            NFock= 14  Conv=0.89D-08     -V/T= 2.0022
 KE= 2.788852646597D+02 PE=-9.063603947250D+02 EE= 2.252224735918D+02
 Leave Link  502 at Sun Mar  6 19:56:27 2022, MaxMem= 16106127360 cpu:              40.5 elap:               6.8
 (Enter /sw/contrib/gaussian/g16/B01/g16/l801.exe)
 ExpMin= 2.53D-02 ExpMax= 1.53D+04 ExpMxC= 5.22D+02 IAcc=3 IRadAn=         5 AccDes= 0.00D+00
 HarFok:  IExCor=  205 AccDes= 0.00D+00 IRadAn=         5 IDoV=-2 UseB2=F ITyADJ=14
 ICtDFT= 12500011 ScaDFX=  1.000000  1.000000  1.000000  1.000000
 Largest valence mixing into a core orbital is  2.07D-04
 Largest core mixing into a valence orbital is  3.10D-05
 Range of M.O.s used for correlation:     5   207
 NBasis=   207 NAE=    16 NBE=    16 NFC=     4 NFV=     0
 NROrb=    203 NOA=    12 NOB=    12 NVA=   191 NVB=   191

 **** Warning!!: The largest alpha MO coefficient is  0.16339421D+02

 Leave Link  801 at Sun Mar  6 19:56:27 2022, MaxMem= 16106127360 cpu:               2.2 elap:               0.1
 (Enter /sw/contrib/gaussian/g16/B01/g16/l906.exe)
 Frozen-core derivative calculation, NFC=   4 NFV=   0.
 FulOut=F Deriv=T AODrv=T NAtomX=     5
   MMem=           0  MDisk=          12 MDiskD=          12
  W3Min=      811440 MinDsk=     2425030 NBas6D=         245
 NBas2D=       30762    NTT=       30135    LW2=     7400000
    MDV= 16105635804 MDiskM=      328645 NBas2p=       30759
 Disk-based method using ON**2 memory for 12 occupieds at a time.
 Permanent disk used for amplitudes=    11516536 words.
 Estimated scratch disk usage=   321863743 words.
 IMap=   1   2   3   4   5   6   7   8   9  10  11  12  13  14  15  16
 Actual    scratch disk usage=   310892607 words.
 JobTyp=1 Pass  1:  I=   5 to  16 NPSUse= 28 ParTrn=T ParDer=T DoDerP=T.
 (rs|ai) integrals will be sorted in core.
 Spin components of T(2) and E(2):
     alpha-alpha T2 =       0.3479615852D-01 E2=     -0.1245457652D+00
     alpha-beta  T2 =       0.1844976420D+00 E2=     -0.6996913943D+00
     beta-beta   T2 =       0.3479615852D-01 E2=     -0.1245457652D+00
 The integrals were generated   1 times.
 ANorm=    0.1119861580D+01
 E2 =    -0.9487829247D+00 EUMP2 =    -0.28045514917750D+03
 Leave Link  906 at Sun Mar  6 19:58:04 2022, MaxMem= 16106127360 cpu:            2734.3 elap:              97.8
 (Enter /sw/contrib/gaussian/g16/B01/g16/l1101.exe)
 Using compressed Sx but separate Hx and Fx, NAtomX=     5.
 Will process      6 centers per pass.
 Leave Link 1101 at Sun Mar  6 19:58:05 2022, MaxMem= 16106127360 cpu:               5.5 elap:               0.2
 (Enter /sw/contrib/gaussian/g16/B01/g16/l1102.exe)
 Leave Link 1102 at Sun Mar  6 19:58:05 2022, MaxMem= 16106127360 cpu:               0.8 elap:               0.0
 (Enter /sw/contrib/gaussian/g16/B01/g16/l1110.exe)
 Forming Gx(P) for the SCF density, NAtomX=     5.
 Integral derivatives from FoFJK, PRISM(SPDF).
 Do as many integral derivatives as possible in FoFJK.
 G2DrvN: MDV=   16106126844.
 G2DrvN: will do     6 centers at a time, making    1 passes.
 Calling FoFCou, ICntrl=  3107 FMM=F I1Cent=   0 AccDes= 0.00D+00.
 FoFJK:  IHMeth= 1 ICntrl=    3107 DoSepK=F KAlg= 0 I1Cent=           0 FoldK=F
 IRaf=         0 NMat=       1 IRICut=       1 DoRegI=T DoRafI=F ISym2E= 0 IDoP0=0 IntGTp=1.
 FoFCou: FMM=F IPFlag=           0 FMFlag=      100000 FMFlg1=           0
         NFxFlg=           0 DoJE=F BraDBF=F KetDBF=F FulRan=T
         wScrn=  0.000000 ICntrl=      3107 IOpCl=  0 I1Cent=           0 NGrid=           0
         NMat0=    1 NMatS0=      1 NMatT0=    0 NMatD0=    1 NMtDS0=    0 NMtDT0=    0
 Symmetry not used in FoFCou.
 End of G2Drv F.D. properties file   721 does not exist.
 End of G2Drv F.D. properties file   722 does not exist.
 End of G2Drv F.D. properties file   788 does not exist.
 Leave Link 1110 at Sun Mar  6 19:58:08 2022, MaxMem= 16106127360 cpu:              86.3 elap:               3.1
 (Enter /sw/contrib/gaussian/g16/B01/g16/l1002.exe)
 Minotr:  Closed shell wavefunction.
          IDoAtm=11111
          Frozen-core window.
          Direct CPHF calculation.
          Differentiating once with respect to electric field.
                with respect to dipole field.
          Differentiating once with respect to nuclear coordinates.
          Requested convergence is 1.0D-08 RMS, and 1.0D-07 maximum.
          Secondary convergence is 1.0D-12 RMS, and 1.0D-12 maximum.
          NewPWx=T KeepS1=T KeepF1=T KeepIn=T MapXYZ=F SortEE=F KeepMc=T.
 Keep R1 ints in memory in canonical form, NReq=245624906.
 FoFCou: FMM=F IPFlag=           0 FMFlag=           0 FMFlg1=           0
         NFxFlg=           0 DoJE=F BraDBF=F KetDBF=F FulRan=T
         wScrn=  0.000000 ICntrl=       600 IOpCl=  0 I1Cent=           0 NGrid=           0
         NMat0=    1 NMatS0=  21528 NMatT0=    0 NMatD0=    1 NMtDS0=    0 NMtDT0=    0
 Symmetry not used in FoFCou.
 Two-electron integral symmetry not used.
          MDV=   16106127360 using IRadAn=       1.
          Solving linear equations simultaneously, MaxMat=       0.
          There are    18 degrees of freedom in the 1st order CPHF.  IDoFFX=6 NUNeed=    18.
     15 vectors produced by pass  0 Test12= 1.70D-14 5.56D-09 XBig12= 7.45D+00 1.31D+00.
 AX will form    15 AO Fock derivatives at one time.
     15 vectors produced by pass  1 Test12= 1.70D-14 5.56D-09 XBig12= 1.30D+00 2.36D-01.
     15 vectors produced by pass  2 Test12= 1.70D-14 5.56D-09 XBig12= 9.08D-02 8.06D-02.
     15 vectors produced by pass  3 Test12= 1.70D-14 5.56D-09 XBig12= 3.21D-03 1.20D-02.
     15 vectors produced by pass  4 Test12= 1.70D-14 5.56D-09 XBig12= 6.97D-05 1.60D-03.
     15 vectors produced by pass  5 Test12= 1.70D-14 5.56D-09 XBig12= 7.38D-07 1.06D-04.
     15 vectors produced by pass  6 Test12= 1.70D-14 5.56D-09 XBig12= 4.63D-09 1.23D-05.
     13 vectors produced by pass  7 Test12= 1.70D-14 5.56D-09 XBig12= 3.39D-11 8.73D-07.
      3 vectors produced by pass  8 Test12= 1.70D-14 5.56D-09 XBig12= 2.78D-13 6.08D-08.
      1 vectors produced by pass  9 Test12= 1.70D-14 5.56D-09 XBig12= 2.43D-15 8.00D-09.
 InvSVY:  IOpt=1 It=  1 EMax= 1.33D-15
 Solved reduced A of dimension   122 with    15 vectors.
 FullF1:  Do perturbations      1 to      18.
 Saving first derivative matrices.
 End of Minotr F.D. properties file   721 does not exist.
 End of Minotr F.D. properties file   722 does not exist.
 End of Minotr F.D. properties file   788 does not exist.
 Leave Link 1002 at Sun Mar  6 19:58:12 2022, MaxMem= 16106127360 cpu:              92.3 elap:               3.7
 (Enter /sw/contrib/gaussian/g16/B01/g16/l811.exe)
 MDV= 16106127360.
 Form MO integral derivatives with frozen-active canonical formalism.
 MOERI=1 MOERIx=1 NAtoms=     5 NAtomX=     5.
 Discarding MO integrals.
 MO basis two electron integral derivatives will not be stored on disk.
 IAlg= 3 DoFC=T DoPWx=T Debug=F.
 Frozen-core window:  NFC=   4 NFV=   0.
 Reordered first order wavefunction length =     18678272
 In DefCFB: NBatch=  1 ICI= 16 ICA=191 LFMax= 96
            Large arrays: LIAPS=   619940160 LIARS=   288257200 words.
 In StABat: MaxSiz= 55 MinSiz= 25 NAtomB=  5
 DoIAMN: NPSUse= 28.
 Leave Link  811 at Sun Mar  6 19:59:44 2022, MaxMem= 16106127360 cpu:            2588.1 elap:              92.6
 (Enter /sw/contrib/gaussian/g16/B01/g16/l804.exe)
 Frozen-core window:  NFC=   4 NFV=   0.
 Closed-shell transformation, MDV= 16106127360 ITran=4 ISComp=1.
 Semi-Direct transformation.
 ModeAB=           2 MOrb=            16 LenV=   16104922737
 LASXX=     67341636 LTotXX=    67341636 LenRXX=    67341636
 LTotAB=    68301760 MaxLAS=    99807120 LenRXY=    99807120
 NonZer=   134683272 LenScr=   202817536 LnRSAI=           0
 LnScr1=           0 LExtra=           0 Total=    369966292
 MaxDsk=          -1 SrtSym=           F ITran=            4
 DoSDTr:  NPSUse= 28
 JobTyp=0 Pass  1:  I=   1 to  16.
 (rs|ai) integrals will be sorted in core.
 Complete sort for first half transformation.
 First half transformation complete.
 Begin second half transformation for I=  10.
 Begin second half transformation for I=  10.
 Complete sort for second half transformation.
 Second half transformation complete.
 SymMOI:  orbitals are not symmetric.
 Spin components of T(2) and E(2):
     alpha-alpha T2 =       0.3479615852D-01 E2=     -0.1245457652D+00
     alpha-beta  T2 =       0.1844976420D+00 E2=     -0.6996913943D+00
     beta-beta   T2 =       0.3479615852D-01 E2=     -0.1245457652D+00
 ANorm=    0.1583723435D+01
 E2 =    -0.9487829247D+00 EUMP2 =    -0.28045514917750D+03
 Leave Link  804 at Sun Mar  6 19:59:58 2022, MaxMem= 16106127360 cpu:             379.3 elap:              13.6
 (Enter /sw/contrib/gaussian/g16/B01/g16/l1002.exe)
 Minotr:  Closed shell wavefunction.
          Computing MP2/KS-MP2 derivatives.
          Using Z-Vector for PSCF gradient.
          Skipping F1 and S1 gradient terms here.
          IDoAtm=11111
          Frozen-core window.
          Using MO integrals in the linear equations.
          Forming densities via direct SCF.
          Differentiating once with respect to electric field.
                with respect to dipole field.
          Differentiating once with respect to nuclear coordinates.
          Requested convergence is 1.0D-10 RMS, and 1.0D-09 maximum.
          NewPWx=F KeepS1=T KeepF1=T KeepIn=T MapXYZ=F SortEE=F KeepMc=T.
          MDV=   16106127360 using IRadAn=       5.
          Solving linear equations separately, MaxMat=       0.
          There are     1 degrees of freedom in the 1st order CPHF.  IDoFFX=0 NUNeed=     1.
 FoFJK:  IHMeth= 1 ICntrl=       0 DoSepK=F KAlg= 0 I1Cent=           0 FoldK=F
 IRaf=         0 NMat=       1 IRICut=       1 DoRegI=T DoRafI=F ISym2E= 0 IDoP0=0 IntGTp=1.
 FoFCou: FMM=F IPFlag=           0 FMFlag=      100000 FMFlg1=           0
         NFxFlg=           0 DoJE=F BraDBF=F KetDBF=F FulRan=T
         wScrn=  0.000000 ICntrl=         0 IOpCl=  0 I1Cent=           0 NGrid=           0
         NMat0=    1 NMatS0=      1 NMatT0=    0 NMatD0=    1 NMtDS0=    0 NMtDT0=    0
 Symmetry not used in FoFCou.
 LinEq1:  Iter=  0 NonCon=     1 RMS=6.59D-03 Max=1.69D-01 NDo=     1
 LinEq1:  Iter=  1 NonCon=     1 RMS=2.00D-03 Max=3.06D-02 NDo=     1
 LinEq1:  Iter=  2 NonCon=     1 RMS=8.88D-04 Max=1.44D-02 NDo=     1
 LinEq1:  Iter=  3 NonCon=     1 RMS=3.80D-04 Max=8.09D-03 NDo=     1
 LinEq1:  Iter=  4 NonCon=     1 RMS=1.37D-04 Max=1.65D-03 NDo=     1
 LinEq1:  Iter=  5 NonCon=     1 RMS=7.64D-05 Max=1.13D-03 NDo=     1
 LinEq1:  Iter=  6 NonCon=     1 RMS=2.44D-05 Max=3.12D-04 NDo=     1
 LinEq1:  Iter=  7 NonCon=     1 RMS=8.23D-06 Max=9.52D-05 NDo=     1
 LinEq1:  Iter=  8 NonCon=     1 RMS=4.02D-06 Max=6.34D-05 NDo=     1
 LinEq1:  Iter=  9 NonCon=     1 RMS=1.07D-06 Max=1.19D-05 NDo=     1
 LinEq1:  Iter= 10 NonCon=     1 RMS=2.51D-07 Max=4.61D-06 NDo=     1
 LinEq1:  Iter= 11 NonCon=     1 RMS=6.72D-08 Max=2.03D-06 NDo=     1
 LinEq1:  Iter= 12 NonCon=     1 RMS=2.02D-08 Max=5.41D-07 NDo=     1
 LinEq1:  Iter= 13 NonCon=     1 RMS=4.84D-09 Max=8.14D-08 NDo=     1
 LinEq1:  Iter= 14 NonCon=     1 RMS=9.51D-10 Max=9.12D-09 NDo=     1
 LinEq1:  Iter= 15 NonCon=     1 RMS=2.51D-10 Max=2.79D-09 NDo=     1
 LinEq1:  Iter= 16 NonCon=     0 RMS=5.01D-11 Max=6.18D-10 NDo=     1
 Linear equations converged to 1.000D-10 1.000D-09 after    16 iterations.
 End of Minotr F.D. properties file   721 does not exist.
 End of Minotr F.D. properties file   722 does not exist.
 End of Minotr F.D. properties file   788 does not exist.
 Leave Link 1002 at Sun Mar  6 20:00:00 2022, MaxMem= 16106127360 cpu:              67.0 elap:               2.4
 (Enter /sw/contrib/gaussian/g16/B01/g16/l1102.exe)
 Use density number 2.
 Symmetrizing basis deriv contribution to polar:
 IMax=3 JMax=2 DiffMx= 0.00D+00
 Leave Link 1102 at Sun Mar  6 20:00:00 2022, MaxMem= 16106127360 cpu:               0.6 elap:               0.1
 (Enter /sw/contrib/gaussian/g16/B01/g16/l1110.exe)
 Forming Gx(P) for generalized density number  2 NAtomX=     5.
 Integral derivatives from FoFJK, PRISM(SPDF).
 Do as many integral derivatives as possible in FoFJK.
 G2DrvN: MDV=   16106126844.
 G2DrvN: will do     6 centers at a time, making    1 passes.
 Calling FoFCou, ICntrl=  3107 FMM=F I1Cent=   0 AccDes= 0.00D+00.
 FoFJK:  IHMeth= 1 ICntrl=    3107 DoSepK=F KAlg= 0 I1Cent=           0 FoldK=F
 IRaf=         0 NMat=       1 IRICut=       1 DoRegI=T DoRafI=F ISym2E= 0 IDoP0=0 IntGTp=1.
 FoFCou: FMM=F IPFlag=           0 FMFlag=      100000 FMFlg1=           0
         NFxFlg=           0 DoJE=F BraDBF=F KetDBF=F FulRan=T
         wScrn=  0.000000 ICntrl=      3107 IOpCl=  0 I1Cent=           0 NGrid=           0
         NMat0=    1 NMatS0=      1 NMatT0=    0 NMatD0=    1 NMtDS0=    0 NMtDT0=    0
 Symmetry not used in FoFCou.
 End of G2Drv F.D. properties file   721 does not exist.
 End of G2Drv F.D. properties file   722 does not exist.
 End of G2Drv F.D. properties file   788 does not exist.
 Leave Link 1110 at Sun Mar  6 20:00:04 2022, MaxMem= 16106127360 cpu:              87.0 elap:               3.1
 (Enter /sw/contrib/gaussian/g16/B01/g16/l1112.exe)
 MP22nd: MDV=   16106127360
 This link is doing NAtomX=     5 total of    18 degrees of freedom.
 Using ON3 I/O method in MakUI.
 Frozen-core window:  NFC=   4 NFV=   0.
 Using Ix for Sx.
 Use MO integrals over full window.
 Using OV2 memory method for fx*t*t/D, MaxI=    16 DoOO2=F NP=  28.
 R2 and R3 integrals will be kept in memory, NReq=   915591705.
 FoFCou: FMM=F IPFlag=           0 FMFlag=           0 FMFlg1=           0
         NFxFlg=           0 DoJE=F BraDBF=F KetDBF=F FulRan=T
         wScrn=  0.000000 ICntrl=       600 IOpCl=  0 I1Cent=           0 NGrid=           0
         NMat0=    1 NMatS0=      1 NMatT0=    0 NMatD0=    1 NMtDS0=    0 NMtDT0=    0
 Symmetry not used in FoFCou.
 DD1Dir will call FoFMem   1 times, MxPair=       272
 NAB=   136 NAA=     0 NBB=     0.
 Symmetry is being used.
 FoFJK:  IHMeth= 1 ICntrl=       0 DoSepK=F KAlg= 0 I1Cent=           0 FoldK=F
 IRaf=         0 NMat=      18 IRICut=      45 DoRegI=T DoRafI=T ISym2E= 2 IDoP0=3 IntGTp=3.
 Discarding MO integrals.
 Leave Link 1112 at Sun Mar  6 20:00:30 2022, MaxMem= 16106127360 cpu:             720.5 elap:              25.8
 (Enter /sw/contrib/gaussian/g16/B01/g16/l601.exe)
 Copying SCF densities to generalized density rwf, IOpCl= 0 IROHF=0.

 **********************************************************************

            Population analysis using the MP2 Density.

 **********************************************************************

 Orbital symmetries:
       Occupied  (A) (A) (A) (A) (A) (A) (A) (A) (A) (A) (A) (A)
                 (A) (A) (A) (A)
       Virtual   (A) (A) (A) (A) (A) (A) (A) (A) (A) (A) (A) (A)
                 (A) (A) (A) (A) (A) (A) (A) (A) (A) (A) (A) (A)
                 (A) (A) (A) (A) (A) (A) (A) (A) (A) (A) (A) (A)
                 (A) (A) (A) (A) (A) (A) (A) (A) (A) (A) (A) (A)
                 (A) (A) (A) (A) (A) (A) (A) (A) (A) (A) (A) (A)
                 (A) (A) (A) (A) (A) (A) (A) (A) (A) (A) (A) (A)
                 (A) (A) (A) (A) (A) (A) (A) (A) (A) (A) (A) (A)
                 (A) (A) (A) (A) (A) (A) (A) (A) (A) (A) (A) (A)
                 (A) (A) (A) (A) (A) (A) (A) (A) (A) (A) (A) (A)
                 (A) (A) (A) (A) (A) (A) (A) (A) (A) (A) (A) (A)
                 (A) (A) (A) (A) (A) (A) (A) (A) (A) (A) (A) (A)
                 (A) (A) (A) (A) (A) (A) (A) (A) (A) (A) (A) (A)
                 (A) (A) (A) (A) (A) (A) (A) (A) (A) (A) (A) (A)
                 (A) (A) (A) (A) (A) (A) (A) (A) (A) (A) (A) (A)
                 (A) (A) (A) (A) (A) (A) (A) (A) (A) (A) (A) (A)
                 (A) (A) (A) (A) (A) (A) (A) (A) (A) (A) (A)
 The electronic state is 1-A.
 Alpha  occ. eigenvalues --  -20.71975 -20.68726 -20.66831 -15.82600  -1.64427
 Alpha  occ. eigenvalues --   -1.50516  -1.29376  -0.96036  -0.83463  -0.75893
 Alpha  occ. eigenvalues --   -0.73994  -0.63743  -0.61903  -0.61811  -0.50476
 Alpha  occ. eigenvalues --   -0.49740
 Alpha virt. eigenvalues --    0.03506   0.06019   0.09512   0.10038   0.11940
 Alpha virt. eigenvalues --    0.12285   0.14939   0.15204   0.17744   0.18044
 Alpha virt. eigenvalues --    0.18971   0.21108   0.21675   0.24253   0.24634
 Alpha virt. eigenvalues --    0.26896   0.31207   0.31734   0.33806   0.34386
 Alpha virt. eigenvalues --    0.34680   0.39261   0.44868   0.48818   0.50541
 Alpha virt. eigenvalues --    0.51858   0.54491   0.56122   0.59905   0.62029
 Alpha virt. eigenvalues --    0.63849   0.68971   0.71694   0.72447   0.74316
 Alpha virt. eigenvalues --    0.76373   0.76728   0.79527   0.80630   0.84034
 Alpha virt. eigenvalues --    0.84318   0.85189   0.88548   0.90779   0.93031
 Alpha virt. eigenvalues --    0.94831   0.95416   1.01807   1.03261   1.06202
 Alpha virt. eigenvalues --    1.06576   1.09574   1.14393   1.15632   1.16993
 Alpha virt. eigenvalues --    1.22216   1.22708   1.24608   1.35256   1.36182
 Alpha virt. eigenvalues --    1.37139   1.46850   1.48567   1.50476   1.54171
 Alpha virt. eigenvalues --    1.59400   1.59777   1.60825   1.62876   1.69557
 Alpha virt. eigenvalues --    1.74054   1.80118   1.82990   1.88753   1.89678
 Alpha virt. eigenvalues --    1.92946   1.97913   1.98955   2.05217   2.12383
 Alpha virt. eigenvalues --    2.13057   2.16544   2.18800   2.24168   2.26168
 Alpha virt. eigenvalues --    2.29444   2.35214   2.36616   2.38651   2.40224
 Alpha virt. eigenvalues --    2.43368   2.46861   2.47989   2.52897   2.53878
 Alpha virt. eigenvalues --    2.54903   2.55931   2.61612   2.63017   2.67152
 Alpha virt. eigenvalues --    2.67445   2.75417   2.80901   2.81850   2.84124
 Alpha virt. eigenvalues --    2.91870   2.98531   3.04688   3.05104   3.11550
 Alpha virt. eigenvalues --    3.11819   3.17346   3.21322   3.30797   3.33232
 Alpha virt. eigenvalues --    3.36108   3.47782   3.67807   3.86969   3.93048
 Alpha virt. eigenvalues --    4.18353   4.22071   4.22783   4.26877   4.36978
 Alpha virt. eigenvalues --    4.50020   4.52816   4.55616   4.59910   4.69378
 Alpha virt. eigenvalues --    4.80989   4.89703   4.91632   4.94130   4.99838
 Alpha virt. eigenvalues --    5.00595   5.10791   5.13310   5.17958   5.25008
 Alpha virt. eigenvalues --    5.25891   5.31795   5.34707   5.35621   5.54705
 Alpha virt. eigenvalues --    5.64494   5.70622   5.88944   5.99745   6.26463
 Alpha virt. eigenvalues --    6.29599   6.36111   6.37675   6.59825   6.65932
 Alpha virt. eigenvalues --    6.65978   6.68999   6.72613   6.79604   6.80619
 Alpha virt. eigenvalues --    6.85091   6.96794   7.02072   7.06637   7.08032
 Alpha virt. eigenvalues --    7.13874   7.17323   7.17752   7.20348   7.24482
 Alpha virt. eigenvalues --    7.24868   7.27153   7.34953   7.39430   7.42823
 Alpha virt. eigenvalues --    7.44273   7.46301   7.55968   7.66350   7.66762
 Alpha virt. eigenvalues --    7.79451   7.88315   7.95285   8.06457   8.30669
 Alpha virt. eigenvalues --    8.50004   8.65224  13.61905  14.76271  15.10488
 Alpha virt. eigenvalues --   15.76390
          Condensed to atoms (all electrons):
               1          2          3          4          5
     1  H    0.578585   0.124250   0.024205  -0.000260  -0.004813
     2  O    0.124250   8.390216  -0.230699  -0.000660  -0.008966
     3  O    0.024205  -0.230699   8.371896  -0.169077  -0.034022
     4  N   -0.000260  -0.000660  -0.169077   7.135311  -0.119516
     5  O   -0.004813  -0.008966  -0.034022  -0.119516   8.363110
 Mulliken charges:
               1
     1  H    0.278034
     2  O   -0.274140
     3  O    0.037698
     4  N    0.154202
     5  O   -0.195793
 Sum of Mulliken charges =  -0.00000
 Mulliken charges with hydrogens summed into heavy atoms:
               1
     2  O    0.003893
     3  O    0.037698
     4  N    0.154202
     5  O   -0.195793
 APT charges:
               1
     1  H    0.271491
     2  O   -0.302546
     3  O   -0.309207
     4  N    0.643171
     5  O   -0.302910
 Sum of APT charges =  -0.00000
 APT charges with hydrogens summed into heavy atoms:
               1
     2  O   -0.031055
     3  O   -0.309207
     4  N    0.643171
     5  O   -0.302910
 Electronic spatial extent (au):  <R**2>=            207.2259
 Charge=             -0.0000 electrons
 Dipole moment (field-independent basis, Debye):
    X=              0.6061    Y=             -0.9128    Z=              0.0333  Tot=              1.0962
 Quadrupole moment (field-independent basis, Debye-Ang):
   XX=            -25.1097   YY=            -21.2120   ZZ=            -21.9322
   XY=              0.3826   XZ=             -0.0218   YZ=             -0.0860
 Traceless Quadrupole moment (field-independent basis, Debye-Ang):
   XX=             -2.3584   YY=              1.5393   ZZ=              0.8191
   XY=              0.3826   XZ=             -0.0218   YZ=             -0.0860
 Octapole moment (field-independent basis, Debye-Ang**2):
  XXX=             -0.1520  YYY=             -5.4960  ZZZ=             -0.0328  XYY=             -2.3114
  XXY=              0.5374  XXZ=             -0.0670  XZZ=              0.8899  YZZ=             -0.2231
  YYZ=              0.0440  XYZ=              0.0251
 Hexadecapole moment (field-independent basis, Debye-Ang**3):
 XXXX=           -153.9735 YYYY=            -65.2367 ZZZZ=            -18.0539 XXXY=             -2.8063
 XXXZ=             -0.0355 YYYX=             -0.2077 YYYZ=             -0.1843 ZZZX=             -0.0275
 ZZZY=             -0.0300 XXYY=            -36.9616 XXZZ=            -27.9813 YYZZ=            -14.9471
 XXYZ=             -0.0694 YYXZ=             -0.1002 ZZXY=             -0.9807
 N-N= 1.227462902207D+02 E-N=-9.070486216951D+02  KE= 2.802026507125D+02
  Exact polarizability:  34.498  -0.729  26.274   0.029  -0.006  17.622
 Approx polarizability:  26.141  -1.635  26.074   0.014   0.005  15.518
 No NMR shielding tensors so no spin-rotation constants.
 Leave Link  601 at Sun Mar  6 20:00:30 2022, MaxMem= 16106127360 cpu:               4.3 elap:               0.2
 (Enter /sw/contrib/gaussian/g16/B01/g16/l701.exe)
 ... and contract with generalized density number  2.
 Compute integral second derivatives.
 Leave Link  701 at Sun Mar  6 20:00:30 2022, MaxMem= 16106127360 cpu:               7.0 elap:               0.3
 (Enter /sw/contrib/gaussian/g16/B01/g16/l702.exe)
 L702 exits ... SP integral derivatives will be done elsewhere.
 Leave Link  702 at Sun Mar  6 20:00:30 2022, MaxMem= 16106127360 cpu:               0.5 elap:               0.0
 (Enter /sw/contrib/gaussian/g16/B01/g16/l703.exe)
 Integral derivatives from FoFJK, PRISM(SPDF).
 Compute integral second derivatives, UseDBF=F ICtDFT=           0.
 Calling FoFJK, ICntrl=  10100127 FMM=F ISym2X=0 I1Cent= 0 IOpClX= 0 NMat=1 NMatS=1 NMatT=0.
 FoFJK:  IHMeth= 1 ICntrl=10100127 DoSepK=F KAlg= 0 I1Cent=           0 FoldK=F
 IRaf=         0 NMat=       1 IRICut=       1 DoRegI=T DoRafI=F ISym2E= 0 IDoP0=0 IntGTp=1.
 FoFCou: FMM=F IPFlag=           0 FMFlag=      100000 FMFlg1=         800
         NFxFlg=           0 DoJE=F BraDBF=F KetDBF=F FulRan=T
         wScrn=  0.000000 ICntrl=  10100127 IOpCl=  0 I1Cent=           0 NGrid=           0
         NMat0=    1 NMatS0=      1 NMatT0=    0 NMatD0=    1 NMtDS0=    0 NMtDT0=    0
 Symmetry not used in FoFCou.
 Leave Link  703 at Sun Mar  6 20:00:46 2022, MaxMem= 16106127360 cpu:             445.8 elap:              16.0
 (Enter /sw/contrib/gaussian/g16/B01/g16/l716.exe)
 Dipole        = 2.38469456D-01-3.59116725D-01 1.31136107D-02
 Polarizability= 3.44977626D+01-7.29386973D-01 2.62737866D+01
                 2.85400905D-02-5.99124851D-03 1.76218977D+01
 Full mass-weighted force constant matrix:
 Low frequencies ---  -16.9834   -8.5366    0.0012    0.0013    0.0014    7.2725
 Low frequencies ---  352.5450  396.4576  522.7035
 Diagonal vibrational polarizability:
       13.7773749       3.4607873      16.1400478
 Harmonic frequencies (cm**-1), IR intensities (KM/Mole), Raman scattering
 activities (A**4/AMU), depolarization ratios for plane and unpolarized
 incident light, reduced masses (AMU), force constants (mDyne/A),
 and normal coordinates:
                      1                      2                      3
                      A                      A                      A
 Frequencies --    352.5448               396.4499               522.7032
 Red. masses --      1.5497                 7.1007                 2.9311
 Frc consts  --      0.1135                 0.6575                 0.4718
 IR Inten    --     63.1341                 7.7870                25.4188
  Atom  AN      X      Y      Z        X      Y      Z        X      Y      Z
     1   1    -0.04   0.01   0.98     0.73   0.23   0.02     0.02   0.02   0.93
     2   8    -0.01  -0.00  -0.11     0.45  -0.06  -0.02     0.02  -0.00   0.05
     3   8    -0.00  -0.00   0.11     0.00   0.11   0.03    -0.00   0.01  -0.18
     4   7     0.00   0.00  -0.11    -0.10   0.04  -0.04    -0.00  -0.00   0.27
     5   8     0.01   0.00   0.03    -0.41  -0.10   0.02    -0.02  -0.00  -0.17
                      4                      5                      6
                      A                      A                      A
 Frequencies --    711.4773               837.0369               970.9909
 Red. masses --     13.3216                12.3689                 9.7753
 Frc consts  --      3.9731                 5.1059                 5.4301
 IR Inten    --    217.2536                30.6899                12.7637
  Atom  AN      X      Y      Z        X      Y      Z        X      Y      Z
     1   1    -0.28  -0.21   0.04     0.26   0.39   0.02     0.51   0.37   0.01
     2   8    -0.05   0.06   0.00     0.31   0.48  -0.00    -0.06  -0.25   0.00
     3   8     0.65  -0.25  -0.00    -0.32  -0.21   0.00     0.05   0.54  -0.00
     4   7    -0.60   0.13   0.00    -0.38  -0.21   0.00    -0.33  -0.19  -0.00
     5   8    -0.05   0.09  -0.01     0.33  -0.11  -0.00     0.27  -0.15   0.00
                      7                      8                      9
                      A                      A                      A
 Frequencies --   1434.2765              1570.2809              3487.7936
 Red. masses --      1.3056                 6.3950                 1.0638
 Frc consts  --      1.5825                 9.2906                 7.6242
 IR Inten    --     79.9094               150.1392                42.6158
  Atom  AN      X      Y      Z        X      Y      Z        X      Y      Z
     1   1     0.66   0.74   0.00    -0.51  -0.59   0.00     0.71  -0.70   0.02
     2   8    -0.08   0.00  -0.00     0.03  -0.01   0.00    -0.04   0.04  -0.00
     3   8     0.01  -0.06   0.00    -0.06   0.03  -0.00    -0.00   0.00  -0.00
     4   7     0.02   0.08   0.00    -0.04   0.47   0.01     0.00  -0.00   0.00
     5   8     0.01  -0.05  -0.00     0.10  -0.39  -0.01     0.00   0.00  -0.00

 -------------------
 - Thermochemistry -
 -------------------
 Temperature   298.150 Kelvin.  Pressure   1.00000 Atm.
 Atom     1 has atomic number  1 and mass   1.00783
 Atom     2 has atomic number  8 and mass  15.99491
 Atom     3 has atomic number  8 and mass  15.99491
 Atom     4 has atomic number  7 and mass  14.00307
 Atom     5 has atomic number  8 and mass  15.99491
 Molecular mass:    62.99564 amu.
 Principal axes and moments of inertia in atomic units:
                           1         2         3
     Eigenvalues --    84.51153 222.68081 307.15622
           X            0.99987   0.01593  -0.00022
           Y           -0.01593   0.99987  -0.00114
           Z            0.00020   0.00114   1.00000
 This molecule is an asymmetric top.
 Rotational symmetry number  1.
 Rotational temperatures (Kelvin)      1.02488     0.38896     0.28199
 Rotational constants (GHZ):          21.35497     8.10461     5.87565
 Zero-point vibrational energy      61509.3 (Joules/Mol)
                                   14.70108 (Kcal/Mol)
 Warning -- explicit consideration of   3 degrees of freedom as
           vibrations may cause significant error
 Vibrational temperatures:    507.23   570.40   752.05  1023.66  1204.31
          (Kelvin)           1397.04  2063.60  2259.28  5018.16
 
 Zero-point correction=                           0.023428 (Hartree/Particle)
 Thermal correction to Energy=                    0.027367
 Thermal correction to Enthalpy=                  0.028311
 Thermal correction to Gibbs Free Energy=        -0.002548
 Sum of electronic and zero-point Energies=           -280.431722
 Sum of electronic and thermal Energies=              -280.427782
 Sum of electronic and thermal Enthalpies=            -280.426838
 Sum of electronic and thermal Free Energies=         -280.457697
 
                     E (Thermal)             CV                S
                      KCal/Mol        Cal/Mol-Kelvin    Cal/Mol-Kelvin
 Total                   17.173             12.171             64.950
 Electronic               0.000              0.000              0.000
 Translational            0.889              2.981             38.341
 Rotational               0.889              2.981             23.273
 Vibrational             15.396              6.209              3.336
 Vibration     1          0.729              1.570              1.155
 Vibration     2          0.763              1.478              0.976
 Vibration     3          0.878              1.200              0.604
                       Q            Log10(Q)             Ln(Q)
 Total Bot       0.148631D+02          1.172110          2.698883
 Total V=0       0.887311D+12         11.948076         27.511462
 Vib (Bot)       0.277886D-10        -10.556134        -24.306397
 Vib (Bot)    1  0.522469D+00         -0.281939         -0.649189
 Vib (Bot)    2  0.450746D+00         -0.346069         -0.796852
 Vib (Bot)    3  0.308039D+00         -0.511394         -1.177528
 Vib (V=0)       0.165894D+01          0.219832          0.506181
 Vib (V=0)    1  0.122317D+01          0.087487          0.201445
 Vib (V=0)    2  0.117318D+01          0.069365          0.159718
 Vib (V=0)    3  0.108727D+01          0.036338          0.083672
 Electronic      0.100000D+01          0.000000          0.000000
 Translational   0.196526D+08          7.293420         16.793719
 Rotational      0.272160D+05          4.434825         10.211561
 
                                                                title
                                                             IR Spectrum
 
     3                                                                     1    1                                                    
     4                                                                     5    4                9    8    7     5    3 3            
     8                                                                     7    3                7    3    1     2    9 5            
     8                                                                     0    4                1    7    1     3    6 3            
 
     X                                                                     X    X                X    X    X     X    X X            
     X                                                                     X    X                     X    X     X      X            
     X                                                                     X    X                     X    X            X            
     X                                                                     X    X                          X            X            
                                                                           X    X                          X            X            
                                                                           X    X                          X            X            
                                                                           X    X                          X                         
                                                                           X                               X                         
                                                                           X                               X                         
                                                                           X                               X                         
                                                                           X                               X                         
                                                                           X                               X                         
                                                                           X                               X                         
                                                                           X                               X                         
                                                                                                           X                         
                                                                                                           X                         
                                                                                                           X                         
                                                                                                           X                         
                                                                                                           X                         
                                                                                                           X                         
 
 ***** Axes restored to original set *****
 -------------------------------------------------------------------
 Center     Atomic                   Forces (Hartrees/Bohr)
 Number     Number              X              Y              Z
 -------------------------------------------------------------------
      1        1          -0.000004002    0.000630530    0.000018809
      2        8          -0.000221653    0.000897146    0.000055932
      3        8           0.000166627   -0.002541273   -0.000333243
      4        7           0.000314854    0.003159477    0.000514269
      5        8          -0.000255826   -0.002145881   -0.000255767
 -------------------------------------------------------------------
 Cartesian Forces:  Max     0.003159477 RMS     0.001236488
 -----------------------------------------------------------------------------------------------
                       Internal Coordinate Forces (Hartree/Bohr or radian)
  Cent   Atom   N1       Length/X         N2         Alpha/Y        N3         Beta/Z          J
 -----------------------------------------------------------------------------------------------
      1  H 
      2  O        1  -0.000019(     1)
      3  O        2   0.000208(     2)      1   0.000007(     5)
      4  N        3  -0.000182(     3)      2   0.000318(     6)      1  -0.001154(     8)     0
      5  O        4   0.000272(     4)      3  -0.000103(     7)      2  -0.004441(     9)     0
 -----------------------------------------------------------------------------------------------
 Internal  Forces:  Max     0.004440783 RMS     0.001538895
 Force constants in Cartesian coordinates: 
                1             2             3             4             5 
      1  0.721823D-01
      2 -0.504836D-03  0.605821D-02
      3  0.241421D-01  0.415451D-03  0.436730D+00
      4 -0.519161D-01 -0.246726D-03 -0.472558D-02  0.280961D+00
      5 -0.705458D-04 -0.241314D-02  0.142269D-03 -0.936320D-03  0.121814D-01
      6  0.321667D-01 -0.345472D-03 -0.420511D+00 -0.124619D-01 -0.815757D-03
      7 -0.251218D-01  0.170401D-03 -0.158769D-01 -0.170679D+00  0.921447D-03
      8  0.431955D-03 -0.420595D-02 -0.566065D-03  0.897214D-03 -0.190026D-01
      9 -0.439567D-01  0.369371D-03 -0.198963D-01  0.105820D-01  0.702603D-03
     10 -0.572301D-02  0.152966D-03  0.643219D-02 -0.841073D-01  0.874703D-03
     11 -0.333975D-04  0.801845D-02  0.533219D-03 -0.119662D-03  0.198447D-01
     12 -0.191918D-01 -0.392644D-03  0.119142D-01  0.107461D-01  0.152988D-03
     13  0.105786D-01  0.428195D-03 -0.997173D-02  0.257406D-01 -0.789284D-03
     14  0.176825D-03 -0.745757D-02 -0.524874D-03  0.405494D-03 -0.106104D-01
     15  0.683980D-02 -0.467073D-04 -0.823655D-02 -0.414067D-02 -0.182103D-03
                6             7             8             9            10 
      6  0.522448D+00
      7 -0.910893D-01  0.303693D+00
      8  0.134539D-02 -0.192807D-02  0.411158D-01
      9 -0.965007D-01  0.813965D-01 -0.527355D-02  0.316397D+00
     10  0.403024D-01 -0.143793D+00  0.193141D-02 -0.355221D-01  0.553928D+00
     11 -0.343917D-03  0.265243D-02 -0.479523D-01  0.585103D-03 -0.170739D-01
     12 -0.103892D-01  0.160175D-01  0.576814D-03 -0.252819D-01  0.242971D+00
     13  0.310822D-01  0.359008D-01 -0.133250D-02 -0.124997D-01 -0.320305D+00
     14  0.159754D-03 -0.181621D-02  0.300450D-01  0.361648D-02  0.141148D-01
     15  0.495346D-02  0.955223D-02  0.391741D-02 -0.174718D+00 -0.254184D+00
               11            12            13            14            15 
     11  0.583621D-01
     12 -0.181811D-01  0.448175D+00
     13  0.145745D-01 -0.250543D+00  0.248084D+00
     14 -0.382730D-01  0.178439D-01 -0.128809D-01  0.262960D-01
     15  0.174067D-01 -0.424418D+00  0.241932D+00 -0.210953D-01  0.602419D+00
 Force constants in internal coordinates: 
                1             2             3             4             5 
      1  0.436730D+00
      2  0.220763D-01  0.259036D+00
      3  0.502467D-02  0.173109D-01  0.207608D+00
      4 -0.122321D-01  0.226104D-01  0.148878D+00  0.721471D+00
      5  0.449508D-01  0.564408D-01 -0.241455D-01  0.211908D-01  0.250249D+00
      6  0.116358D-01  0.221772D-01  0.920919D-01  0.968429D-02 -0.881205D-02
      7  0.926031D-02 -0.734086D-01  0.121344D+00  0.117170D+00 -0.225372D-01
      8  0.138005D-02 -0.132818D-02 -0.125933D-02  0.850246D-03 -0.193746D-02
      9  0.216329D-02 -0.390724D-02 -0.259659D-02  0.119899D-02 -0.265372D-02
                6             7             8             9 
      6  0.520885D+00
      7  0.620594D-01  0.663009D+00
      8 -0.274381D-02 -0.212345D-02  0.202556D-01
      9 -0.305591D-02 -0.186947D-02  0.280033D-01  0.108007D+00
 Leave Link  716 at Sun Mar  6 20:00:46 2022, MaxMem= 16106127360 cpu:               0.9 elap:               0.1
 (Enter /sw/contrib/gaussian/g16/B01/g16/l103.exe)

 GradGradGradGradGradGradGradGradGradGradGradGradGradGradGradGradGradGrad
 Berny optimization.
 Search for a local minimum.
 Step number   1 out of a maximum of    2
 All quantities printed in internal units (Hartrees-Bohrs-Radians)
 Second derivative matrix not updated -- analytic derivatives used.
 The second derivative matrix:
                          r1        r2        r3        r4        a1
           r1           0.43673
           r2           0.02208   0.25904
           r3           0.00502   0.01731   0.20761
           r4          -0.01223   0.02261   0.14888   0.72147
           a1           0.04495   0.05644  -0.02415   0.02119   0.25025
           a2           0.01164   0.02218   0.09209   0.00968  -0.00881
           a3           0.00926  -0.07341   0.12134   0.11717  -0.02254
           d1           0.00138  -0.00133  -0.00126   0.00085  -0.00194
           d2           0.00216  -0.00391  -0.00260   0.00120  -0.00265
                          a2        a3        d1        d2
           a2           0.52089
           a3           0.06206   0.66301
           d1          -0.00274  -0.00212   0.02026
           d2          -0.00306  -0.00187   0.02800   0.10801
 ITU=  0
     Eigenvalues ---    0.01206   0.11557   0.12473   0.20349   0.27563
     Eigenvalues ---    0.44942   0.51516   0.60769   0.88349
 Angle between quadratic step and forces=  14.83 degrees.
 Linear search not attempted -- first point.
 Variable       Old X    -DE/DX   Delta X   Delta X   Delta X     New X
                                 (Linear)    (Quad)   (Total)
    r1        1.86209  -0.00002   0.00000   0.00027   0.00027   1.86236
    r2        2.69614   0.00021   0.00000   0.00035   0.00035   2.69649
    r3        2.60992  -0.00018   0.00000  -0.00255  -0.00255   2.60737
    r4        2.25782   0.00027   0.00000   0.00099   0.00099   2.25881
    a1        1.75642   0.00001   0.00000  -0.00084  -0.00084   1.75558
    a2        1.97463   0.00032   0.00000   0.00077   0.00077   1.97540
    a3        1.99550  -0.00010   0.00000  -0.00005  -0.00005   1.99546
    d1        0.00000  -0.00115   0.00000  -0.00031  -0.00031  -0.00031
    d2        0.04098  -0.00444   0.00000  -0.04110  -0.04110  -0.00012
         Item               Value     Threshold  Converged?
 Maximum Force            0.004441     0.000450     NO 
 RMS     Force            0.001539     0.000300     NO 
 Maximum Displacement     0.041100     0.001800     NO 
 RMS     Displacement     0.013737     0.001200     NO 
 Predicted change in Energy=-9.195811D-05
                       ----------------------------
                       ! Non-Optimized Parameters !
                       ! (Angstroms and Degrees)  !
 ----------------------                            ----------------------
 !      Name          Value   Derivative information (Atomic Units)     !
 ------------------------------------------------------------------------
 !       r1          0.9855   -DE/DX =    0.0                           !
 !       r2          1.4269   -DE/DX =    0.0002                        !
 !       r3          1.3798   -DE/DX =   -0.0002                        !
 !       r4          1.1953   -DE/DX =    0.0003                        !
 !       a1        100.5873   -DE/DX =    0.0                           !
 !       a2        113.1819   -DE/DX =    0.0003                        !
 !       a3        114.3312   -DE/DX =   -0.0001                        !
 !       d1         -0.0178   -DE/DX =   -0.0012                        !
 !       d2         -0.0071   -DE/DX =   -0.0044                        !
 ------------------------------------------------------------------------
 GradGradGradGradGradGradGradGradGradGradGradGradGradGradGradGradGradGrad

 Leave Link  103 at Sun Mar  6 20:00:46 2022, MaxMem= 16106127360 cpu:               0.5 elap:               0.0
 (Enter /sw/contrib/gaussian/g16/B01/g16/l9999.exe)

 ----------------------------------------------------------------------

 Electric dipole moment (input orientation):
 (Debye = 10**-18 statcoulomb cm , SI units = C m)
                  (au)            (Debye)         (10**-30 SI)
   Tot        0.431282D+00      0.109621D+01      0.365656D+01
   x         -0.110282D+00     -0.280309D+00     -0.935010D+00
   y         -0.385145D-02     -0.978941D-02     -0.326540D-01
   z         -0.416926D+00     -0.105972D+01     -0.353485D+01

 Dipole polarizability, Alpha (input orientation).
 (esu units = cm**3 , SI units = C**2 m**2 J**-1)
 Alpha(0;0):
               (au)            (10**-24 esu)      (10**-40 SI)
   iso        0.261311D+02      0.387224D+01      0.430844D+01
   aniso      0.146711D+02      0.217403D+01      0.241893D+01
   xx         0.291741D+02      0.432316D+01      0.481017D+01
   yx         0.254149D-01      0.376610D-02      0.419036D-02
   yy         0.176267D+02      0.261201D+01      0.290626D+01
   zx        -0.399686D+01     -0.592274D+00     -0.658994D+00
   zy        -0.255291D+00     -0.378303D-01     -0.420918D-01
   zz         0.315926D+02      0.468154D+01      0.520891D+01

 ----------------------------------------------------------------------

 Dipole orientation:
     1          0.00000000          0.00000000         -0.00000000
     8         -0.47615055          0.01662891         -1.80010852
     8          1.95833691          0.02414928         -2.95872556
     7          3.91572407          0.00645995         -1.23246374
     8          3.25373323         -0.09630411          0.92368381

 Electric dipole moment (dipole orientation):
 (Debye = 10**-18 statcoulomb cm , SI units = C m)
                  (au)            (Debye)         (10**-30 SI)
   Tot        0.431282D+00      0.109621D+01      0.365656D+01
   x          0.000000D+00      0.000000D+00      0.000000D+00
   y          0.000000D+00      0.000000D+00      0.000000D+00
   z          0.431282D+00      0.109621D+01      0.365656D+01

 Dipole polarizability, Alpha (dipole orientation).
 (esu units = cm**3 , SI units = C**2 m**2 J**-1)
 Alpha(0;0):
               (au)            (10**-24 esu)      (10**-40 SI)
   iso        0.261311D+02      0.387224D+01      0.430844D+01
   aniso      0.146711D+02      0.217403D+01      0.241893D+01
   xx         0.313081D+02      0.463939D+01      0.516202D+01
   yx        -0.142093D+00     -0.210560D-01     -0.234279D-01
   yy         0.176323D+02      0.261283D+01      0.290717D+01
   zx         0.407065D+01      0.603208D+00      0.671159D+00
   zy        -0.350647D+00     -0.519605D-01     -0.578138D-01
   zz         0.294530D+02      0.436449D+01      0.485615D+01

 ----------------------------------------------------------------------
 1\1\GINC-N2228\Freq\RMP2-FC\Aug-CC-pVTZ\H1N1O3\CGAVINH\06-Mar-2022\1\\
 #p freq mp2/aug-cc-pvtz density=current\\title\\0,1\H\O,1,r1\O,2,r2,1,
 a1\N,3,r3,2,a2,1,d1,0\O,4,r4,3,a3,2,d2,0\\r1=0.98537664\r2=1.42673666\
 r3=1.38110764\r4=1.19478846\a1=100.6355057\a2=113.13777052\a3=114.3339
 2022\d1=0.\d2=2.34774839\\Version=ES64L-G16RevB.01\State=1-A\HF=-279.5
 063663\MP2=-280.4551492\RMSD=8.900e-09\RMSF=1.236e-03\ZeroPoint=0.0234
 277\Thermal=0.0273672\Dipole=-0.1102821,-0.0038515,-0.4169263\DipoleDe
 riv=0.3167398,0.001785,0.0380488,0.0022733,0.2981215,-0.0002319,-0.024
 2082,-0.0012282,0.1996133,-0.5277797,-0.003981,0.280911,-0.0024466,-0.
 2543296,0.0064967,-0.1051035,-0.0015814,-0.1255292,0.0036453,-0.000993
 2,0.3363719,0.0062657,-0.0104238,-0.011522,0.4423147,0.0189933,-0.9208
 417,0.1996471,-0.0080938,-0.1401184,0.0047217,0.0128972,-0.023654,-0.6
 664945,-0.0285496,1.7169698,0.0077474,0.011283,-0.5152132,-0.0108141,-
 0.0462653,0.0289112,0.3534915,0.012366,-0.8702122\Polar=29.1741394,0.0
 254149,17.6267297,-3.9968647,-0.2552913,31.5925779\Quadrupole=0.150063
 4,0.6068792,-0.7569425,0.0305846,1.4061028,0.0538404\PG=C01 [X(H1N1O3)
 ]\NImag=0\\0.07218227,-0.00050484,0.00605821,0.02414207,0.00041545,0.4
 3672994,-0.05191607,-0.00024673,-0.00472558,0.28096134,-0.00007055,-0.
 00241314,0.00014227,-0.00093632,0.01218139,0.03216670,-0.00034547,-0.4
 2051127,-0.01246190,-0.00081576,0.52244764,-0.02512184,0.00017040,-0.0
 1587695,-0.17067862,0.00092145,-0.09108934,0.30369272,0.00043195,-0.00
 420595,-0.00056606,0.00089721,-0.01900256,0.00134539,-0.00192807,0.041
 11578,-0.04395673,0.00036937,-0.01989631,0.01058202,0.00070260,-0.0965
 0065,0.08139652,-0.00527355,0.31639708,-0.00572301,0.00015297,0.006432
 19,-0.08410728,0.00087470,0.04030238,-0.14379308,0.00193141,-0.0355221
 2,0.55392796,-0.00003340,0.00801845,0.00053322,-0.00011966,0.01984468,
 -0.00034392,0.00265243,-0.04795225,0.00058510,-0.01707391,0.05836214,-
 0.01919184,-0.00039264,0.01191419,0.01074613,0.00015299,-0.01038918,0.
 01601754,0.00057681,-0.02528185,0.24297140,-0.01818109,0.44817460,0.01
 057865,0.00042820,-0.00997173,0.02574063,-0.00078928,0.03108217,0.0359
 0082,-0.00133250,-0.01249970,-0.32030459,0.01457454,-0.25054324,0.2480
 8449,0.00017683,-0.00745757,-0.00052487,0.00040549,-0.01061037,0.00015
 975,-0.00181621,0.03004498,0.00361648,0.01411483,-0.03827301,0.0178439
 3,-0.01288095,0.02629597,0.00683980,-0.00004671,-0.00823655,-0.0041406
 7,-0.00018210,0.00495346,0.00955223,0.00391741,-0.17471826,-0.25418385
 ,0.01740668,-0.42441776,0.24193250,-0.02109529,0.60241911\\0.00000400,
 -0.00063053,-0.00001881,0.00022165,-0.00089715,-0.00005593,-0.00016663
 ,0.00254127,0.00033324,-0.00031485,-0.00315948,-0.00051427,0.00025583,
 0.00214588,0.00025577\\\@


 AS FAR AS THE LAWS OF MATHEMATICS REFER TO REALITY,
 THEY ARE NOT CERTAIN; AND AS FAR AS THEY ARE CERTAIN,
 THEY DO NOT REFER TO REALITY.

                                         -- ALBERT EINSTEIN
 Job cpu time:       0 days  2 hours  1 minutes 27.3 seconds.
 Elapsed time:       0 days  0 hours  4 minutes 27.2 seconds.
 File lengths (MBytes):  RWF=   7239 Int=      0 D2E=      0 Chk=      8 Scr=      1
 Normal termination of Gaussian 16 at Sun Mar  6 20:00:47 2022.
