title                                                                   
Freq      RMP2-FC                                                     Aug-CC-pVTZ         
Number of atoms                            I                5
Info1-9                                    I   N=           9
          33          24           0           0           0         100
           6           2           1
Full Title                                 C   N=           1
title       
Route                                      C   N=           4
#p freq mp2/aug-cc-pvtz density=current         
Charge                                     I                0
Multiplicity                               I                1
Number of electrons                        I               32
Number of alpha electrons                  I               16
Number of beta electrons                   I               16
Number of basis functions                  I              207
Number of independent functions            I              207
Number of point charges in /Mol/           I                0
Number of translation vectors              I                0
Atomic numbers                             I   N=           5
           1           8           8           7           8
Nuclear charges                            R   N=           5
  1.00000000E+00  8.00000000E+00  8.00000000E+00  7.00000000E+00  8.00000000E+00
Current cartesian coordinates              R   N=          15
  2.17004425E+00 -1.14763190E+00  0.00000000E+00  2.48508870E+00  6.87615642E-01
  0.00000000E+00 -1.52382596E-16  1.73332752E+00  0.00000000E+00 -1.87611376E+00
 -8.10193128E-02  0.00000000E+00 -1.11474469E+00 -2.20659728E+00  0.00000000E+00
Number of symbols in /Mol/                 I                0
Force Field                                I                0
Atom Types                                 C   N=           5
                                                            
Int Atom Types                             I   N=           5
           0           0           0           0           0
MM charges                                 R   N=           5
  0.00000000E+00  0.00000000E+00  0.00000000E+00  0.00000000E+00  0.00000000E+00
Integer atomic weights                     I   N=           5
           1          16          16          14          16
Real atomic weights                        R   N=           5
  1.00782504E+00  1.59949146E+01  1.59949146E+01  1.40030740E+01  1.59949146E+01
Atom fragment info                         I   N=           5
           0           0           0           0           0
Atom residue num                           I   N=           5
           0           0           0           0           0
Nuclear spins                              I   N=           5
           1           0           0           2           0
Nuclear ZEff                               R   N=           5
 -1.00000000E+00 -5.60000000E+00 -5.60000000E+00 -4.55000000E+00 -5.60000000E+00
Nuclear ZNuc                               R   N=           5
  1.00000000E+00  8.00000000E+00  8.00000000E+00  7.00000000E+00  8.00000000E+00
Nuclear QMom                               R   N=           5
  0.00000000E+00  0.00000000E+00  0.00000000E+00  2.04400000E+00  0.00000000E+00
Nuclear GFac                               R   N=           5
  2.79284600E+00  0.00000000E+00  0.00000000E+00  4.03761000E-01  0.00000000E+00
MicOpt                                     I   N=           5
          -1          -1          -1          -1          -1
Number of residues                         I                0
Number of secondary structures             I                0
SymInf integers                            I   N=          26
           1           2           1           1           1           1
           1          -1           0           0           0           0
           0           0           0           0           0           0
           0           0           0           0           0           0
           0           0
RotTr to input orientation                 R   N=          12
 -9.85583720E-01  0.00000000E+00  1.69188447E-01  1.69188447E-01  0.00000000E+00
  9.85583720E-01  0.00000000E+00  1.00000000E+00  0.00000000E+00  2.33292635E+00
  0.00000000E+00  7.63940898E-01
Number of contracted shells                I               65
Number of primitive shells                 I              119
Pure/Cartesian d shells                    I                0
Pure/Cartesian f shells                    I                0
Highest angular momentum                   I                3
Largest degree of contraction              I                7
Shell types                                I   N=          65
           0           0           0           0           1           1
           1          -2          -2           0           0           0
           0           0           1           1           1           1
          -2          -2          -2          -3          -3           0
           0           0           0           0           1           1
           1           1          -2          -2          -2          -3
          -3           0           0           0           0           0
           1           1           1           1          -2          -2
          -2          -3          -3           0           0           0
           0           0           1           1           1           1
          -2          -2          -2          -3          -3
Number of primitives per shell             I   N=          65
           3           1           1           1           1           1
           1           1           1           7           6           1
           1           1           3           1           1           1
           1           1           1           1           1           7
           6           1           1           1           3           1
           1           1           1           1           1           1
           1           7           6           1           1           1
           3           1           1           1           1           1
           1           1           1           7           6           1
           1           1           3           1           1           1
           1           1           1           1           1
Shell to atom map                          I   N=          65
           1           1           1           1           1           1
           1           1           1           2           2           2
           2           2           2           2           2           2
           2           2           2           2           2           3
           3           3           3           3           3           3
           3           3           3           3           3           3
           3           4           4           4           4           4
           4           4           4           4           4           4
           4           4           4           5           5           5
           5           5           5           5           5           5
           5           5           5           5           5
Primitive exponents                        R   N=         119
  3.38700000E+01  5.09500000E+00  1.15900000E+00  3.25800000E-01  1.02700000E-01
  2.52600000E-02  1.40700000E+00  3.88000000E-01  1.02000000E-01  1.05700000E+00
  2.47000000E-01  1.53300000E+04  2.29900000E+03  5.22400000E+02  1.47300000E+02
  4.75500000E+01  1.67600000E+01  6.20700000E+00  5.22400000E+02  1.47300000E+02
  4.75500000E+01  1.67600000E+01  6.20700000E+00  6.88200000E-01  1.75200000E+00
  2.38400000E-01  7.37600000E-02  3.44600000E+01  7.74900000E+00  2.28000000E+00
  7.15600000E-01  2.14000000E-01  5.97400000E-02  2.31400000E+00  6.45000000E-01
  2.14000000E-01  1.42800000E+00  5.00000000E-01  1.53300000E+04  2.29900000E+03
  5.22400000E+02  1.47300000E+02  4.75500000E+01  1.67600000E+01  6.20700000E+00
  5.22400000E+02  1.47300000E+02  4.75500000E+01  1.67600000E+01  6.20700000E+00
  6.88200000E-01  1.75200000E+00  2.38400000E-01  7.37600000E-02  3.44600000E+01
  7.74900000E+00  2.28000000E+00  7.15600000E-01  2.14000000E-01  5.97400000E-02
  2.31400000E+00  6.45000000E-01  2.14000000E-01  1.42800000E+00  5.00000000E-01
  1.14200000E+04  1.71200000E+03  3.89300000E+02  1.10000000E+02  3.55700000E+01
  1.25400000E+01  4.64400000E+00  3.89300000E+02  1.10000000E+02  3.55700000E+01
  1.25400000E+01  4.64400000E+00  5.11800000E-01  1.29300000E+00  1.78700000E-01
  5.76000000E-02  2.66300000E+01  5.94800000E+00  1.74200000E+00  5.55000000E-01
  1.72500000E-01  4.91000000E-02  1.65400000E+00  4.69000000E-01  1.51000000E-01
  1.09300000E+00  3.64000000E-01  1.53300000E+04  2.29900000E+03  5.22400000E+02
  1.47300000E+02  4.75500000E+01  1.67600000E+01  6.20700000E+00  5.22400000E+02
  1.47300000E+02  4.75500000E+01  1.67600000E+01  6.20700000E+00  6.88200000E-01
  1.75200000E+00  2.38400000E-01  7.37600000E-02  3.44600000E+01  7.74900000E+00
  2.28000000E+00  7.15600000E-01  2.14000000E-01  5.97400000E-02  2.31400000E+00
  6.45000000E-01  2.14000000E-01  1.42800000E+00  5.00000000E-01
Contraction coefficients                   R   N=         119
  2.54948632E-02  1.90362766E-01  8.52162022E-01  1.00000000E+00  1.00000000E+00
  1.00000000E+00  1.00000000E+00  1.00000000E+00  1.00000000E+00  1.00000000E+00
  1.00000000E+00  5.19808943E-04  4.02025621E-03  2.07128267E-02  8.10105536E-02
  2.35962985E-01  4.42653446E-01  3.57064423E-01 -4.42115008E-05 -1.22591041E-03
 -1.05517725E-02 -6.74452633E-02 -1.71198607E-01  1.07329856E+00  1.00000000E+00
  1.00000000E+00  1.00000000E+00  4.11634896E-02  2.57762836E-01  8.02419274E-01
  1.00000000E+00  1.00000000E+00  1.00000000E+00  1.00000000E+00  1.00000000E+00
  1.00000000E+00  1.00000000E+00  1.00000000E+00  5.19808943E-04  4.02025621E-03
  2.07128267E-02  8.10105536E-02  2.35962985E-01  4.42653446E-01  3.57064423E-01
 -4.42115008E-05 -1.22591041E-03 -1.05517725E-02 -6.74452633E-02 -1.71198607E-01
  1.07329856E+00  1.00000000E+00  1.00000000E+00  1.00000000E+00  4.11634896E-02
  2.57762836E-01  8.02419274E-01  1.00000000E+00  1.00000000E+00  1.00000000E+00
  1.00000000E+00  1.00000000E+00  1.00000000E+00  1.00000000E+00  1.00000000E+00
  5.34563860E-04  4.13435660E-03  2.12335358E-02  8.25006224E-02  2.38138871E-01
  4.42551547E-01  3.53757422E-01 -4.89867350E-05 -1.19527323E-03 -1.03490714E-02
 -6.48680190E-02 -1.71552477E-01  1.07289568E+00  1.00000000E+00  1.00000000E+00
  1.00000000E+00  3.98072123E-02  2.49002660E-01  8.10479727E-01  1.00000000E+00
  1.00000000E+00  1.00000000E+00  1.00000000E+00  1.00000000E+00  1.00000000E+00
  1.00000000E+00  1.00000000E+00  5.19808943E-04  4.02025621E-03  2.07128267E-02
  8.10105536E-02  2.35962985E-01  4.42653446E-01  3.57064423E-01 -4.42115008E-05
 -1.22591041E-03 -1.05517725E-02 -6.74452633E-02 -1.71198607E-01  1.07329856E+00
  1.00000000E+00  1.00000000E+00  1.00000000E+00  4.11634896E-02  2.57762836E-01
  8.02419274E-01  1.00000000E+00  1.00000000E+00  1.00000000E+00  1.00000000E+00
  1.00000000E+00  1.00000000E+00  1.00000000E+00  1.00000000E+00
Coordinates of each shell                  R   N=         195
  2.17004425E+00 -1.14763190E+00  0.00000000E+00  2.17004425E+00 -1.14763190E+00
  0.00000000E+00  2.17004425E+00 -1.14763190E+00  0.00000000E+00  2.17004425E+00
 -1.14763190E+00  0.00000000E+00  2.17004425E+00 -1.14763190E+00  0.00000000E+00
  2.17004425E+00 -1.14763190E+00  0.00000000E+00  2.17004425E+00 -1.14763190E+00
  0.00000000E+00  2.17004425E+00 -1.14763190E+00  0.00000000E+00  2.17004425E+00
 -1.14763190E+00  0.00000000E+00  2.48508870E+00  6.87615642E-01  0.00000000E+00
  2.48508870E+00  6.87615642E-01  0.00000000E+00  2.48508870E+00  6.87615642E-01
  0.00000000E+00  2.48508870E+00  6.87615642E-01  0.00000000E+00  2.48508870E+00
  6.87615642E-01  0.00000000E+00  2.48508870E+00  6.87615642E-01  0.00000000E+00
  2.48508870E+00  6.87615642E-01  0.00000000E+00  2.48508870E+00  6.87615642E-01
  0.00000000E+00  2.48508870E+00  6.87615642E-01  0.00000000E+00  2.48508870E+00
  6.87615642E-01  0.00000000E+00  2.48508870E+00  6.87615642E-01  0.00000000E+00
  2.48508870E+00  6.87615642E-01  0.00000000E+00  2.48508870E+00  6.87615642E-01
  0.00000000E+00  2.48508870E+00  6.87615642E-01  0.00000000E+00 -5.34350359E-17
  1.73332752E+00  0.00000000E+00 -5.34350359E-17  1.73332752E+00  0.00000000E+00
 -5.34350359E-17  1.73332752E+00  0.00000000E+00 -5.34350359E-17  1.73332752E+00
  0.00000000E+00 -5.34350359E-17  1.73332752E+00  0.00000000E+00 -5.34350359E-17
  1.73332752E+00  0.00000000E+00 -5.34350359E-17  1.73332752E+00  0.00000000E+00
 -5.34350359E-17  1.73332752E+00  0.00000000E+00 -5.34350359E-17  1.73332752E+00
  0.00000000E+00 -5.34350359E-17  1.73332752E+00  0.00000000E+00 -5.34350359E-17
  1.73332752E+00  0.00000000E+00 -5.34350359E-17  1.73332752E+00  0.00000000E+00
 -5.34350359E-17  1.73332752E+00  0.00000000E+00 -5.34350359E-17  1.73332752E+00
  0.00000000E+00 -1.87611376E+00 -8.10193128E-02  0.00000000E+00 -1.87611376E+00
 -8.10193128E-02  0.00000000E+00 -1.87611376E+00 -8.10193128E-02  0.00000000E+00
 -1.87611376E+00 -8.10193128E-02  0.00000000E+00 -1.87611376E+00 -8.10193128E-02
  0.00000000E+00 -1.87611376E+00 -8.10193128E-02  0.00000000E+00 -1.87611376E+00
 -8.10193128E-02  0.00000000E+00 -1.87611376E+00 -8.10193128E-02  0.00000000E+00
 -1.87611376E+00 -8.10193128E-02  0.00000000E+00 -1.87611376E+00 -8.10193128E-02
  0.00000000E+00 -1.87611376E+00 -8.10193128E-02  0.00000000E+00 -1.87611376E+00
 -8.10193128E-02  0.00000000E+00 -1.87611376E+00 -8.10193128E-02  0.00000000E+00
 -1.87611376E+00 -8.10193128E-02  0.00000000E+00 -1.11474469E+00 -2.20659728E+00
  0.00000000E+00 -1.11474469E+00 -2.20659728E+00  0.00000000E+00 -1.11474469E+00
 -2.20659728E+00  0.00000000E+00 -1.11474469E+00 -2.20659728E+00  0.00000000E+00
 -1.11474469E+00 -2.20659728E+00  0.00000000E+00 -1.11474469E+00 -2.20659728E+00
  0.00000000E+00 -1.11474469E+00 -2.20659728E+00  0.00000000E+00 -1.11474469E+00
 -2.20659728E+00  0.00000000E+00 -1.11474469E+00 -2.20659728E+00  0.00000000E+00
 -1.11474469E+00 -2.20659728E+00  0.00000000E+00 -1.11474469E+00 -2.20659728E+00
  0.00000000E+00 -1.11474469E+00 -2.20659728E+00  0.00000000E+00 -1.11474469E+00
 -2.20659728E+00  0.00000000E+00 -1.11474469E+00 -2.20659728E+00  0.00000000E+00
Num ILSW                                   I              100
ILSW                                       I   N=         100
           0           0           0           0           2           0
           0           0           0           0           0          -1
           5           0           0           0           2           0
           0           0           0           0           1           0
           1           0           0           0           0           0
           0           0      100000           0          -1           0
           0           0           0           0           0           0
           0           0           0           1           1           0
           0 -2000000000           1           0           0           0
           0           0           4          52           0           0
           0           0           0           0           0           0
           0           0           0           5           4           1
           0           0           0           0           0           0
           0           0           0           0           0           0
           0           0           0           0           0           0
           0           0           0           0           0           0
           0           0           0           0
Num RLSW                                   I               52
RLSW                                       R   N=          52
  1.00000000E+00  1.00000000E+00  1.00000000E+00  1.00000000E+00  1.00000000E+00
  0.00000000E+00  0.00000000E+00  1.00000000E+00  0.00000000E+00  0.00000000E+00
  0.00000000E+00  0.00000000E+00  1.00000000E+00  0.00000000E+00  0.00000000E+00
  0.00000000E+00  0.00000000E+00  1.00000000E+00  0.00000000E+00  0.00000000E+00
  0.00000000E+00  0.00000000E+00  1.00000000E+00  0.00000000E+00  0.00000000E+00
  0.00000000E+00  0.00000000E+00  1.00000000E+00  0.00000000E+00  0.00000000E+00
  0.00000000E+00  0.00000000E+00  1.00000000E+00  0.00000000E+00  0.00000000E+00
  0.00000000E+00  0.00000000E+00  0.00000000E+00  1.00000000E+00  1.00000000E+00
  0.00000000E+00  1.00000000E+00  0.00000000E+00  0.00000000E+00  0.00000000E+00
  0.00000000E+00  0.00000000E+00  0.00000000E+00  0.00000000E+00  0.00000000E+00
  0.00000000E+00  0.00000000E+00
MxBond                                     I                2
NBond                                      I   N=           5
           1           2           2           2           1
IBond                                      I   N=          10
           2           0           1           3           2           4
           3           5           4           0
RBond                                      R   N=          10
  1.00000000E+00  0.00000000E+00  1.00000000E+00  1.00000000E+00  1.00000000E+00
  1.00000000E+00  1.00000000E+00  2.00000000E+00  2.00000000E+00  0.00000000E+00
Virial Ratio                               R      2.002264477835054E+00
SCF Energy                                 R     -2.795066863217282E+02
MP2 Energy                                 R     -2.804550161278558E+02
Total Energy                               R     -2.804550161278558E+02
Post-SCF wavefunction norm                 R      1.583638119415638E+00
RMS Force                                  R      2.310604438831930E-03
RMS Density                                R      4.331719827102837E-09
NImag                                      I                0
Job Status                                 I                1
Nuclear derivative order                   I                2
External E-field                           R   N=          35
  0.00000000E+00  0.00000000E+00  0.00000000E+00  0.00000000E+00  0.00000000E+00
  0.00000000E+00  0.00000000E+00  0.00000000E+00  0.00000000E+00  0.00000000E+00
  0.00000000E+00  0.00000000E+00  0.00000000E+00  0.00000000E+00  0.00000000E+00
  0.00000000E+00  0.00000000E+00  0.00000000E+00  0.00000000E+00  0.00000000E+00
  0.00000000E+00  0.00000000E+00  0.00000000E+00  0.00000000E+00  0.00000000E+00
  0.00000000E+00  0.00000000E+00  0.00000000E+00  0.00000000E+00  0.00000000E+00
  0.00000000E+00  0.00000000E+00  0.00000000E+00  0.00000000E+00  0.00000000E+00
IOpCl                                      I                0
IROHF                                      I                0
Alpha Orbital Energies                     R   N=         207
 -2.07201465E+01 -2.06858357E+01 -2.06676199E+01 -1.58248465E+01 -1.64243514E+00
 -1.50379254E+00 -1.29357407E+00 -9.60435656E-01 -8.32615400E-01 -7.58051165E-01
 -7.39087129E-01 -6.36723526E-01 -6.18110983E-01 -6.17345566E-01 -5.03149511E-01
 -4.97244964E-01  3.46069597E-02  6.12616193E-02  9.52445501E-02  1.00449981E-01
  1.20179082E-01  1.22587762E-01  1.49136336E-01  1.50914943E-01  1.77760301E-01
  1.81095793E-01  1.89997516E-01  2.11339353E-01  2.16348962E-01  2.42773160E-01
  2.46408416E-01  2.69677204E-01  3.11670870E-01  3.15290721E-01  3.38472485E-01
  3.43131277E-01  3.45488218E-01  3.92298166E-01  4.47303706E-01  4.84822663E-01
  5.04312805E-01  5.19170633E-01  5.47854698E-01  5.61949997E-01  6.01506777E-01
  6.19863177E-01  6.39020634E-01  6.87453403E-01  7.18326646E-01  7.24437627E-01
  7.44702083E-01  7.62038570E-01  7.67404581E-01  7.96244901E-01  8.06493498E-01
  8.41995206E-01  8.43128352E-01  8.49978314E-01  8.86369657E-01  9.06857232E-01
  9.32664363E-01  9.45862833E-01  9.55376032E-01  1.01691595E+00  1.02775116E+00
  1.05574143E+00  1.06373185E+00  1.09288861E+00  1.14093753E+00  1.15611294E+00
  1.16912041E+00  1.22306440E+00  1.22619982E+00  1.24405869E+00  1.34506771E+00
  1.37192932E+00  1.37670022E+00  1.46893389E+00  1.48708548E+00  1.50821291E+00
  1.53813170E+00  1.59588525E+00  1.59728526E+00  1.60831046E+00  1.62900113E+00
  1.69780790E+00  1.73113903E+00  1.80183188E+00  1.83110263E+00  1.87651107E+00
  1.88911732E+00  1.92502710E+00  1.97973772E+00  1.99070660E+00  2.05105854E+00
  2.12241624E+00  2.12603094E+00  2.16089452E+00  2.18441702E+00  2.24514436E+00
  2.25783195E+00  2.28914060E+00  2.34694271E+00  2.36138625E+00  2.38517320E+00
  2.40007823E+00  2.43071508E+00  2.46924846E+00  2.47766563E+00  2.52722589E+00
  2.53436462E+00  2.55290361E+00  2.55691979E+00  2.61482463E+00  2.62835248E+00
  2.67165902E+00  2.67386230E+00  2.75916628E+00  2.81886073E+00  2.82285159E+00
  2.82541826E+00  2.91866882E+00  2.98396812E+00  3.04582246E+00  3.05148683E+00
  3.11076840E+00  3.11306677E+00  3.16814510E+00  3.20018752E+00  3.30439805E+00
  3.33322719E+00  3.36558806E+00  3.47373403E+00  3.67982608E+00  3.86761445E+00
  3.91276929E+00  4.17859510E+00  4.21957857E+00  4.22907230E+00  4.26715910E+00
  4.37217999E+00  4.50390098E+00  4.51196605E+00  4.55738642E+00  4.58867041E+00
  4.69951236E+00  4.80829800E+00  4.89969544E+00  4.91366056E+00  4.94446314E+00
  5.00533929E+00  5.00658671E+00  5.10565579E+00  5.13449597E+00  5.18304455E+00
  5.24753330E+00  5.26432450E+00  5.31890553E+00  5.31921229E+00  5.36273602E+00
  5.54830692E+00  5.64541213E+00  5.70205880E+00  5.87865863E+00  5.99907190E+00
  6.26511260E+00  6.29037028E+00  6.36368412E+00  6.38576122E+00  6.59144669E+00
  6.65244693E+00  6.66531053E+00  6.68863043E+00  6.72766985E+00  6.79954106E+00
  6.80028560E+00  6.85265794E+00  6.96665150E+00  7.00008026E+00  7.06654371E+00
  7.08738756E+00  7.15352006E+00  7.17161395E+00  7.17549125E+00  7.19879049E+00
  7.24481963E+00  7.24485973E+00  7.26839328E+00  7.34649264E+00  7.38374172E+00
  7.41783725E+00  7.44359480E+00  7.46172282E+00  7.56141228E+00  7.65669731E+00
  7.66430162E+00  7.79089829E+00  7.87418318E+00  7.95037839E+00  8.04645664E+00
  8.28873669E+00  8.50634135E+00  8.65227812E+00  1.36228464E+01  1.47351117E+01
  1.50860264E+01  1.57147856E+01
Alpha MO coefficients                      R   N=       42849
  5.21603583E-05 -3.30871483E-05 -1.12479507E-03  1.21812587E-05 -6.42357211E-05
  4.28357098E-05  0.00000000E+00 -1.32004666E-04 -3.22274525E-04  0.00000000E+00
 -1.78109518E-05 -3.78000762E-04  0.00000000E+00  4.03470308E-05  0.00000000E+00
  0.00000000E+00 -1.92500023E-05 -9.10050610E-06  2.31974240E-04  0.00000000E+00
  0.00000000E+00 -1.63722403E-05 -2.03088027E-04  3.00940000E-03 -9.00993076E-05
 -1.04894950E-04  3.66089380E-03  2.55610943E-03  1.01278837E-04 -5.24215044E-05
  0.00000000E+00 -7.26346425E-04  2.64666281E-04  0.00000000E+00 -2.00753984E-03
  1.13146778E-03  0.00000000E+00 -5.39114550E-04  3.82550343E-05  0.00000000E+00
  2.02893025E-05  0.00000000E+00  0.00000000E+00 -8.93978354E-06  4.76616526E-05
 -4.49289666E-04  0.00000000E+00  0.00000000E+00  4.18662125E-04 -6.83482624E-04
 -3.71374430E-04  0.00000000E+00  0.00000000E+00  5.68034667E-04 -7.67995149E-04
  0.00000000E+00  7.45124985E-05 -5.16775785E-05  0.00000000E+00  0.00000000E+00
 -2.83571677E-05  1.11032538E-04  0.00000000E+00  2.02693940E-04 -5.23535400E-05
  0.00000000E+00  0.00000000E+00 -1.81732319E-04  3.07387542E-04  9.76907317E-01
 -9.16933094E-03  4.34040261E-02  4.29574233E-04 -2.23368201E-03  4.46495672E-04
 -2.14690222E-03  0.00000000E+00 -3.19689526E-04  2.25676587E-03  0.00000000E+00
 -2.38580964E-03 -4.52723326E-04  0.00000000E+00 -2.38277146E-04  1.00410031E-04
  0.00000000E+00  8.38925406E-06  0.00000000E+00  0.00000000E+00 -3.80522705E-06
  4.05131938E-05  8.31510911E-04  0.00000000E+00  0.00000000E+00 -4.82474423E-04
 -1.65501831E-04 -1.34919654E-04  0.00000000E+00  0.00000000E+00 -5.48309248E-04
  3.72230967E-04  0.00000000E+00 -6.13918680E-06 -7.87837273E-05  0.00000000E+00
  0.00000000E+00 -9.76873995E-06  4.82866755E-05  0.00000000E+00  9.27365912E-05
 -7.12243969E-07  0.00000000E+00  0.00000000E+00 -3.36666167E-04  3.85781321E-04
  1.04791434E-04  4.59300873E-04 -3.25187808E-04 -8.14104818E-04  3.38749806E-04
 -4.46360085E-05 -9.95746934E-05  0.00000000E+00  7.02040742E-04  1.11061484E-03
  0.00000000E+00 -7.55124185E-04 -6.99297512E-04  0.00000000E+00  1.97805031E-04
  2.10573927E-04  0.00000000E+00 -5.24229494E-05  0.00000000E+00  0.00000000E+00
  1.96666163E-05  9.30030745E-05 -4.18969497E-04  0.00000000E+00  0.00000000E+00
  4.12198205E-05  1.08306421E-03  2.82217440E-05  0.00000000E+00  0.00000000E+00
 -3.11383727E-04  1.35512345E-05  0.00000000E+00 -7.92296314E-05 -1.13397030E-04
  0.00000000E+00  0.00000000E+00 -9.62519099E-05  1.05802835E-04  0.00000000E+00
 -1.23148437E-04  4.76294531E-05  0.00000000E+00  0.00000000E+00  1.76033902E-05
  5.25264979E-04 -6.67756065E-04  5.05037494E-05 -6.82570724E-05  1.43596151E-04
 -1.99832513E-04 -2.82902903E-05 -4.13071934E-05  0.00000000E+00  1.67884738E-04
  2.53055436E-04  0.00000000E+00  5.18331197E-04  2.98662482E-04  0.00000000E+00
 -2.31810479E-04 -6.49496085E-05  0.00000000E+00 -1.35955590E-05  0.00000000E+00
  0.00000000E+00  4.29797213E-06  1.54164031E-05  1.01265444E-06  0.00000000E+00
  0.00000000E+00 -1.68849703E-04  1.12497817E-05 -2.44440525E-05  0.00000000E+00
  0.00000000E+00 -1.63390003E-04 -4.72832618E-05  0.00000000E+00 -5.49595862E-06
 -9.20225194E-06  0.00000000E+00  0.00000000E+00 -2.28773862E-05  9.78239883E-06
  0.00000000E+00  3.99914206E-05  6.15652770E-05  0.00000000E+00  0.00000000E+00
  1.59780685E-04 -1.06300443E-04  4.51927371E-05  1.34892449E-04 -1.77384945E-04
 -2.95914799E-05  1.06256775E-05  1.08127991E-05  0.00000000E+00  2.23734061E-04
  7.68640995E-05  0.00000000E+00  1.23228693E-04  1.03576879E-05  0.00000000E+00
  1.58648110E-05  0.00000000E+00  0.00000000E+00 -1.88585987E-05  1.30496994E-05
  3.91025454E-05  0.00000000E+00  0.00000000E+00 -1.00915997E-04  4.22021909E-05
 -2.57989725E-04  2.83938466E-05 -1.55335902E-05 -5.30017493E-04  2.08618577E-04
  7.08550262E-06  1.40337609E-05  0.00000000E+00 -6.12691005E-07 -4.42722868E-05
  0.00000000E+00  1.77596276E-04  1.88701437E-04  0.00000000E+00 -5.34303891E-05
  4.27644449E-05  0.00000000E+00 -1.51949024E-06  0.00000000E+00  0.00000000E+00
 -8.21985462E-06 -1.07169416E-05  2.16145118E-05  0.00000000E+00  0.00000000E+00
  4.95639592E-05  1.03826371E-04  6.36965154E-05  0.00000000E+00  0.00000000E+00
 -9.45220569E-06 -1.07931407E-04  0.00000000E+00  8.16065656E-06  1.08115608E-05
  0.00000000E+00  0.00000000E+00 -7.67721238E-07 -2.42936250E-05  0.00000000E+00
 -1.62174708E-05 -3.74670571E-05  0.00000000E+00  0.00000000E+00 -6.10483795E-06
 -1.66034429E-05  6.97009772E-04  2.56812951E-05 -2.01261698E-05  2.58086114E-04
 -4.09704514E-04  1.64609248E-05  2.67883850E-05  0.00000000E+00 -6.49759823E-05
 -1.50478938E-04  0.00000000E+00  1.05084991E-04 -1.92294698E-04  0.00000000E+00
 -1.59342716E-04  1.45595693E-04  0.00000000E+00 -4.14388814E-06  0.00000000E+00
  0.00000000E+00 -2.93582668E-05 -9.77794737E-06 -5.01774662E-05  0.00000000E+00
  0.00000000E+00  7.91158925E-05  1.21163996E-04 -6.21817480E-05  0.00000000E+00
  0.00000000E+00  4.09269848E-05  3.13594172E-05  0.00000000E+00  2.97242102E-06
  3.51246842E-06  0.00000000E+00  0.00000000E+00 -7.82000098E-06 -1.93367077E-06
  0.00000000E+00  4.30870147E-06 -2.56496298E-05  0.00000000E+00  0.00000000E+00
  9.27191297E-05 -1.55188197E-04  2.37474712E-04  1.35924495E-03 -1.48652599E-04
 -6.53784438E-04  9.02416978E-04  6.30740213E-05 -7.06580541E-05  0.00000000E+00
  5.70231451E-04 -2.08556089E-03  0.00000000E+00  1.28934701E-04  4.59345040E-04
  0.00000000E+00  1.86030894E-04 -3.08131604E-04  0.00000000E+00 -1.27676602E-04
  0.00000000E+00  0.00000000E+00 -2.04247749E-04 -1.58511972E-04 -4.63077360E-04
  0.00000000E+00  0.00000000E+00 -6.05951641E-04 -9.13789099E-04 -4.17399627E-05
  0.00000000E+00  0.00000000E+00  6.50255381E-05  1.03741489E-04  0.00000000E+00
  8.17406846E-06  3.69243907E-05  0.00000000E+00  0.00000000E+00 -2.42377299E-05
 -3.87942181E-06  0.00000000E+00 -1.34349617E-04  1.59341089E-04  0.00000000E+00
  0.00000000E+00 -3.12850868E-04 -2.73981998E-05  9.76646922E-01 -9.88571901E-03
  4.35749335E-02  3.65440878E-03 -9.00966167E-04 -4.54120234E-04  2.12919703E-03
  0.00000000E+00  5.13561542E-04 -2.50392184E-03  0.00000000E+00 -4.91260097E-05
  7.88685882E-04  0.00000000E+00  1.02107473E-04 -6.58065433E-05  0.00000000E+00
 -1.95139618E-04  0.00000000E+00  0.00000000E+00 -7.35167851E-05 -4.33697668E-05
  4.09937381E-04  0.00000000E+00  0.00000000E+00  8.58208728E-04  4.82913881E-04
 -2.09669701E-04  0.00000000E+00  0.00000000E+00 -1.24551334E-04 -3.76162753E-05
  0.00000000E+00 -4.03671265E-06  7.03234277E-05  0.00000000E+00  0.00000000E+00
 -3.07760202E-05  1.04722080E-05  0.00000000E+00 -9.04857989E-05  9.29122986E-05
  0.00000000E+00  0.00000000E+00 -1.61045619E-04  2.03585536E-04  3.85210929E-04
  2.17173613E-03  1.15459189E-03 -1.89819720E-05  4.88418973E-05  2.71131896E-04
  0.00000000E+00  3.19552018E-04  1.07917856E-03  0.00000000E+00 -9.79935918E-05
  2.54751064E-04  0.00000000E+00 -2.28873421E-05  0.00000000E+00  0.00000000E+00
  3.66667687E-05 -2.07669023E-05 -1.70321995E-04  0.00000000E+00  0.00000000E+00
 -3.75190194E-04  3.16586286E-04  9.76833358E-01 -9.17195960E-03  4.34738493E-02
  1.06037365E-04 -1.85571391E-03 -2.03008978E-03 -8.73676640E-04  0.00000000E+00
  2.06349429E-03  7.99689566E-04  0.00000000E+00 -4.11421349E-04  7.78999764E-04
  0.00000000E+00  2.09890792E-04 -3.23766888E-04  0.00000000E+00  2.81512755E-05
  0.00000000E+00  0.00000000E+00 -8.03436580E-05  5.44189218E-05  7.75795083E-04
  0.00000000E+00  0.00000000E+00 -1.85761526E-04  3.81460129E-04 -2.33205667E-04
  0.00000000E+00  0.00000000E+00  3.70435824E-04 -4.98189617E-05  0.00000000E+00
 -7.98481044E-05  1.36860966E-06  0.00000000E+00  0.00000000E+00  1.74472496E-05