 Entering Gaussian System, Link 0=g16
 Input=hoono_r2_1p440777.gjf
 Output=hoono_r2_1p440777.log
 Initial command:
 /sw/contrib/gaussian/g16/B01/g16/l1.exe "/scr/Gau-25933.inp" -scrdir="/scr/"
 Entering Link 1 = /sw/contrib/gaussian/g16/B01/g16/l1.exe PID=     25934.
  
 Copyright (c) 1988-2017, Gaussian, Inc.  All Rights Reserved.
  
 This is part of the Gaussian(R) 16 program.  It is based on
 the Gaussian(R) 09 system (copyright 2009, Gaussian, Inc.),
 the Gaussian(R) 03 system (copyright 2003, Gaussian, Inc.),
 the Gaussian(R) 98 system (copyright 1998, Gaussian, Inc.),
 the Gaussian(R) 94 system (copyright 1995, Gaussian, Inc.),
 the Gaussian 92(TM) system (copyright 1992, Gaussian, Inc.),
 the Gaussian 90(TM) system (copyright 1990, Gaussian, Inc.),
 the Gaussian 88(TM) system (copyright 1988, Gaussian, Inc.),
 the Gaussian 86(TM) system (copyright 1986, Carnegie Mellon
 University), and the Gaussian 82(TM) system (copyright 1983,
 Carnegie Mellon University). Gaussian is a federally registered
 trademark of Gaussian, Inc.
  
 This software contains proprietary and confidential information,
 including trade secrets, belonging to Gaussian, Inc.
  
 This software is provided under written license and may be
 used, copied, transmitted, or stored only in accord with that
 written license.
  
 The following legend is applicable only to US Government
 contracts under FAR:
  
                    RESTRICTED RIGHTS LEGEND
  
 Use, reproduction and disclosure by the US Government is
 subject to restrictions as set forth in subparagraphs (a)
 and (c) of the Commercial Computer Software - Restricted
 Rights clause in FAR 52.227-19.
  
 Gaussian, Inc.
 340 Quinnipiac St., Bldg. 40, Wallingford CT 06492
  
  
 ---------------------------------------------------------------
 Warning -- This program may not be used in any manner that
 competes with the business of Gaussian, Inc. or will provide
 assistance to any competitor of Gaussian, Inc.  The licensee
 of this program is prohibited from giving any competitor of
 Gaussian, Inc. access to this program.  By using this program,
 the user acknowledges that Gaussian, Inc. is engaged in the
 business of creating and licensing software in the field of
 computational chemistry and represents and warrants to the
 licensee that it is not a competitor of Gaussian, Inc. and that
 it will not use this program in any manner prohibited above.
 ---------------------------------------------------------------
  

 Cite this work as:
 Gaussian 16, Revision B.01,
 M. J. Frisch, G. W. Trucks, H. B. Schlegel, G. E. Scuseria, 
 M. A. Robb, J. R. Cheeseman, G. Scalmani, V. Barone, 
 G. A. Petersson, H. Nakatsuji, X. Li, M. Caricato, A. V. Marenich, 
 J. Bloino, B. G. Janesko, R. Gomperts, B. Mennucci, H. P. Hratchian, 
 J. V. Ortiz, A. F. Izmaylov, J. L. Sonnenberg, D. Williams-Young, 
 F. Ding, F. Lipparini, F. Egidi, J. Goings, B. Peng, A. Petrone, 
 T. Henderson, D. Ranasinghe, V. G. Zakrzewski, J. Gao, N. Rega, 
 G. Zheng, W. Liang, M. Hada, M. Ehara, K. Toyota, R. Fukuda, 
 J. Hasegawa, M. Ishida, T. Nakajima, Y. Honda, O. Kitao, H. Nakai, 
 T. Vreven, K. Throssell, J. A. Montgomery, Jr., J. E. Peralta, 
 F. Ogliaro, M. J. Bearpark, J. J. Heyd, E. N. Brothers, K. N. Kudin, 
 V. N. Staroverov, T. A. Keith, R. Kobayashi, J. Normand, 
 K. Raghavachari, A. P. Rendell, J. C. Burant, S. S. Iyengar, 
 J. Tomasi, M. Cossi, J. M. Millam, M. Klene, C. Adamo, R. Cammi, 
 J. W. Ochterski, R. L. Martin, K. Morokuma, O. Farkas, 
 J. B. Foresman, and D. J. Fox, Gaussian, Inc., Wallingford CT, 2016.
 
 ******************************************
 Gaussian 16:  ES64L-G16RevB.01 20-Dec-2017
                 6-Mar-2022 
 ******************************************
 %nproc=28
 Will use up to   28 processors via shared memory.
 %mem=120GB
 %chk=hoono_r2_1p440777.chk
 ---------------------------------------
 #p freq mp2/aug-cc-pvtz density=current
 ---------------------------------------
 1/10=4,30=1,38=1/1,3;
 2/12=2,17=6,18=5,40=1/2;
 3/5=16,6=1,7=10,11=9,25=1,30=1,71=2,140=1/1,2,3;
 4//1;
 5/5=2,38=5,98=1/2;
 8/6=3,8=1,10=1,19=11,30=-1/1;
 9/15=3,16=-3/6;
 11/6=1,8=1,15=11,17=12,24=-1,27=1,28=-2,29=300,32=6,42=3/1,2,10;
 10/6=2,21=1/2;
 8/6=4,8=1,10=1,19=11,30=-1/11,4;
 10/5=1,20=4/2;
 11/12=2,14=11,16=1,17=2,28=-2,42=3,76=2/2,10,12;
 6/7=2,8=2,9=2,10=2,22=-1/1;
 7/8=1,10=1,12=2,25=1,44=2/1,2,3,16;
 1/10=4,30=1/3;
 99//99;
 Leave Link    1 at Sun Mar  6 18:54:57 2022, MaxMem= 16106127360 cpu:               3.1 elap:               0.1
 (Enter /sw/contrib/gaussian/g16/B01/g16/l101.exe)
 -----
 title
 -----
 Symbolic Z-matrix:
 Charge =  0 Multiplicity = 1
 H
 O                    1    r1
 O                    2    r2       1    a1
 N                    3    r3       2    a2       1    d1       0
 O                    4    r4       3    a3       2    d2       0
       Variables:
  r1                    0.98538                  
  r2                    1.44078                  
  r3                    1.38111                  
  r4                    1.19479                  
  a1                  100.63551                  
  a2                  113.13777                  
  a3                  114.33392                  
  d1                    0.                       
  d2                    0.                       
 
 ITRead=  0  0  0  0  0
 MicOpt= -1 -1 -1 -1 -1
 NAtoms=      5 NQM=        5 NQMF=       0 NMMI=      0 NMMIF=      0
                NMic=       0 NMicF=      0.
                    Isotopes and Nuclear Properties:
 (Nuclear quadrupole moments (NQMom) in fm**2, nuclear magnetic moments (NMagM)
  in nuclear magnetons)

  Atom         1           2           3           4           5
 IAtWgt=           1          16          16          14          16
 AtmWgt=   1.0078250  15.9949146  15.9949146  14.0030740  15.9949146
 NucSpn=           1           0           0           2           0
 AtZEff=  -0.0000000  -0.0000000  -0.0000000  -0.0000000  -0.0000000
 NQMom=    0.0000000   0.0000000   0.0000000   2.0440000   0.0000000
 NMagM=    2.7928460   0.0000000   0.0000000   0.4037610   0.0000000
 AtZNuc=   1.0000000   8.0000000   8.0000000   7.0000000   8.0000000
 Leave Link  101 at Sun Mar  6 18:54:57 2022, MaxMem= 16106127360 cpu:               2.1 elap:               0.1
 (Enter /sw/contrib/gaussian/g16/B01/g16/l103.exe)

 GradGradGradGradGradGradGradGradGradGradGradGradGradGradGradGradGradGrad
 Berny optimization.
 Initialization pass.
                       ----------------------------
                       !    Initial Parameters    !
                       ! (Angstroms and Degrees)  !
 ----------------------                            ----------------------
 !      Name          Value   Derivative information (Atomic Units)     !
 ------------------------------------------------------------------------
 !       r1          0.9854   calculate D2E/DX2 analytically            !
 !       r2          1.4408   calculate D2E/DX2 analytically            !
 !       r3          1.3811   calculate D2E/DX2 analytically            !
 !       r4          1.1948   calculate D2E/DX2 analytically            !
 !       a1        100.6355   calculate D2E/DX2 analytically            !
 !       a2        113.1378   calculate D2E/DX2 analytically            !
 !       a3        114.3339   calculate D2E/DX2 analytically            !
 !       d1          0.0      calculate D2E/DX2 analytically            !
 !       d2          0.0      calculate D2E/DX2 analytically            !
 ------------------------------------------------------------------------
 Trust Radius=3.00D-01 FncErr=1.00D-07 GrdErr=1.00D-07 EigMax=2.50D+02 EigMin=1.00D-04
 Number of steps in this run=      2 maximum allowed number of steps=      2.
 GradGradGradGradGradGradGradGradGradGradGradGradGradGradGradGradGradGrad

 Leave Link  103 at Sun Mar  6 18:54:57 2022, MaxMem= 16106127360 cpu:               0.9 elap:               0.1
 (Enter /sw/contrib/gaussian/g16/B01/g16/l202.exe)
                          Input orientation:                          
 ---------------------------------------------------------------------
 Center     Atomic      Atomic             Coordinates (Angstroms)
 Number     Number       Type             X           Y           Z
 ---------------------------------------------------------------------
      1          1           0        0.000000    0.000000    0.000000
      2          8           0        0.000000    0.000000    0.985377
      3          8           0        1.416027    0.000000    1.251287
      4          7           0        2.183796    0.000000    0.103250
      5          8           0        1.552551    0.000000   -0.911171
 ---------------------------------------------------------------------
                    Distance matrix (angstroms):
                    1          2          3          4          5
     1  H    0.000000
     2  O    0.985377   0.000000
     3  O    1.889670   1.440778   0.000000
     4  N    2.186235   2.355231   1.381108   0.000000
     5  O    1.800180   2.450981   2.166763   1.194788   0.000000
 Stoichiometry    HNO3
 Framework group  CS[SG(HNO3)]
 Deg. of freedom     7
 Full point group                 CS      NOp   2
 Largest Abelian subgroup         CS      NOp   2
 Largest concise Abelian subgroup C1      NOp   1
                         Standard orientation:                         
 ---------------------------------------------------------------------
 Center     Atomic      Atomic             Coordinates (Angstroms)
 Number     Number       Type             X           Y           Z
 ---------------------------------------------------------------------
      1          1           0        1.116105   -0.606326    0.000000
      2          8           0        1.326560    0.356314    0.000000
      3          8           0        0.000000    0.918522    0.000000
      4          7           0       -0.995250   -0.039046    0.000000
      5          8           0       -0.595230   -1.164880    0.000000
 ---------------------------------------------------------------------
 Rotational constants (GHZ):          21.1444208           8.0686724           5.8401007
 Leave Link  202 at Sun Mar  6 18:54:57 2022, MaxMem= 16106127360 cpu:               0.2 elap:               0.0
 (Enter /sw/contrib/gaussian/g16/B01/g16/l301.exe)
 Standard basis: Aug-CC-pVTZ (5D, 7F)
 Ernie: Thresh=  0.10000D-02 Tol=  0.10000D-05 Strict=F.
 Ernie:  12 primitive shells out of 131 were deleted.
 There are   166 symmetry adapted cartesian basis functions of A'  symmetry.
 There are    79 symmetry adapted cartesian basis functions of A"  symmetry.
 There are   136 symmetry adapted basis functions of A'  symmetry.
 There are    71 symmetry adapted basis functions of A"  symmetry.
   207 basis functions,   315 primitive gaussians,   245 cartesian basis functions
    16 alpha electrons       16 beta electrons
       nuclear repulsion energy       122.3785554198 Hartrees.
 IExCor=    0 DFT=F Ex=HF Corr=None ExCW=0 ScaHFX=  1.000000
 ScaDFX=  1.000000  1.000000  1.000000  1.000000 ScalE2=  1.000000  1.000000
 IRadAn=      5 IRanWt=     -1 IRanGd=            0 ICorTp=0 IEmpDi=  4
 NAtoms=    5 NActive=    5 NUniq=    5 SFac= 1.00D+00 NAtFMM=   60 NAOKFM=F Big=F
 Integral buffers will be    131072 words long.
 Raffenetti 1 integral format.
 Two-electron integral symmetry is turned on.
 Leave Link  301 at Sun Mar  6 18:54:58 2022, MaxMem= 16106127360 cpu:               1.1 elap:               0.1
 (Enter /sw/contrib/gaussian/g16/B01/g16/l302.exe)
 NPDir=0 NMtPBC=     1 NCelOv=     1 NCel=       1 NClECP=     1 NCelD=      1
         NCelK=      1 NCelE2=     1 NClLst=     1 CellRange=     0.0.
 One-electron integrals computed using PRISM.
 One-electron integral symmetry used in STVInt
 NBasis=   207 RedAO= T EigKep=  1.32D-04  NBF=   136    71
 NBsUse=   207 1.00D-06 EigRej= -1.00D+00 NBFU=   136    71
 Leave Link  302 at Sun Mar  6 18:54:58 2022, MaxMem= 16106127360 cpu:               4.2 elap:               0.2
 (Enter /sw/contrib/gaussian/g16/B01/g16/l303.exe)
 DipDrv:  MaxL=1.
 Leave Link  303 at Sun Mar  6 18:54:58 2022, MaxMem= 16106127360 cpu:               0.7 elap:               0.0
 (Enter /sw/contrib/gaussian/g16/B01/g16/l401.exe)
 ExpMin= 2.53D-02 ExpMax= 1.53D+04 ExpMxC= 5.22D+02 IAcc=3 IRadAn=         5 AccDes= 0.00D+00
 Harris functional with IExCor=  205 and IRadAn=       5 diagonalized for initial guess.
 HarFok:  IExCor=  205 AccDes= 0.00D+00 IRadAn=         5 IDoV= 1 UseB2=F ITyADJ=14
 ICtDFT=  3500011 ScaDFX=  1.000000  1.000000  1.000000  1.000000
 FoFCou: FMM=F IPFlag=           0 FMFlag=      100000 FMFlg1=           0
         NFxFlg=           0 DoJE=T BraDBF=F KetDBF=T FulRan=T
         wScrn=  0.000000 ICntrl=       500 IOpCl=  0 I1Cent=   200000004 NGrid=           0
         NMat0=    1 NMatS0=      1 NMatT0=    0 NMatD0=    1 NMtDS0=    0 NMtDT0=    0
 Petite list used in FoFCou.
 Harris En= -279.644532407617    
 JPrj=0 DoOrth=F DoCkMO=F.
 Initial guess orbital symmetries:
       Occupied  (A') (A') (A') (A') (A') (A') (A') (A') (A') (A')
                 (A") (A') (A') (A") (A") (A')
       Virtual   (A") (A') (A') (A') (A') (A") (A') (A') (A') (A')
                 (A") (A') (A") (A') (A') (A") (A') (A') (A") (A')
                 (A') (A') (A') (A') (A") (A') (A') (A') (A") (A')
                 (A') (A") (A") (A') (A') (A") (A') (A") (A') (A")
                 (A') (A") (A') (A") (A') (A') (A') (A") (A') (A')
                 (A') (A") (A') (A") (A') (A") (A') (A') (A') (A")
                 (A') (A') (A") (A') (A') (A') (A") (A") (A') (A')
                 (A") (A') (A") (A") (A') (A') (A") (A') (A') (A')
                 (A") (A') (A') (A") (A') (A") (A") (A') (A') (A')
                 (A') (A") (A') (A") (A') (A') (A") (A') (A") (A')
                 (A") (A') (A') (A") (A") (A') (A') (A') (A") (A')
                 (A") (A') (A') (A') (A") (A') (A') (A') (A") (A')
                 (A") (A') (A') (A") (A") (A") (A") (A') (A') (A')
                 (A') (A') (A') (A") (A') (A") (A') (A") (A') (A')
                 (A") (A") (A') (A') (A') (A") (A') (A') (A') (A')
                 (A") (A') (A') (A") (A') (A") (A") (A') (A") (A')
                 (A') (A") (A") (A') (A") (A') (A') (A") (A") (A')
                 (A") (A") (A") (A') (A') (A") (A') (A') (A') (A")
                 (A') (A') (A') (A') (A') (A') (A') (A') (A') (A')
                 (A')
 The electronic state of the initial guess is 1-A'.
 Leave Link  401 at Sun Mar  6 18:54:58 2022, MaxMem= 16106127360 cpu:               5.7 elap:               0.2
 (Enter /sw/contrib/gaussian/g16/B01/g16/l502.exe)
 Keep R1 ints in memory in symmetry-blocked form, NReq=348887737.
 FoFCou: FMM=F IPFlag=           0 FMFlag=           0 FMFlg1=           0
         NFxFlg=           0 DoJE=F BraDBF=F KetDBF=F FulRan=T
         wScrn=  0.000000 ICntrl=       600 IOpCl=  0 I1Cent=           0 NGrid=           0
         NMat0=    1 NMatS0=  21528 NMatT0=    0 NMatD0=    1 NMtDS0=    0 NMtDT0=    0
 Petite list used in FoFCou.
 Closed shell SCF:
 Using DIIS extrapolation, IDIIS=  1040.
 NGot= 16106127360 LenX= 15988850015 LenY= 15988789549
 Requested convergence on RMS density matrix=1.00D-08 within 128 cycles.
 Requested convergence on MAX density matrix=1.00D-06.
 Requested convergence on             energy=1.00D-06.
 No special actions if energy rises.

 Cycle   1  Pass 1  IDiag  1:
 E= -279.361824391796    
 DIIS: error= 2.75D-02 at cycle   1 NSaved=   1.
 NSaved= 1 IEnMin= 1 EnMin= -279.361824391796     IErMin= 1 ErrMin= 2.75D-02
 ErrMax= 2.75D-02  0.00D+00 EMaxC= 1.00D-01 BMatC= 4.51D-01 BMatP= 4.51D-01
 IDIUse=3 WtCom= 7.25D-01 WtEn= 2.75D-01
 Coeff-Com:  0.100D+01
 Coeff-En:   0.100D+01
 Coeff:      0.100D+01
 Gap=     0.498 Goal=   None    Shift=    0.000
 GapD=    0.498 DampG=2.000 DampE=0.500 DampFc=1.0000 IDamp=-1.
 RMSDP=1.69D-03 MaxDP=8.77D-02              OVMax= 1.25D-01

 Cycle   2  Pass 1  IDiag  1:
 E= -279.443293682238     Delta-E=       -0.081469290442 Rises=F Damp=F
 DIIS: error= 1.95D-02 at cycle   2 NSaved=   2.
 NSaved= 2 IEnMin= 2 EnMin= -279.443293682238     IErMin= 2 ErrMin= 1.95D-02
 ErrMax= 1.95D-02  0.00D+00 EMaxC= 1.00D-01 BMatC= 8.88D-02 BMatP= 4.51D-01
 IDIUse=3 WtCom= 8.05D-01 WtEn= 1.95D-01
 Coeff-Com:  0.223D+00 0.777D+00
 Coeff-En:   0.939D-01 0.906D+00
 Coeff:      0.198D+00 0.802D+00
 Gap=     0.565 Goal=   None    Shift=    0.000
 RMSDP=9.75D-04 MaxDP=3.67D-02 DE=-8.15D-02 OVMax= 9.13D-02

 Cycle   3  Pass 1  IDiag  1:
 E= -279.482905814962     Delta-E=       -0.039612132724 Rises=F Damp=F
 DIIS: error= 1.12D-02 at cycle   3 NSaved=   3.
 NSaved= 3 IEnMin= 3 EnMin= -279.482905814962     IErMin= 3 ErrMin= 1.12D-02
 ErrMax= 1.12D-02  0.00D+00 EMaxC= 1.00D-01 BMatC= 3.10D-02 BMatP= 8.88D-02
 IDIUse=3 WtCom= 8.88D-01 WtEn= 1.12D-01
 Coeff-Com: -0.350D-01 0.361D+00 0.674D+00
 Coeff-En:   0.000D+00 0.212D+00 0.788D+00
 Coeff:     -0.311D-01 0.344D+00 0.687D+00
 Gap=     0.544 Goal=   None    Shift=    0.000
 RMSDP=4.12D-04 MaxDP=1.57D-02 DE=-3.96D-02 OVMax= 3.92D-02

 Cycle   4  Pass 1  IDiag  1:
 E= -279.504192713386     Delta-E=       -0.021286898424 Rises=F Damp=F
 DIIS: error= 1.61D-03 at cycle   4 NSaved=   4.
 NSaved= 4 IEnMin= 4 EnMin= -279.504192713386     IErMin= 4 ErrMin= 1.61D-03
 ErrMax= 1.61D-03  0.00D+00 EMaxC= 1.00D-01 BMatC= 6.25D-04 BMatP= 3.10D-02
 IDIUse=3 WtCom= 9.84D-01 WtEn= 1.61D-02
 Coeff-Com: -0.123D-01 0.478D-01 0.159D+00 0.805D+00
 Coeff-En:   0.000D+00 0.000D+00 0.000D+00 0.100D+01
 Coeff:     -0.121D-01 0.471D-01 0.156D+00 0.809D+00
 Gap=     0.530 Goal=   None    Shift=    0.000
 RMSDP=9.91D-05 MaxDP=2.39D-03 DE=-2.13D-02 OVMax= 1.19D-02

 Cycle   5  Pass 1  IDiag  1:
 E= -279.505016736209     Delta-E=       -0.000824022823 Rises=F Damp=F
 DIIS: error= 1.08D-03 at cycle   5 NSaved=   5.
 NSaved= 5 IEnMin= 5 EnMin= -279.505016736209     IErMin= 5 ErrMin= 1.08D-03
 ErrMax= 1.08D-03  0.00D+00 EMaxC= 1.00D-01 BMatC= 1.04D-04 BMatP= 6.25D-04
 IDIUse=3 WtCom= 9.89D-01 WtEn= 1.08D-02
 Coeff-Com:  0.546D-02-0.660D-01-0.112D+00 0.602D-01 0.111D+01
 Coeff-En:   0.000D+00 0.000D+00 0.000D+00 0.000D+00 0.100D+01
 Coeff:      0.540D-02-0.653D-01-0.111D+00 0.595D-01 0.111D+01
 Gap=     0.534 Goal=   None    Shift=    0.000
 RMSDP=8.00D-05 MaxDP=2.11D-03 DE=-8.24D-04 OVMax= 1.28D-02

 Cycle   6  Pass 1  IDiag  1:
 E= -279.505380996747     Delta-E=       -0.000364260538 Rises=F Damp=F
 DIIS: error= 3.24D-04 at cycle   6 NSaved=   6.
 NSaved= 6 IEnMin= 6 EnMin= -279.505380996747     IErMin= 6 ErrMin= 3.24D-04
 ErrMax= 3.24D-04  0.00D+00 EMaxC= 1.00D-01 BMatC= 2.38D-05 BMatP= 1.04D-04
 IDIUse=3 WtCom= 9.97D-01 WtEn= 3.24D-03
 Coeff-Com:  0.186D-02-0.682D-02-0.174D-01-0.177D+00 0.606D-02 0.119D+01
 Coeff-En:   0.000D+00 0.000D+00 0.000D+00 0.000D+00 0.000D+00 0.100D+01
 Coeff:      0.185D-02-0.680D-02-0.173D-01-0.176D+00 0.604D-02 0.119D+01
 Gap=     0.534 Goal=   None    Shift=    0.000
 RMSDP=4.61D-05 MaxDP=1.06D-03 DE=-3.64D-04 OVMax= 5.96D-03

 Cycle   7  Pass 1  IDiag  1:
 E= -279.505465436504     Delta-E=       -0.000084439758 Rises=F Damp=F
 DIIS: error= 1.30D-04 at cycle   7 NSaved=   7.
 NSaved= 7 IEnMin= 7 EnMin= -279.505465436504     IErMin= 7 ErrMin= 1.30D-04
 ErrMax= 1.30D-04  0.00D+00 EMaxC= 1.00D-01 BMatC= 3.61D-06 BMatP= 2.38D-05
 IDIUse=3 WtCom= 9.99D-01 WtEn= 1.30D-03
 Coeff-Com: -0.106D-02 0.112D-01 0.246D-01 0.129D-01-0.181D+00-0.128D+00
 Coeff-Com:  0.126D+01
 Coeff-En:   0.000D+00 0.000D+00 0.000D+00 0.000D+00 0.000D+00 0.000D+00
 Coeff-En:   0.100D+01
 Coeff:     -0.106D-02 0.111D-01 0.246D-01 0.129D-01-0.180D+00-0.128D+00
 Coeff:      0.126D+01
 Gap=     0.535 Goal=   None    Shift=    0.000
 RMSDP=1.72D-05 MaxDP=4.93D-04 DE=-8.44D-05 OVMax= 2.25D-03

 Cycle   8  Pass 1  IDiag  1:
 E= -279.505477271065     Delta-E=       -0.000011834561 Rises=F Damp=F
 DIIS: error= 4.77D-05 at cycle   8 NSaved=   8.
 NSaved= 8 IEnMin= 8 EnMin= -279.505477271065     IErMin= 8 ErrMin= 4.77D-05
 ErrMax= 4.77D-05  0.00D+00 EMaxC= 1.00D-01 BMatC= 6.21D-07 BMatP= 3.61D-06
 IDIUse=1 WtCom= 1.00D+00 WtEn= 0.00D+00
 Coeff-Com: -0.568D-03 0.411D-02 0.984D-02 0.247D-01-0.579D-01-0.195D+00
 Coeff-Com:  0.356D+00 0.859D+00
 Coeff:     -0.568D-03 0.411D-02 0.984D-02 0.247D-01-0.579D-01-0.195D+00
 Coeff:      0.356D+00 0.859D+00
 Gap=     0.535 Goal=   None    Shift=    0.000
 RMSDP=5.57D-06 MaxDP=1.56D-04 DE=-1.18D-05 OVMax= 6.67D-04

 Cycle   9  Pass 1  IDiag  1:
 E= -279.505478698334     Delta-E=       -0.000001427269 Rises=F Damp=F
 DIIS: error= 2.45D-05 at cycle   9 NSaved=   9.
 NSaved= 9 IEnMin= 9 EnMin= -279.505478698334     IErMin= 9 ErrMin= 2.45D-05
 ErrMax= 2.45D-05  0.00D+00 EMaxC= 1.00D-01 BMatC= 1.14D-07 BMatP= 6.21D-07
 IDIUse=1 WtCom= 1.00D+00 WtEn= 0.00D+00
 Coeff-Com:  0.239D-03-0.250D-02-0.526D-02-0.512D-02 0.460D-01 0.480D-01
 Coeff-Com: -0.333D+00 0.167D-01 0.123D+01
 Coeff:      0.239D-03-0.250D-02-0.526D-02-0.512D-02 0.460D-01 0.480D-01
 Coeff:     -0.333D+00 0.167D-01 0.123D+01
 Gap=     0.535 Goal=   None    Shift=    0.000
 RMSDP=2.44D-06 MaxDP=6.51D-05 DE=-1.43D-06 OVMax= 2.55D-04

 Cycle  10  Pass 1  IDiag  1:
 E= -279.505478958399     Delta-E=       -0.000000260065 Rises=F Damp=F
 DIIS: error= 5.71D-06 at cycle  10 NSaved=  10.
 NSaved=10 IEnMin=10 EnMin= -279.505478958399     IErMin=10 ErrMin= 5.71D-06
 ErrMax= 5.71D-06  0.00D+00 EMaxC= 1.00D-01 BMatC= 8.20D-09 BMatP= 1.14D-07
 IDIUse=1 WtCom= 1.00D+00 WtEn= 0.00D+00
 Coeff-Com: -0.402D-04 0.507D-03 0.123D-02-0.184D-02-0.113D-01 0.519D-02
 Coeff-Com:  0.738D-01-0.471D-01-0.454D+00 0.143D+01
 Coeff:     -0.402D-04 0.507D-03 0.123D-02-0.184D-02-0.113D-01 0.519D-02
 Coeff:      0.738D-01-0.471D-01-0.454D+00 0.143D+01
 Gap=     0.535 Goal=   None    Shift=    0.000
 RMSDP=7.05D-07 MaxDP=2.52D-05 DE=-2.60D-07 OVMax= 7.49D-05

 Cycle  11  Pass 1  IDiag  1:
 E= -279.505478983363     Delta-E=       -0.000000024964 Rises=F Damp=F
 DIIS: error= 2.17D-06 at cycle  11 NSaved=  11.
 NSaved=11 IEnMin=11 EnMin= -279.505478983363     IErMin=11 ErrMin= 2.17D-06
 ErrMax= 2.17D-06  0.00D+00 EMaxC= 1.00D-01 BMatC= 8.35D-10 BMatP= 8.20D-09
 IDIUse=1 WtCom= 1.00D+00 WtEn= 0.00D+00
 Coeff-Com: -0.155D-04 0.156D-03 0.323D-03 0.850D-03-0.197D-02-0.707D-02
 Coeff-Com:  0.174D-01 0.203D-01-0.447D-01-0.332D+00 0.135D+01
 Coeff:     -0.155D-04 0.156D-03 0.323D-03 0.850D-03-0.197D-02-0.707D-02
 Coeff:      0.174D-01 0.203D-01-0.447D-01-0.332D+00 0.135D+01
 Gap=     0.535 Goal=   None    Shift=    0.000
 RMSDP=2.44D-07 MaxDP=8.99D-06 DE=-2.50D-08 OVMax= 2.83D-05

 Cycle  12  Pass 1  IDiag  1:
 E= -279.505478986374     Delta-E=       -0.000000003012 Rises=F Damp=F
 DIIS: error= 7.31D-07 at cycle  12 NSaved=  12.
 NSaved=12 IEnMin=12 EnMin= -279.505478986374     IErMin=12 ErrMin= 7.31D-07
 ErrMax= 7.31D-07  0.00D+00 EMaxC= 1.00D-01 BMatC= 8.87D-11 BMatP= 8.35D-10
 IDIUse=1 WtCom= 1.00D+00 WtEn= 0.00D+00
 Coeff-Com:  0.246D-05-0.437D-04-0.958D-04 0.150D-03 0.113D-02-0.851D-03
 Coeff-Com: -0.713D-02 0.628D-02 0.421D-01-0.122D+00-0.161D+00 0.124D+01
 Coeff:      0.246D-05-0.437D-04-0.958D-04 0.150D-03 0.113D-02-0.851D-03
 Coeff:     -0.713D-02 0.628D-02 0.421D-01-0.122D+00-0.161D+00 0.124D+01
 Gap=     0.535 Goal=   None    Shift=    0.000
 RMSDP=8.51D-08 MaxDP=2.75D-06 DE=-3.01D-09 OVMax= 9.81D-06

 Cycle  13  Pass 1  IDiag  1:
 E= -279.505478986685     Delta-E=       -0.000000000311 Rises=F Damp=F
 DIIS: error= 1.61D-07 at cycle  13 NSaved=  13.
 NSaved=13 IEnMin=13 EnMin= -279.505478986685     IErMin=13 ErrMin= 1.61D-07
 ErrMax= 1.61D-07  0.00D+00 EMaxC= 1.00D-01 BMatC= 7.71D-12 BMatP= 8.87D-11
 IDIUse=1 WtCom= 1.00D+00 WtEn= 0.00D+00
 Coeff-Com:  0.128D-05-0.119D-04-0.169D-04-0.122D-03 0.325D-04 0.953D-03
 Coeff-Com: -0.981D-03-0.264D-02-0.258D-02 0.579D-01-0.136D+00-0.153D+00
 Coeff-Com:  0.124D+01
 Coeff:      0.128D-05-0.119D-04-0.169D-04-0.122D-03 0.325D-04 0.953D-03
 Coeff:     -0.981D-03-0.264D-02-0.258D-02 0.579D-01-0.136D+00-0.153D+00
 Coeff:      0.124D+01
 Gap=     0.535 Goal=   None    Shift=    0.000
 RMSDP=2.35D-08 MaxDP=6.91D-07 DE=-3.11D-10 OVMax= 2.11D-06

 Cycle  14  Pass 1  IDiag  1:
 E= -279.505478986707     Delta-E=       -0.000000000021 Rises=F Damp=F
 DIIS: error= 4.14D-08 at cycle  14 NSaved=  14.
 NSaved=14 IEnMin=14 EnMin= -279.505478986707     IErMin=14 ErrMin= 4.14D-08
 ErrMax= 4.14D-08  0.00D+00 EMaxC= 1.00D-01 BMatC= 5.37D-13 BMatP= 7.71D-12
 IDIUse=1 WtCom= 1.00D+00 WtEn= 0.00D+00
 Coeff-Com: -0.311D-06 0.460D-05 0.907D-05-0.317D-05-0.114D-03 0.541D-04
 Coeff-Com:  0.651D-03-0.256D-03-0.368D-02 0.770D-02 0.183D-01-0.882D-01
 Coeff-Com: -0.429D-01 0.111D+01
 Coeff:     -0.311D-06 0.460D-05 0.907D-05-0.317D-05-0.114D-03 0.541D-04
 Coeff:      0.651D-03-0.256D-03-0.368D-02 0.770D-02 0.183D-01-0.882D-01
 Coeff:     -0.429D-01 0.111D+01
 Gap=     0.535 Goal=   None    Shift=    0.000
 RMSDP=4.69D-09 MaxDP=1.23D-07 DE=-2.13D-11 OVMax= 4.86D-07

 SCF Done:  E(RHF) =  -279.505478987     A.U. after   14 cycles
            NFock= 14  Conv=0.47D-08     -V/T= 2.0023
 KE= 2.788602867899D+02 PE=-9.056197596969D+02 EE= 2.248754385004D+02
 Leave Link  502 at Sun Mar  6 18:55:01 2022, MaxMem= 16106127360 cpu:              52.8 elap:               3.5
 (Enter /sw/contrib/gaussian/g16/B01/g16/l801.exe)
 ExpMin= 2.53D-02 ExpMax= 1.53D+04 ExpMxC= 5.22D+02 IAcc=3 IRadAn=         5 AccDes= 0.00D+00
 HarFok:  IExCor=  205 AccDes= 0.00D+00 IRadAn=         5 IDoV=-2 UseB2=F ITyADJ=14
 ICtDFT= 12500011 ScaDFX=  1.000000  1.000000  1.000000  1.000000
 Largest valence mixing into a core orbital is  2.07D-04
 Largest core mixing into a valence orbital is  3.14D-05
 Range of M.O.s used for correlation:     5   207
 NBasis=   207 NAE=    16 NBE=    16 NFC=     4 NFV=     0
 NROrb=    203 NOA=    12 NOB=    12 NVA=   191 NVB=   191

 **** Warning!!: The largest alpha MO coefficient is  0.16762800D+02

 Leave Link  801 at Sun Mar  6 18:55:02 2022, MaxMem= 16106127360 cpu:               2.7 elap:               0.1
 (Enter /sw/contrib/gaussian/g16/B01/g16/l906.exe)
 Frozen-core derivative calculation, NFC=   4 NFV=   0.
 FulOut=F Deriv=T AODrv=T NAtomX=     5
   MMem=           0  MDisk=          12 MDiskD=          12
  W3Min=      811440 MinDsk=     2425030 NBas6D=         245
 NBas2D=       30762    NTT=       30135    LW2=     7400000
    MDV= 16105571616 MDiskM=      328644 NBas2p=       30759
 Disk-based method using ON**2 memory for 12 occupieds at a time.
 Permanent disk used for amplitudes=    11516536 words.
 Estimated scratch disk usage=   321863743 words.
 IMap=   1   2   3   4   5   6   7   8   9  10  11  12  13  14  15  16
 Actual    scratch disk usage=   310892607 words.
 JobTyp=1 Pass  1:  I=   5 to  16 NPSUse= 28 ParTrn=T ParDer=T DoDerP=T.
 (rs|ai) integrals will be sorted in core.
 Spin components of T(2) and E(2):
     alpha-alpha T2 =       0.3490399327D-01 E2=     -0.1245791096D+00
     alpha-beta  T2 =       0.1854107413D+00 E2=     -0.7005178425D+00
     beta-beta   T2 =       0.3490399327D-01 E2=     -0.1245791096D+00
 The integrals were generated   1 times.
 ANorm=    0.1120365444D+01
 E2 =    -0.9496760617D+00 EUMP2 =    -0.28045515504840D+03
 Leave Link  906 at Sun Mar  6 18:56:39 2022, MaxMem= 16106127360 cpu:            2716.8 elap:              97.2
 (Enter /sw/contrib/gaussian/g16/B01/g16/l1101.exe)
 Using compressed Sx but separate Hx and Fx, NAtomX=     5.
 Will process      6 centers per pass.
 Leave Link 1101 at Sun Mar  6 18:56:39 2022, MaxMem= 16106127360 cpu:               5.4 elap:               0.2
 (Enter /sw/contrib/gaussian/g16/B01/g16/l1102.exe)
 Leave Link 1102 at Sun Mar  6 18:56:39 2022, MaxMem= 16106127360 cpu:               0.5 elap:               0.0
 (Enter /sw/contrib/gaussian/g16/B01/g16/l1110.exe)
 Forming Gx(P) for the SCF density, NAtomX=     5.
 Integral derivatives from FoFJK, PRISM(SPDF).
 Do as many integral derivatives as possible in FoFJK.
 G2DrvN: MDV=   16106126844.
 G2DrvN: will do     6 centers at a time, making    1 passes.
 Calling FoFCou, ICntrl=  3107 FMM=F I1Cent=   0 AccDes= 0.00D+00.
 FoFJK:  IHMeth= 1 ICntrl=    3107 DoSepK=F KAlg= 0 I1Cent=           0 FoldK=F
 IRaf=         0 NMat=       1 IRICut=       1 DoRegI=T DoRafI=F ISym2E= 1 IDoP0=0 IntGTp=1.
 FoFCou: FMM=F IPFlag=           0 FMFlag=      100000 FMFlg1=           0
         NFxFlg=           0 DoJE=F BraDBF=F KetDBF=F FulRan=T
         wScrn=  0.000000 ICntrl=      3107 IOpCl=  0 I1Cent=           0 NGrid=           0
         NMat0=    1 NMatS0=      1 NMatT0=    0 NMatD0=    1 NMtDS0=    0 NMtDT0=    0
 Petite list used in FoFCou.
 End of G2Drv F.D. properties file   721 does not exist.
 End of G2Drv F.D. properties file   722 does not exist.
 End of G2Drv F.D. properties file   788 does not exist.
 Leave Link 1110 at Sun Mar  6 18:56:42 2022, MaxMem= 16106127360 cpu:              92.0 elap:               3.3
 (Enter /sw/contrib/gaussian/g16/B01/g16/l1002.exe)
 Minotr:  Closed shell wavefunction.
          IDoAtm=11111
          Frozen-core window.
          Direct CPHF calculation.
          Differentiating once with respect to electric field.
                with respect to dipole field.
          Differentiating once with respect to nuclear coordinates.
          Requested convergence is 1.0D-08 RMS, and 1.0D-07 maximum.
          Secondary convergence is 1.0D-12 RMS, and 1.0D-12 maximum.
          NewPWx=T KeepS1=T KeepF1=T KeepIn=T MapXYZ=F SortEE=F KeepMc=T.
 Keep R1 ints in memory in symmetry-blocked form, NReq=348888983.
 FoFCou: FMM=F IPFlag=           0 FMFlag=           0 FMFlg1=           0
         NFxFlg=           0 DoJE=F BraDBF=F KetDBF=F FulRan=T
         wScrn=  0.000000 ICntrl=       600 IOpCl=  0 I1Cent=           0 NGrid=           0
         NMat0=    1 NMatS0=  21528 NMatT0=    0 NMatD0=    1 NMtDS0=    0 NMtDT0=    0
 Petite list used in FoFCou.
          MDV=   16106127360 using IRadAn=       1.
          Solving linear equations simultaneously, MaxMat=       0.
          There are    18 degrees of freedom in the 1st order CPHF.  IDoFFX=6 NUNeed=    18.
     15 vectors produced by pass  0 Test12= 1.70D-14 5.56D-09 XBig12= 7.93D+00 1.23D+00.
 AX will form    15 AO Fock derivatives at one time.
     15 vectors produced by pass  1 Test12= 1.70D-14 5.56D-09 XBig12= 1.36D+00 2.38D-01.
     15 vectors produced by pass  2 Test12= 1.70D-14 5.56D-09 XBig12= 6.87D-02 5.68D-02.
     15 vectors produced by pass  3 Test12= 1.70D-14 5.56D-09 XBig12= 2.02D-03 1.09D-02.
     15 vectors produced by pass  4 Test12= 1.70D-14 5.56D-09 XBig12= 4.47D-05 1.21D-03.
     15 vectors produced by pass  5 Test12= 1.70D-14 5.56D-09 XBig12= 6.13D-07 1.19D-04.
     15 vectors produced by pass  6 Test12= 1.70D-14 5.56D-09 XBig12= 4.69D-09 1.16D-05.
     14 vectors produced by pass  7 Test12= 1.70D-14 5.56D-09 XBig12= 3.52D-11 7.99D-07.
      3 vectors produced by pass  8 Test12= 1.70D-14 5.56D-09 XBig12= 2.40D-13 6.17D-08.
      1 vectors produced by pass  9 Test12= 1.70D-14 5.56D-09 XBig12= 1.62D-15 6.87D-09.
 InvSVY:  IOpt=1 It=  1 EMax= 8.88D-16
 Solved reduced A of dimension   123 with    15 vectors.
 FullF1:  Do perturbations      1 to      18.
 Saving first derivative matrices.
 End of Minotr F.D. properties file   721 does not exist.
 End of Minotr F.D. properties file   722 does not exist.
 End of Minotr F.D. properties file   788 does not exist.
 Leave Link 1002 at Sun Mar  6 18:56:45 2022, MaxMem= 16106127360 cpu:              78.8 elap:               3.0
 (Enter /sw/contrib/gaussian/g16/B01/g16/l811.exe)
 MDV= 16106127360.
 Form MO integral derivatives with frozen-active canonical formalism.
 MOERI=1 MOERIx=1 NAtoms=     5 NAtomX=     5.
 Discarding MO integrals.
 MO basis two electron integral derivatives will not be stored on disk.
 IAlg= 3 DoFC=T DoPWx=T Debug=F.
 Frozen-core window:  NFC=   4 NFV=   0.
 Reordered first order wavefunction length =     18678272
 In DefCFB: NBatch=  1 ICI= 16 ICA=191 LFMax= 96
            Large arrays: LIAPS=   619940160 LIARS=   288257200 words.
 In StABat: MaxSiz= 55 MinSiz= 25 NAtomB=  5
 DoIAMN: NPSUse= 28.
 Leave Link  811 at Sun Mar  6 18:58:05 2022, MaxMem= 16106127360 cpu:            2219.3 elap:              79.4
 (Enter /sw/contrib/gaussian/g16/B01/g16/l804.exe)
 Frozen-core window:  NFC=   4 NFV=   0.
 Closed-shell transformation, MDV= 16106127360 ITran=4 ISComp=1.
 Semi-Direct transformation.
 ModeAB=           2 MOrb=            16 LenV=   16104919953
 LASXX=     67341636 LTotXX=    67341636 LenRXX=    67341636
 LTotAB=    68301760 MaxLAS=    99807120 LenRXY=    99807120
 NonZer=   134683272 LenScr=   202817536 LnRSAI=           0
 LnScr1=           0 LExtra=           0 Total=    369966292
 MaxDsk=          -1 SrtSym=           F ITran=            4
 DoSDTr:  NPSUse= 28
 JobTyp=0 Pass  1:  I=   1 to  16.
 (rs|ai) integrals will be sorted in core.
 Complete sort for first half transformation.
 First half transformation complete.
 Begin second half transformation for I=  10.
 Begin second half transformation for I=  10.
 Complete sort for second half transformation.
 Second half transformation complete.
 Spin components of T(2) and E(2):
     alpha-alpha T2 =       0.3490399327D-01 E2=     -0.1245791096D+00
     alpha-beta  T2 =       0.1854107413D+00 E2=     -0.7005178425D+00
     beta-beta   T2 =       0.3490399327D-01 E2=     -0.1245791096D+00
 ANorm=    0.1584436006D+01
 E2 =    -0.9496760617D+00 EUMP2 =    -0.28045515504840D+03
 Leave Link  804 at Sun Mar  6 18:58:21 2022, MaxMem= 16106127360 cpu:             451.9 elap:              16.2
 (Enter /sw/contrib/gaussian/g16/B01/g16/l1002.exe)
 Minotr:  Closed shell wavefunction.
          Computing MP2/KS-MP2 derivatives.
          Using Z-Vector for PSCF gradient.
          Skipping F1 and S1 gradient terms here.
          IDoAtm=11111
          Frozen-core window.
          Using MO integrals in the linear equations.
          Forming densities via direct SCF.
          Differentiating once with respect to electric field.
                with respect to dipole field.
          Differentiating once with respect to nuclear coordinates.
          Using symmetry in CPHF.
          Requested convergence is 1.0D-10 RMS, and 1.0D-09 maximum.
          NewPWx=F KeepS1=T KeepF1=T KeepIn=T MapXYZ=F SortEE=F KeepMc=T.
          MDV=   16106127360 using IRadAn=       5.
          Solving linear equations separately, MaxMat=       0.
          There are     1 degrees of freedom in the 1st order CPHF.  IDoFFX=0 NUNeed=     1.
 FoFJK:  IHMeth= 1 ICntrl=       0 DoSepK=F KAlg= 0 I1Cent=           0 FoldK=F
 IRaf=         0 NMat=       1 IRICut=       1 DoRegI=T DoRafI=F ISym2E= 0 IDoP0=0 IntGTp=1.
 FoFCou: FMM=F IPFlag=           0 FMFlag=      100000 FMFlg1=           0
         NFxFlg=           0 DoJE=F BraDBF=F KetDBF=F FulRan=T
         wScrn=  0.000000 ICntrl=         0 IOpCl=  0 I1Cent=           0 NGrid=           0
         NMat0=    1 NMatS0=      1 NMatT0=    0 NMatD0=    1 NMtDS0=    0 NMtDT0=    0
 Symmetry not used in FoFCou.
 LinEq1:  Iter=  0 NonCon=     1 RMS=6.60D-03 Max=1.67D-01 NDo=     1
 LinEq1:  Iter=  1 NonCon=     1 RMS=1.99D-03 Max=3.07D-02 NDo=     1
 LinEq1:  Iter=  2 NonCon=     1 RMS=8.85D-04 Max=1.47D-02 NDo=     1
 LinEq1:  Iter=  3 NonCon=     1 RMS=3.78D-04 Max=8.01D-03 NDo=     1
 LinEq1:  Iter=  4 NonCon=     1 RMS=1.36D-04 Max=1.66D-03 NDo=     1
 LinEq1:  Iter=  5 NonCon=     1 RMS=7.62D-05 Max=1.36D-03 NDo=     1
 LinEq1:  Iter=  6 NonCon=     1 RMS=2.43D-05 Max=2.87D-04 NDo=     1
 LinEq1:  Iter=  7 NonCon=     1 RMS=8.27D-06 Max=1.09D-04 NDo=     1
 LinEq1:  Iter=  8 NonCon=     1 RMS=4.03D-06 Max=6.50D-05 NDo=     1
 LinEq1:  Iter=  9 NonCon=     1 RMS=1.04D-06 Max=1.16D-05 NDo=     1
 LinEq1:  Iter= 10 NonCon=     1 RMS=2.34D-07 Max=2.82D-06 NDo=     1
 LinEq1:  Iter= 11 NonCon=     1 RMS=5.11D-08 Max=8.05D-07 NDo=     1
 LinEq1:  Iter= 12 NonCon=     1 RMS=1.22D-08 Max=1.64D-07 NDo=     1
 LinEq1:  Iter= 13 NonCon=     1 RMS=2.14D-09 Max=2.33D-08 NDo=     1
 LinEq1:  Iter= 14 NonCon=     1 RMS=4.36D-10 Max=5.56D-09 NDo=     1
 LinEq1:  Iter= 15 NonCon=     0 RMS=8.95D-11 Max=7.70D-10 NDo=     1
 Linear equations converged to 1.000D-10 1.000D-09 after    15 iterations.
 End of Minotr F.D. properties file   721 does not exist.
 End of Minotr F.D. properties file   722 does not exist.
 End of Minotr F.D. properties file   788 does not exist.
 Leave Link 1002 at Sun Mar  6 18:58:23 2022, MaxMem= 16106127360 cpu:              63.6 elap:               2.3
 (Enter /sw/contrib/gaussian/g16/B01/g16/l1102.exe)
 Use density number 2.
 Symmetrizing basis deriv contribution to polar:
 IMax=3 JMax=2 DiffMx= 0.00D+00
 Leave Link 1102 at Sun Mar  6 18:58:24 2022, MaxMem= 16106127360 cpu:               0.8 elap:               0.1
 (Enter /sw/contrib/gaussian/g16/B01/g16/l1110.exe)
 Forming Gx(P) for generalized density number  2 NAtomX=     5.
 Integral derivatives from FoFJK, PRISM(SPDF).
 Do as many integral derivatives as possible in FoFJK.
 G2DrvN: MDV=   16106126844.
 G2DrvN: will do     6 centers at a time, making    1 passes.
 Calling FoFCou, ICntrl=  3107 FMM=F I1Cent=   0 AccDes= 0.00D+00.
 FoFJK:  IHMeth= 1 ICntrl=    3107 DoSepK=F KAlg= 0 I1Cent=           0 FoldK=F
 IRaf=         0 NMat=       1 IRICut=       1 DoRegI=T DoRafI=F ISym2E= 1 IDoP0=0 IntGTp=1.
 FoFCou: FMM=F IPFlag=           0 FMFlag=      100000 FMFlg1=           0
         NFxFlg=           0 DoJE=F BraDBF=F KetDBF=F FulRan=T
         wScrn=  0.000000 ICntrl=      3107 IOpCl=  0 I1Cent=           0 NGrid=           0
         NMat0=    1 NMatS0=      1 NMatT0=    0 NMatD0=    1 NMtDS0=    0 NMtDT0=    0
 Petite list used in FoFCou.
 End of G2Drv F.D. properties file   721 does not exist.
 End of G2Drv F.D. properties file   722 does not exist.
 End of G2Drv F.D. properties file   788 does not exist.
 Leave Link 1110 at Sun Mar  6 18:58:27 2022, MaxMem= 16106127360 cpu:              87.3 elap:               3.1
 (Enter /sw/contrib/gaussian/g16/B01/g16/l1112.exe)
 MP22nd: MDV=   16106127360
 This link is doing NAtomX=     5 total of    18 degrees of freedom.
 Using ON3 I/O method in MakUI.
 Frozen-core window:  NFC=   4 NFV=   0.
 Using Ix for Sx.
 Use MO integrals over full window.
 Using OV2 memory method for fx*t*t/D, MaxI=    16 DoOO2=F NP=  28.
 R2 and R3 integrals will be kept in memory, NReq=   915591705.
 FoFCou: FMM=F IPFlag=           0 FMFlag=           0 FMFlg1=           0
         NFxFlg=           0 DoJE=F BraDBF=F KetDBF=F FulRan=T
         wScrn=  0.000000 ICntrl=       600 IOpCl=  0 I1Cent=           0 NGrid=           0
         NMat0=    1 NMatS0=      1 NMatT0=    0 NMatD0=    1 NMtDS0=    0 NMtDT0=    0
 Symmetry not used in FoFCou.
 DD1Dir will call FoFMem   1 times, MxPair=       272
 NAB=   136 NAA=     0 NBB=     0.
 Symmetry is being used.
 FoFJK:  IHMeth= 1 ICntrl=       0 DoSepK=F KAlg= 0 I1Cent=           0 FoldK=F
 IRaf=         0 NMat=      18 IRICut=      45 DoRegI=T DoRafI=T ISym2E= 2 IDoP0=3 IntGTp=3.
 Discarding MO integrals.
 Leave Link 1112 at Sun Mar  6 18:59:00 2022, MaxMem= 16106127360 cpu:             915.9 elap:              33.0
 (Enter /sw/contrib/gaussian/g16/B01/g16/l601.exe)
 Copying SCF densities to generalized density rwf, IOpCl= 0 IROHF=0.

 **********************************************************************

            Population analysis using the MP2 Density.

 **********************************************************************

 Orbital symmetries:
       Occupied  (A') (A') (A') (A') (A') (A') (A') (A') (A') (A')
                 (A") (A') (A") (A') (A') (A")
       Virtual   (A') (A") (A') (A') (A") (A') (A') (A') (A") (A')
                 (A") (A') (A') (A') (A") (A') (A') (A") (A') (A')
                 (A') (A') (A') (A') (A") (A') (A') (A") (A') (A')
                 (A') (A") (A") (A') (A') (A') (A") (A') (A") (A')
                 (A") (A") (A') (A') (A") (A') (A') (A") (A') (A')
                 (A') (A") (A') (A') (A") (A') (A") (A') (A") (A')
                 (A') (A') (A") (A') (A') (A') (A") (A") (A') (A')
                 (A") (A') (A") (A") (A') (A') (A") (A') (A') (A')
                 (A") (A') (A') (A") (A') (A") (A") (A') (A') (A')
                 (A') (A') (A") (A") (A') (A') (A") (A") (A') (A")
                 (A') (A') (A") (A') (A") (A') (A') (A') (A") (A")
                 (A') (A') (A') (A') (A") (A') (A') (A') (A") (A')
                 (A") (A") (A') (A') (A") (A") (A') (A") (A') (A')
                 (A') (A') (A") (A') (A') (A") (A") (A') (A') (A')
                 (A") (A") (A') (A') (A') (A") (A') (A') (A') (A")
                 (A') (A') (A') (A") (A") (A') (A") (A') (A') (A")
                 (A') (A") (A') (A") (A") (A') (A") (A') (A") (A')
                 (A") (A") (A") (A') (A') (A") (A') (A') (A") (A')
                 (A') (A') (A') (A') (A') (A') (A') (A') (A') (A')
                 (A')
 The electronic state is 1-A'.
 Alpha  occ. eigenvalues --  -20.71972 -20.68704 -20.66962 -15.82620  -1.64213
 Alpha  occ. eigenvalues --   -1.50043  -1.29556  -0.95961  -0.83218  -0.75795
 Alpha  occ. eigenvalues --   -0.73805  -0.63937  -0.61696  -0.61544  -0.50419
 Alpha  occ. eigenvalues --   -0.49985
 Alpha virt. eigenvalues --    0.03490   0.06033   0.09508   0.10020   0.11983
 Alpha virt. eigenvalues --    0.12228   0.14849   0.15104   0.17757   0.18054
 Alpha virt. eigenvalues --    0.18987   0.21093   0.21657   0.23599   0.24633
 Alpha virt. eigenvalues --    0.26922   0.31178   0.31642   0.33772   0.34341
 Alpha virt. eigenvalues --    0.34581   0.39282   0.44861   0.48773   0.50483
 Alpha virt. eigenvalues --    0.51828   0.54554   0.56113   0.59905   0.61983
 Alpha virt. eigenvalues --    0.63846   0.68916   0.71716   0.72460   0.74177
 Alpha virt. eigenvalues --    0.76307   0.76585   0.79663   0.80631   0.84060
 Alpha virt. eigenvalues --    0.84295   0.85187   0.88479   0.90647   0.92891
 Alpha virt. eigenvalues --    0.94752   0.95482   1.01776   1.03092   1.06057
 Alpha virt. eigenvalues --    1.06600   1.09359   1.14303   1.15543   1.16963
 Alpha virt. eigenvalues --    1.22170   1.22719   1.24518   1.35102   1.36232
 Alpha virt. eigenvalues --    1.37137   1.46915   1.48603   1.50525   1.54141
 Alpha virt. eigenvalues --    1.59562   1.59703   1.60540   1.62766   1.69505
 Alpha virt. eigenvalues --    1.73876   1.80089   1.82973   1.88809   1.89146
 Alpha virt. eigenvalues --    1.92822   1.97697   1.98932   2.05164   2.12282
 Alpha virt. eigenvalues --    2.12966   2.16373   2.18725   2.24366   2.25357
 Alpha virt. eigenvalues --    2.29204   2.34913   2.36531   2.38598   2.40273
 Alpha virt. eigenvalues --    2.42657   2.46812   2.47681   2.52903   2.53746
 Alpha virt. eigenvalues --    2.54706   2.55784   2.61479   2.62580   2.66880
 Alpha virt. eigenvalues --    2.67043   2.74800   2.80584   2.81579   2.83687
 Alpha virt. eigenvalues --    2.91494   2.98417   3.04313   3.04757   3.11430
 Alpha virt. eigenvalues --    3.11435   3.16841   3.20417   3.30353   3.32804
 Alpha virt. eigenvalues --    3.36122   3.46437   3.67848   3.86780   3.92542
 Alpha virt. eigenvalues --    4.18052   4.21921   4.22295   4.26508   4.36807
 Alpha virt. eigenvalues --    4.48641   4.52079   4.55278   4.59548   4.69574
 Alpha virt. eigenvalues --    4.80731   4.89706   4.91300   4.93899   4.99952
 Alpha virt. eigenvalues --    5.00588   5.10652   5.13035   5.18003   5.24995
 Alpha virt. eigenvalues --    5.25847   5.31613   5.33786   5.35379   5.54909
 Alpha virt. eigenvalues --    5.64465   5.70252   5.86631   5.99276   6.28882
 Alpha virt. eigenvalues --    6.29322   6.35161   6.38353   6.60217   6.65747
 Alpha virt. eigenvalues --    6.66897   6.69028   6.72820   6.79788   6.80029
 Alpha virt. eigenvalues --    6.85410   6.96623   7.01049   7.05647   7.07268
 Alpha virt. eigenvalues --    7.13264   7.16725   7.16904   7.19257   7.23657
 Alpha virt. eigenvalues --    7.24289   7.26905   7.34483   7.38571   7.41788
 Alpha virt. eigenvalues --    7.44199   7.45533   7.55747   7.65352   7.65917
 Alpha virt. eigenvalues --    7.78331   7.86805   7.94608   8.05386   8.28307
 Alpha virt. eigenvalues --    8.49172   8.63835  13.56640  14.73977  15.08985
 Alpha virt. eigenvalues --   15.74607
          Condensed to atoms (all electrons):
               1          2          3          4          5
     1  H    0.576731   0.124943   0.024220   0.000154  -0.006248
     2  O    0.124943   8.371086  -0.211903   0.000570  -0.008854
     3  O    0.024220  -0.211903   8.357765  -0.169879  -0.034225
     4  N    0.000154   0.000570  -0.169879   7.129463  -0.116928
     5  O   -0.006248  -0.008854  -0.034225  -0.116928   8.361253
 Mulliken charges:
               1
     1  H    0.280199
     2  O   -0.275843
     3  O    0.034022
     4  N    0.156619
     5  O   -0.194998
 Sum of Mulliken charges =  -0.00000
 Mulliken charges with hydrogens summed into heavy atoms:
               1
     2  O    0.004356
     3  O    0.034022
     4  N    0.156619
     5  O   -0.194998
 APT charges:
               1
     1  H    0.271208
     2  O   -0.305767
     3  O   -0.306776
     4  N    0.641685
     5  O   -0.300350
 Sum of APT charges =  -0.00000
 APT charges with hydrogens summed into heavy atoms:
               1
     2  O   -0.034559
     3  O   -0.306776
     4  N    0.641685
     5  O   -0.300350
 Electronic spatial extent (au):  <R**2>=            208.1931
 Charge=             -0.0000 electrons
 Dipole moment (field-independent basis, Debye):
    X=              0.0275    Y=             -1.1119    Z=              0.0000  Tot=              1.1123
 Quadrupole moment (field-independent basis, Debye-Ang):
   XX=            -23.3793   YY=            -22.9182   ZZ=            -21.9520
   XY=             -2.0052   XZ=              0.0000   YZ=              0.0000
 Traceless Quadrupole moment (field-independent basis, Debye-Ang):
   XX=             -0.6295   YY=             -0.1683   ZZ=              0.7978
   XY=             -2.0052   XZ=              0.0000   YZ=              0.0000
 Octapole moment (field-independent basis, Debye-Ang**2):
  XXX=              2.5096  YYY=              0.1907  ZZZ=              0.0000  XYY=              2.3948
  XXY=             -2.8466  XXZ=              0.0000  XZZ=             -0.6201  YZZ=             -0.7234
  YYZ=              0.0000  XYZ=              0.0000
 Hexadecapole moment (field-independent basis, Debye-Ang**3):
 XXXX=           -128.6092 YYYY=            -94.3839 ZZZZ=            -18.0766 XXXY=            -21.5246
 XXXZ=              0.0000 YYYX=            -19.7666 YYYZ=              0.0000 ZZZX=              0.0000
 ZZZY=              0.0000 XXYY=            -35.8043 XXZZ=            -24.6224 YYZZ=            -18.5294
 XXYZ=              0.0000 YYXZ=              0.0000 ZZXY=             -5.8868
 N-N= 1.223785554198D+02 E-N=-9.063143374503D+02  KE= 2.801818191488D+02
 Symmetry A'   KE= 2.663357206146D+02
 Symmetry A"   KE= 1.384609853420D+01
  Exact polarizability:  31.167   4.067  29.853   0.000   0.000  17.659
 Approx polarizability:  24.857   0.413  27.717  -0.000  -0.000  15.536
 No NMR shielding tensors so no spin-rotation constants.
 Leave Link  601 at Sun Mar  6 18:59:00 2022, MaxMem= 16106127360 cpu:               4.4 elap:               0.2
 (Enter /sw/contrib/gaussian/g16/B01/g16/l701.exe)
 ... and contract with generalized density number  2.
 Compute integral second derivatives.
 Leave Link  701 at Sun Mar  6 18:59:00 2022, MaxMem= 16106127360 cpu:               6.6 elap:               0.3
 (Enter /sw/contrib/gaussian/g16/B01/g16/l702.exe)
 L702 exits ... SP integral derivatives will be done elsewhere.
 Leave Link  702 at Sun Mar  6 18:59:00 2022, MaxMem= 16106127360 cpu:               0.5 elap:               0.0
 (Enter /sw/contrib/gaussian/g16/B01/g16/l703.exe)
 Integral derivatives from FoFJK, PRISM(SPDF).
 Compute integral second derivatives, UseDBF=F ICtDFT=           0.
 Calling FoFJK, ICntrl=  10100127 FMM=F ISym2X=1 I1Cent= 0 IOpClX= 0 NMat=1 NMatS=1 NMatT=0.
 FoFJK:  IHMeth= 1 ICntrl=10100127 DoSepK=F KAlg= 0 I1Cent=           0 FoldK=F
 IRaf=         0 NMat=       1 IRICut=       1 DoRegI=T DoRafI=F ISym2E= 1 IDoP0=0 IntGTp=1.
 FoFCou: FMM=F IPFlag=           0 FMFlag=      100000 FMFlg1=         800
         NFxFlg=           0 DoJE=F BraDBF=F KetDBF=F FulRan=T
         wScrn=  0.000000 ICntrl=  10100127 IOpCl=  0 I1Cent=           0 NGrid=           0
         NMat0=    1 NMatS0=      1 NMatT0=    0 NMatD0=    1 NMtDS0=    0 NMtDT0=    0
 Petite list used in FoFCou.
 Leave Link  703 at Sun Mar  6 18:59:16 2022, MaxMem= 16106127360 cpu:             446.0 elap:              16.0
 (Enter /sw/contrib/gaussian/g16/B01/g16/l716.exe)
 Dipole        = 1.08274334D-02-4.37466509D-01 0.00000000D+00
 Polarizability= 3.11666783D+01 4.06719839D+00 2.98525724D+01
                 0.00000000D+00 0.00000000D+00 1.76590499D+01
 Full mass-weighted force constant matrix:
 Low frequencies ---   -0.0012   -0.0012    0.0008   11.4428   42.1166   72.9021
 Low frequencies ---  353.2167  394.8540  522.2110
 Diagonal vibrational polarizability:
        7.2418357       9.9900038      16.1799211
 Harmonic frequencies (cm**-1), IR intensities (KM/Mole), Raman scattering
 activities (A**4/AMU), depolarization ratios for plane and unpolarized
 incident light, reduced masses (AMU), force constants (mDyne/A),
 and normal coordinates:
                      1                      2                      3
                     A"                     A'                     A"
 Frequencies --    353.2152               394.8264               522.1831
 Red. masses --      1.5456                 7.0801                 2.9510
 Frc consts  --      0.1136                 0.6503                 0.4741
 IR Inten    --     63.4442                 7.5840                25.2790
  Atom  AN      X      Y      Z        X      Y      Z        X      Y      Z
     1   1    -0.00  -0.00   0.98    -0.73  -0.25  -0.00    -0.00  -0.00   0.93
     2   8    -0.00  -0.00  -0.11    -0.33  -0.31   0.00    -0.00  -0.00   0.05
     3   8    -0.00   0.00   0.11    -0.06   0.08  -0.00     0.00   0.00  -0.18
     4   7     0.00   0.00  -0.11     0.06   0.09   0.00    -0.00  -0.00   0.27
     5   8     0.00   0.00   0.03     0.39   0.16   0.00     0.00   0.00  -0.17
                      4                      5                      6
                     A'                     A'                     A'
 Frequencies --    707.1319               810.6750               956.0382
 Red. masses --     13.2858                13.1101                 9.2502
 Frc consts  --      3.9142                 5.0763                 4.9814
 IR Inten    --    211.3576                33.0453                13.4440
  Atom  AN      X      Y      Z        X      Y      Z        X      Y      Z
     1   1    -0.36   0.01  -0.00     0.37  -0.17   0.00    -0.65   0.01   0.00
     2   8    -0.03  -0.07  -0.00     0.56  -0.24  -0.00     0.14  -0.14  -0.00
     3   8     0.40   0.57   0.00    -0.43   0.05   0.00    -0.31   0.40   0.00
     4   7    -0.41  -0.45  -0.00    -0.41  -0.06  -0.00     0.40   0.04  -0.00
     5   8     0.01  -0.10   0.00     0.20   0.25   0.00    -0.15  -0.30   0.00
                      7                      8                      9
                     A'                     A'                     A'
 Frequencies --   1420.7439              1567.3024              3493.4086
 Red. masses --      1.2753                 7.3047                 1.0640
 Frc consts  --      1.5167                10.5720                 7.6505
 IR Inten    --     80.6935               148.8121                41.9575
  Atom  AN      X      Y      Z        X      Y      Z        X      Y      Z
     1   1     0.97  -0.21   0.00    -0.72   0.17  -0.00     0.16   0.99  -0.00
     2   8    -0.07  -0.05   0.00     0.02   0.02  -0.00    -0.01  -0.06   0.00
     3   8    -0.03   0.06  -0.00    -0.04  -0.06   0.00     0.00  -0.00  -0.00
     4   7     0.06  -0.05   0.00     0.26  -0.43  -0.00    -0.00   0.00  -0.00
     5   8    -0.02   0.04  -0.00    -0.16   0.41   0.00     0.00  -0.00   0.00

 -------------------
 - Thermochemistry -
 -------------------
 Temperature   298.150 Kelvin.  Pressure   1.00000 Atm.
 Atom     1 has atomic number  1 and mass   1.00783
 Atom     2 has atomic number  8 and mass  15.99491
 Atom     3 has atomic number  8 and mass  15.99491
 Atom     4 has atomic number  7 and mass  14.00307
 Atom     5 has atomic number  8 and mass  15.99491
 Molecular mass:    62.99564 amu.
 Principal axes and moments of inertia in atomic units:
                           1         2         3
     Eigenvalues --    85.35307 223.67263 309.02570
           X            0.80370  -0.59504   0.00000
           Y            0.59504   0.80370   0.00000
           Z            0.00000   0.00000   1.00000
 This molecule is an asymmetric top.
 Rotational symmetry number  1.
 Rotational temperatures (Kelvin)      1.01477     0.38724     0.28028
 Rotational constants (GHZ):          21.14442     8.06867     5.84010
 Zero-point vibrational energy      61162.2 (Joules/Mol)
                                   14.61812 (Kcal/Mol)
 Warning -- explicit consideration of   3 degrees of freedom as
           vibrations may cause significant error
 Vibrational temperatures:    508.20   568.07   751.30  1017.41  1166.38
          (Kelvin)           1375.53  2044.13  2255.00  5026.24
 
 Zero-point correction=                           0.023295 (Hartree/Particle)
 Thermal correction to Energy=                    0.027248
 Thermal correction to Enthalpy=                  0.028192
 Thermal correction to Gibbs Free Energy=        -0.002695
 Sum of electronic and zero-point Energies=           -280.431860
 Sum of electronic and thermal Energies=              -280.427907
 Sum of electronic and thermal Enthalpies=            -280.426963
 Sum of electronic and thermal Free Energies=         -280.457850
 
                     E (Thermal)             CV                S
                      KCal/Mol        Cal/Mol-Kelvin    Cal/Mol-Kelvin
 Total                   17.098             12.247             65.006
 Electronic               0.000              0.000              0.000
 Translational            0.889              2.981             38.341
 Rotational               0.889              2.981             23.294
 Vibrational             15.321              6.285              3.372
 Vibration     1          0.729              1.569              1.152
 Vibration     2          0.762              1.481              0.982
 Vibration     3          0.877              1.201              0.605
                       Q            Log10(Q)             Ln(Q)
 Total Bot       0.173550D+02          1.239426          2.853883
 Total V=0       0.900708D+12         11.954584         27.526447
 Vib (Bot)       0.321179D-10        -10.493253        -24.161607
 Vib (Bot)    1  0.521249D+00         -0.282955         -0.651527
 Vib (Bot)    2  0.453132D+00         -0.343775         -0.791572
 Vib (Bot)    3  0.308494D+00         -0.510754         -1.176054
 Vib (V=0)       0.166688D+01          0.221905          0.510956
 Vib (V=0)    1  0.122229D+01          0.087174          0.200725
 Vib (V=0)    2  0.117478D+01          0.069957          0.161081
 Vib (V=0)    3  0.108751D+01          0.036433          0.083891
 Electronic      0.100000D+01          0.000000          0.000000
 Translational   0.196526D+08          7.293420         16.793719
 Rotational      0.274953D+05          4.439259         10.221771
 
                                                                title
                                                             IR Spectrum
 
     3                                                                      1    1                                                   
     4                                                                      5    4                9    8   7      5   3 3            
     9                                                                      6    2                5    1   0      2   9 5            
     3                                                                      7    1                6    1   7      2   5 3            
 
     X                                                                      X    X                X    X   X      X   X X            
     X                                                                      X    X                     X   X      X     X            
     X                                                                      X    X                     X   X            X            
     X                                                                      X    X                         X            X            
                                                                            X    X                         X            X            
                                                                            X    X                         X            X            
                                                                            X    X                         X                         
                                                                            X    X                         X                         
                                                                            X                              X                         
                                                                            X                              X                         
                                                                            X                              X                         
                                                                            X                              X                         
                                                                            X                              X                         
                                                                            X                              X                         
                                                                                                           X                         
                                                                                                           X                         
                                                                                                           X                         
                                                                                                           X                         
                                                                                                           X                         
                                                                                                           X                         
 
 ***** Axes restored to original set *****
 -------------------------------------------------------------------
 Center     Atomic                   Forces (Hartrees/Bohr)
 Number     Number              X              Y              Z
 -------------------------------------------------------------------
      1        1           0.000801366   -0.000000000    0.000537849
      2        8           0.005460398   -0.000000000    0.001079259
      3        8          -0.005206360   -0.000000000   -0.001761407
      4        7          -0.001875831   -0.000000000    0.000308487
      5        8           0.000820426   -0.000000000   -0.000164188
 -------------------------------------------------------------------
 Cartesian Forces:  Max     0.005460398 RMS     0.002104518
 -----------------------------------------------------------------------------------------------
                       Internal Coordinate Forces (Hartree/Bohr or radian)
  Cent   Atom   N1       Length/X         N2         Alpha/Y        N3         Beta/Z          J
 -----------------------------------------------------------------------------------------------
      1  H 
      2  O        1  -0.000538(     1)
      3  O        2  -0.006453(     2)      1  -0.001492(     5)
      4  N        3  -0.000707(     3)      2  -0.000312(     6)      1   0.000000(     8)     0
      5  O        4  -0.000294(     4)      3   0.001769(     7)      2   0.000000(     9)     0
 -----------------------------------------------------------------------------------------------
 Internal  Forces:  Max     0.006452648 RMS     0.002308540
 Force constants in Cartesian coordinates: 
                1             2             3             4             5 
      1  0.704202D-01
      2  0.000000D+00  0.608121D-02
      3  0.227720D-01  0.000000D+00  0.438226D+00
      4 -0.519075D-01  0.000000D+00 -0.502467D-02  0.262159D+00
      5  0.000000D+00 -0.223098D-02  0.000000D+00  0.000000D+00  0.136780D-01
      6  0.316771D-01  0.000000D+00 -0.422625D+00 -0.150130D-01  0.000000D+00
      7 -0.237463D-01  0.000000D+00 -0.144371D-01 -0.152752D+00  0.000000D+00
      8  0.000000D+00 -0.441644D-02  0.000000D+00  0.000000D+00 -0.203186D-01
      9 -0.429222D-01  0.000000D+00 -0.188807D-01  0.126375D-01  0.000000D+00
     10 -0.492531D-02  0.000000D+00  0.592768D-02 -0.822246D-01  0.000000D+00
     11  0.000000D+00  0.784281D-02  0.000000D+00  0.000000D+00  0.191822D-01
     12 -0.184829D-01  0.000000D+00  0.114583D-01  0.116546D-01  0.000000D+00
     13  0.101590D-01  0.000000D+00 -0.923788D-02  0.247253D-01  0.000000D+00
     14  0.000000D+00 -0.727660D-02  0.000000D+00  0.000000D+00 -0.103107D-01
     15  0.695597D-02  0.000000D+00 -0.817868D-02 -0.425446D-02  0.000000D+00
                6             7             8             9            10 
      6  0.522662D+00
      7 -0.860252D-01  0.282635D+00
      8  0.000000D+00  0.000000D+00  0.423105D-01
      9 -0.956836D-01  0.775872D-01  0.000000D+00  0.314162D+00
     10  0.397345D-01 -0.143111D+00  0.000000D+00 -0.356909D-01  0.550200D+00
     11  0.000000D+00  0.000000D+00 -0.473211D-01  0.000000D+00  0.000000D+00
     12 -0.945386D-02  0.132469D-01  0.000000D+00 -0.250135D-01  0.244621D+00
     13  0.296265D-01  0.369736D-01  0.000000D+00 -0.116116D-01 -0.319939D+00
     14  0.000000D+00  0.000000D+00  0.297456D-01  0.000000D+00  0.000000D+00
     15  0.510037D-02  0.962816D-02  0.000000D+00 -0.174584D+00 -0.254592D+00
               11            12            13            14            15 
     11  0.578071D-01
     12  0.000000D+00  0.447919D+00
     13  0.000000D+00 -0.251040D+00  0.248081D+00
     14 -0.375110D-01  0.000000D+00  0.000000D+00  0.253527D-01
     15  0.000000D+00 -0.424910D+00  0.242263D+00  0.000000D+00  0.602573D+00
 Force constants in internal coordinates: 
                1             2             3             4             5 
      1  0.438226D+00
      2  0.203218D-01  0.237394D+00
      3  0.456631D-02  0.182429D-01  0.204936D+00
      4 -0.118247D-01  0.218738D-01  0.148456D+00  0.720967D+00
      5  0.432049D-01  0.525926D-01 -0.232595D-01  0.209915D-01  0.243171D+00
      6  0.103757D-01  0.207192D-01  0.902598D-01  0.957444D-02 -0.108138D-01
      7  0.795262D-02 -0.704475D-01  0.121751D+00  0.116625D+00 -0.208132D-01
      8  0.000000D+00  0.000000D+00  0.000000D+00  0.000000D+00  0.000000D+00
      9  0.000000D+00  0.000000D+00  0.000000D+00  0.000000D+00  0.000000D+00
                6             7             8             9 
      6  0.510877D+00
      7  0.616153D-01  0.660447D+00
      8  0.000000D+00  0.000000D+00  0.196709D-01
      9  0.000000D+00  0.000000D+00  0.273963D-01  0.106083D+00
 Leave Link  716 at Sun Mar  6 18:59:16 2022, MaxMem= 16106127360 cpu:               0.8 elap:               0.1
 (Enter /sw/contrib/gaussian/g16/B01/g16/l103.exe)

 GradGradGradGradGradGradGradGradGradGradGradGradGradGradGradGradGradGrad
 Berny optimization.
 Search for a local minimum.
 Step number   1 out of a maximum of    2
 All quantities printed in internal units (Hartrees-Bohrs-Radians)
 Second derivative matrix not updated -- analytic derivatives used.
 The second derivative matrix:
                          r1        r2        r3        r4        a1
           r1           0.43823
           r2           0.02032   0.23739
           r3           0.00457   0.01824   0.20494
           r4          -0.01182   0.02187   0.14846   0.72097
           a1           0.04320   0.05259  -0.02326   0.02099   0.24317
           a2           0.01038   0.02072   0.09026   0.00957  -0.01081
           a3           0.00795  -0.07045   0.12175   0.11662  -0.02081
           d1           0.00000   0.00000   0.00000   0.00000   0.00000
           d2           0.00000   0.00000   0.00000   0.00000   0.00000
                          a2        a3        d1        d2
           a2           0.51088
           a3           0.06162   0.66045
           d1           0.00000   0.00000   0.01967
           d2           0.00000   0.00000   0.02740   0.10608
 ITU=  0
     Eigenvalues ---    0.01172   0.11404   0.12093   0.19389   0.26342
     Eigenvalues ---    0.44902   0.50423   0.60379   0.88073
 Angle between quadratic step and forces=  20.59 degrees.
 Linear search not attempted -- first point.
 Variable       Old X    -DE/DX   Delta X   Delta X   Delta X     New X
                                 (Linear)    (Quad)   (Total)
    r1        1.86209  -0.00054   0.00000   0.00011   0.00011   1.86220
    r2        2.72268  -0.00645   0.00000  -0.02709  -0.02709   2.69558
    r3        2.60992  -0.00071   0.00000  -0.00203  -0.00203   2.60788
    r4        2.25782  -0.00029   0.00000   0.00085   0.00085   2.25868
    a1        1.75642  -0.00149   0.00000  -0.00054  -0.00054   1.75589
    a2        1.97463  -0.00031   0.00000   0.00083   0.00083   1.97545
    a3        1.99550   0.00177   0.00000  -0.00008  -0.00008   1.99542
    d1        0.00000   0.00000   0.00000   0.00000   0.00000   0.00000
    d2        0.00000   0.00000   0.00000   0.00000   0.00000   0.00000
         Item               Value     Threshold  Converged?
 Maximum Force            0.006453     0.000450     NO 
 RMS     Force            0.002309     0.000300     NO 
 Maximum Displacement     0.027091     0.001800     NO 
 RMS     Displacement     0.009066     0.001200     NO 
 Predicted change in Energy=-8.816533D-05
                       ----------------------------
                       ! Non-Optimized Parameters !
                       ! (Angstroms and Degrees)  !
 ----------------------                            ----------------------
 !      Name          Value   Derivative information (Atomic Units)     !
 ------------------------------------------------------------------------
 !       r1          0.9854   -DE/DX =   -0.0005                        !
 !       r2          1.4264   -DE/DX =   -0.0065                        !
 !       r3          1.38     -DE/DX =   -0.0007                        !
 !       r4          1.1952   -DE/DX =   -0.0003                        !
 !       a1        100.6048   -DE/DX =   -0.0015                        !
 !       a2        113.1852   -DE/DX =   -0.0003                        !
 !       a3        114.3292   -DE/DX =    0.0018                        !
 !       d1          0.0      -DE/DX =    0.0                           !
 !       d2          0.0      -DE/DX =    0.0                           !
 ------------------------------------------------------------------------
 GradGradGradGradGradGradGradGradGradGradGradGradGradGradGradGradGradGrad

 Leave Link  103 at Sun Mar  6 18:59:16 2022, MaxMem= 16106127360 cpu:               0.6 elap:               0.0
 (Enter /sw/contrib/gaussian/g16/B01/g16/l9999.exe)

 ----------------------------------------------------------------------

 Electric dipole moment (input orientation):
 (Debye = 10**-18 statcoulomb cm , SI units = C m)
                  (au)            (Debye)         (10**-30 SI)
   Tot        0.437600D+00      0.111227D+01      0.371013D+01
   x         -0.104011D+00     -0.264370D+00     -0.881845D+00
   y          0.000000D+00      0.000000D+00      0.000000D+00
   z         -0.425060D+00     -0.108039D+01     -0.360381D+01

 Dipole polarizability, Alpha (input orientation).
 (esu units = cm**3 , SI units = C**2 m**2 J**-1)
 Alpha(0;0):
               (au)            (10**-24 esu)      (10**-40 SI)
   iso        0.262261D+02      0.388631D+01      0.432410D+01
   aniso      0.146989D+02      0.217816D+01      0.242353D+01
   xx         0.294095D+02      0.435804D+01      0.484897D+01
   yx         0.000000D+00      0.000000D+00      0.000000D+00
   yy         0.176590D+02      0.261680D+01      0.291158D+01
   zx        -0.397033D+01     -0.588342D+00     -0.654619D+00
   zy         0.000000D+00      0.000000D+00      0.000000D+00
   zz         0.316098D+02      0.468408D+01      0.521175D+01

 ----------------------------------------------------------------------

 Dipole orientation:
     1          0.00000000         -0.00000000         -0.00000000
     8         -0.44259234         -0.00000000         -1.80872844
     8          2.03718879         -0.00000000         -2.93284965
     7          3.96213562         -0.00000000         -1.17039768
     8          3.25907940          0.00000000          0.97517369

 Electric dipole moment (dipole orientation):
 (Debye = 10**-18 statcoulomb cm , SI units = C m)
                  (au)            (Debye)         (10**-30 SI)
   Tot        0.437600D+00      0.111227D+01      0.371013D+01
   x          0.000000D+00      0.000000D+00      0.000000D+00
   y          0.000000D+00      0.000000D+00      0.000000D+00
   z          0.437600D+00      0.111227D+01      0.371013D+01

 Dipole polarizability, Alpha (dipole orientation).
 (esu units = cm**3 , SI units = C**2 m**2 J**-1)
 Alpha(0;0):
               (au)            (10**-24 esu)      (10**-40 SI)
   iso        0.262261D+02      0.388631D+01      0.432410D+01
   aniso      0.146989D+02      0.217816D+01      0.242353D+01
   xx         0.313671D+02      0.464812D+01      0.517173D+01
   yx         0.000000D+00      0.000000D+00      0.000000D+00
   yy         0.176590D+02      0.261680D+01      0.291158D+01
   zx         0.402971D+01      0.597142D+00      0.664410D+00
   zy         0.000000D+00      0.000000D+00      0.000000D+00
   zz         0.296522D+02      0.439400D+01      0.488898D+01

 ----------------------------------------------------------------------
 1\1\GINC-N2228\Freq\RMP2-FC\Aug-CC-pVTZ\H1N1O3\CGAVINH\06-Mar-2022\1\\
 #p freq mp2/aug-cc-pvtz density=current\\title\\0,1\H\O,1,r1\O,2,r2,1,
 a1\N,3,r3,2,a2,1,d1,0\O,4,r4,3,a3,2,d2,0\\r1=0.98537664\r2=1.44077793\
 r3=1.38110764\r4=1.19478846\a1=100.6355057\a2=113.13777052\a3=114.3339
 2022\d1=0.\d2=0.\\Version=ES64L-G16RevB.01\State=1-A'\HF=-279.505479\M
 P2=-280.455155\RMSD=4.687e-09\RMSF=2.105e-03\ZeroPoint=0.0232955\Therm
 al=0.0272478\Dipole=-0.1040113,0.,-0.4250598\DipoleDeriv=0.3167601,0.,
 0.0373564,0.,0.2987103,0.,-0.0199746,0.,0.1981539,-0.5307076,0.,0.2680
 446,0.,-0.2563848,0.,-0.10567,0.,-0.1302086,0.0043676,0.,0.3500494,0.,
 -0.0117606,0.,0.4348547,0.,-0.9129342,0.1994953,0.,-0.1429311,0.,0.014
 3626,0.,-0.6603491,0.,1.7111958,0.0100845,0.,-0.5125193,0.,-0.0449275,
 0.,0.3511391,0.,-0.8662069\Polar=29.4094845,0.,17.6590499,-3.9703289,0
 .,31.6097662\Quadrupole=0.1697532,0.5931752,-0.7629284,0.,1.4263543,0.
 \PG=CS [SG(H1N1O3)]\NImag=0\\0.07042017,0.,0.00608121,0.02277200,0.,0.
 43822610,-0.05190753,0.,-0.00502467,0.26215870,0.,-0.00223098,0.,0.,0.
 01367799,0.03167711,0.,-0.42262497,-0.01501298,0.,0.52266207,-0.023746
 29,0.,-0.01443713,-0.15275182,0.,-0.08602516,0.28263539,0.,-0.00441644
 ,0.,0.,-0.02031857,0.,0.,0.04231051,-0.04292216,0.,-0.01888073,0.01263
 748,0.,-0.09568362,0.07758721,0.,0.31416211,-0.00492531,0.,0.00592768,
 -0.08222464,0.,0.03973454,-0.14311089,0.,-0.03569093,0.55019972,0.,0.0
 0784281,0.,0.,0.01918221,0.,0.,-0.04732109,0.,0.,0.05780711,-0.0184829
 2,0.,0.01145828,0.01165463,0.,-0.00945386,0.01324692,0.,-0.02501348,0.
 24462113,0.,0.44791920,0.01015896,0.,-0.00923788,0.02472528,0.,0.02962
 649,0.03697361,0.,-0.01161160,-0.31993888,0.,-0.25103975,0.24808103,0.
 ,-0.00727660,0.,0.,-0.01031065,0.,0.,0.02974560,0.,0.,-0.03751104,0.,0
 .,0.02535270,0.00695597,0.,-0.00817868,-0.00425446,0.,0.00510037,0.009
 62816,0.,-0.17458428,-0.25459242,0.,-0.42491015,0.24226274,0.,0.602572
 74\\-0.00080137,0.,-0.00053785,-0.00546040,0.,-0.00107926,0.00520636,0
 .,0.00176141,0.00187583,0.,-0.00030849,-0.00082043,0.,0.00016419\\\@


 The juvenile sea squirt wanders through the sea searching
 for a suitable rock or hunk of coral to cling to and make
 its home for life.  For this task it has a rudimentary
 nervous system.  When it finds its spot and takes root, it
 doesn't need its brain any more so it eats it.
 It's rather like getting tenure.

                               -- source unknown
 Job cpu time:       0 days  1 hours 59 minutes 26.2 seconds.
 Elapsed time:       0 days  0 hours  4 minutes 19.0 seconds.
 File lengths (MBytes):  RWF=   7239 Int=      0 D2E=      0 Chk=      8 Scr=      1
 Normal termination of Gaussian 16 at Sun Mar  6 18:59:17 2022.
