title                                                                   
Freq      RMP2-FC                                                     Aug-CC-pVTZ         
Number of atoms                            I                5
Info1-9                                    I   N=           9
          33          24           0           0           0         100
           6           2           1
Full Title                                 C   N=           1
title       
Route                                      C   N=           4
#p freq mp2/aug-cc-pvtz density=current         
Charge                                     I                0
Multiplicity                               I                1
Number of electrons                        I               32
Number of alpha electrons                  I               16
Number of beta electrons                   I               16
Number of basis functions                  I              207
Number of independent functions            I              207
Number of point charges in /Mol/           I                0
Number of translation vectors              I                0
Atomic numbers                             I   N=           5
           1           8           8           7           8
Nuclear charges                            R   N=           5
  1.00000000E+00  8.00000000E+00  8.00000000E+00  7.00000000E+00  8.00000000E+00
Current cartesian coordinates              R   N=          15
  2.15988210E+00 -1.10159629E+00  0.00000000E+00  2.50935231E+00  7.27408113E-01
  0.00000000E+00  1.56354227E-16  1.71347616E+00  0.00000000E+00 -1.88365271E+00
 -9.30425313E-02  0.00000000E+00 -1.13114145E+00 -2.22177252E+00  0.00000000E+00
Number of symbols in /Mol/                 I                0
Force Field                                I                0
Atom Types                                 C   N=           5
                                                            
Int Atom Types                             I   N=           5
           0           0           0           0           0
MM charges                                 R   N=           5
  0.00000000E+00  0.00000000E+00  0.00000000E+00  0.00000000E+00  0.00000000E+00
Integer atomic weights                     I   N=           5
           1          16          16          14          16
Real atomic weights                        R   N=           5
  1.00782504E+00  1.59949146E+01  1.59949146E+01  1.40030740E+01  1.59949146E+01
Atom fragment info                         I   N=           5
           0           0           0           0           0
Atom residue num                           I   N=           5
           0           0           0           0           0
Nuclear spins                              I   N=           5
           1           0           0           2           0
Nuclear ZEff                               R   N=           5
 -1.00000000E+00 -5.60000000E+00 -5.60000000E+00 -4.55000000E+00 -5.60000000E+00
Nuclear ZNuc                               R   N=           5
  1.00000000E+00  8.00000000E+00  8.00000000E+00  7.00000000E+00  8.00000000E+00
Nuclear QMom                               R   N=           5
  0.00000000E+00  0.00000000E+00  0.00000000E+00  2.04400000E+00  0.00000000E+00
Nuclear GFac                               R   N=           5
  2.79284600E+00  0.00000000E+00  0.00000000E+00  4.03761000E-01  0.00000000E+00
MicOpt                                     I   N=           5
          -1          -1          -1          -1          -1
Number of residues                         I                0
Number of secondary structures             I                0
SymInf integers                            I   N=          26
           1           2           1           1           1           1
           1          -1           0           0           0           0
           0           0           0           0           0           0
           0           0           0           0           0           0
           0           0
RotTr to input orientation                 R   N=          12
 -9.82230966E-01  0.00000000E+00  1.87676127E-01  1.87676127E-01  0.00000000E+00
  9.82230966E-01  0.00000000E+00  1.00000000E+00  0.00000000E+00  2.32824641E+00
  0.00000000E+00  6.76663684E-01
Number of contracted shells                I               65
Number of primitive shells                 I              119
Pure/Cartesian d shells                    I                0
Pure/Cartesian f shells                    I                0
Highest angular momentum                   I                3
Largest degree of contraction              I                7
Shell types                                I   N=          65
           0           0           0           0           1           1
           1          -2          -2           0           0           0
           0           0           1           1           1           1
          -2          -2          -2          -3          -3           0
           0           0           0           0           1           1
           1           1          -2          -2          -2          -3
          -3           0           0           0           0           0
           1           1           1           1          -2          -2
          -2          -3          -3           0           0           0
           0           0           1           1           1           1
          -2          -2          -2          -3          -3
Number of primitives per shell             I   N=          65
           3           1           1           1           1           1
           1           1           1           7           6           1
           1           1           3           1           1           1
           1           1           1           1           1           7
           6           1           1           1           3           1
           1           1           1           1           1           1
           1           7           6           1           1           1
           3           1           1           1           1           1
           1           1           1           7           6           1
           1           1           3           1           1           1
           1           1           1           1           1
Shell to atom map                          I   N=          65
           1           1           1           1           1           1
           1           1           1           2           2           2
           2           2           2           2           2           2
           2           2           2           2           2           3
           3           3           3           3           3           3
           3           3           3           3           3           3
           3           4           4           4           4           4
           4           4           4           4           4           4
           4           4           4           5           5           5
           5           5           5           5           5           5
           5           5           5           5           5
Primitive exponents                        R   N=         119
  3.38700000E+01  5.09500000E+00  1.15900000E+00  3.25800000E-01  1.02700000E-01
  2.52600000E-02  1.40700000E+00  3.88000000E-01  1.02000000E-01  1.05700000E+00
  2.47000000E-01  1.53300000E+04  2.29900000E+03  5.22400000E+02  1.47300000E+02
  4.75500000E+01  1.67600000E+01  6.20700000E+00  5.22400000E+02  1.47300000E+02
  4.75500000E+01  1.67600000E+01  6.20700000E+00  6.88200000E-01  1.75200000E+00
  2.38400000E-01  7.37600000E-02  3.44600000E+01  7.74900000E+00  2.28000000E+00
  7.15600000E-01  2.14000000E-01  5.97400000E-02  2.31400000E+00  6.45000000E-01
  2.14000000E-01  1.42800000E+00  5.00000000E-01  1.53300000E+04  2.29900000E+03
  5.22400000E+02  1.47300000E+02  4.75500000E+01  1.67600000E+01  6.20700000E+00
  5.22400000E+02  1.47300000E+02  4.75500000E+01  1.67600000E+01  6.20700000E+00
  6.88200000E-01  1.75200000E+00  2.38400000E-01  7.37600000E-02  3.44600000E+01
  7.74900000E+00  2.28000000E+00  7.15600000E-01  2.14000000E-01  5.97400000E-02
  2.31400000E+00  6.45000000E-01  2.14000000E-01  1.42800000E+00  5.00000000E-01
  1.14200000E+04  1.71200000E+03  3.89300000E+02  1.10000000E+02  3.55700000E+01
  1.25400000E+01  4.64400000E+00  3.89300000E+02  1.10000000E+02  3.55700000E+01
  1.25400000E+01  4.64400000E+00  5.11800000E-01  1.29300000E+00  1.78700000E-01
  5.76000000E-02  2.66300000E+01  5.94800000E+00  1.74200000E+00  5.55000000E-01
  1.72500000E-01  4.91000000E-02  1.65400000E+00  4.69000000E-01  1.51000000E-01
  1.09300000E+00  3.64000000E-01  1.53300000E+04  2.29900000E+03  5.22400000E+02
  1.47300000E+02  4.75500000E+01  1.67600000E+01  6.20700000E+00  5.22400000E+02
  1.47300000E+02  4.75500000E+01  1.67600000E+01  6.20700000E+00  6.88200000E-01
  1.75200000E+00  2.38400000E-01  7.37600000E-02  3.44600000E+01  7.74900000E+00
  2.28000000E+00  7.15600000E-01  2.14000000E-01  5.97400000E-02  2.31400000E+00
  6.45000000E-01  2.14000000E-01  1.42800000E+00  5.00000000E-01
Contraction coefficients                   R   N=         119
  2.54948632E-02  1.90362766E-01  8.52162022E-01  1.00000000E+00  1.00000000E+00
  1.00000000E+00  1.00000000E+00  1.00000000E+00  1.00000000E+00  1.00000000E+00
  1.00000000E+00  5.19808943E-04  4.02025621E-03  2.07128267E-02  8.10105536E-02
  2.35962985E-01  4.42653446E-01  3.57064423E-01 -4.42115008E-05 -1.22591041E-03
 -1.05517725E-02 -6.74452633E-02 -1.71198607E-01  1.07329856E+00  1.00000000E+00
  1.00000000E+00  1.00000000E+00  4.11634896E-02  2.57762836E-01  8.02419274E-01
  1.00000000E+00  1.00000000E+00  1.00000000E+00  1.00000000E+00  1.00000000E+00
  1.00000000E+00  1.00000000E+00  1.00000000E+00  5.19808943E-04  4.02025621E-03
  2.07128267E-02  8.10105536E-02  2.35962985E-01  4.42653446E-01  3.57064423E-01
 -4.42115008E-05 -1.22591041E-03 -1.05517725E-02 -6.74452633E-02 -1.71198607E-01
  1.07329856E+00  1.00000000E+00  1.00000000E+00  1.00000000E+00  4.11634896E-02
  2.57762836E-01  8.02419274E-01  1.00000000E+00  1.00000000E+00  1.00000000E+00
  1.00000000E+00  1.00000000E+00  1.00000000E+00  1.00000000E+00  1.00000000E+00
  5.34563860E-04  4.13435660E-03  2.12335358E-02  8.25006224E-02  2.38138871E-01
  4.42551547E-01  3.53757422E-01 -4.89867350E-05 -1.19527323E-03 -1.03490714E-02
 -6.48680190E-02 -1.71552477E-01  1.07289568E+00  1.00000000E+00  1.00000000E+00
  1.00000000E+00  3.98072123E-02  2.49002660E-01  8.10479727E-01  1.00000000E+00
  1.00000000E+00  1.00000000E+00  1.00000000E+00  1.00000000E+00  1.00000000E+00
  1.00000000E+00  1.00000000E+00  5.19808943E-04  4.02025621E-03  2.07128267E-02
  8.10105536E-02  2.35962985E-01  4.42653446E-01  3.57064423E-01 -4.42115008E-05
 -1.22591041E-03 -1.05517725E-02 -6.74452633E-02 -1.71198607E-01  1.07329856E+00
  1.00000000E+00  1.00000000E+00  1.00000000E+00  4.11634896E-02  2.57762836E-01
  8.02419274E-01  1.00000000E+00  1.00000000E+00  1.00000000E+00  1.00000000E+00
  1.00000000E+00  1.00000000E+00  1.00000000E+00  1.00000000E+00
Coordinates of each shell                  R   N=         195
  2.15988210E+00 -1.10159629E+00  0.00000000E+00  2.15988210E+00 -1.10159629E+00
  0.00000000E+00  2.15988210E+00 -1.10159629E+00  0.00000000E+00  2.15988210E+00
 -1.10159629E+00  0.00000000E+00  2.15988210E+00 -1.10159629E+00  0.00000000E+00
  2.15988210E+00 -1.10159629E+00  0.00000000E+00  2.15988210E+00 -1.10159629E+00
  0.00000000E+00  2.15988210E+00 -1.10159629E+00  0.00000000E+00  2.15988210E+00
 -1.10159629E+00  0.00000000E+00  2.50935231E+00  7.27408113E-01  0.00000000E+00
  2.50935231E+00  7.27408113E-01  0.00000000E+00  2.50935231E+00  7.27408113E-01
  0.00000000E+00  2.50935231E+00  7.27408113E-01  0.00000000E+00  2.50935231E+00
  7.27408113E-01  0.00000000E+00  2.50935231E+00  7.27408113E-01  0.00000000E+00
  2.50935231E+00  7.27408113E-01  0.00000000E+00  2.50935231E+00  7.27408113E-01
  0.00000000E+00  2.50935231E+00  7.27408113E-01  0.00000000E+00  2.50935231E+00
  7.27408113E-01  0.00000000E+00  2.50935231E+00  7.27408113E-01  0.00000000E+00
  2.50935231E+00  7.27408113E-01  0.00000000E+00  2.50935231E+00  7.27408113E-01
  0.00000000E+00  2.50935231E+00  7.27408113E-01  0.00000000E+00  3.35518365E-17
  1.71347616E+00  0.00000000E+00  3.35518365E-17  1.71347616E+00  0.00000000E+00
  3.35518365E-17  1.71347616E+00  0.00000000E+00  3.35518365E-17  1.71347616E+00
  0.00000000E+00  3.35518365E-17  1.71347616E+00  0.00000000E+00  3.35518365E-17
  1.71347616E+00  0.00000000E+00  3.35518365E-17  1.71347616E+00  0.00000000E+00
  3.35518365E-17  1.71347616E+00  0.00000000E+00  3.35518365E-17  1.71347616E+00
  0.00000000E+00  3.35518365E-17  1.71347616E+00  0.00000000E+00  3.35518365E-17
  1.71347616E+00  0.00000000E+00  3.35518365E-17  1.71347616E+00  0.00000000E+00
  3.35518365E-17  1.71347616E+00  0.00000000E+00  3.35518365E-17  1.71347616E+00
  0.00000000E+00 -1.88365271E+00 -9.30425313E-02  0.00000000E+00 -1.88365271E+00
 -9.30425313E-02  0.00000000E+00 -1.88365271E+00 -9.30425313E-02  0.00000000E+00
 -1.88365271E+00 -9.30425313E-02  0.00000000E+00 -1.88365271E+00 -9.30425313E-02
  0.00000000E+00 -1.88365271E+00 -9.30425313E-02  0.00000000E+00 -1.88365271E+00
 -9.30425313E-02  0.00000000E+00 -1.88365271E+00 -9.30425313E-02  0.00000000E+00
 -1.88365271E+00 -9.30425313E-02  0.00000000E+00 -1.88365271E+00 -9.30425313E-02
  0.00000000E+00 -1.88365271E+00 -9.30425313E-02  0.00000000E+00 -1.88365271E+00
 -9.30425313E-02  0.00000000E+00 -1.88365271E+00 -9.30425313E-02  0.00000000E+00
 -1.88365271E+00 -9.30425313E-02  0.00000000E+00 -1.13114145E+00 -2.22177252E+00
  0.00000000E+00 -1.13114145E+00 -2.22177252E+00  0.00000000E+00 -1.13114145E+00
 -2.22177252E+00  0.00000000E+00 -1.13114145E+00 -2.22177252E+00  0.00000000E+00
 -1.13114145E+00 -2.22177252E+00  0.00000000E+00 -1.13114145E+00 -2.22177252E+00
  0.00000000E+00 -1.13114145E+00 -2.22177252E+00  0.00000000E+00 -1.13114145E+00
 -2.22177252E+00  0.00000000E+00 -1.13114145E+00 -2.22177252E+00  0.00000000E+00
 -1.13114145E+00 -2.22177252E+00  0.00000000E+00 -1.13114145E+00 -2.22177252E+00
  0.00000000E+00 -1.13114145E+00 -2.22177252E+00  0.00000000E+00 -1.13114145E+00
 -2.22177252E+00  0.00000000E+00 -1.13114145E+00 -2.22177252E+00  0.00000000E+00
Num ILSW                                   I              100
ILSW                                       I   N=         100
           0           0           0           0           2           0
           0           0           0           0           0          -1
           5           0           0           0           2           0
           0           0           0           0           1           0
           1           0           0           0           0           0
           0           0      100000           0          -1           0
           0           0           0           0           0           0
           0           0           0           1           1           0
           0 -2000000000           1           0           0           0
           0           0           4          52           0           0
           0           0           0           0           0           0
           0           0           0           5           4           1
           0           0           0           0           0           0
           0           0           0           0           0           0
           0           0           0           0           0           0
           0           0           0           0           0           0
           0           0           0           0
Num RLSW                                   I               52
RLSW                                       R   N=          52
  1.00000000E+00  1.00000000E+00  1.00000000E+00  1.00000000E+00  1.00000000E+00
  0.00000000E+00  0.00000000E+00  1.00000000E+00  0.00000000E+00  0.00000000E+00
  0.00000000E+00  0.00000000E+00  1.00000000E+00  0.00000000E+00  0.00000000E+00
  0.00000000E+00  0.00000000E+00  1.00000000E+00  0.00000000E+00  0.00000000E+00
  0.00000000E+00  0.00000000E+00  1.00000000E+00  0.00000000E+00  0.00000000E+00
  0.00000000E+00  0.00000000E+00  1.00000000E+00  0.00000000E+00  0.00000000E+00
  0.00000000E+00  0.00000000E+00  1.00000000E+00  0.00000000E+00  0.00000000E+00
  0.00000000E+00  0.00000000E+00  0.00000000E+00  1.00000000E+00  1.00000000E+00
  0.00000000E+00  1.00000000E+00  0.00000000E+00  0.00000000E+00  0.00000000E+00
  0.00000000E+00  0.00000000E+00  0.00000000E+00  0.00000000E+00  0.00000000E+00
  0.00000000E+00  0.00000000E+00
MxBond                                     I                2
NBond                                      I   N=           5
           1           2           2           2           1
IBond                                      I   N=          10
           2           0           1           3           2           4
           3           5           4           0
RBond                                      R   N=          10
  1.00000000E+00  0.00000000E+00  1.00000000E+00  1.00000000E+00  1.00000000E+00
  1.00000000E+00  1.00000000E+00  2.00000000E+00  2.00000000E+00  0.00000000E+00
Virial Ratio                               R      2.002264995256803E+00
SCF Energy                                 R     -2.795065379573790E+02
MP2 Energy                                 R     -2.804550516569526E+02
Total Energy                               R     -2.804550516569526E+02
Post-SCF wavefunction norm                 R      1.583789248518365E+00
RMS Force                                  R      2.571312103538149E-03
RMS Density                                R      3.945097394162868E-09
NImag                                      I                0
Job Status                                 I                1
Nuclear derivative order                   I                2
External E-field                           R   N=          35
  0.00000000E+00  0.00000000E+00  0.00000000E+00  0.00000000E+00  0.00000000E+00
  0.00000000E+00  0.00000000E+00  0.00000000E+00  0.00000000E+00  0.00000000E+00
  0.00000000E+00  0.00000000E+00  0.00000000E+00  0.00000000E+00  0.00000000E+00
  0.00000000E+00  0.00000000E+00  0.00000000E+00  0.00000000E+00  0.00000000E+00
  0.00000000E+00  0.00000000E+00  0.00000000E+00  0.00000000E+00  0.00000000E+00
  0.00000000E+00  0.00000000E+00  0.00000000E+00  0.00000000E+00  0.00000000E+00
  0.00000000E+00  0.00000000E+00  0.00000000E+00  0.00000000E+00  0.00000000E+00
IOpCl                                      I                0
IROHF                                      I                0
Alpha Orbital Energies                     R   N=         207
 -2.07178359E+01 -2.06863309E+01 -2.06703893E+01 -1.58260795E+01 -1.64210767E+00
 -1.50534319E+00 -1.29385603E+00 -9.60086243E-01 -8.31682776E-01 -7.58105895E-01
 -7.38738541E-01 -6.39894632E-01 -6.18937202E-01 -6.16920828E-01 -5.03655322E-01
 -4.96991616E-01  3.47419828E-02  6.09424283E-02  9.51820759E-02  1.00964152E-01
  1.19737046E-01  1.22413530E-01  1.48477313E-01  1.51248685E-01  1.77667539E-01
  1.80746248E-01  1.89983771E-01  2.11056905E-01  2.16668173E-01  2.40353739E-01
  2.46550857E-01  2.68969580E-01  3.10551933E-01  3.14531422E-01  3.37851078E-01
  3.45256909E-01  3.48262145E-01  3.90967473E-01  4.46251106E-01  4.87622152E-01
  5.04678964E-01  5.19659108E-01  5.44821445E-01  5.61575104E-01  6.00663307E-01
  6.20669371E-01  6.38115264E-01  6.88460154E-01  7.17657426E-01  7.25166861E-01
  7.41194232E-01  7.60704186E-01  7.66074573E-01  7.95416694E-01  8.04159332E-01
  8.42151318E-01  8.43570678E-01  8.51405209E-01  8.84925342E-01  9.06573681E-01
  9.28362493E-01  9.47397739E-01  9.53582349E-01  1.01875721E+00  1.02866338E+00
  1.05217338E+00  1.06422715E+00  1.09100254E+00  1.13920485E+00  1.15583965E+00
  1.16919940E+00  1.22141040E+00  1.22475223E+00  1.24740055E+00  1.34500643E+00
  1.36787184E+00  1.37761511E+00  1.46651646E+00  1.48490949E+00  1.50682273E+00
  1.53878733E+00  1.59135067E+00  1.59795431E+00  1.60536393E+00  1.62406909E+00
  1.69600020E+00  1.74038527E+00  1.80284182E+00  1.83147549E+00  1.88872431E+00
  1.88982982E+00  1.92531475E+00  1.97805158E+00  1.98694031E+00  2.05054967E+00
  2.12677981E+00  2.12825256E+00  2.16301966E+00  2.18270703E+00  2.24081275E+00
  2.25640831E+00  2.29612144E+00  2.34383942E+00  2.35919739E+00  2.38898340E+00
  2.39830097E+00  2.43071419E+00  2.46708792E+00  2.47356979E+00  2.52491986E+00
  2.53190263E+00  2.54891517E+00  2.55764826E+00  2.61189731E+00  2.62596068E+00
  2.66736277E+00  2.66954594E+00  2.75383034E+00  2.80862098E+00  2.80920085E+00
  2.84391823E+00  2.91274176E+00  2.98493572E+00  3.04337316E+00  3.04491498E+00
  3.11609612E+00  3.12154251E+00  3.15669581E+00  3.21297226E+00  3.30712202E+00
  3.33233057E+00  3.37041859E+00  3.47031004E+00  3.68504430E+00  3.86806548E+00
  3.91430678E+00  4.17515146E+00  4.21353741E+00  4.22019451E+00  4.25593832E+00
  4.36321953E+00  4.49282127E+00  4.50460257E+00  4.55671512E+00  4.59549140E+00
  4.69968444E+00  4.81553640E+00  4.90304154E+00  4.91276172E+00  4.93608873E+00
  5.00001986E+00  5.00725164E+00  5.10958407E+00  5.12783514E+00  5.18194282E+00
  5.24725889E+00  5.25815706E+00  5.31655845E+00  5.31743617E+00  5.34911930E+00
  5.55421154E+00  5.64584176E+00  5.70214011E+00  5.88611672E+00  6.00094193E+00
  6.26851636E+00  6.29714471E+00  6.36060426E+00  6.38024361E+00  6.59565538E+00
  6.64473881E+00  6.65621638E+00  6.68446480E+00  6.72971883E+00  6.80016612E+00
  6.80502668E+00  6.84784629E+00  6.96694093E+00  7.02012307E+00  7.06601502E+00
  7.08164960E+00  7.13225777E+00  7.15945154E+00  7.17447003E+00  7.20209158E+00
  7.24484567E+00  7.24880251E+00  7.26921302E+00  7.34306060E+00  7.38576086E+00
  7.42244510E+00  7.44348302E+00  7.46336765E+00  7.55349670E+00  7.65493902E+00
  7.66585435E+00  7.79636811E+00  7.87906262E+00  7.94348734E+00  8.04170325E+00
  8.29790688E+00  8.49271390E+00  8.65650390E+00  1.35989887E+01  1.47960130E+01
  1.50725154E+01  1.57062050E+01
Alpha MO coefficients                      R   N=       42849
  6.70811253E-05 -8.27050445E-05 -1.11981411E-03  1.68190747E-05 -5.31564054E-05
  4.34302347E-05  0.00000000E+00 -8.05037168E-05 -3.12871951E-04  0.00000000E+00
  3.42627451E-05 -3.43734839E-04  0.00000000E+00  4.46667101E-05  0.00000000E+00
  0.00000000E+00 -2.73311278E-05  1.06168458E-05  2.20808184E-04  0.00000000E+00
  0.00000000E+00 -3.80334845E-05 -1.97990517E-04  3.31901205E-03 -9.61846693E-05
 -9.17644880E-05  3.63266307E-03  2.51008878E-03  1.06076721E-04 -5.15004954E-05
  0.00000000E+00 -7.53842186E-04  2.71205113E-04  0.00000000E+00 -2.07342528E-03
  1.00062884E-03  0.00000000E+00 -5.51673969E-04  4.96648446E-05  0.00000000E+00
  2.05046658E-05  0.00000000E+00  0.00000000E+00 -1.10689025E-05  4.34057617E-05
 -4.49042540E-04  0.00000000E+00  0.00000000E+00  4.64632908E-04 -6.43207957E-04
 -3.71814637E-04  0.00000000E+00  0.00000000E+00  5.92163624E-04 -6.93682394E-04
  0.00000000E+00  7.64104594E-05 -5.14852298E-05  0.00000000E+00  0.00000000E+00
 -3.34700774E-05  1.05615414E-04  0.00000000E+00  2.06017188E-04 -4.32866400E-05
  0.00000000E+00  0.00000000E+00 -1.99604300E-04  2.90459745E-04  9.76899738E-01
 -9.16333817E-03  4.34179760E-02  4.56726100E-04 -2.16922410E-03  4.72413855E-04
 -2.13843857E-03  0.00000000E+00 -3.38385125E-04  2.23293130E-03  0.00000000E+00
 -2.40018029E-03 -4.40453260E-04  0.00000000E+00 -2.60496408E-04  8.04783641E-05
  0.00000000E+00  4.52515273E-06  0.00000000E+00  0.00000000E+00 -2.14223919E-06
  4.03031095E-05  8.35086543E-04  0.00000000E+00  0.00000000E+00 -5.03327433E-04
 -1.93147525E-04 -1.38071939E-04  0.00000000E+00  0.00000000E+00 -5.03793267E-04
  3.62005170E-04  0.00000000E+00 -6.39073688E-06 -7.79593292E-05  0.00000000E+00
  0.00000000E+00 -1.02017362E-05  4.81796947E-05  0.00000000E+00  9.71394116E-05
 -1.47095444E-06  0.00000000E+00  0.00000000E+00 -3.58423598E-04  3.78872470E-04
  1.05323771E-04  4.64065026E-04 -3.23087866E-04 -8.62568874E-04  2.61384747E-04
 -4.58691840E-05 -1.00283333E-04  0.00000000E+00  7.17963357E-04  1.12257780E-03
  0.00000000E+00 -7.59945597E-04 -7.35417527E-04  0.00000000E+00  1.79719809E-04
  1.98992619E-04  0.00000000E+00 -5.36958652E-05  0.00000000E+00  0.00000000E+00
  1.95556275E-05  9.33434296E-05 -4.10887323E-04  0.00000000E+00  0.00000000E+00
  7.48823434E-05  1.08986232E-03  3.23455378E-05  0.00000000E+00  0.00000000E+00
 -2.98195138E-04  1.56389377E-05  0.00000000E+00 -7.94822937E-05 -1.14580027E-04
  0.00000000E+00  0.00000000E+00 -9.30384221E-05  1.06585356E-04  0.00000000E+00
 -1.19097783E-04  5.55335405E-05  0.00000000E+00  0.00000000E+00  3.42996974E-05
  5.37526871E-04 -7.34773641E-04  4.84842057E-05 -7.21962434E-05  1.80461604E-04
 -1.16124748E-04 -2.86487038E-05 -4.25218627E-05  0.00000000E+00  1.67188074E-04
  2.62319840E-04  0.00000000E+00  5.39521180E-04  3.35830750E-04  0.00000000E+00
 -2.06378409E-04 -5.03791607E-05  0.00000000E+00 -1.33388180E-05  0.00000000E+00
  0.00000000E+00  4.05861712E-06  1.46088197E-05 -2.60827833E-06  0.00000000E+00
  0.00000000E+00 -1.72652687E-04  1.27096556E-05 -3.05274473E-05  0.00000000E+00
  0.00000000E+00 -1.70866046E-04 -3.59380442E-05  0.00000000E+00 -5.35013150E-06
 -9.02812939E-06  0.00000000E+00  0.00000000E+00 -2.25836404E-05  8.88932416E-06
  0.00000000E+00  3.88265744E-05  5.95400417E-05  0.00000000E+00  0.00000000E+00
  1.61272544E-04 -1.03520016E-04  4.04180136E-05  6.87907598E-05 -1.33670726E-04
 -2.79694639E-05  6.83127469E-06  1.23867496E-06  0.00000000E+00  2.58633425E-04
  8.04442469E-05  0.00000000E+00  1.42626527E-04  3.42149219E-05  0.00000000E+00
  1.78566686E-05  0.00000000E+00  0.00000000E+00 -1.81790369E-05  1.14266150E-05
  3.14518273E-05  0.00000000E+00  0.00000000E+00 -1.11079002E-04  5.08806350E-05
 -2.70458499E-04  8.43893450E-06 -1.49341250E-05 -5.43454339E-04  1.62041490E-04
  5.60210661E-06  1.44953016E-05  0.00000000E+00  1.20242332E-05 -4.10884892E-05
  0.00000000E+00  1.57755444E-04  1.20354817E-04  0.00000000E+00 -5.35280752E-05
  4.41420238E-05  0.00000000E+00  3.91264064E-07  0.00000000E+00  0.00000000E+00
 -7.40979873E-06 -1.35237307E-05  1.39990775E-05  0.00000000E+00  0.00000000E+00
  3.45687383E-05  1.12296700E-04  5.32587992E-05  0.00000000E+00  0.00000000E+00
 -1.33357295E-05 -6.50372557E-05  0.00000000E+00  6.92505398E-06  1.15181040E-05
  0.00000000E+00  0.00000000E+00  1.29978965E-08 -2.09461505E-05  0.00000000E+00
 -1.01996572E-05 -3.01229955E-05  0.00000000E+00  0.00000000E+00  5.16634117E-06
 -2.68714779E-05  7.63326277E-04  2.20712624E-05 -1.79747871E-05  3.00530035E-04
 -3.71951534E-04  1.61917732E-05  2.71125082E-05  0.00000000E+00 -6.41270219E-05
 -1.52337315E-04  0.00000000E+00  1.44486538E-04 -1.84109972E-04  0.00000000E+00
 -1.54277971E-04  1.38963452E-04  0.00000000E+00 -3.91715193E-06  0.00000000E+00
  0.00000000E+00 -2.99282999E-05 -9.32632072E-06 -5.23264711E-05  0.00000000E+00
  0.00000000E+00  8.46504682E-05  1.19787892E-04 -6.68735608E-05  0.00000000E+00
  0.00000000E+00  6.14361862E-05  2.92513935E-05  0.00000000E+00  2.67342937E-06
  3.21714909E-06  0.00000000E+00  0.00000000E+00 -7.36827086E-06 -1.53563883E-06
  0.00000000E+00  4.47163864E-06 -2.47031203E-05  0.00000000E+00  0.00000000E+00
  9.17490992E-05 -1.59337189E-04  2.37867024E-04  1.36103106E-03 -1.48383978E-04
 -6.74573154E-04  8.85922005E-04  6.25204526E-05 -7.12393179E-05  0.00000000E+00
  5.62381014E-04 -2.08846142E-03  0.00000000E+00  1.23980284E-04  4.62707469E-04
  0.00000000E+00  1.79352929E-04 -3.07152320E-04  0.00000000E+00 -1.28117415E-04
  0.00000000E+00  0.00000000E+00 -2.05729455E-04 -1.56813753E-04 -4.60376961E-04
  0.00000000E+00  0.00000000E+00 -6.12274619E-04 -9.10065908E-04 -4.07062658E-05
  0.00000000E+00  0.00000000E+00  6.48176533E-05  1.08020076E-04  0.00000000E+00
  8.54287698E-06  3.66963400E-05  0.00000000E+00  0.00000000E+00 -2.38880142E-05
 -3.59571812E-06  0.00000000E+00 -1.32826476E-04  1.61253541E-04  0.00000000E+00
  0.00000000E+00 -3.13618672E-04 -2.23001327E-05  9.76647955E-01 -9.88680334E-03
  4.35725842E-02  3.66315792E-03 -8.87815736E-04 -4.46175004E-04  2.13281729E-03
  0.00000000E+00  5.03363550E-04 -2.50669003E-03  0.00000000E+00 -5.36588462E-05
  7.98799036E-04  0.00000000E+00  1.04658615E-04 -6.55308231E-05  0.00000000E+00
 -1.94462825E-04  0.00000000E+00  0.00000000E+00 -7.52394848E-05 -4.31455255E-05
  4.09916294E-04  0.00000000E+00  0.00000000E+00  8.61965492E-04  4.76637677E-04
 -2.08960396E-04  0.00000000E+00  0.00000000E+00 -1.31076981E-04 -3.91232216E-05
  0.00000000E+00 -3.69058698E-06  7.04212122E-05  0.00000000E+00  0.00000000E+00
 -3.06519131E-05  1.09087586E-05  0.00000000E+00 -9.02663883E-05  9.26441739E-05
  0.00000000E+00  0.00000000E+00 -1.58712530E-04  2.06869241E-04  3.83223861E-04
  2.00279107E-03  1.20701072E-03 -2.07773766E-05  4.38224423E-05  2.72429870E-04
  0.00000000E+00  3.96349724E-04  1.05338788E-03  0.00000000E+00 -6.64430308E-05
  2.41802191E-04  0.00000000E+00 -2.36639301E-05  0.00000000E+00  0.00000000E+00
  2.97359019E-05 -2.45734572E-05 -2.01244854E-04  0.00000000E+00  0.00000000E+00
 -3.63784921E-04  3.72372515E-04  9.76838909E-01 -9.18350066E-03  4.34567239E-02
  1.66210154E-04 -1.92022384E-03 -2.02014845E-03 -8.96250231E-04  0.00000000E+00
  2.05746962E-03  8.33765245E-04  0.00000000E+00 -4.28430133E-04  6.70021120E-04
  0.00000000E+00  2.24759527E-04 -2.88781216E-04  0.00000000E+00  3.27500976E-05
  0.00000000E+00  0.00000000E+00 -7.74327158E-05  5.76395121E-05  7.67005935E-04
  0.00000000E+00  0.00000000E+00 -2.17659782E-04  3.41289664E-04 -2.29811934E-04
  0.00000000E+00  0.00000000E+00  3.50540021E-04  4.13084266E-06  0.00000000E+00
 -8.01100583E-05 -2.72773413E-07  0.00000000E+00  0.00000000E+00  1.89239783E-05