title                                                                   
Freq      RMP2-FC                                                     Aug-CC-pVTZ         
Number of atoms                            I                5
Info1-9                                    I   N=           9
          33          24           0           0           0         100
           6           2           1
Full Title                                 C   N=           1
title       
Route                                      C   N=           4
#p freq mp2/aug-cc-pvtz density=current         
Charge                                     I                0
Multiplicity                               I                1
Number of electrons                        I               32
Number of alpha electrons                  I               16
Number of beta electrons                   I               16
Number of basis functions                  I              207
Number of independent functions            I              207
Number of point charges in /Mol/           I                0
Number of translation vectors              I                0
Atomic numbers                             I   N=           5
           1           8           8           7           8
Nuclear charges                            R   N=           5
  1.00000000E+00  8.00000000E+00  8.00000000E+00  7.00000000E+00  8.00000000E+00
Current cartesian coordinates              R   N=          15
  2.09922073E+00 -1.13302277E+00 -4.93038066E-32  2.48770334E+00  6.88094419E-01
  4.93038066E-32  2.26239998E-16  1.72757086E+00  1.04770589E-31 -1.87155781E+00
 -9.14752187E-02  4.93038066E-32 -1.11249285E+00 -2.19399662E+00 -1.23259516E-31
Number of symbols in /Mol/                 I                0
Force Field                                I                0
Atom Types                                 C   N=           5
                                                            
Int Atom Types                             I   N=           5
           0           0           0           0           0
MM charges                                 R   N=           5
  0.00000000E+00  0.00000000E+00  0.00000000E+00  0.00000000E+00  0.00000000E+00
Integer atomic weights                     I   N=           5
           1          16          16          14          16
Real atomic weights                        R   N=           5
  1.00782504E+00  1.59949146E+01  1.59949146E+01  1.40030740E+01  1.59949146E+01
Atom fragment info                         I   N=           5
           0           0           0           0           0
Atom residue num                           I   N=           5
           0           0           0           0           0
Nuclear spins                              I   N=           5
           1           0           0           2           0
Nuclear ZEff                               R   N=           5
 -1.00000000E+00 -5.60000000E+00 -5.60000000E+00 -4.55000000E+00 -5.60000000E+00
Nuclear ZNuc                               R   N=           5
  1.00000000E+00  8.00000000E+00  8.00000000E+00  7.00000000E+00  8.00000000E+00
Nuclear QMom                               R   N=           5
  0.00000000E+00  0.00000000E+00  0.00000000E+00  2.04400000E+00  0.00000000E+00
Nuclear GFac                               R   N=           5
  2.79284600E+00  0.00000000E+00  0.00000000E+00  4.03761000E-01  0.00000000E+00
MicOpt                                     I   N=           5
          -1          -1          -1          -1          -1
Number of residues                         I                0
Number of secondary structures             I                0
SymInf integers                            I   N=          26
           1           2           1           1           1           1
           1          -1           0           0           0           0
           0           0           0           0           0           0
           0           0           0           0           0           0
           0           0
RotTr to input orientation                 R   N=          12
 -9.77995290E-01 -1.24518480E-16  2.08626972E-01  2.08626972E-01  2.65624117E-17
  9.77995290E-01 -1.27320123E-16  1.00000000E+00  0.00000000E+00  2.28940710E+00
  0.00000000E+00  6.70136862E-01
Number of contracted shells                I               65
Number of primitive shells                 I              119
Pure/Cartesian d shells                    I                0
Pure/Cartesian f shells                    I                0
Highest angular momentum                   I                3
Largest degree of contraction              I                7
Shell types                                I   N=          65
           0           0           0           0           1           1
           1          -2          -2           0           0           0
           0           0           1           1           1           1
          -2          -2          -2          -3          -3           0
           0           0           0           0           1           1
           1           1          -2          -2          -2          -3
          -3           0           0           0           0           0
           1           1           1           1          -2          -2
          -2          -3          -3           0           0           0
           0           0           1           1           1           1
          -2          -2          -2          -3          -3
Number of primitives per shell             I   N=          65
           3           1           1           1           1           1
           1           1           1           7           6           1
           1           1           3           1           1           1
           1           1           1           1           1           7
           6           1           1           1           3           1
           1           1           1           1           1           1
           1           7           6           1           1           1
           3           1           1           1           1           1
           1           1           1           7           6           1
           1           1           3           1           1           1
           1           1           1           1           1
Shell to atom map                          I   N=          65
           1           1           1           1           1           1
           1           1           1           2           2           2
           2           2           2           2           2           2
           2           2           2           2           2           3
           3           3           3           3           3           3
           3           3           3           3           3           3
           3           4           4           4           4           4
           4           4           4           4           4           4
           4           4           4           5           5           5
           5           5           5           5           5           5
           5           5           5           5           5
Primitive exponents                        R   N=         119
  3.38700000E+01  5.09500000E+00  1.15900000E+00  3.25800000E-01  1.02700000E-01
  2.52600000E-02  1.40700000E+00  3.88000000E-01  1.02000000E-01  1.05700000E+00
  2.47000000E-01  1.53300000E+04  2.29900000E+03  5.22400000E+02  1.47300000E+02
  4.75500000E+01  1.67600000E+01  6.20700000E+00  5.22400000E+02  1.47300000E+02
  4.75500000E+01  1.67600000E+01  6.20700000E+00  6.88200000E-01  1.75200000E+00
  2.38400000E-01  7.37600000E-02  3.44600000E+01  7.74900000E+00  2.28000000E+00
  7.15600000E-01  2.14000000E-01  5.97400000E-02  2.31400000E+00  6.45000000E-01
  2.14000000E-01  1.42800000E+00  5.00000000E-01  1.53300000E+04  2.29900000E+03
  5.22400000E+02  1.47300000E+02  4.75500000E+01  1.67600000E+01  6.20700000E+00
  5.22400000E+02  1.47300000E+02  4.75500000E+01  1.67600000E+01  6.20700000E+00
  6.88200000E-01  1.75200000E+00  2.38400000E-01  7.37600000E-02  3.44600000E+01
  7.74900000E+00  2.28000000E+00  7.15600000E-01  2.14000000E-01  5.97400000E-02
  2.31400000E+00  6.45000000E-01  2.14000000E-01  1.42800000E+00  5.00000000E-01
  1.14200000E+04  1.71200000E+03  3.89300000E+02  1.10000000E+02  3.55700000E+01
  1.25400000E+01  4.64400000E+00  3.89300000E+02  1.10000000E+02  3.55700000E+01
  1.25400000E+01  4.64400000E+00  5.11800000E-01  1.29300000E+00  1.78700000E-01
  5.76000000E-02  2.66300000E+01  5.94800000E+00  1.74200000E+00  5.55000000E-01
  1.72500000E-01  4.91000000E-02  1.65400000E+00  4.69000000E-01  1.51000000E-01
  1.09300000E+00  3.64000000E-01  1.53300000E+04  2.29900000E+03  5.22400000E+02
  1.47300000E+02  4.75500000E+01  1.67600000E+01  6.20700000E+00  5.22400000E+02
  1.47300000E+02  4.75500000E+01  1.67600000E+01  6.20700000E+00  6.88200000E-01
  1.75200000E+00  2.38400000E-01  7.37600000E-02  3.44600000E+01  7.74900000E+00
  2.28000000E+00  7.15600000E-01  2.14000000E-01  5.97400000E-02  2.31400000E+00
  6.45000000E-01  2.14000000E-01  1.42800000E+00  5.00000000E-01
Contraction coefficients                   R   N=         119
  2.54948632E-02  1.90362766E-01  8.52162022E-01  1.00000000E+00  1.00000000E+00
  1.00000000E+00  1.00000000E+00  1.00000000E+00  1.00000000E+00  1.00000000E+00
  1.00000000E+00  5.19808943E-04  4.02025621E-03  2.07128267E-02  8.10105536E-02
  2.35962985E-01  4.42653446E-01  3.57064423E-01 -4.42115008E-05 -1.22591041E-03
 -1.05517725E-02 -6.74452633E-02 -1.71198607E-01  1.07329856E+00  1.00000000E+00
  1.00000000E+00  1.00000000E+00  4.11634896E-02  2.57762836E-01  8.02419274E-01
  1.00000000E+00  1.00000000E+00  1.00000000E+00  1.00000000E+00  1.00000000E+00
  1.00000000E+00  1.00000000E+00  1.00000000E+00  5.19808943E-04  4.02025621E-03
  2.07128267E-02  8.10105536E-02  2.35962985E-01  4.42653446E-01  3.57064423E-01
 -4.42115008E-05 -1.22591041E-03 -1.05517725E-02 -6.74452633E-02 -1.71198607E-01
  1.07329856E+00  1.00000000E+00  1.00000000E+00  1.00000000E+00  4.11634896E-02
  2.57762836E-01  8.02419274E-01  1.00000000E+00  1.00000000E+00  1.00000000E+00
  1.00000000E+00  1.00000000E+00  1.00000000E+00  1.00000000E+00  1.00000000E+00
  5.34563860E-04  4.13435660E-03  2.12335358E-02  8.25006224E-02  2.38138871E-01
  4.42551547E-01  3.53757422E-01 -4.89867350E-05 -1.19527323E-03 -1.03490714E-02
 -6.48680190E-02 -1.71552477E-01  1.07289568E+00  1.00000000E+00  1.00000000E+00
  1.00000000E+00  3.98072123E-02  2.49002660E-01  8.10479727E-01  1.00000000E+00
  1.00000000E+00  1.00000000E+00  1.00000000E+00  1.00000000E+00  1.00000000E+00
  1.00000000E+00  1.00000000E+00  5.19808943E-04  4.02025621E-03  2.07128267E-02
  8.10105536E-02  2.35962985E-01  4.42653446E-01  3.57064423E-01 -4.42115008E-05
 -1.22591041E-03 -1.05517725E-02 -6.74452633E-02 -1.71198607E-01  1.07329856E+00
  1.00000000E+00  1.00000000E+00  1.00000000E+00  4.11634896E-02  2.57762836E-01
  8.02419274E-01  1.00000000E+00  1.00000000E+00  1.00000000E+00  1.00000000E+00
  1.00000000E+00  1.00000000E+00  1.00000000E+00  1.00000000E+00
Coordinates of each shell                  R   N=         195
  2.09922073E+00 -1.13302277E+00 -4.54188676E-32  2.09922073E+00 -1.13302277E+00
 -4.54188676E-32  2.09922073E+00 -1.13302277E+00 -4.54188676E-32  2.09922073E+00
 -1.13302277E+00 -4.54188676E-32  2.09922073E+00 -1.13302277E+00 -4.54188676E-32
  2.09922073E+00 -1.13302277E+00 -4.54188676E-32  2.09922073E+00 -1.13302277E+00
 -4.54188676E-32  2.09922073E+00 -1.13302277E+00 -4.54188676E-32  2.09922073E+00
 -1.13302277E+00 -4.54188676E-32  2.48770334E+00  6.88094419E-01  9.34989577E-36
  2.48770334E+00  6.88094419E-01  9.34989577E-36  2.48770334E+00  6.88094419E-01
  9.34989577E-36  2.48770334E+00  6.88094419E-01  9.34989577E-36  2.48770334E+00
  6.88094419E-01  9.34989577E-36  2.48770334E+00  6.88094419E-01  9.34989577E-36
  2.48770334E+00  6.88094419E-01  9.34989577E-36  2.48770334E+00  6.88094419E-01
  9.34989577E-36  2.48770334E+00  6.88094419E-01  9.34989577E-36  2.48770334E+00
  6.88094419E-01  9.34989577E-36  2.48770334E+00  6.88094419E-01  9.34989577E-36
  2.48770334E+00  6.88094419E-01  9.34989577E-36  2.48770334E+00  6.88094419E-01
  9.34989577E-36  2.48770334E+00  6.88094419E-01  9.34989577E-36  2.55914725E-17
  1.72757086E+00  4.57954197E-32  2.55914725E-17  1.72757086E+00  4.57954197E-32
  2.55914725E-17  1.72757086E+00  4.57954197E-32  2.55914725E-17  1.72757086E+00
  4.57954197E-32  2.55914725E-17  1.72757086E+00  4.57954197E-32  2.55914725E-17
  1.72757086E+00  4.57954197E-32  2.55914725E-17  1.72757086E+00  4.57954197E-32
  2.55914725E-17  1.72757086E+00  4.57954197E-32  2.55914725E-17  1.72757086E+00
  4.57954197E-32  2.55914725E-17  1.72757086E+00  4.57954197E-32  2.55914725E-17
  1.72757086E+00  4.57954197E-32  2.55914725E-17  1.72757086E+00  4.57954197E-32
  2.55914725E-17  1.72757086E+00  4.57954197E-32  2.55914725E-17  1.72757086E+00
  4.57954197E-32 -1.87155781E+00 -9.14752187E-02  1.12907671E-32 -1.87155781E+00
 -9.14752187E-02  1.12907671E-32 -1.87155781E+00 -9.14752187E-02  1.12907671E-32
 -1.87155781E+00 -9.14752187E-02  1.12907671E-32 -1.87155781E+00 -9.14752187E-02
  1.12907671E-32 -1.87155781E+00 -9.14752187E-02  1.12907671E-32 -1.87155781E+00
 -9.14752187E-02  1.12907671E-32 -1.87155781E+00 -9.14752187E-02  1.12907671E-32
 -1.87155781E+00 -9.14752187E-02  1.12907671E-32 -1.87155781E+00 -9.14752187E-02
  1.12907671E-32 -1.87155781E+00 -9.14752187E-02  1.12907671E-32 -1.87155781E+00
 -9.14752187E-02  1.12907671E-32 -1.87155781E+00 -9.14752187E-02  1.12907671E-32
 -1.87155781E+00 -9.14752187E-02  1.12907671E-32 -1.11249285E+00 -2.19399662E+00
 -5.00068324E-32 -1.11249285E+00 -2.19399662E+00 -5.00068324E-32 -1.11249285E+00
 -2.19399662E+00 -5.00068324E-32 -1.11249285E+00 -2.19399662E+00 -5.00068324E-32
 -1.11249285E+00 -2.19399662E+00 -5.00068324E-32 -1.11249285E+00 -2.19399662E+00
 -5.00068324E-32 -1.11249285E+00 -2.19399662E+00 -5.00068324E-32 -1.11249285E+00
 -2.19399662E+00 -5.00068324E-32 -1.11249285E+00 -2.19399662E+00 -5.00068324E-32
 -1.11249285E+00 -2.19399662E+00 -5.00068324E-32 -1.11249285E+00 -2.19399662E+00
 -5.00068324E-32 -1.11249285E+00 -2.19399662E+00 -5.00068324E-32 -1.11249285E+00
 -2.19399662E+00 -5.00068324E-32 -1.11249285E+00 -2.19399662E+00 -5.00068324E-32
Num ILSW                                   I              100
ILSW                                       I   N=         100
           0           0           0           0           2           0
           0           0           0           0           0          -1
           5           0           0           0           2           0
           0           0           0           0           1           0
           1           0           0           0           0           0
           0           0      100000           0          -1           0
           0           0           0           0           0           0
           0           0           0           1           1           0
           0 -2000000000           1           0           0           0
           0           0           4          52           0           0
           0           0           0           0           0           0
           0           0           0           5           4           1
           0           0           0           0           0           0
           0           0           0           0           0           0
           0           0           0           0           0           0
           0           0           0           0           0           0
           0           0           0           0
Num RLSW                                   I               52
RLSW                                       R   N=          52
  1.00000000E+00  1.00000000E+00  1.00000000E+00  1.00000000E+00  1.00000000E+00
  0.00000000E+00  0.00000000E+00  1.00000000E+00  0.00000000E+00  0.00000000E+00
  0.00000000E+00  0.00000000E+00  1.00000000E+00  0.00000000E+00  0.00000000E+00
  0.00000000E+00  0.00000000E+00  1.00000000E+00  0.00000000E+00  0.00000000E+00
  0.00000000E+00  0.00000000E+00  1.00000000E+00  0.00000000E+00  0.00000000E+00
  0.00000000E+00  0.00000000E+00  1.00000000E+00  0.00000000E+00  0.00000000E+00
  0.00000000E+00  0.00000000E+00  1.00000000E+00  0.00000000E+00  0.00000000E+00
  0.00000000E+00  0.00000000E+00  0.00000000E+00  1.00000000E+00  1.00000000E+00
  0.00000000E+00  1.00000000E+00  0.00000000E+00  0.00000000E+00  0.00000000E+00
  0.00000000E+00  0.00000000E+00  0.00000000E+00  0.00000000E+00  0.00000000E+00
  0.00000000E+00  0.00000000E+00
MxBond                                     I                2
NBond                                      I   N=           5
           1           2           2           2           1
IBond                                      I   N=          10
           2           0           1           3           2           4
           3           5           4           0
RBond                                      R   N=          10
  1.00000000E+00  0.00000000E+00  1.00000000E+00  1.00000000E+00  1.00000000E+00
  1.00000000E+00  1.00000000E+00  2.00000000E+00  2.00000000E+00  0.00000000E+00
Virial Ratio                               R      2.002039555134635E+00
SCF Energy                                 R     -2.795082670487600E+02
MP2 Energy                                 R     -2.804550458153471E+02
Total Energy                               R     -2.804550458153471E+02
Post-SCF wavefunction norm                 R      1.582569272633773E+00
RMS Force                                  R      6.020513542879952E-03
RMS Density                                R      3.316571876425546E-09
NImag                                      I                0
Job Status                                 I                1
Nuclear derivative order                   I                2
External E-field                           R   N=          35
  0.00000000E+00  0.00000000E+00  0.00000000E+00  0.00000000E+00  0.00000000E+00
  0.00000000E+00  0.00000000E+00  0.00000000E+00  0.00000000E+00  0.00000000E+00
  0.00000000E+00  0.00000000E+00  0.00000000E+00  0.00000000E+00  0.00000000E+00
  0.00000000E+00  0.00000000E+00  0.00000000E+00  0.00000000E+00  0.00000000E+00
  0.00000000E+00  0.00000000E+00  0.00000000E+00  0.00000000E+00  0.00000000E+00
  0.00000000E+00  0.00000000E+00  0.00000000E+00  0.00000000E+00  0.00000000E+00
  0.00000000E+00  0.00000000E+00  0.00000000E+00  0.00000000E+00  0.00000000E+00
IOpCl                                      I                0
IROHF                                      I                0
Alpha Orbital Energies                     R   N=         207
 -2.07170618E+01 -2.06878484E+01 -2.06672268E+01 -1.58240827E+01 -1.65123128E+00
 -1.50777380E+00 -1.29258496E+00 -9.58577396E-01 -8.37271385E-01 -7.61537994E-01
 -7.41931796E-01 -6.37480769E-01 -6.21068202E-01 -6.18866417E-01 -5.02504785E-01
 -4.96718623E-01  3.49929247E-02  6.39582863E-02  9.51539960E-02  1.00490160E-01
  1.19447497E-01  1.22716340E-01  1.49320122E-01  1.52070859E-01  1.77896598E-01
  1.80247715E-01  1.89811414E-01  2.11008184E-01  2.16767678E-01  2.43685250E-01
  2.46572259E-01  2.69335427E-01  3.12805918E-01  3.16630534E-01  3.38024540E-01
  3.44738959E-01  3.48027722E-01  3.93108462E-01  4.48764906E-01  4.89294033E-01
  5.05174743E-01  5.19178425E-01  5.45494143E-01  5.60584774E-01  6.02417738E-01
  6.22332164E-01  6.41349544E-01  6.87709088E-01  7.16802525E-01  7.24663712E-01
  7.45502957E-01  7.63182449E-01  7.67153073E-01  7.96086206E-01  8.07402396E-01
  8.41227502E-01  8.43860702E-01  8.51960778E-01  8.86651864E-01  9.08514104E-01
  9.31827641E-01  9.50485615E-01  9.54012787E-01  1.01879891E+00  1.03185135E+00
  1.06267235E+00  1.06667830E+00  1.09559301E+00  1.14411953E+00  1.15668176E+00
  1.17131957E+00  1.22391533E+00  1.22777609E+00  1.24682568E+00  1.35238993E+00
  1.36081549E+00  1.37353786E+00  1.46884422E+00  1.48595125E+00  1.50508118E+00
  1.54143154E+00  1.59664900E+00  1.59856055E+00  1.60728455E+00  1.63015668E+00
  1.69824448E+00  1.74105268E+00  1.80305173E+00  1.82981341E+00  1.89191637E+00
  1.89732692E+00  1.92703772E+00  1.98032322E+00  1.99030393E+00  2.04921631E+00
  2.12670825E+00  2.13098865E+00  2.16633109E+00  2.18675037E+00  2.24400492E+00
  2.25911984E+00  2.29510760E+00  2.35286984E+00  2.36770216E+00  2.38791780E+00
  2.40619866E+00  2.43558920E+00  2.46829926E+00  2.48013241E+00  2.52881966E+00
  2.53985399E+00  2.55283613E+00  2.56243980E+00  2.62024838E+00  2.63035480E+00
  2.67649912E+00  2.67984175E+00  2.75903721E+00  2.81230333E+00  2.82090242E+00
  2.84173532E+00  2.91983571E+00  2.98930105E+00  3.05250581E+00  3.05296531E+00
  3.11691194E+00  3.11700577E+00  3.17621722E+00  3.21396408E+00  3.31116375E+00
  3.33222614E+00  3.36289130E+00  3.47947138E+00  3.68782828E+00  3.87041205E+00
  3.93031328E+00  4.18518757E+00  4.22489179E+00  4.22939543E+00  4.28889706E+00
  4.37077149E+00  4.50389473E+00  4.52913270E+00  4.56859279E+00  4.60025252E+00
  4.69757212E+00  4.81532999E+00  4.90065168E+00  4.91383482E+00  4.94618441E+00
  4.99657623E+00  5.00467718E+00  5.10998791E+00  5.14088394E+00  5.18043488E+00
  5.26028431E+00  5.26222017E+00  5.32138689E+00  5.35001772E+00  5.35655450E+00
  5.53909983E+00  5.66298575E+00  5.71341168E+00  5.88653000E+00  6.00823396E+00
  6.26655461E+00  6.29823275E+00  6.36353246E+00  6.37914529E+00  6.59979844E+00
  6.66107662E+00  6.66133424E+00  6.69243895E+00  6.73136237E+00  6.79355767E+00
  6.80532593E+00  6.86014969E+00  6.97185024E+00  7.02107112E+00  7.06769407E+00
  7.08271444E+00  7.14474030E+00  7.18005517E+00  7.18383721E+00  7.20615538E+00
  7.24977215E+00  7.25215051E+00  7.29173823E+00  7.35458329E+00  7.40292702E+00
  7.43266757E+00  7.44639490E+00  7.47712962E+00  7.57996135E+00  7.66519316E+00
  7.67301387E+00  7.80036468E+00  7.88755717E+00  7.95868644E+00  8.07999136E+00
  8.30785010E+00  8.50159093E+00  8.65758700E+00  1.36421628E+01  1.48320843E+01
  1.51589413E+01  1.60657462E+01
Alpha MO coefficients                      R   N=       42849
  6.39683729E-05 -2.65613542E-05 -1.08181791E-03  1.51065141E-05 -5.14886962E-05
  4.19829362E-05  0.00000000E+00 -8.87117538E-05 -2.86848034E-04  0.00000000E+00
 -4.06463318E-06 -3.43395331E-04  0.00000000E+00  4.24342897E-05  0.00000000E+00
  0.00000000E+00 -2.56908937E-05  1.14337426E-05  2.25330050E-04  0.00000000E+00
  0.00000000E+00 -3.98531636E-05 -2.05880320E-04  3.17405862E-03 -9.80839946E-05
 -9.48988441E-05  3.53803789E-03  2.46545016E-03  1.02536510E-04 -5.34939840E-05
  0.00000000E+00 -7.29251473E-04  2.86561131E-04  0.00000000E+00 -1.98584837E-03
  1.10513084E-03  0.00000000E+00 -5.36521268E-04  3.94895085E-05  0.00000000E+00
  2.05103042E-05  0.00000000E+00  0.00000000E+00 -8.94390442E-06  4.42091570E-05
 -4.43613930E-04  0.00000000E+00  0.00000000E+00  4.29679203E-04 -6.62272455E-04
 -3.66375160E-04  0.00000000E+00  0.00000000E+00  5.46030248E-04 -7.36280125E-04
  0.00000000E+00  7.40342340E-05 -5.24656278E-05  0.00000000E+00  0.00000000E+00
 -2.82254827E-05  1.08341837E-04  0.00000000E+00  2.08481569E-04 -5.01642562E-05
  0.00000000E+00  0.00000000E+00 -1.70681667E-04  3.00269689E-04  9.76899968E-01
 -9.17511599E-03  4.34125290E-02  5.33217578E-04 -2.19102517E-03  4.58944537E-04
 -2.13904484E-03  0.00000000E+00 -3.32328489E-04  2.24475320E-03  0.00000000E+00
 -2.32878802E-03 -4.89747331E-04  0.00000000E+00 -2.23173251E-04  9.39730974E-05
  0.00000000E+00  7.56914401E-06  0.00000000E+00  0.00000000E+00 -5.96995903E-06
  3.88963483E-05  8.26164818E-04  0.00000000E+00  0.00000000E+00 -4.74491937E-04
 -1.68033721E-04 -1.39051123E-04  0.00000000E+00  0.00000000E+00 -5.46640713E-04
  3.54616452E-04  0.00000000E+00 -5.84003296E-06 -7.90241688E-05  0.00000000E+00
  0.00000000E+00 -8.92564536E-06  4.77888423E-05  0.00000000E+00  9.21777005E-05
  6.08765292E-07  0.00000000E+00  0.00000000E+00 -3.38527033E-04  3.78733383E-04
  1.01954458E-04  4.43240377E-04 -3.23016314E-04 -9.12042294E-04  3.23031535E-04
 -4.37750696E-05 -9.96719435E-05  0.00000000E+00  6.90509984E-04  1.12329201E-03
  0.00000000E+00 -7.95617697E-04 -6.67480754E-04  0.00000000E+00  1.92923463E-04
  2.16964402E-04  0.00000000E+00 -5.19087365E-05  0.00000000E+00  0.00000000E+00
  1.93762424E-05  9.40700541E-05 -4.12910347E-04  0.00000000E+00  0.00000000E+00
  4.60153110E-05  1.07837565E-03  3.26427104E-05  0.00000000E+00  0.00000000E+00
 -3.16579757E-04  2.24504356E-05  0.00000000E+00 -7.84669814E-05 -1.13527126E-04
  0.00000000E+00  0.00000000E+00 -9.55634206E-05  1.04041755E-04  0.00000000E+00
 -1.23421852E-04  4.98515999E-05  0.00000000E+00  0.00000000E+00  1.94999843E-05
  5.18746563E-04 -7.99393175E-04  5.19655943E-05 -7.40890731E-05  2.49028990E-04
 -1.55817821E-04 -2.82298658E-05 -4.19079776E-05  0.00000000E+00  1.67535547E-04
  2.64332543E-04  0.00000000E+00  5.16928563E-04  3.56690064E-04  0.00000000E+00
 -2.25505761E-04 -5.95914691E-05  0.00000000E+00 -1.35103005E-05  0.00000000E+00
  0.00000000E+00  2.85526689E-06  1.66471192E-05 -1.01281272E-06  0.00000000E+00
  0.00000000E+00 -1.65144911E-04 -3.42645399E-07 -2.50231102E-05  0.00000000E+00
  0.00000000E+00 -1.78963761E-04 -5.22287912E-05  0.00000000E+00 -4.99590308E-06
 -8.57259971E-06  0.00000000E+00  0.00000000E+00 -2.00703356E-05  1.03282433E-05
  0.00000000E+00  4.09513453E-05  6.14179056E-05  0.00000000E+00  0.00000000E+00
  1.62140061E-04 -1.02311998E-04  3.90487135E-05  6.08518714E-05 -8.54066166E-05
 -2.44827637E-05  2.01517976E-05  1.10916194E-05  0.00000000E+00  2.36431084E-04
  5.04929905E-05  0.00000000E+00  1.18540468E-04  2.46436554E-05  0.00000000E+00
  1.34503715E-05  0.00000000E+00  0.00000000E+00 -1.08416948E-05  1.71860301E-05
  1.74244265E-05  0.00000000E+00  0.00000000E+00 -8.49562243E-05  6.61848240E-05
 -2.33431303E-04  2.36314750E-05 -1.25276138E-05 -5.37477815E-04  1.46754485E-04
  5.99065750E-06  1.40120345E-05  0.00000000E+00  6.22649606E-06 -4.59348566E-05
  0.00000000E+00  1.59552941E-04  1.28334855E-04  0.00000000E+00 -4.39751747E-05
  5.22860037E-05  0.00000000E+00 -1.48868648E-06  0.00000000E+00  0.00000000E+00
 -8.07004698E-06 -1.15831000E-05  2.25179673E-05  0.00000000E+00  0.00000000E+00
  4.45355639E-05  1.10826047E-04  6.27462961E-05  0.00000000E+00  0.00000000E+00
 -1.82245222E-05 -6.85112929E-05  0.00000000E+00  7.28797555E-06  1.06751392E-05
  0.00000000E+00  0.00000000E+00 -4.90887004E-07 -2.51559037E-05  0.00000000E+00
 -1.37861317E-05 -3.74365395E-05  0.00000000E+00  0.00000000E+00 -4.92992839E-07
 -2.22464422E-05  8.28137907E-04  2.01925562E-05 -1.62054508E-05  3.60505437E-04
 -3.24151239E-04  1.80974428E-05  2.64638217E-05  0.00000000E+00 -7.36315921E-05
 -1.52160972E-04  0.00000000E+00  8.12975216E-05 -1.99562872E-04  0.00000000E+00
 -1.66376505E-04  1.31689425E-04  0.00000000E+00 -3.89370377E-06  0.00000000E+00
  0.00000000E+00 -3.26848774E-05 -9.31376962E-06 -5.44281098E-05  0.00000000E+00
  0.00000000E+00  1.02006785E-04  1.22855542E-04 -7.47262991E-05  0.00000000E+00
  0.00000000E+00  7.02939615E-05  4.44226441E-05  0.00000000E+00  3.28858519E-06
  2.77991945E-06  0.00000000E+00  0.00000000E+00 -7.59389668E-06 -4.47050727E-06
  0.00000000E+00  5.93208507E-06 -2.38873880E-05  0.00000000E+00  0.00000000E+00
  8.71025329E-05 -1.67477785E-04  2.40756118E-04  1.38633241E-03 -9.83776354E-05
 -1.00749625E-03  7.87033994E-04  7.24994080E-05 -9.75153156E-05  0.00000000E+00
  5.72542578E-04 -2.06400176E-03  0.00000000E+00  4.04091691E-05  5.69019821E-04
  0.00000000E+00  1.69203751E-04 -2.94281159E-04  0.00000000E+00 -1.26738153E-04
  0.00000000E+00  0.00000000E+00 -2.05434166E-04 -1.57592354E-04 -4.25430504E-04
  0.00000000E+00  0.00000000E+00 -5.28235129E-04 -9.04402725E-04 -1.67046289E-05
  0.00000000E+00  0.00000000E+00  9.73950311E-05  1.27748997E-04  0.00000000E+00
  1.36721967E-05  1.97008705E-05  0.00000000E+00  0.00000000E+00 -2.40090793E-06
 -1.81887718E-05  0.00000000E+00 -1.31296659E-04  1.56708506E-04  0.00000000E+00
  0.00000000E+00 -2.85211021E-04 -3.11518930E-05  9.76626410E-01 -9.87804640E-03
  4.36064379E-02  3.88697783E-03 -8.08185695E-04 -4.54419120E-04  2.14235731E-03
  0.00000000E+00  4.99041146E-04 -2.46567509E-03  0.00000000E+00 -1.07845219E-04
  8.69630105E-04  0.00000000E+00  9.84376783E-05 -5.46399260E-05  0.00000000E+00
 -2.02771252E-04  0.00000000E+00  0.00000000E+00 -8.44192575E-05 -5.13599158E-05
  4.02888860E-04  0.00000000E+00  0.00000000E+00  8.46360564E-04  4.69748937E-04
 -1.97135735E-04  0.00000000E+00  0.00000000E+00 -1.36451292E-04 -3.78279369E-05
  0.00000000E+00 -2.67008697E-06  6.45262906E-05  0.00000000E+00  0.00000000E+00
 -2.19198487E-05  7.25118542E-06  0.00000000E+00 -9.05801966E-05  9.94829174E-05
  0.00000000E+00  0.00000000E+00 -1.67193378E-04  2.07151246E-04  3.75023703E-04
  2.00756865E-03  1.39908586E-03 -1.99552523E-05  5.14604013E-05  2.69689810E-04
  0.00000000E+00  3.74711589E-04  1.03098417E-03  0.00000000E+00 -1.29044464E-04
  2.46147200E-04  0.00000000E+00 -2.41461397E-05  0.00000000E+00  0.00000000E+00
  3.24269420E-05 -2.91919392E-05 -2.17122726E-04  0.00000000E+00  0.00000000E+00
 -3.45528595E-04  4.03282149E-04  9.76834074E-01 -9.18641656E-03  4.34656216E-02
  1.31959404E-04 -1.93720074E-03 -2.04260002E-03 -8.40535071E-04  0.00000000E+00
  2.08163360E-03  7.77866988E-04  0.00000000E+00 -4.06094773E-04  6.52143377E-04
  0.00000000E+00  2.30016098E-04 -2.99128395E-04  0.00000000E+00  3.06066471E-05
  0.00000000E+00  0.00000000E+00 -7.41435232E-05  6.28204015E-05  7.66433670E-04
  0.00000000E+00  0.00000000E+00 -2.07411604E-04  3.48801848E-04 -2.38024445E-04
  0.00000000E+00  0.00000000E+00  3.37172998E-04  4.54563392E-06  0.00000000E+00
 -8.07335507E-05  1.15105972E-06  0.00000000E+00  0.00000000E+00  1.58647534E-05