title                                                                   
Freq      RMP2-FC                                                     Aug-CC-pVTZ         
Number of atoms                            I                5
Info1-9                                    I   N=           9
          33          24           0           0           0         100
           6           2           1
Full Title                                 C   N=           1
title       
Route                                      C   N=           4
#p freq mp2/aug-cc-pvtz density=current         
Charge                                     I                0
Multiplicity                               I                1
Number of electrons                        I               32
Number of alpha electrons                  I               16
Number of beta electrons                   I               16
Number of basis functions                  I              207
Number of independent functions            I              207
Number of point charges in /Mol/           I                0
Number of translation vectors              I                0
Atomic numbers                             I   N=           5
           1           8           8           7           8
Nuclear charges                            R   N=           5
  1.00000000E+00  8.00000000E+00  8.00000000E+00  7.00000000E+00  8.00000000E+00
Current cartesian coordinates              R   N=          15
  2.03043134E+00 -1.11179378E+00  0.00000000E+00  2.48785613E+00  6.93240594E-01
  0.00000000E+00  1.20569615E-16  1.73235132E+00  0.00000000E+00 -1.87129038E+00
 -8.69698743E-02  0.00000000E+00 -1.10428096E+00 -2.21051905E+00  0.00000000E+00
Number of symbols in /Mol/                 I                0
Force Field                                I                0
Atom Types                                 C   N=           5
                                                            
Int Atom Types                             I   N=           5
           0           0           0           0           0
MM charges                                 R   N=           5
  0.00000000E+00  0.00000000E+00  0.00000000E+00  0.00000000E+00  0.00000000E+00
Integer atomic weights                     I   N=           5
           1          16          16          14          16
Real atomic weights                        R   N=           5
  1.00782504E+00  1.59949146E+01  1.59949146E+01  1.40030740E+01  1.59949146E+01
Atom fragment info                         I   N=           5
           0           0           0           0           0
Atom residue num                           I   N=           5
           0           0           0           0           0
Nuclear spins                              I   N=           5
           1           0           0           2           0
Nuclear ZEff                               R   N=           5
 -1.00000000E+00 -5.60000000E+00 -5.60000000E+00 -4.55000000E+00 -5.60000000E+00
Nuclear ZNuc                               R   N=           5
  1.00000000E+00  8.00000000E+00  8.00000000E+00  7.00000000E+00  8.00000000E+00
Nuclear QMom                               R   N=           5
  0.00000000E+00  0.00000000E+00  0.00000000E+00  2.04400000E+00  0.00000000E+00
Nuclear GFac                               R   N=           5
  2.79284600E+00  0.00000000E+00  0.00000000E+00  4.03761000E-01  0.00000000E+00
MicOpt                                     I   N=           5
          -1          -1          -1          -1          -1
Number of residues                         I                0
Number of secondary structures             I                0
SymInf integers                            I   N=          26
           1           2           1           1           1           1
           1          -1           0           0           0           0
           0           0           0           0           0           0
           0           0           0           0           0           0
           0           0
RotTr to input orientation                 R   N=          12
 -9.69358333E-01  0.00000000E+00  2.45651017E-01  2.45651017E-01  0.00000000E+00
  9.69358333E-01  0.00000000E+00  1.00000000E+00  0.00000000E+00  2.24132881E+00
  0.00000000E+00  5.78949044E-01
Number of contracted shells                I               65
Number of primitive shells                 I              119
Pure/Cartesian d shells                    I                0
Pure/Cartesian f shells                    I                0
Highest angular momentum                   I                3
Largest degree of contraction              I                7
Shell types                                I   N=          65
           0           0           0           0           1           1
           1          -2          -2           0           0           0
           0           0           1           1           1           1
          -2          -2          -2          -3          -3           0
           0           0           0           0           1           1
           1           1          -2          -2          -2          -3
          -3           0           0           0           0           0
           1           1           1           1          -2          -2
          -2          -3          -3           0           0           0
           0           0           1           1           1           1
          -2          -2          -2          -3          -3
Number of primitives per shell             I   N=          65
           3           1           1           1           1           1
           1           1           1           7           6           1
           1           1           3           1           1           1
           1           1           1           1           1           7
           6           1           1           1           3           1
           1           1           1           1           1           1
           1           7           6           1           1           1
           3           1           1           1           1           1
           1           1           1           7           6           1
           1           1           3           1           1           1
           1           1           1           1           1
Shell to atom map                          I   N=          65
           1           1           1           1           1           1
           1           1           1           2           2           2
           2           2           2           2           2           2
           2           2           2           2           2           3
           3           3           3           3           3           3
           3           3           3           3           3           3
           3           4           4           4           4           4
           4           4           4           4           4           4
           4           4           4           5           5           5
           5           5           5           5           5           5
           5           5           5           5           5
Primitive exponents                        R   N=         119
  3.38700000E+01  5.09500000E+00  1.15900000E+00  3.25800000E-01  1.02700000E-01
  2.52600000E-02  1.40700000E+00  3.88000000E-01  1.02000000E-01  1.05700000E+00
  2.47000000E-01  1.53300000E+04  2.29900000E+03  5.22400000E+02  1.47300000E+02
  4.75500000E+01  1.67600000E+01  6.20700000E+00  5.22400000E+02  1.47300000E+02
  4.75500000E+01  1.67600000E+01  6.20700000E+00  6.88200000E-01  1.75200000E+00
  2.38400000E-01  7.37600000E-02  3.44600000E+01  7.74900000E+00  2.28000000E+00
  7.15600000E-01  2.14000000E-01  5.97400000E-02  2.31400000E+00  6.45000000E-01
  2.14000000E-01  1.42800000E+00  5.00000000E-01  1.53300000E+04  2.29900000E+03
  5.22400000E+02  1.47300000E+02  4.75500000E+01  1.67600000E+01  6.20700000E+00
  5.22400000E+02  1.47300000E+02  4.75500000E+01  1.67600000E+01  6.20700000E+00
  6.88200000E-01  1.75200000E+00  2.38400000E-01  7.37600000E-02  3.44600000E+01
  7.74900000E+00  2.28000000E+00  7.15600000E-01  2.14000000E-01  5.97400000E-02
  2.31400000E+00  6.45000000E-01  2.14000000E-01  1.42800000E+00  5.00000000E-01
  1.14200000E+04  1.71200000E+03  3.89300000E+02  1.10000000E+02  3.55700000E+01
  1.25400000E+01  4.64400000E+00  3.89300000E+02  1.10000000E+02  3.55700000E+01
  1.25400000E+01  4.64400000E+00  5.11800000E-01  1.29300000E+00  1.78700000E-01
  5.76000000E-02  2.66300000E+01  5.94800000E+00  1.74200000E+00  5.55000000E-01
  1.72500000E-01  4.91000000E-02  1.65400000E+00  4.69000000E-01  1.51000000E-01
  1.09300000E+00  3.64000000E-01  1.53300000E+04  2.29900000E+03  5.22400000E+02
  1.47300000E+02  4.75500000E+01  1.67600000E+01  6.20700000E+00  5.22400000E+02
  1.47300000E+02  4.75500000E+01  1.67600000E+01  6.20700000E+00  6.88200000E-01
  1.75200000E+00  2.38400000E-01  7.37600000E-02  3.44600000E+01  7.74900000E+00
  2.28000000E+00  7.15600000E-01  2.14000000E-01  5.97400000E-02  2.31400000E+00
  6.45000000E-01  2.14000000E-01  1.42800000E+00  5.00000000E-01
Contraction coefficients                   R   N=         119
  2.54948632E-02  1.90362766E-01  8.52162022E-01  1.00000000E+00  1.00000000E+00
  1.00000000E+00  1.00000000E+00  1.00000000E+00  1.00000000E+00  1.00000000E+00
  1.00000000E+00  5.19808943E-04  4.02025621E-03  2.07128267E-02  8.10105536E-02
  2.35962985E-01  4.42653446E-01  3.57064423E-01 -4.42115008E-05 -1.22591041E-03
 -1.05517725E-02 -6.74452633E-02 -1.71198607E-01  1.07329856E+00  1.00000000E+00
  1.00000000E+00  1.00000000E+00  4.11634896E-02  2.57762836E-01  8.02419274E-01
  1.00000000E+00  1.00000000E+00  1.00000000E+00  1.00000000E+00  1.00000000E+00
  1.00000000E+00  1.00000000E+00  1.00000000E+00  5.19808943E-04  4.02025621E-03
  2.07128267E-02  8.10105536E-02  2.35962985E-01  4.42653446E-01  3.57064423E-01
 -4.42115008E-05 -1.22591041E-03 -1.05517725E-02 -6.74452633E-02 -1.71198607E-01
  1.07329856E+00  1.00000000E+00  1.00000000E+00  1.00000000E+00  4.11634896E-02
  2.57762836E-01  8.02419274E-01  1.00000000E+00  1.00000000E+00  1.00000000E+00
  1.00000000E+00  1.00000000E+00  1.00000000E+00  1.00000000E+00  1.00000000E+00
  5.34563860E-04  4.13435660E-03  2.12335358E-02  8.25006224E-02  2.38138871E-01
  4.42551547E-01  3.53757422E-01 -4.89867350E-05 -1.19527323E-03 -1.03490714E-02
 -6.48680190E-02 -1.71552477E-01  1.07289568E+00  1.00000000E+00  1.00000000E+00
  1.00000000E+00  3.98072123E-02  2.49002660E-01  8.10479727E-01  1.00000000E+00
  1.00000000E+00  1.00000000E+00  1.00000000E+00  1.00000000E+00  1.00000000E+00
  1.00000000E+00  1.00000000E+00  5.19808943E-04  4.02025621E-03  2.07128267E-02
  8.10105536E-02  2.35962985E-01  4.42653446E-01  3.57064423E-01 -4.42115008E-05
 -1.22591041E-03 -1.05517725E-02 -6.74452633E-02 -1.71198607E-01  1.07329856E+00
  1.00000000E+00  1.00000000E+00  1.00000000E+00  4.11634896E-02  2.57762836E-01
  8.02419274E-01  1.00000000E+00  1.00000000E+00  1.00000000E+00  1.00000000E+00
  1.00000000E+00  1.00000000E+00  1.00000000E+00  1.00000000E+00
Coordinates of each shell                  R   N=         195
  2.03043134E+00 -1.11179378E+00  0.00000000E+00  2.03043134E+00 -1.11179378E+00
  0.00000000E+00  2.03043134E+00 -1.11179378E+00  0.00000000E+00  2.03043134E+00
 -1.11179378E+00  0.00000000E+00  2.03043134E+00 -1.11179378E+00  0.00000000E+00
  2.03043134E+00 -1.11179378E+00  0.00000000E+00  2.03043134E+00 -1.11179378E+00
  0.00000000E+00  2.03043134E+00 -1.11179378E+00  0.00000000E+00  2.03043134E+00
 -1.11179378E+00  0.00000000E+00  2.48785613E+00  6.93240594E-01  0.00000000E+00
  2.48785613E+00  6.93240594E-01  0.00000000E+00  2.48785613E+00  6.93240594E-01
  0.00000000E+00  2.48785613E+00  6.93240594E-01  0.00000000E+00  2.48785613E+00
  6.93240594E-01  0.00000000E+00  2.48785613E+00  6.93240594E-01  0.00000000E+00
  2.48785613E+00  6.93240594E-01  0.00000000E+00  2.48785613E+00  6.93240594E-01
  0.00000000E+00  2.48785613E+00  6.93240594E-01  0.00000000E+00  2.48785613E+00
  6.93240594E-01  0.00000000E+00  2.48785613E+00  6.93240594E-01  0.00000000E+00
  2.48785613E+00  6.93240594E-01  0.00000000E+00  2.48785613E+00  6.93240594E-01
  0.00000000E+00  2.48785613E+00  6.93240594E-01  0.00000000E+00  9.21485200E-18
  1.73235132E+00  0.00000000E+00  9.21485200E-18  1.73235132E+00  0.00000000E+00
  9.21485200E-18  1.73235132E+00  0.00000000E+00  9.21485200E-18  1.73235132E+00
  0.00000000E+00  9.21485200E-18  1.73235132E+00  0.00000000E+00  9.21485200E-18
  1.73235132E+00  0.00000000E+00  9.21485200E-18  1.73235132E+00  0.00000000E+00
  9.21485200E-18  1.73235132E+00  0.00000000E+00  9.21485200E-18  1.73235132E+00
  0.00000000E+00  9.21485200E-18  1.73235132E+00  0.00000000E+00  9.21485200E-18
  1.73235132E+00  0.00000000E+00  9.21485200E-18  1.73235132E+00  0.00000000E+00
  9.21485200E-18  1.73235132E+00  0.00000000E+00  9.21485200E-18  1.73235132E+00
  0.00000000E+00 -1.87129038E+00 -8.69698743E-02  0.00000000E+00 -1.87129038E+00
 -8.69698743E-02  0.00000000E+00 -1.87129038E+00 -8.69698743E-02  0.00000000E+00
 -1.87129038E+00 -8.69698743E-02  0.00000000E+00 -1.87129038E+00 -8.69698743E-02
  0.00000000E+00 -1.87129038E+00 -8.69698743E-02  0.00000000E+00 -1.87129038E+00
 -8.69698743E-02  0.00000000E+00 -1.87129038E+00 -8.69698743E-02  0.00000000E+00
 -1.87129038E+00 -8.69698743E-02  0.00000000E+00 -1.87129038E+00 -8.69698743E-02
  0.00000000E+00 -1.87129038E+00 -8.69698743E-02  0.00000000E+00 -1.87129038E+00
 -8.69698743E-02  0.00000000E+00 -1.87129038E+00 -8.69698743E-02  0.00000000E+00
 -1.87129038E+00 -8.69698743E-02  0.00000000E+00 -1.10428096E+00 -2.21051905E+00
  0.00000000E+00 -1.10428096E+00 -2.21051905E+00  0.00000000E+00 -1.10428096E+00
 -2.21051905E+00  0.00000000E+00 -1.10428096E+00 -2.21051905E+00  0.00000000E+00
 -1.10428096E+00 -2.21051905E+00  0.00000000E+00 -1.10428096E+00 -2.21051905E+00
  0.00000000E+00 -1.10428096E+00 -2.21051905E+00  0.00000000E+00 -1.10428096E+00
 -2.21051905E+00  0.00000000E+00 -1.10428096E+00 -2.21051905E+00  0.00000000E+00
 -1.10428096E+00 -2.21051905E+00  0.00000000E+00 -1.10428096E+00 -2.21051905E+00
  0.00000000E+00 -1.10428096E+00 -2.21051905E+00  0.00000000E+00 -1.10428096E+00
 -2.21051905E+00  0.00000000E+00 -1.10428096E+00 -2.21051905E+00  0.00000000E+00
Num ILSW                                   I              100
ILSW                                       I   N=         100
           0           0           0           0           2           0
           0           0           0           0           0          -1
           5           0           0           0           2           0
           0           0           0           0           1           0
           1           0           0           0           0           0
           0           0      100000           0          -1           0
           0           0           0           0           0           0
           0           0           0           1           1           0
           0 -2000000000           1           0           0           0
           0           0           4          52           0           0
           0           0           0           0           0           0
           0           0           0           5           4           1
           0           0           0           0           0           0
           0           0           0           0           0           0
           0           0           0           0           0           0
           0           0           0           0           0           0
           0           0           0           0
Num RLSW                                   I               52
RLSW                                       R   N=          52
  1.00000000E+00  1.00000000E+00  1.00000000E+00  1.00000000E+00  1.00000000E+00
  0.00000000E+00  0.00000000E+00  1.00000000E+00  0.00000000E+00  0.00000000E+00
  0.00000000E+00  0.00000000E+00  1.00000000E+00  0.00000000E+00  0.00000000E+00
  0.00000000E+00  0.00000000E+00  1.00000000E+00  0.00000000E+00  0.00000000E+00
  0.00000000E+00  0.00000000E+00  1.00000000E+00  0.00000000E+00  0.00000000E+00
  0.00000000E+00  0.00000000E+00  1.00000000E+00  0.00000000E+00  0.00000000E+00
  0.00000000E+00  0.00000000E+00  1.00000000E+00  0.00000000E+00  0.00000000E+00
  0.00000000E+00  0.00000000E+00  0.00000000E+00  1.00000000E+00  1.00000000E+00
  0.00000000E+00  1.00000000E+00  0.00000000E+00  0.00000000E+00  0.00000000E+00
  0.00000000E+00  0.00000000E+00  0.00000000E+00  0.00000000E+00  0.00000000E+00
  0.00000000E+00  0.00000000E+00
MxBond                                     I                2
NBond                                      I   N=           5
           1           2           2           2           1
IBond                                      I   N=          10
           2           0           1           3           2           4
           3           5           4           0
RBond                                      R   N=          10
  1.00000000E+00  0.00000000E+00  1.00000000E+00  1.00000000E+00  1.00000000E+00
  1.00000000E+00  1.00000000E+00  2.00000000E+00  2.00000000E+00  0.00000000E+00
Virial Ratio                               R      2.002190313094181E+00
SCF Energy                                 R     -2.795057611083000E+02
MP2 Energy                                 R     -2.804550554454357E+02
Total Energy                               R     -2.804550554454357E+02
Post-SCF wavefunction norm                 R      1.583830542526059E+00
RMS Force                                  R      2.077855563843880E-03
RMS Density                                R      4.504559546937157E-09
NImag                                      I                0
Job Status                                 I                1
Nuclear derivative order                   I                2
External E-field                           R   N=          35
  0.00000000E+00  0.00000000E+00  0.00000000E+00  0.00000000E+00  0.00000000E+00
  0.00000000E+00  0.00000000E+00  0.00000000E+00  0.00000000E+00  0.00000000E+00
  0.00000000E+00  0.00000000E+00  0.00000000E+00  0.00000000E+00  0.00000000E+00
  0.00000000E+00  0.00000000E+00  0.00000000E+00  0.00000000E+00  0.00000000E+00
  0.00000000E+00  0.00000000E+00  0.00000000E+00  0.00000000E+00  0.00000000E+00
  0.00000000E+00  0.00000000E+00  0.00000000E+00  0.00000000E+00  0.00000000E+00
  0.00000000E+00  0.00000000E+00  0.00000000E+00  0.00000000E+00  0.00000000E+00
IOpCl                                      I                0
IROHF                                      I                0
Alpha Orbital Energies                     R   N=         207
 -2.07195827E+01 -2.06886112E+01 -2.06687238E+01 -1.58271187E+01 -1.64608562E+00
 -1.50642190E+00 -1.29391776E+00 -9.60331567E-01 -8.36646478E-01 -7.59798770E-01
 -7.40828342E-01 -6.38235676E-01 -6.19315647E-01 -6.18809129E-01 -5.06137473E-01
 -4.97734003E-01  3.54709559E-02  5.93074504E-02  9.49860289E-02  1.00277335E-01
  1.19291390E-01  1.22609580E-01  1.49300237E-01  1.53170859E-01  1.77329725E-01
  1.79628070E-01  1.89585510E-01  2.10770987E-01  2.17025206E-01  2.42194067E-01
  2.46298867E-01  2.68434899E-01  3.13792741E-01  3.18159064E-01  3.37608413E-01
  3.43998806E-01  3.48493412E-01  3.92836012E-01  4.50215673E-01  4.92112891E-01
  5.05780191E-01  5.18027022E-01  5.42423176E-01  5.60354554E-01  5.96761498E-01
  6.20859163E-01  6.38593203E-01  6.91592201E-01  7.15902022E-01  7.23798145E-01
  7.41744887E-01  7.65130452E-01  7.66973380E-01  7.95584377E-01  8.06316974E-01
  8.37132880E-01  8.43233553E-01  8.53310861E-01  8.84948699E-01  9.08373502E-01
  9.28687710E-01  9.49521681E-01  9.52930239E-01  1.01977953E+00  1.03642555E+00
  1.06788066E+00  1.07043953E+00  1.09734855E+00  1.14638394E+00  1.15607650E+00
  1.16970521E+00  1.22131375E+00  1.22841046E+00  1.24951683E+00  1.34717623E+00
  1.36168952E+00  1.36965315E+00  1.46836961E+00  1.48420212E+00  1.50196051E+00
  1.54730399E+00  1.59721106E+00  1.59811202E+00  1.60291021E+00  1.62970263E+00
  1.69399635E+00  1.74990234E+00  1.80036234E+00  1.82871764E+00  1.88751853E+00
  1.91141306E+00  1.93481427E+00  1.97888112E+00  1.98795942E+00  2.05314581E+00
  2.12575013E+00  2.13472881E+00  2.16999086E+00  2.19189580E+00  2.24211039E+00
  2.26080729E+00  2.29817901E+00  2.35710737E+00  2.36792004E+00  2.39064192E+00
  2.40424465E+00  2.43643552E+00  2.46962633E+00  2.48066163E+00  2.53146723E+00
  2.54213527E+00  2.54762045E+00  2.56137108E+00  2.61703677E+00  2.63259274E+00
  2.67200324E+00  2.67543844E+00  2.75194883E+00  2.80201184E+00  2.81146222E+00
  2.85359525E+00  2.91682727E+00  2.98635695E+00  3.04792696E+00  3.05020410E+00
  3.11804909E+00  3.12544023E+00  3.18047422E+00  3.22522870E+00  3.31380349E+00
  3.33149994E+00  3.35684548E+00  3.48490154E+00  3.67724497E+00  3.87126720E+00
  3.94587756E+00  4.19008372E+00  4.22084478E+00  4.22734879E+00  4.26885523E+00
  4.36772266E+00  4.49711553E+00  4.53129915E+00  4.55472879E+00  4.61468448E+00
  4.68941130E+00  4.81319216E+00  4.89775164E+00  4.91556300E+00  4.93634892E+00
  4.99894928E+00  5.00467666E+00  5.10846375E+00  5.13357852E+00  5.17617264E+00
  5.25360774E+00  5.25448623E+00  5.31825034E+00  5.34291486E+00  5.38377423E+00
  5.54553754E+00  5.64426117E+00  5.71092494E+00  5.89749618E+00  5.99551824E+00
  6.26511754E+00  6.30054931E+00  6.35339889E+00  6.37399928E+00  6.60325797E+00
  6.65276724E+00  6.66481976E+00  6.69286315E+00  6.72404329E+00  6.79351054E+00
  6.80864183E+00  6.84986523E+00  6.96908711E+00  7.03889511E+00  7.06644388E+00
  7.07394373E+00  7.12535228E+00  7.17520095E+00  7.18117628E+00  7.20755576E+00
  7.24745409E+00  7.25128773E+00  7.27350415E+00  7.35183191E+00  7.40380690E+00
  7.43812870E+00  7.44114317E+00  7.46541548E+00  7.55949374E+00  7.66306106E+00
  7.67930827E+00  7.79751375E+00  7.89133014E+00  7.95221168E+00  8.08490911E+00
  8.32434628E+00  8.49441433E+00  8.65199129E+00  1.36256374E+01  1.47921724E+01
  1.51233438E+01  1.58180993E+01
Alpha MO coefficients                      R   N=       42849
  7.13720109E-05 -3.60379477E-06 -1.06738157E-03  1.32809756E-05 -3.81504421E-05
  3.95755217E-05  0.00000000E+00 -5.30272426E-05 -2.51434442E-04  0.00000000E+00
  1.37163803E-05 -3.18101479E-04  0.00000000E+00  4.16437385E-05  0.00000000E+00
  0.00000000E+00 -2.88301795E-05  3.11006942E-05  2.20327336E-04  0.00000000E+00
  0.00000000E+00 -6.22529785E-05 -2.09518788E-04  3.11075835E-03 -1.02961440E-04
 -9.50956817E-05  3.41963540E-03  2.38870547E-03  1.03757811E-04 -5.44947112E-05
  0.00000000E+00 -7.29700586E-04  3.09802534E-04  0.00000000E+00 -1.94870362E-03
  1.09550548E-03  0.00000000E+00 -5.32143848E-04  4.26385583E-05  0.00000000E+00
  2.07948087E-05  0.00000000E+00  0.00000000E+00 -8.87770022E-06  4.09209608E-05
 -4.37626602E-04  0.00000000E+00  0.00000000E+00  4.38949695E-04 -6.46341308E-04
 -3.56972227E-04  0.00000000E+00  0.00000000E+00  5.22469045E-04 -7.16291639E-04
  0.00000000E+00  7.35778169E-05 -5.32782845E-05  0.00000000E+00  0.00000000E+00
 -2.77486547E-05  1.05325334E-04  0.00000000E+00  2.12279126E-04 -4.90308408E-05
  0.00000000E+00  0.00000000E+00 -1.60780737E-04  2.93451388E-04  9.76900757E-01
 -9.17845655E-03  4.34097396E-02  5.56590883E-04 -2.18188408E-03  4.51770856E-04
 -2.14908056E-03  0.00000000E+00 -3.19971694E-04  2.25141285E-03  0.00000000E+00
 -2.25416800E-03 -5.13098900E-04  0.00000000E+00 -2.08636882E-04  9.34111954E-05
  0.00000000E+00  6.06285405E-06  0.00000000E+00  0.00000000E+00 -5.82476609E-06
  3.54450248E-05  8.23346582E-04  0.00000000E+00  0.00000000E+00 -4.68360682E-04
 -1.75959319E-04 -1.43134834E-04  0.00000000E+00  0.00000000E+00 -5.52937240E-04
  3.40839137E-04  0.00000000E+00 -6.60367094E-06 -7.99615003E-05  0.00000000E+00
  0.00000000E+00 -8.44853039E-06  4.79150739E-05  0.00000000E+00  9.19413817E-05
  2.31342731E-06  0.00000000E+00  0.00000000E+00 -3.36131290E-04  3.76402583E-04
  1.04050198E-04  4.56200079E-04 -3.22219415E-04 -8.53751516E-04  3.73803683E-04
 -4.38192442E-05 -1.00409926E-04  0.00000000E+00  6.93159574E-04  1.11172834E-03
  0.00000000E+00 -7.83423357E-04 -6.19161094E-04  0.00000000E+00  1.94144197E-04
  2.13910868E-04  0.00000000E+00 -5.24547130E-05  0.00000000E+00  0.00000000E+00
  1.86861598E-05  9.35370208E-05 -4.13364772E-04  0.00000000E+00  0.00000000E+00
  3.87510727E-05  1.07981054E-03  2.53357884E-05  0.00000000E+00  0.00000000E+00
 -3.24490701E-04  4.49274285E-05  0.00000000E+00 -7.80280543E-05 -1.13832085E-04
  0.00000000E+00  0.00000000E+00 -9.67271782E-05  1.06501971E-04  0.00000000E+00
 -1.25673051E-04  4.63660496E-05  0.00000000E+00  0.00000000E+00  1.29464391E-05
  5.17485299E-04 -7.44024119E-04  4.27569062E-05 -7.26931767E-05  2.76431718E-04
 -1.67640661E-04 -2.98079454E-05 -4.15991428E-05  0.00000000E+00  1.71794262E-04
  2.53827351E-04  0.00000000E+00  5.36749096E-04  3.54934339E-04  0.00000000E+00
 -2.06654247E-04 -6.23569640E-05  0.00000000E+00 -1.25162915E-05  0.00000000E+00
  0.00000000E+00  2.82194655E-06  1.50476637E-05 -4.86293091E-06  0.00000000E+00
  0.00000000E+00 -1.60993799E-04  9.83333462E-06 -1.77620186E-05  0.00000000E+00
  0.00000000E+00 -1.83546435E-04 -3.60596465E-05  0.00000000E+00 -6.57034909E-06
 -9.03200732E-06  0.00000000E+00  0.00000000E+00 -1.98546801E-05  9.34481332E-06
  0.00000000E+00  4.13521657E-05  6.03557017E-05  0.00000000E+00  0.00000000E+00
  1.53070219E-04 -1.02611729E-04  3.32634183E-05  2.79225830E-06 -3.19405993E-05
 -3.02850138E-05  2.63697782E-05  1.21243249E-05  0.00000000E+00  2.49291003E-04
  4.38101602E-05  0.00000000E+00  1.25706694E-04  3.86471401E-05  0.00000000E+00
  9.37719106E-06  0.00000000E+00  0.00000000E+00 -4.69150911E-06  2.07288763E-05
  1.65336498E-06  0.00000000E+00  0.00000000E+00 -8.99518501E-05  8.92684637E-05
 -2.57069013E-04  2.27621477E-05 -1.42850764E-05 -5.88251295E-04  1.00005412E-04
  7.74368430E-06  1.29569929E-05  0.00000000E+00 -9.34539775E-07 -3.73585103E-05
  0.00000000E+00  1.87883480E-04  7.79128459E-05  0.00000000E+00 -3.60744540E-05
  5.64320968E-05  0.00000000E+00 -1.44569027E-06  0.00000000E+00  0.00000000E+00
 -8.41098671E-06 -1.27510203E-05  2.20235853E-05  0.00000000E+00  0.00000000E+00
  5.19415881E-05  1.14751204E-04  6.02258832E-05  0.00000000E+00  0.00000000E+00
 -4.58939183E-05 -4.54016241E-05  0.00000000E+00  7.49086604E-06  9.46828466E-06
  0.00000000E+00  0.00000000E+00 -1.22494747E-06 -2.60403757E-05  0.00000000E+00
 -1.23531109E-05 -3.47851684E-05  0.00000000E+00  0.00000000E+00  7.00051533E-07
 -2.32772682E-05  7.71032276E-04  1.93348140E-05 -1.78580646E-05  3.36921387E-04
 -3.73093185E-04  1.64726842E-05  2.76866587E-05  0.00000000E+00 -6.61508375E-05
 -1.56142620E-04  0.00000000E+00  2.03102136E-04 -2.14828384E-04  0.00000000E+00
 -1.54522089E-04  1.38719661E-04  0.00000000E+00 -3.94306532E-06  0.00000000E+00
  0.00000000E+00 -2.96856750E-05 -1.00164861E-05 -5.29087565E-05  0.00000000E+00
  0.00000000E+00  8.09260449E-05  1.22774604E-04 -6.89460782E-05  0.00000000E+00
  0.00000000E+00  4.36206987E-05  2.45038463E-05  0.00000000E+00  3.01584676E-06
  3.10870344E-06  0.00000000E+00  0.00000000E+00 -7.97724373E-06 -2.75726890E-06
  0.00000000E+00  3.23204772E-06 -2.42732073E-05  0.00000000E+00  0.00000000E+00
  9.98258823E-05 -1.53865545E-04  2.36745859E-04  1.35605538E-03 -1.45946033E-04
 -7.31276940E-04  9.11155651E-04  6.32258448E-05 -7.12516699E-05  0.00000000E+00
  5.72387325E-04 -2.08261865E-03  0.00000000E+00  9.63534863E-05  5.37862880E-04
  0.00000000E+00  1.86508535E-04 -3.06281218E-04  0.00000000E+00 -1.27807169E-04
  0.00000000E+00  0.00000000E+00 -2.03938169E-04 -1.58362973E-04 -4.58438006E-04
  0.00000000E+00  0.00000000E+00 -6.00441474E-04 -9.26297762E-04 -4.33165220E-05
  0.00000000E+00  0.00000000E+00  5.47465229E-05  1.31551705E-04  0.00000000E+00
  8.62508954E-06  3.68905889E-05  0.00000000E+00  0.00000000E+00 -2.45166997E-05
 -4.48402056E-06  0.00000000E+00 -1.36617032E-04  1.56956497E-04  0.00000000E+00
  0.00000000E+00 -3.17918686E-04 -3.95088850E-05  9.76645535E-01 -9.88469732E-03
  4.35757264E-02  3.71239731E-03 -8.96591572E-04 -4.42095827E-04  2.13441800E-03
  0.00000000E+00  5.12703182E-04 -2.50862475E-03  0.00000000E+00 -1.01225512E-04
  8.41878447E-04  0.00000000E+00  1.06137234E-04 -6.48925836E-05  0.00000000E+00
 -1.92986539E-04  0.00000000E+00  0.00000000E+00 -7.48034963E-05 -4.35926356E-05
  4.08821543E-04  0.00000000E+00  0.00000000E+00  8.59035794E-04  4.84808710E-04
 -2.00641547E-04  0.00000000E+00  0.00000000E+00 -1.58872680E-04 -3.71766086E-05
  0.00000000E+00 -5.75709561E-06  7.03042176E-05  0.00000000E+00  0.00000000E+00
 -2.71523071E-05  1.09015236E-05  0.00000000E+00 -8.68314258E-05  9.08313105E-05
  0.00000000E+00  0.00000000E+00 -1.72202810E-04  2.05653306E-04  3.66969715E-04
  1.83122125E-03  1.57813520E-03 -1.86973300E-05  5.19351436E-05  2.66095399E-04
  0.00000000E+00  4.31124086E-04  9.83554051E-04  0.00000000E+00 -1.55328356E-04
  2.20978539E-04  0.00000000E+00 -2.35513323E-05  0.00000000E+00  0.00000000E+00
  2.70308549E-05 -3.72592513E-05 -2.60234307E-04  0.00000000E+00  0.00000000E+00
 -3.24117841E-04  4.83093113E-04  9.76834504E-01 -9.20337132E-03  4.34590301E-02
  1.46963350E-04 -1.95728778E-03 -2.05609198E-03 -7.99946200E-04  0.00000000E+00
  2.09872562E-03  7.45988382E-04  0.00000000E+00 -3.85530179E-04  5.25437015E-04
  0.00000000E+00  2.39868423E-04 -2.80001731E-04  0.00000000E+00  3.28273722E-05
  0.00000000E+00  0.00000000E+00 -6.87028591E-05  7.06089416E-05  7.57449442E-04
  0.00000000E+00  0.00000000E+00 -2.33075348E-04  3.29512767E-04 -2.42736577E-04
  0.00000000E+00  0.00000000E+00  3.03673949E-04  4.89577535E-05  0.00000000E+00
 -8.12103566E-05  2.01404388E-06  0.00000000E+00  0.00000000E+00  1.45833646E-05