title                                                                   
Freq      RMP2-FC                                                     Aug-CC-pVTZ         
Number of atoms                            I                5
Info1-9                                    I   N=           9
          33          24           0           0           0         100
           6           2           1
Full Title                                 C   N=           1
title       
Route                                      C   N=           4
#p freq mp2/aug-cc-pvtz density=current         
Charge                                     I                0
Multiplicity                               I                1
Number of electrons                        I               32
Number of alpha electrons                  I               16
Number of beta electrons                   I               16
Number of basis functions                  I              207
Number of independent functions            I              207
Number of point charges in /Mol/           I                0
Number of translation vectors              I                0
Atomic numbers                             I   N=           5
           1           8           8           7           8
Nuclear charges                            R   N=           5
  1.00000000E+00  8.00000000E+00  8.00000000E+00  7.00000000E+00  8.00000000E+00
Current cartesian coordinates              R   N=          15
  2.10865723E+00 -1.11808277E+00  0.00000000E+00  2.49112295E+00  7.04307558E-01
  0.00000000E+00  1.25627450E-16  1.73556197E+00  0.00000000E+00 -1.86553968E+00
 -8.96555555E-02  0.00000000E+00 -1.12235788E+00 -2.22166057E+00  0.00000000E+00
Number of symbols in /Mol/                 I                0
Force Field                                I                0
Atom Types                                 C   N=           5
                                                            
Int Atom Types                             I   N=           5
           0           0           0           0           0
MM charges                                 R   N=           5
  0.00000000E+00  0.00000000E+00  0.00000000E+00  0.00000000E+00  0.00000000E+00
Integer atomic weights                     I   N=           5
           1          16          16          14          16
Real atomic weights                        R   N=           5
  1.00782504E+00  1.59949146E+01  1.59949146E+01  1.40030740E+01  1.59949146E+01
Atom fragment info                         I   N=           5
           0           0           0           0           0
Atom residue num                           I   N=           5
           0           0           0           0           0
Nuclear spins                              I   N=           5
           1           0           0           2           0
Nuclear ZEff                               R   N=           5
 -1.00000000E+00 -5.60000000E+00 -5.60000000E+00 -4.55000000E+00 -5.60000000E+00
Nuclear ZNuc                               R   N=           5
  1.00000000E+00  8.00000000E+00  8.00000000E+00  7.00000000E+00  8.00000000E+00
Nuclear QMom                               R   N=           5
  0.00000000E+00  0.00000000E+00  0.00000000E+00  2.04400000E+00  0.00000000E+00
Nuclear GFac                               R   N=           5
  2.79284600E+00  0.00000000E+00  0.00000000E+00  4.03761000E-01  0.00000000E+00
MicOpt                                     I   N=           5
          -1          -1          -1          -1          -1
Number of residues                         I                0
Number of secondary structures             I                0
SymInf integers                            I   N=          26
           1           2           1           1           1           1
           1          -1           0           0           0           0
           0           0           0           0           0           0
           0           0           0           0           0           0
           0           0
RotTr to input orientation                 R   N=          12
 -9.78679007E-01  0.00000000E+00  2.05395720E-01  2.05395720E-01  0.00000000E+00
  9.78679007E-01  0.00000000E+00  1.00000000E+00  0.00000000E+00  2.29334797E+00
  0.00000000E+00  6.61134965E-01
Number of contracted shells                I               65
Number of primitive shells                 I              119
Pure/Cartesian d shells                    I                0
Pure/Cartesian f shells                    I                0
Highest angular momentum                   I                3
Largest degree of contraction              I                7
Shell types                                I   N=          65
           0           0           0           0           1           1
           1          -2          -2           0           0           0
           0           0           1           1           1           1
          -2          -2          -2          -3          -3           0
           0           0           0           0           1           1
           1           1          -2          -2          -2          -3
          -3           0           0           0           0           0
           1           1           1           1          -2          -2
          -2          -3          -3           0           0           0
           0           0           1           1           1           1
          -2          -2          -2          -3          -3
Number of primitives per shell             I   N=          65
           3           1           1           1           1           1
           1           1           1           7           6           1
           1           1           3           1           1           1
           1           1           1           1           1           7
           6           1           1           1           3           1
           1           1           1           1           1           1
           1           7           6           1           1           1
           3           1           1           1           1           1
           1           1           1           7           6           1
           1           1           3           1           1           1
           1           1           1           1           1
Shell to atom map                          I   N=          65
           1           1           1           1           1           1
           1           1           1           2           2           2
           2           2           2           2           2           2
           2           2           2           2           2           3
           3           3           3           3           3           3
           3           3           3           3           3           3
           3           4           4           4           4           4
           4           4           4           4           4           4
           4           4           4           5           5           5
           5           5           5           5           5           5
           5           5           5           5           5
Primitive exponents                        R   N=         119
  3.38700000E+01  5.09500000E+00  1.15900000E+00  3.25800000E-01  1.02700000E-01
  2.52600000E-02  1.40700000E+00  3.88000000E-01  1.02000000E-01  1.05700000E+00
  2.47000000E-01  1.53300000E+04  2.29900000E+03  5.22400000E+02  1.47300000E+02
  4.75500000E+01  1.67600000E+01  6.20700000E+00  5.22400000E+02  1.47300000E+02
  4.75500000E+01  1.67600000E+01  6.20700000E+00  6.88200000E-01  1.75200000E+00
  2.38400000E-01  7.37600000E-02  3.44600000E+01  7.74900000E+00  2.28000000E+00
  7.15600000E-01  2.14000000E-01  5.97400000E-02  2.31400000E+00  6.45000000E-01
  2.14000000E-01  1.42800000E+00  5.00000000E-01  1.53300000E+04  2.29900000E+03
  5.22400000E+02  1.47300000E+02  4.75500000E+01  1.67600000E+01  6.20700000E+00
  5.22400000E+02  1.47300000E+02  4.75500000E+01  1.67600000E+01  6.20700000E+00
  6.88200000E-01  1.75200000E+00  2.38400000E-01  7.37600000E-02  3.44600000E+01
  7.74900000E+00  2.28000000E+00  7.15600000E-01  2.14000000E-01  5.97400000E-02
  2.31400000E+00  6.45000000E-01  2.14000000E-01  1.42800000E+00  5.00000000E-01
  1.14200000E+04  1.71200000E+03  3.89300000E+02  1.10000000E+02  3.55700000E+01
  1.25400000E+01  4.64400000E+00  3.89300000E+02  1.10000000E+02  3.55700000E+01
  1.25400000E+01  4.64400000E+00  5.11800000E-01  1.29300000E+00  1.78700000E-01
  5.76000000E-02  2.66300000E+01  5.94800000E+00  1.74200000E+00  5.55000000E-01
  1.72500000E-01  4.91000000E-02  1.65400000E+00  4.69000000E-01  1.51000000E-01
  1.09300000E+00  3.64000000E-01  1.53300000E+04  2.29900000E+03  5.22400000E+02
  1.47300000E+02  4.75500000E+01  1.67600000E+01  6.20700000E+00  5.22400000E+02
  1.47300000E+02  4.75500000E+01  1.67600000E+01  6.20700000E+00  6.88200000E-01
  1.75200000E+00  2.38400000E-01  7.37600000E-02  3.44600000E+01  7.74900000E+00
  2.28000000E+00  7.15600000E-01  2.14000000E-01  5.97400000E-02  2.31400000E+00
  6.45000000E-01  2.14000000E-01  1.42800000E+00  5.00000000E-01
Contraction coefficients                   R   N=         119
  2.54948632E-02  1.90362766E-01  8.52162022E-01  1.00000000E+00  1.00000000E+00
  1.00000000E+00  1.00000000E+00  1.00000000E+00  1.00000000E+00  1.00000000E+00
  1.00000000E+00  5.19808943E-04  4.02025621E-03  2.07128267E-02  8.10105536E-02
  2.35962985E-01  4.42653446E-01  3.57064423E-01 -4.42115008E-05 -1.22591041E-03
 -1.05517725E-02 -6.74452633E-02 -1.71198607E-01  1.07329856E+00  1.00000000E+00
  1.00000000E+00  1.00000000E+00  4.11634896E-02  2.57762836E-01  8.02419274E-01
  1.00000000E+00  1.00000000E+00  1.00000000E+00  1.00000000E+00  1.00000000E+00
  1.00000000E+00  1.00000000E+00  1.00000000E+00  5.19808943E-04  4.02025621E-03
  2.07128267E-02  8.10105536E-02  2.35962985E-01  4.42653446E-01  3.57064423E-01
 -4.42115008E-05 -1.22591041E-03 -1.05517725E-02 -6.74452633E-02 -1.71198607E-01
  1.07329856E+00  1.00000000E+00  1.00000000E+00  1.00000000E+00  4.11634896E-02
  2.57762836E-01  8.02419274E-01  1.00000000E+00  1.00000000E+00  1.00000000E+00
  1.00000000E+00  1.00000000E+00  1.00000000E+00  1.00000000E+00  1.00000000E+00
  5.34563860E-04  4.13435660E-03  2.12335358E-02  8.25006224E-02  2.38138871E-01
  4.42551547E-01  3.53757422E-01 -4.89867350E-05 -1.19527323E-03 -1.03490714E-02
 -6.48680190E-02 -1.71552477E-01  1.07289568E+00  1.00000000E+00  1.00000000E+00
  1.00000000E+00  3.98072123E-02  2.49002660E-01  8.10479727E-01  1.00000000E+00
  1.00000000E+00  1.00000000E+00  1.00000000E+00  1.00000000E+00  1.00000000E+00
  1.00000000E+00  1.00000000E+00  5.19808943E-04  4.02025621E-03  2.07128267E-02
  8.10105536E-02  2.35962985E-01  4.42653446E-01  3.57064423E-01 -4.42115008E-05
 -1.22591041E-03 -1.05517725E-02 -6.74452633E-02 -1.71198607E-01  1.07329856E+00
  1.00000000E+00  1.00000000E+00  1.00000000E+00  4.11634896E-02  2.57762836E-01
  8.02419274E-01  1.00000000E+00  1.00000000E+00  1.00000000E+00  1.00000000E+00
  1.00000000E+00  1.00000000E+00  1.00000000E+00  1.00000000E+00
Coordinates of each shell                  R   N=         195
  2.10865723E+00 -1.11808277E+00  0.00000000E+00  2.10865723E+00 -1.11808277E+00
  0.00000000E+00  2.10865723E+00 -1.11808277E+00  0.00000000E+00  2.10865723E+00
 -1.11808277E+00  0.00000000E+00  2.10865723E+00 -1.11808277E+00  0.00000000E+00
  2.10865723E+00 -1.11808277E+00  0.00000000E+00  2.10865723E+00 -1.11808277E+00
  0.00000000E+00  2.10865723E+00 -1.11808277E+00  0.00000000E+00  2.10865723E+00
 -1.11808277E+00  0.00000000E+00  2.49112295E+00  7.04307558E-01  0.00000000E+00
  2.49112295E+00  7.04307558E-01  0.00000000E+00  2.49112295E+00  7.04307558E-01
  0.00000000E+00  2.49112295E+00  7.04307558E-01  0.00000000E+00  2.49112295E+00
  7.04307558E-01  0.00000000E+00  2.49112295E+00  7.04307558E-01  0.00000000E+00
  2.49112295E+00  7.04307558E-01  0.00000000E+00  2.49112295E+00  7.04307558E-01
  0.00000000E+00  2.49112295E+00  7.04307558E-01  0.00000000E+00  2.49112295E+00
  7.04307558E-01  0.00000000E+00  2.49112295E+00  7.04307558E-01  0.00000000E+00
  2.49112295E+00  7.04307558E-01  0.00000000E+00  2.49112295E+00  7.04307558E-01
  0.00000000E+00  2.49112295E+00  7.04307558E-01  0.00000000E+00 -3.49343505E-18
  1.73556197E+00  0.00000000E+00 -3.49343505E-18  1.73556197E+00  0.00000000E+00
 -3.49343505E-18  1.73556197E+00  0.00000000E+00 -3.49343505E-18  1.73556197E+00
  0.00000000E+00 -3.49343505E-18  1.73556197E+00  0.00000000E+00 -3.49343505E-18
  1.73556197E+00  0.00000000E+00 -3.49343505E-18  1.73556197E+00  0.00000000E+00
 -3.49343505E-18  1.73556197E+00  0.00000000E+00 -3.49343505E-18  1.73556197E+00
  0.00000000E+00 -3.49343505E-18  1.73556197E+00  0.00000000E+00 -3.49343505E-18
  1.73556197E+00  0.00000000E+00 -3.49343505E-18  1.73556197E+00  0.00000000E+00
 -3.49343505E-18  1.73556197E+00  0.00000000E+00 -3.49343505E-18  1.73556197E+00
  0.00000000E+00 -1.86553968E+00 -8.96555555E-02  0.00000000E+00 -1.86553968E+00
 -8.96555555E-02  0.00000000E+00 -1.86553968E+00 -8.96555555E-02  0.00000000E+00
 -1.86553968E+00 -8.96555555E-02  0.00000000E+00 -1.86553968E+00 -8.96555555E-02
  0.00000000E+00 -1.86553968E+00 -8.96555555E-02  0.00000000E+00 -1.86553968E+00
 -8.96555555E-02  0.00000000E+00 -1.86553968E+00 -8.96555555E-02  0.00000000E+00
 -1.86553968E+00 -8.96555555E-02  0.00000000E+00 -1.86553968E+00 -8.96555555E-02
  0.00000000E+00 -1.86553968E+00 -8.96555555E-02  0.00000000E+00 -1.86553968E+00
 -8.96555555E-02  0.00000000E+00 -1.86553968E+00 -8.96555555E-02  0.00000000E+00
 -1.86553968E+00 -8.96555555E-02  0.00000000E+00 -1.12235788E+00 -2.22166057E+00
  0.00000000E+00 -1.12235788E+00 -2.22166057E+00  0.00000000E+00 -1.12235788E+00
 -2.22166057E+00  0.00000000E+00 -1.12235788E+00 -2.22166057E+00  0.00000000E+00
 -1.12235788E+00 -2.22166057E+00  0.00000000E+00 -1.12235788E+00 -2.22166057E+00
  0.00000000E+00 -1.12235788E+00 -2.22166057E+00  0.00000000E+00 -1.12235788E+00
 -2.22166057E+00  0.00000000E+00 -1.12235788E+00 -2.22166057E+00  0.00000000E+00
 -1.12235788E+00 -2.22166057E+00  0.00000000E+00 -1.12235788E+00 -2.22166057E+00
  0.00000000E+00 -1.12235788E+00 -2.22166057E+00  0.00000000E+00 -1.12235788E+00
 -2.22166057E+00  0.00000000E+00 -1.12235788E+00 -2.22166057E+00  0.00000000E+00
Num ILSW                                   I              100
ILSW                                       I   N=         100
           0           0           0           0           2           0
           0           0           0           0           0          -1
           5           0           0           0           2           0
           0           0           0           0           1           0
           1           0           0           0           0           0
           0           0      100000           0          -1           0
           0           0           0           0           0           0
           0           0           0           1           1           0
           0 -2000000000           1           0           0           0
           0           0           4          52           0           0
           0           0           0           0           0           0
           0           0           0           5           4           1
           0           0           0           0           0           0
           0           0           0           0           0           0
           0           0           0           0           0           0
           0           0           0           0           0           0
           0           0           0           0
Num RLSW                                   I               52
RLSW                                       R   N=          52
  1.00000000E+00  1.00000000E+00  1.00000000E+00  1.00000000E+00  1.00000000E+00
  0.00000000E+00  0.00000000E+00  1.00000000E+00  0.00000000E+00  0.00000000E+00
  0.00000000E+00  0.00000000E+00  1.00000000E+00  0.00000000E+00  0.00000000E+00
  0.00000000E+00  0.00000000E+00  1.00000000E+00  0.00000000E+00  0.00000000E+00
  0.00000000E+00  0.00000000E+00  1.00000000E+00  0.00000000E+00  0.00000000E+00
  0.00000000E+00  0.00000000E+00  1.00000000E+00  0.00000000E+00  0.00000000E+00
  0.00000000E+00  0.00000000E+00  1.00000000E+00  0.00000000E+00  0.00000000E+00
  0.00000000E+00  0.00000000E+00  0.00000000E+00  1.00000000E+00  1.00000000E+00
  0.00000000E+00  1.00000000E+00  0.00000000E+00  0.00000000E+00  0.00000000E+00
  0.00000000E+00  0.00000000E+00  0.00000000E+00  0.00000000E+00  0.00000000E+00
  0.00000000E+00  0.00000000E+00
MxBond                                     I                2
NBond                                      I   N=           5
           1           2           2           2           1
IBond                                      I   N=          10
           2           0           1           3           2           4
           3           5           4           0
RBond                                      R   N=          10
  1.00000000E+00  0.00000000E+00  1.00000000E+00  1.00000000E+00  1.00000000E+00
  1.00000000E+00  1.00000000E+00  2.00000000E+00  2.00000000E+00  0.00000000E+00
Virial Ratio                               R      2.002250521635466E+00
SCF Energy                                 R     -2.795063885764216E+02
MP2 Energy                                 R     -2.804551707934193E+02
Total Energy                               R     -2.804551707934193E+02
Post-SCF wavefunction norm                 R      1.583781681841110E+00
RMS Force                                  R      1.863003526295799E-03
RMS Density                                R      4.340359508125841E-09
NImag                                      I                0
Job Status                                 I                1
Nuclear derivative order                   I                2
External E-field                           R   N=          35
  0.00000000E+00  0.00000000E+00  0.00000000E+00  0.00000000E+00  0.00000000E+00
  0.00000000E+00  0.00000000E+00  0.00000000E+00  0.00000000E+00  0.00000000E+00
  0.00000000E+00  0.00000000E+00  0.00000000E+00  0.00000000E+00  0.00000000E+00
  0.00000000E+00  0.00000000E+00  0.00000000E+00  0.00000000E+00  0.00000000E+00
  0.00000000E+00  0.00000000E+00  0.00000000E+00  0.00000000E+00  0.00000000E+00
  0.00000000E+00  0.00000000E+00  0.00000000E+00  0.00000000E+00  0.00000000E+00
  0.00000000E+00  0.00000000E+00  0.00000000E+00  0.00000000E+00  0.00000000E+00
IOpCl                                      I                0
IROHF                                      I                0
Alpha Orbital Energies                     R   N=         207
 -2.07206444E+01 -2.06876589E+01 -2.06688099E+01 -1.58254933E+01 -1.64327089E+00
 -1.50628938E+00 -1.29413479E+00 -9.60613825E-01 -8.33645073E-01 -7.58757817E-01
 -7.39837051E-01 -6.38519976E-01 -6.19497974E-01 -6.18919602E-01 -5.03253662E-01
 -4.97969273E-01  3.49946624E-02  6.07210843E-02  9.51103168E-02  1.00505676E-01
  1.19737630E-01  1.22656779E-01  1.49052836E-01  1.51907931E-01  1.77652511E-01
  1.80360864E-01  1.89618261E-01  2.11080108E-01  2.16728447E-01  2.42588285E-01
  2.46352680E-01  2.68475899E-01  3.11706904E-01  3.15856671E-01  3.38114453E-01
  3.43147275E-01  3.46315541E-01  3.92635206E-01  4.47542466E-01  4.88606890E-01
  5.04669098E-01  5.18852708E-01  5.44317291E-01  5.61929206E-01  5.99212161E-01
  6.20682138E-01  6.39350637E-01  6.89333131E-01  7.17289001E-01  7.23932851E-01
  7.40390059E-01  7.64639708E-01  7.67485584E-01  7.95668596E-01  8.05207826E-01
  8.40093091E-01  8.43154408E-01  8.51111653E-01  8.84908611E-01  9.07030401E-01
  9.28303206E-01  9.48605386E-01  9.54485696E-01  1.01803313E+00  1.03181817E+00
  1.05745573E+00  1.06535972E+00  1.09366909E+00  1.14291041E+00  1.15584231E+00
  1.17125779E+00  1.22113199E+00  1.22684482E+00  1.24609714E+00  1.35151572E+00
  1.36339662E+00  1.37065805E+00  1.46903753E+00  1.48412889E+00  1.50634703E+00
  1.54140768E+00  1.59238206E+00  1.59671622E+00  1.60525974E+00  1.62849065E+00
  1.69572224E+00  1.74033216E+00  1.80137870E+00  1.82872058E+00  1.88757516E+00
  1.89652072E+00  1.92769634E+00  1.97995617E+00  1.99056816E+00  2.04998686E+00
  2.12181512E+00  2.13018988E+00  2.16457551E+00  2.18650258E+00  2.24239384E+00
  2.25963126E+00  2.29455697E+00  2.35199392E+00  2.36309197E+00  2.38648736E+00
  2.40197861E+00  2.43370092E+00  2.47000914E+00  2.47889374E+00  2.52731366E+00
  2.53774163E+00  2.54672143E+00  2.55724019E+00  2.61314293E+00  2.62824819E+00
  2.67106346E+00  2.67125558E+00  2.75579344E+00  2.80890516E+00  2.81260594E+00
  2.84193619E+00  2.91755789E+00  2.97886938E+00  3.04839638E+00  3.05335652E+00
  3.11621424E+00  3.11726717E+00  3.17239386E+00  3.21295445E+00  3.30664261E+00
  3.33396358E+00  3.36036764E+00  3.48069091E+00  3.67752678E+00  3.86899266E+00
  3.92630820E+00  4.18155166E+00  4.21888324E+00  4.21979282E+00  4.26638968E+00
  4.36649623E+00  4.50098115E+00  4.51570232E+00  4.55840544E+00  4.59984269E+00
  4.69236933E+00  4.80882660E+00  4.90252241E+00  4.91289613E+00  4.94303594E+00
  4.99645721E+00  5.00492640E+00  5.10799585E+00  5.13424275E+00  5.17738347E+00
  5.24862772E+00  5.25606524E+00  5.31654641E+00  5.34110161E+00  5.35349446E+00
  5.54380384E+00  5.64341392E+00  5.70260870E+00  5.88557856E+00  6.00086964E+00
  6.26425874E+00  6.29605708E+00  6.35974712E+00  6.37641723E+00  6.59857833E+00
  6.65174490E+00  6.65840204E+00  6.68573664E+00  6.72418701E+00  6.80437554E+00
  6.80623202E+00  6.84167813E+00  6.96931493E+00  7.01944280E+00  7.06620162E+00
  7.08029867E+00  7.14062722E+00  7.16664364E+00  7.17532268E+00  7.20288242E+00
  7.24487182E+00  7.24527508E+00  7.27004385E+00  7.34839357E+00  7.39552115E+00
  7.42436761E+00  7.44248485E+00  7.46214417E+00  7.55958392E+00  7.65698439E+00
  7.66360748E+00  7.79438893E+00  7.88267067E+00  7.95275321E+00  8.05773057E+00
  8.30498024E+00  8.50212316E+00  8.65239644E+00  1.36135065E+01  1.47619499E+01
  1.51013800E+01  1.57417708E+01
Alpha MO coefficients                      R   N=       42849
  6.53301162E-05 -4.47490081E-05 -1.11426345E-03  1.04010194E-05 -5.19806215E-05
  4.22197741E-05  0.00000000E+00 -8.42806959E-05 -2.98742673E-04  0.00000000E+00
  2.16497124E-06 -3.47655660E-04  0.00000000E+00  4.30799342E-05  0.00000000E+00
  0.00000000E+00 -2.51220162E-05  1.27184322E-05  2.26094128E-04  0.00000000E+00
  0.00000000E+00 -3.76383672E-05 -2.05702563E-04  3.04930856E-03 -9.54915615E-05
 -1.01168170E-04  3.57638741E-03  2.48324481E-03  1.03656720E-04 -5.25262511E-05
  0.00000000E+00 -7.34959875E-04  2.80225367E-04  0.00000000E+00 -2.00213589E-03
  1.09431616E-03  0.00000000E+00 -5.38008053E-04  3.89439067E-05  0.00000000E+00
  2.05571811E-05  0.00000000E+00  0.00000000E+00 -9.23287108E-06  4.41302436E-05
 -4.45093436E-04  0.00000000E+00  0.00000000E+00  4.34005835E-04 -6.58163878E-04
 -3.65660740E-04  0.00000000E+00  0.00000000E+00  5.52045682E-04 -7.34915847E-04
  0.00000000E+00  7.47509120E-05 -5.18839119E-05  0.00000000E+00  0.00000000E+00
 -2.86866932E-05  1.07549020E-04  0.00000000E+00  2.07551729E-04 -5.07682061E-05
  0.00000000E+00  0.00000000E+00 -1.74234551E-04  2.99085077E-04  9.76906130E-01
 -9.17168539E-03  4.34039765E-02  5.08787080E-04 -2.21202170E-03  4.63346824E-04
 -2.14563567E-03  0.00000000E+00 -3.33445224E-04  2.25161843E-03  0.00000000E+00
 -2.33640455E-03 -4.88348846E-04  0.00000000E+00 -2.24949220E-04  9.75305521E-05
  0.00000000E+00  7.61664485E-06  0.00000000E+00  0.00000000E+00 -4.49879975E-06
  3.76716030E-05  8.27913657E-04  0.00000000E+00  0.00000000E+00 -4.73382936E-04
 -1.76141230E-04 -1.34119707E-04  0.00000000E+00  0.00000000E+00 -5.48666937E-04
  3.55627318E-04  0.00000000E+00 -6.21232731E-06 -7.88791923E-05  0.00000000E+00
  0.00000000E+00 -9.40688059E-06  4.85085864E-05  0.00000000E+00  9.33329061E-05
 -6.37197683E-07  0.00000000E+00  0.00000000E+00 -3.43467345E-04  3.76224647E-04
  1.04341939E-04  4.58241895E-04 -3.22992451E-04 -8.23715186E-04  3.59603071E-04
 -4.28322331E-05 -1.00517421E-04  0.00000000E+00  6.93657880E-04  1.11610358E-03
  0.00000000E+00 -8.02316046E-04 -7.20132496E-04  0.00000000E+00  1.90908835E-04
  2.09348293E-04  0.00000000E+00 -5.23762463E-05  0.00000000E+00  0.00000000E+00
  1.97799796E-05  9.27015234E-05 -4.15254425E-04  0.00000000E+00  0.00000000E+00
  2.58462852E-05  1.08734107E-03  2.75785011E-05  0.00000000E+00  0.00000000E+00
 -3.35958272E-04  2.40055584E-05  0.00000000E+00 -7.78709072E-05 -1.14612789E-04
  0.00000000E+00  0.00000000E+00 -9.73098984E-05  1.05438225E-04  0.00000000E+00
 -1.20926207E-04  4.95840736E-05  0.00000000E+00  0.00000000E+00  1.25786645E-05
  5.27298366E-04 -6.90282597E-04  3.10061641E-05 -7.18670071E-05  1.73844092E-04
 -1.76642204E-04 -3.00171196E-05 -4.27917462E-05  0.00000000E+00  1.74534002E-04
  2.51093008E-04  0.00000000E+00  5.72500739E-04  3.37890226E-04  0.00000000E+00
 -2.08170458E-04 -6.30760591E-05  0.00000000E+00 -1.21055808E-05  0.00000000E+00
  0.00000000E+00  4.44607423E-06  1.31954549E-05 -7.49362277E-06  0.00000000E+00
  0.00000000E+00 -1.70575503E-04  2.51516634E-05 -3.11813024E-05  0.00000000E+00
  0.00000000E+00 -1.73863982E-04 -1.83312930E-05  0.00000000E+00 -6.38218694E-06
 -1.05277852E-05  0.00000000E+00  0.00000000E+00 -2.25815923E-05  8.44638228E-06
  0.00000000E+00  4.03667270E-05  5.85983239E-05  0.00000000E+00  0.00000000E+00
  1.48781264E-04 -1.05108545E-04  4.16053611E-05  6.28194686E-05 -1.31464062E-04
 -3.03132541E-05  1.44609042E-05  7.47706780E-06  0.00000000E+00  2.48990060E-04
  7.59588390E-05  0.00000000E+00  1.33600680E-04  3.05593611E-05  0.00000000E+00
  1.54679080E-05  0.00000000E+00  0.00000000E+00 -1.57898917E-05  1.36937740E-05
  2.53696444E-05  0.00000000E+00  0.00000000E+00 -1.07615013E-04  5.67709930E-05
 -2.52047027E-04  1.91478118E-05 -1.53977785E-05 -5.66005289E-04  1.60582766E-04
  7.53948384E-06  1.37522281E-05  0.00000000E+00  1.06616331E-06 -3.90804540E-05
  0.00000000E+00  1.87816631E-04  1.21554516E-04  0.00000000E+00 -4.84885759E-05
  4.65964929E-05  0.00000000E+00 -7.13199545E-07  0.00000000E+00  0.00000000E+00
 -8.69116655E-06 -1.27303462E-05  1.77201343E-05  0.00000000E+00  0.00000000E+00
  5.03960870E-05  1.10204691E-04  5.80529702E-05  0.00000000E+00  0.00000000E+00
 -2.79723435E-05 -7.46095605E-05  0.00000000E+00  7.92574439E-06  1.05688424E-05
  0.00000000E+00  0.00000000E+00 -1.32181510E-06 -2.32417849E-05  0.00000000E+00
 -1.24602294E-05 -3.28038990E-05  0.00000000E+00  0.00000000E+00 -3.50841650E-06
 -2.17917207E-05  7.15661579E-04  2.03189389E-05 -2.21737017E-05  3.07457886E-04
 -3.83286289E-04  1.72949365E-05  2.94754279E-05  0.00000000E+00 -6.86879362E-05
 -1.60615659E-04  0.00000000E+00  1.76044615E-04 -2.20961849E-04  0.00000000E+00
 -1.54288430E-04  1.42740702E-04  0.00000000E+00 -3.82828286E-06  0.00000000E+00
  0.00000000E+00 -2.78748786E-05 -1.07537785E-05 -5.49259933E-05  0.00000000E+00
  0.00000000E+00  6.82508482E-05  1.29096192E-04 -6.76882103E-05  0.00000000E+00
  0.00000000E+00  3.48597842E-05  2.36591412E-05  0.00000000E+00  3.72091262E-06
  5.01960702E-06  0.00000000E+00  0.00000000E+00 -6.48857114E-06 -1.12980469E-06
  0.00000000E+00  3.15383271E-06 -2.55428573E-05  0.00000000E+00  0.00000000E+00
  1.02601190E-04 -1.49361327E-04  2.37549860E-04  1.36245908E-03 -1.45594733E-04
 -6.78984753E-04  9.04964696E-04  6.36773284E-05 -7.01740536E-05  0.00000000E+00
  5.52638674E-04 -2.10109246E-03  0.00000000E+00  1.14008100E-04  5.16410025E-04
  0.00000000E+00  1.80560691E-04 -3.11688275E-04  0.00000000E+00 -1.28208968E-04
  0.00000000E+00  0.00000000E+00 -2.06040302E-04 -1.54787698E-04 -4.58578891E-04
  0.00000000E+00  0.00000000E+00 -6.26558668E-04 -9.18239570E-04 -4.16787232E-05
  0.00000000E+00  0.00000000E+00  5.43476695E-05  1.18569673E-04  0.00000000E+00
  9.22224240E-06  3.81382683E-05  0.00000000E+00  0.00000000E+00 -2.47937905E-05
 -3.70736336E-06  0.00000000E+00 -1.32648702E-04  1.56083951E-04  0.00000000E+00
  0.00000000E+00 -3.22503941E-04 -3.25947168E-05  9.76648274E-01 -9.88902998E-03
  4.35715895E-02  3.68793595E-03 -8.96214722E-04 -4.21963019E-04  2.14032152E-03
  0.00000000E+00  4.80994818E-04 -2.51870058E-03  0.00000000E+00 -5.64893360E-05
  8.05239697E-04  0.00000000E+00  1.07328243E-04 -6.53684441E-05  0.00000000E+00
 -1.93323388E-04  0.00000000E+00  0.00000000E+00 -7.53120979E-05 -4.35873655E-05
  4.09873793E-04  0.00000000E+00  0.00000000E+00  8.75130389E-04  4.65943808E-04
 -2.05159486E-04  0.00000000E+00  0.00000000E+00 -1.31916775E-04 -3.45052750E-05
  0.00000000E+00 -4.01015150E-06  7.05383664E-05  0.00000000E+00  0.00000000E+00
 -2.95614115E-05  1.13403897E-05  0.00000000E+00 -8.85025941E-05  9.29484915E-05
  0.00000000E+00  0.00000000E+00 -1.59639224E-04  2.13337710E-04  3.78149545E-04
  1.98244296E-03  1.34501297E-03 -2.09579833E-05  4.87658611E-05  2.68839139E-04
  0.00000000E+00  3.94314487E-04  1.03286055E-03  0.00000000E+00 -1.16715050E-04
  2.41090249E-04  0.00000000E+00 -2.29412661E-05  0.00000000E+00  0.00000000E+00
  3.16664073E-05 -2.79646938E-05 -2.14877004E-04  0.00000000E+00  0.00000000E+00
 -3.49370359E-04  4.00303559E-04  9.76834932E-01 -9.18665259E-03  4.34643170E-02
  1.52498308E-04 -1.91212399E-03 -2.04101610E-03 -8.47084335E-04  0.00000000E+00
  2.07660227E-03  7.82344241E-04  0.00000000E+00 -4.18868177E-04  6.53336589E-04
  0.00000000E+00  2.26252608E-04 -2.97452693E-04  0.00000000E+00  3.11159944E-05
  0.00000000E+00  0.00000000E+00 -7.41722805E-05  6.20695632E-05  7.65702683E-04
  0.00000000E+00  0.00000000E+00 -2.09611579E-04  3.51880654E-04 -2.36266239E-04
  0.00000000E+00  0.00000000E+00  3.41050316E-04  3.77991715E-06  0.00000000E+00
 -8.03370180E-05  1.63709594E-06  0.00000000E+00  0.00000000E+00  1.66230559E-05