title                                                                   
Freq      RMP2-FC                                                     Aug-CC-pVTZ         
Number of atoms                            I                5
Info1-9                                    I   N=           9
          33          24           0           0           0         100
           6           2           1
Full Title                                 C   N=           1
title       
Route                                      C   N=           4
#p freq mp2/aug-cc-pvtz density=current         
Charge                                     I                0
Multiplicity                               I                1
Number of electrons                        I               32
Number of alpha electrons                  I               16
Number of beta electrons                   I               16
Number of basis functions                  I              207
Number of independent functions            I              207
Number of point charges in /Mol/           I                0
Number of translation vectors              I                0
Atomic numbers                             I   N=           5
           1           8           8           7           8
Nuclear charges                            R   N=           5
  1.00000000E+00  8.00000000E+00  8.00000000E+00  7.00000000E+00  8.00000000E+00
Current cartesian coordinates              R   N=          15
  2.09414821E+00 -1.12821396E+00  4.93038066E-32  2.48585739E+00  6.92211936E-01
  4.93038066E-32 -1.07823827E-16  1.73609518E+00 -1.23259516E-32 -1.87477839E+00
 -7.96314749E-02 -9.86076132E-32 -1.10719483E+00 -2.21760283E+00 -3.69778549E-32
Number of symbols in /Mol/                 I                0
Force Field                                I                0
Atom Types                                 C   N=           5
                                                            
Int Atom Types                             I   N=           5
           0           0           0           0           0
MM charges                                 R   N=           5
  0.00000000E+00  0.00000000E+00  0.00000000E+00  0.00000000E+00  0.00000000E+00
Integer atomic weights                     I   N=           5
           1          16          16          14          16
Real atomic weights                        R   N=           5
  1.00782504E+00  1.59949146E+01  1.59949146E+01  1.40030740E+01  1.59949146E+01
Atom fragment info                         I   N=           5
           0           0           0           0           0
Atom residue num                           I   N=           5
           0           0           0           0           0
Nuclear spins                              I   N=           5
           1           0           0           2           0
Nuclear ZEff                               R   N=           5
 -1.00000000E+00 -5.60000000E+00 -5.60000000E+00 -4.55000000E+00 -5.60000000E+00
Nuclear ZNuc                               R   N=           5
  1.00000000E+00  8.00000000E+00  8.00000000E+00  7.00000000E+00  8.00000000E+00
Nuclear QMom                               R   N=           5
  0.00000000E+00  0.00000000E+00  0.00000000E+00  2.04400000E+00  0.00000000E+00
Nuclear GFac                               R   N=           5
  2.79284600E+00  0.00000000E+00  0.00000000E+00  4.03761000E-01  0.00000000E+00
MicOpt                                     I   N=           5
          -1          -1          -1          -1          -1
Number of residues                         I                0
Number of secondary structures             I                0
SymInf integers                            I   N=          26
           1           2           1           1           1           1
           1          -1           0           0           0           0
           0           0           0           0           0           0
           0           0           0           0           0           0
           0           0
RotTr to input orientation                 R   N=          12
 -9.77624048E-01 -1.24069832E-16  2.10359740E-01  2.10359740E-01  2.66966608E-17
  9.77624048E-01 -1.26909554E-16  1.00000000E+00  0.00000000E+00  2.28462044E+00
  0.00000000E+00  6.62444629E-01
Number of contracted shells                I               65
Number of primitive shells                 I              119
Pure/Cartesian d shells                    I                0
Pure/Cartesian f shells                    I                0
Highest angular momentum                   I                3
Largest degree of contraction              I                7
Shell types                                I   N=          65
           0           0           0           0           1           1
           1          -2          -2           0           0           0
           0           0           1           1           1           1
          -2          -2          -2          -3          -3           0
           0           0           0           0           1           1
           1           1          -2          -2          -2          -3
          -3           0           0           0           0           0
           1           1           1           1          -2          -2
          -2          -3          -3           0           0           0
           0           0           1           1           1           1
          -2          -2          -2          -3          -3
Number of primitives per shell             I   N=          65
           3           1           1           1           1           1
           1           1           1           7           6           1
           1           1           3           1           1           1
           1           1           1           1           1           7
           6           1           1           1           3           1
           1           1           1           1           1           1
           1           7           6           1           1           1
           3           1           1           1           1           1
           1           1           1           7           6           1
           1           1           3           1           1           1
           1           1           1           1           1
Shell to atom map                          I   N=          65
           1           1           1           1           1           1
           1           1           1           2           2           2
           2           2           2           2           2           2
           2           2           2           2           2           3
           3           3           3           3           3           3
           3           3           3           3           3           3
           3           4           4           4           4           4
           4           4           4           4           4           4
           4           4           4           5           5           5
           5           5           5           5           5           5
           5           5           5           5           5
Primitive exponents                        R   N=         119
  3.38700000E+01  5.09500000E+00  1.15900000E+00  3.25800000E-01  1.02700000E-01
  2.52600000E-02  1.40700000E+00  3.88000000E-01  1.02000000E-01  1.05700000E+00
  2.47000000E-01  1.53300000E+04  2.29900000E+03  5.22400000E+02  1.47300000E+02
  4.75500000E+01  1.67600000E+01  6.20700000E+00  5.22400000E+02  1.47300000E+02
  4.75500000E+01  1.67600000E+01  6.20700000E+00  6.88200000E-01  1.75200000E+00
  2.38400000E-01  7.37600000E-02  3.44600000E+01  7.74900000E+00  2.28000000E+00
  7.15600000E-01  2.14000000E-01  5.97400000E-02  2.31400000E+00  6.45000000E-01
  2.14000000E-01  1.42800000E+00  5.00000000E-01  1.53300000E+04  2.29900000E+03
  5.22400000E+02  1.47300000E+02  4.75500000E+01  1.67600000E+01  6.20700000E+00
  5.22400000E+02  1.47300000E+02  4.75500000E+01  1.67600000E+01  6.20700000E+00
  6.88200000E-01  1.75200000E+00  2.38400000E-01  7.37600000E-02  3.44600000E+01
  7.74900000E+00  2.28000000E+00  7.15600000E-01  2.14000000E-01  5.97400000E-02
  2.31400000E+00  6.45000000E-01  2.14000000E-01  1.42800000E+00  5.00000000E-01
  1.14200000E+04  1.71200000E+03  3.89300000E+02  1.10000000E+02  3.55700000E+01
  1.25400000E+01  4.64400000E+00  3.89300000E+02  1.10000000E+02  3.55700000E+01
  1.25400000E+01  4.64400000E+00  5.11800000E-01  1.29300000E+00  1.78700000E-01
  5.76000000E-02  2.66300000E+01  5.94800000E+00  1.74200000E+00  5.55000000E-01
  1.72500000E-01  4.91000000E-02  1.65400000E+00  4.69000000E-01  1.51000000E-01
  1.09300000E+00  3.64000000E-01  1.53300000E+04  2.29900000E+03  5.22400000E+02
  1.47300000E+02  4.75500000E+01  1.67600000E+01  6.20700000E+00  5.22400000E+02
  1.47300000E+02  4.75500000E+01  1.67600000E+01  6.20700000E+00  6.88200000E-01
  1.75200000E+00  2.38400000E-01  7.37600000E-02  3.44600000E+01  7.74900000E+00
  2.28000000E+00  7.15600000E-01  2.14000000E-01  5.97400000E-02  2.31400000E+00
  6.45000000E-01  2.14000000E-01  1.42800000E+00  5.00000000E-01
Contraction coefficients                   R   N=         119
  2.54948632E-02  1.90362766E-01  8.52162022E-01  1.00000000E+00  1.00000000E+00
  1.00000000E+00  1.00000000E+00  1.00000000E+00  1.00000000E+00  1.00000000E+00
  1.00000000E+00  5.19808943E-04  4.02025621E-03  2.07128267E-02  8.10105536E-02
  2.35962985E-01  4.42653446E-01  3.57064423E-01 -4.42115008E-05 -1.22591041E-03
 -1.05517725E-02 -6.74452633E-02 -1.71198607E-01  1.07329856E+00  1.00000000E+00
  1.00000000E+00  1.00000000E+00  4.11634896E-02  2.57762836E-01  8.02419274E-01
  1.00000000E+00  1.00000000E+00  1.00000000E+00  1.00000000E+00  1.00000000E+00
  1.00000000E+00  1.00000000E+00  1.00000000E+00  5.19808943E-04  4.02025621E-03
  2.07128267E-02  8.10105536E-02  2.35962985E-01  4.42653446E-01  3.57064423E-01
 -4.42115008E-05 -1.22591041E-03 -1.05517725E-02 -6.74452633E-02 -1.71198607E-01
  1.07329856E+00  1.00000000E+00  1.00000000E+00  1.00000000E+00  4.11634896E-02
  2.57762836E-01  8.02419274E-01  1.00000000E+00  1.00000000E+00  1.00000000E+00
  1.00000000E+00  1.00000000E+00  1.00000000E+00  1.00000000E+00  1.00000000E+00
  5.34563860E-04  4.13435660E-03  2.12335358E-02  8.25006224E-02  2.38138871E-01
  4.42551547E-01  3.53757422E-01 -4.89867350E-05 -1.19527323E-03 -1.03490714E-02
 -6.48680190E-02 -1.71552477E-01  1.07289568E+00  1.00000000E+00  1.00000000E+00
  1.00000000E+00  3.98072123E-02  2.49002660E-01  8.10479727E-01  1.00000000E+00
  1.00000000E+00  1.00000000E+00  1.00000000E+00  1.00000000E+00  1.00000000E+00
  1.00000000E+00  1.00000000E+00  5.19808943E-04  4.02025621E-03  2.07128267E-02
  8.10105536E-02  2.35962985E-01  4.42653446E-01  3.57064423E-01 -4.42115008E-05
 -1.22591041E-03 -1.05517725E-02 -6.74452633E-02 -1.71198607E-01  1.07329856E+00
  1.00000000E+00  1.00000000E+00  1.00000000E+00  4.11634896E-02  2.57762836E-01
  8.02419274E-01  1.00000000E+00  1.00000000E+00  1.00000000E+00  1.00000000E+00
  1.00000000E+00  1.00000000E+00  1.00000000E+00  1.00000000E+00
Coordinates of each shell                  R   N=         195
  2.09414821E+00 -1.12821396E+00  2.63253619E-32  2.09414821E+00 -1.12821396E+00
  2.63253619E-32  2.09414821E+00 -1.12821396E+00  2.63253619E-32  2.09414821E+00
 -1.12821396E+00  2.63253619E-32  2.09414821E+00 -1.12821396E+00  2.63253619E-32
  2.09414821E+00 -1.12821396E+00  2.63253619E-32  2.09414821E+00 -1.12821396E+00
  2.63253619E-32  2.09414821E+00 -1.12821396E+00  2.63253619E-32  2.09414821E+00
 -1.12821396E+00  2.63253619E-32  2.48585739E+00  6.92211936E-01  3.38743899E-32
  2.48585739E+00  6.92211936E-01  3.38743899E-32  2.48585739E+00  6.92211936E-01
  3.38743899E-32  2.48585739E+00  6.92211936E-01  3.38743899E-32  2.48585739E+00
  6.92211936E-01  3.38743899E-32  2.48585739E+00  6.92211936E-01  3.38743899E-32
  2.48585739E+00  6.92211936E-01  3.38743899E-32  2.48585739E+00  6.92211936E-01
  3.38743899E-32  2.48585739E+00  6.92211936E-01  3.38743899E-32  2.48585739E+00
  6.92211936E-01  3.38743899E-32  2.48585739E+00  6.92211936E-01  3.38743899E-32
  2.48585739E+00  6.92211936E-01  3.38743899E-32  2.48585739E+00  6.92211936E-01
  3.38743899E-32  2.48585739E+00  6.92211936E-01  3.38743899E-32  9.29279719E-18
  1.73609518E+00  2.24324121E-33  9.29279719E-18  1.73609518E+00  2.24324121E-33
  9.29279719E-18  1.73609518E+00  2.24324121E-33  9.29279719E-18  1.73609518E+00
  2.24324121E-33  9.29279719E-18  1.73609518E+00  2.24324121E-33  9.29279719E-18
  1.73609518E+00  2.24324121E-33  9.29279719E-18  1.73609518E+00  2.24324121E-33
  9.29279719E-18  1.73609518E+00  2.24324121E-33  9.29279719E-18  1.73609518E+00
  2.24324121E-33  9.29279719E-18  1.73609518E+00  2.24324121E-33  9.29279719E-18
  1.73609518E+00  2.24324121E-33  9.29279719E-18  1.73609518E+00  2.24324121E-33
  9.29279719E-18  1.73609518E+00  2.24324121E-33  9.29279719E-18  1.73609518E+00
  2.24324121E-33 -1.87477839E+00 -7.96314749E-02 -2.49756535E-32 -1.87477839E+00
 -7.96314749E-02 -2.49756535E-32 -1.87477839E+00 -7.96314749E-02 -2.49756535E-32
 -1.87477839E+00 -7.96314749E-02 -2.49756535E-32 -1.87477839E+00 -7.96314749E-02
 -2.49756535E-32 -1.87477839E+00 -7.96314749E-02 -2.49756535E-32 -1.87477839E+00
 -7.96314749E-02 -2.49756535E-32 -1.87477839E+00 -7.96314749E-02 -2.49756535E-32
 -1.87477839E+00 -7.96314749E-02 -2.49756535E-32 -1.87477839E+00 -7.96314749E-02
 -2.49756535E-32 -1.87477839E+00 -7.96314749E-02 -2.49756535E-32 -1.87477839E+00
 -7.96314749E-02 -2.49756535E-32 -1.87477839E+00 -7.96314749E-02 -2.49756535E-32
 -1.87477839E+00 -7.96314749E-02 -2.49756535E-32 -1.10719483E+00 -2.21760283E+00
 -1.75546045E-32 -1.10719483E+00 -2.21760283E+00 -1.75546045E-32 -1.10719483E+00
 -2.21760283E+00 -1.75546045E-32 -1.10719483E+00 -2.21760283E+00 -1.75546045E-32
 -1.10719483E+00 -2.21760283E+00 -1.75546045E-32 -1.10719483E+00 -2.21760283E+00
 -1.75546045E-32 -1.10719483E+00 -2.21760283E+00 -1.75546045E-32 -1.10719483E+00
 -2.21760283E+00 -1.75546045E-32 -1.10719483E+00 -2.21760283E+00 -1.75546045E-32
 -1.10719483E+00 -2.21760283E+00 -1.75546045E-32 -1.10719483E+00 -2.21760283E+00
 -1.75546045E-32 -1.10719483E+00 -2.21760283E+00 -1.75546045E-32 -1.10719483E+00
 -2.21760283E+00 -1.75546045E-32 -1.10719483E+00 -2.21760283E+00 -1.75546045E-32
Num ILSW                                   I              100
ILSW                                       I   N=         100
           0           0           0           0           2           0
           0           0           0           0           0          -1
           5           0           0           0           2           0
           0           0           0           0           1           0
           1           0           0           0           0           0
           0           0      100000           0          -1           0
           0           0           0           0           0           0
           0           0           0           1           1           0
           0 -2000000000           1           0           0           0
           0           0           4          52           0           0
           0           0           0           0           0           0
           0           0           0           5           4           1
           0           0           0           0           0           0
           0           0           0           0           0           0
           0           0           0           0           0           0
           0           0           0           0           0           0
           0           0           0           0
Num RLSW                                   I               52
RLSW                                       R   N=          52
  1.00000000E+00  1.00000000E+00  1.00000000E+00  1.00000000E+00  1.00000000E+00
  0.00000000E+00  0.00000000E+00  1.00000000E+00  0.00000000E+00  0.00000000E+00
  0.00000000E+00  0.00000000E+00  1.00000000E+00  0.00000000E+00  0.00000000E+00
  0.00000000E+00  0.00000000E+00  1.00000000E+00  0.00000000E+00  0.00000000E+00
  0.00000000E+00  0.00000000E+00  1.00000000E+00  0.00000000E+00  0.00000000E+00
  0.00000000E+00  0.00000000E+00  1.00000000E+00  0.00000000E+00  0.00000000E+00
  0.00000000E+00  0.00000000E+00  1.00000000E+00  0.00000000E+00  0.00000000E+00
  0.00000000E+00  0.00000000E+00  0.00000000E+00  1.00000000E+00  1.00000000E+00
  0.00000000E+00  1.00000000E+00  0.00000000E+00  0.00000000E+00  0.00000000E+00
  0.00000000E+00  0.00000000E+00  0.00000000E+00  0.00000000E+00  0.00000000E+00
  0.00000000E+00  0.00000000E+00
MxBond                                     I                2
NBond                                      I   N=           5
           1           2           2           2           1
IBond                                      I   N=          10
           2           0           1           3           2           4
           3           5           4           0
RBond                                      R   N=          10
  1.00000000E+00  0.00000000E+00  1.00000000E+00  1.00000000E+00  1.00000000E+00
  1.00000000E+00  1.00000000E+00  2.00000000E+00  2.00000000E+00  0.00000000E+00
Virial Ratio                               R      2.002337411769807E+00
SCF Energy                                 R     -2.795051128586736E+02
MP2 Energy                                 R     -2.804551771713992E+02
Total Energy                               R     -2.804551771713992E+02
Post-SCF wavefunction norm                 R      1.584453506992090E+00
RMS Force                                  R      3.231695363971022E-03
RMS Density                                R      4.926572385667323E-09
NImag                                      I                0
Job Status                                 I                1
Nuclear derivative order                   I                2
External E-field                           R   N=          35
  0.00000000E+00  0.00000000E+00  0.00000000E+00  0.00000000E+00  0.00000000E+00
  0.00000000E+00  0.00000000E+00  0.00000000E+00  0.00000000E+00  0.00000000E+00
  0.00000000E+00  0.00000000E+00  0.00000000E+00  0.00000000E+00  0.00000000E+00
  0.00000000E+00  0.00000000E+00  0.00000000E+00  0.00000000E+00  0.00000000E+00
  0.00000000E+00  0.00000000E+00  0.00000000E+00  0.00000000E+00  0.00000000E+00
  0.00000000E+00  0.00000000E+00  0.00000000E+00  0.00000000E+00  0.00000000E+00
  0.00000000E+00  0.00000000E+00  0.00000000E+00  0.00000000E+00  0.00000000E+00
IOpCl                                      I                0
IROHF                                      I                0
Alpha Orbital Energies                     R   N=         207
 -2.07214620E+01 -2.06868921E+01 -2.06689279E+01 -1.58272049E+01 -1.64036224E+00
 -1.50335517E+00 -1.29449303E+00 -9.61450713E-01 -8.33185405E-01 -7.57398672E-01
 -7.38910236E-01 -6.37311060E-01 -6.18606462E-01 -6.16693740E-01 -5.06007199E-01
 -4.97976055E-01  3.51135091E-02  5.80010445E-02  9.50694674E-02  1.00332936E-01
  1.19882709E-01  1.22532571E-01  1.49324889E-01  1.52025215E-01  1.77314071E-01
  1.80394991E-01  1.89767604E-01  2.11010749E-01  2.16667661E-01  2.41840037E-01
  2.46220226E-01  2.68838601E-01  3.12633165E-01  3.16861040E-01  3.38065870E-01
  3.43030220E-01  3.46253874E-01  3.92294256E-01  4.49106451E-01  4.88213989E-01
  5.05032515E-01  5.17947443E-01  5.44681952E-01  5.61447574E-01  5.96461528E-01
  6.18974851E-01  6.37644628E-01  6.90683363E-01  7.17230126E-01  7.23975580E-01
  7.41887724E-01  7.64100859E-01  7.67337993E-01  7.95511818E-01  8.05932410E-01
  8.38885809E-01  8.42718946E-01  8.51501121E-01  8.84502720E-01  9.07394505E-01
  9.30071976E-01  9.46322782E-01  9.54195949E-01  1.01810305E+00  1.03243468E+00
  1.06328128E+00  1.06587850E+00  1.09505924E+00  1.14422045E+00  1.15632013E+00
  1.16840504E+00  1.22168887E+00  1.22704117E+00  1.24547995E+00  1.35426736E+00
  1.36092107E+00  1.37068014E+00  1.46829293E+00  1.48488454E+00  1.50466443E+00
  1.54257858E+00  1.59652035E+00  1.59683303E+00  1.60469397E+00  1.62819459E+00
  1.69421240E+00  1.74050395E+00  1.79974960E+00  1.82978943E+00  1.88606584E+00
  1.89526095E+00  1.93039161E+00  1.97852382E+00  1.98942392E+00  2.05378343E+00
  2.12232395E+00  2.13002319E+00  2.16525634E+00  2.18852152E+00  2.24339209E+00
  2.25985111E+00  2.29373954E+00  2.35183725E+00  2.36570060E+00  2.38555521E+00
  2.39981535E+00  2.43271280E+00  2.47013191E+00  2.47890470E+00  2.52983216E+00
  2.53740804E+00  2.54772025E+00  2.55650025E+00  2.61346344E+00  2.62978602E+00
  2.67058442E+00  2.67073696E+00  2.75248073E+00  2.80820943E+00  2.81529226E+00
  2.83956308E+00  2.91812275E+00  2.98308880E+00  3.04412315E+00  3.04984631E+00
  3.11463259E+00  3.11892327E+00  3.17270929E+00  3.21315008E+00  3.30702162E+00
  3.33220527E+00  3.36009348E+00  3.47680034E+00  3.67213887E+00  3.86881704E+00
  3.93102823E+00  4.18423769E+00  4.22217510E+00  4.22284022E+00  4.25599569E+00
  4.36910468E+00  4.49732613E+00  4.52840252E+00  4.54902011E+00  4.59816278E+00
  4.69177776E+00  4.80698733E+00  4.89732455E+00  4.91447034E+00  4.93841388E+00
  5.00003704E+00  5.00605890E+00  5.10540532E+00  5.12810142E+00  5.17927454E+00
  5.24381130E+00  5.25746741E+00  5.31625777E+00  5.34437361E+00  5.35696457E+00
  5.55260139E+00  5.63415931E+00  5.70198613E+00  5.89156102E+00  5.99140508E+00
  6.26379886E+00  6.29464036E+00  6.35970123E+00  6.37565198E+00  6.59721530E+00
  6.65826305E+00  6.65865103E+00  6.68865686E+00  6.72338740E+00  6.79978943E+00
  6.80402079E+00  6.84586915E+00  6.96557172E+00  7.02037707E+00  7.06548798E+00
  7.07844047E+00  7.13507893E+00  7.17172339E+00  7.17208982E+00  7.20127103E+00
  7.23827904E+00  7.24616262E+00  7.26319267E+00  7.34660864E+00  7.38882748E+00
  7.42539286E+00  7.43991581E+00  7.45598455E+00  7.54780584E+00  7.66254258E+00
  7.66456228E+00  7.79135340E+00  7.88130296E+00  7.94935148E+00  8.05709800E+00
  8.30633921E+00  8.49976012E+00  8.64907070E+00  1.36032187E+01  1.47085335E+01
  1.50784464E+01  1.55991980E+01
Alpha MO coefficients                      R   N=       42849
  6.46069081E-05 -1.82337730E-05 -1.13610392E-03  1.13587171E-05 -5.15058284E-05
  4.21489660E-05  0.00000000E+00 -9.06843244E-05 -2.89298410E-04  0.00000000E+00
  9.08446083E-07 -3.55278494E-04  0.00000000E+00  4.21111878E-05  0.00000000E+00
  0.00000000E+00 -2.47613539E-05  1.28140450E-05  2.30750611E-04  0.00000000E+00
  0.00000000E+00 -4.02732867E-05 -2.12348617E-04  3.01174289E-03 -9.39875195E-05
 -1.02018173E-04  3.54860169E-03  2.49434547E-03  1.02726767E-04 -5.31920457E-05
  0.00000000E+00 -7.29552199E-04  2.85526253E-04  0.00000000E+00 -1.97258451E-03
  1.11566306E-03  0.00000000E+00 -5.39554678E-04  3.81940787E-05  0.00000000E+00
  2.04694667E-05  0.00000000E+00  0.00000000E+00 -8.88303372E-06  4.41293077E-05
 -4.43230378E-04  0.00000000E+00  0.00000000E+00  4.27562586E-04 -6.62328197E-04
 -3.62578693E-04  0.00000000E+00  0.00000000E+00  5.42763787E-04 -7.46831781E-04
  0.00000000E+00  7.40974012E-05 -5.24546092E-05  0.00000000E+00  0.00000000E+00
 -2.71739353E-05  1.08038653E-04  0.00000000E+00  2.07331369E-04 -5.09466288E-05
  0.00000000E+00  0.00000000E+00 -1.69883821E-04  3.00376993E-04  9.76906253E-01
 -9.17276026E-03  4.34035748E-02  4.74696696E-04 -2.22136982E-03  4.43682499E-04
 -2.15312033E-03  0.00000000E+00 -3.12563793E-04  2.25877036E-03  0.00000000E+00
 -2.31202253E-03 -4.81989435E-04  0.00000000E+00 -2.23960143E-04  9.95497024E-05
  0.00000000E+00  6.83564888E-06  0.00000000E+00  0.00000000E+00 -4.25191162E-06
  3.72265546E-05  8.27663147E-04  0.00000000E+00  0.00000000E+00 -4.75161705E-04
 -1.73071638E-04 -1.38721130E-04  0.00000000E+00  0.00000000E+00 -5.53814051E-04
  3.55074204E-04  0.00000000E+00 -6.75251287E-06 -7.95286807E-05  0.00000000E+00
  0.00000000E+00 -9.09224647E-06  4.82938664E-05  0.00000000E+00  9.23525508E-05
  8.49329229E-07  0.00000000E+00  0.00000000E+00 -3.35577925E-04  3.81349447E-04
  1.05944446E-04  4.66824746E-04 -3.23979833E-04 -7.82607879E-04  3.70478749E-04
 -4.45097823E-05 -1.00164958E-04  0.00000000E+00  7.02517950E-04  1.10393476E-03
  0.00000000E+00 -7.50956446E-04 -6.54051445E-04  0.00000000E+00  1.96314430E-04
  2.09247089E-04  0.00000000E+00 -5.28522428E-05  0.00000000E+00  0.00000000E+00
  1.90883544E-05  9.27532484E-05 -4.17588115E-04  0.00000000E+00  0.00000000E+00
  3.72729970E-05  1.08219949E-03  2.39230484E-05  0.00000000E+00  0.00000000E+00
 -3.18152384E-04  3.17189527E-05  0.00000000E+00 -7.87596148E-05 -1.13618791E-04
  0.00000000E+00  0.00000000E+00 -9.70920986E-05  1.07358129E-04  0.00000000E+00
 -1.24785270E-04  4.51214796E-05  0.00000000E+00  0.00000000E+00  1.27177631E-05
  5.22035816E-04 -6.58361014E-04  4.20679645E-05 -6.83600426E-05  1.92393504E-04
 -1.92674423E-04 -2.93788360E-05 -4.11947919E-05  0.00000000E+00  1.69588462E-04
  2.47125767E-04  0.00000000E+00  5.41024864E-04  3.06518995E-04  0.00000000E+00
 -2.14266478E-04 -6.45455523E-05  0.00000000E+00 -1.26404743E-05  0.00000000E+00
  0.00000000E+00  3.63128907E-06  1.43414202E-05 -2.78263465E-06  0.00000000E+00
  0.00000000E+00 -1.63460530E-04  1.65190280E-05 -2.02419017E-05  0.00000000E+00
  0.00000000E+00 -1.65313746E-04 -3.52801706E-05  0.00000000E+00 -6.42200155E-06
 -9.39579665E-06  0.00000000E+00  0.00000000E+00 -2.23152915E-05  8.95906985E-06
  0.00000000E+00  3.95685822E-05  6.06105592E-05  0.00000000E+00  0.00000000E+00
  1.54126131E-04 -1.04654044E-04  4.04636317E-05  6.46264616E-05 -1.31244588E-04
 -3.29031521E-05  1.81838241E-05  1.13175154E-05  0.00000000E+00  2.40426485E-04
  6.51503880E-05  0.00000000E+00  1.28854739E-04  2.30569831E-05  0.00000000E+00
  1.30518031E-05  0.00000000E+00  0.00000000E+00 -1.28900105E-05  1.61933010E-05
  2.39214765E-05  0.00000000E+00  0.00000000E+00 -1.02251017E-04  6.29747052E-05
 -2.77182867E-04  2.79738121E-05 -1.69149115E-05 -5.62309123E-04  1.66221279E-04
  8.24876668E-06  1.33944325E-05  0.00000000E+00 -4.77692396E-06 -3.95479838E-05
  0.00000000E+00  1.98760738E-04  1.33530167E-04  0.00000000E+00 -4.72427645E-05
  4.73842913E-05  0.00000000E+00 -1.46441353E-06  0.00000000E+00  0.00000000E+00
 -8.52077899E-06 -1.17497615E-05  2.07316419E-05  0.00000000E+00  0.00000000E+00
  5.33386620E-05  1.07686170E-04  6.13989054E-05  0.00000000E+00  0.00000000E+00
 -3.60622735E-05 -8.33570254E-05  0.00000000E+00  8.03606379E-06  9.98209196E-06
  0.00000000E+00  0.00000000E+00 -1.33742988E-06 -2.48300329E-05  0.00000000E+00
 -1.41697651E-05 -3.52907449E-05  0.00000000E+00  0.00000000E+00 -3.78556847E-06
 -1.78687169E-05  6.85899295E-04  2.40827684E-05 -2.02257995E-05  2.62806410E-04
 -4.34485927E-04  1.55517065E-05  2.76833194E-05  0.00000000E+00 -6.13268238E-05
 -1.54039910E-04  0.00000000E+00  1.97484316E-04 -2.08912883E-04  0.00000000E+00
 -1.51299341E-04  1.48718721E-04  0.00000000E+00 -4.14936303E-06  0.00000000E+00
  0.00000000E+00 -2.75961259E-05 -1.01923240E-05 -4.96626753E-05  0.00000000E+00
  0.00000000E+00  6.66053833E-05  1.21313197E-04 -5.91978273E-05  0.00000000E+00
  0.00000000E+00  2.35943964E-05  1.70775000E-05  0.00000000E+00  2.80258343E-06
  3.66276096E-06  0.00000000E+00  0.00000000E+00 -8.02347108E-06 -1.02853772E-06
  0.00000000E+00  2.54541812E-06 -2.57389153E-05  0.00000000E+00  0.00000000E+00
  1.01288975E-04 -1.46775841E-04  2.34491154E-04  1.33687220E-03 -1.75037253E-04
 -5.23531623E-04  9.70961742E-04  5.76830246E-05 -5.54274380E-05  0.00000000E+00
  5.69437496E-04 -2.08825481E-03  0.00000000E+00  1.48344661E-04  4.65620189E-04
  0.00000000E+00  1.95065103E-04 -3.13976882E-04  0.00000000E+00 -1.27843951E-04
  0.00000000E+00  0.00000000E+00 -2.02335656E-04 -1.58264966E-04 -4.79612653E-04
  0.00000000E+00  0.00000000E+00 -6.45001700E-04 -9.28254765E-04 -5.62492735E-05
  0.00000000E+00  0.00000000E+00  3.68229468E-05  1.12843265E-04  0.00000000E+00
  5.33222853E-06  4.68412321E-05  0.00000000E+00  0.00000000E+00 -3.72868364E-05
  4.00256959E-06  0.00000000E+00 -1.37576370E-04  1.58766698E-04  0.00000000E+00
  0.00000000E+00 -3.33159733E-04 -3.58248815E-05  9.76658040E-01 -9.88809349E-03
  4.35569767E-02  3.58839630E-03 -9.40856412E-04 -4.43710545E-04  2.12517255E-03
  0.00000000E+00  5.18950882E-04 -2.52594086E-03  0.00000000E+00 -5.13718282E-05
  7.91655327E-04  0.00000000E+00  1.08546809E-04 -7.00448473E-05  0.00000000E+00
 -1.88730224E-04  0.00000000E+00  0.00000000E+00 -6.86323734E-05 -3.90548153E-05
  4.11883939E-04  0.00000000E+00  0.00000000E+00  8.66027833E-04  4.90936060E-04
 -2.11206683E-04  0.00000000E+00  0.00000000E+00 -1.44087927E-04 -3.57649316E-05
  0.00000000E+00 -5.98989759E-06  7.36518772E-05  0.00000000E+00  0.00000000E+00
 -3.28788315E-05  1.24199864E-05  0.00000000E+00 -8.81991826E-05  8.68527841E-05
  0.00000000E+00  0.00000000E+00 -1.65501263E-04  2.04288035E-04  3.74900333E-04
  1.98927622E-03  1.36579837E-03 -1.78662462E-05  5.06442486E-05  2.67819849E-04
  0.00000000E+00  3.84568485E-04  1.02592634E-03  0.00000000E+00 -1.25449835E-04
  2.33033068E-04  0.00000000E+00 -2.34522099E-05  0.00000000E+00  0.00000000E+00
  3.27642991E-05 -2.88377666E-05 -2.16714381E-04  0.00000000E+00  0.00000000E+00
 -3.49289245E-04  4.07464922E-04  9.76834614E-01 -9.18744518E-03  4.34653474E-02
  1.34920708E-04 -1.89665842E-03 -2.04513131E-03 -8.31843474E-04  0.00000000E+00
  2.08262033E-03  7.67571347E-04  0.00000000E+00 -3.99786692E-04  6.44971678E-04
  0.00000000E+00  2.22058194E-04 -2.98943231E-04  0.00000000E+00  3.07705149E-05
  0.00000000E+00  0.00000000E+00 -7.46927344E-05  6.35176698E-05  7.65852026E-04
  0.00000000E+00  0.00000000E+00 -2.09875973E-04  3.55186911E-04 -2.37899623E-04
  0.00000000E+00  0.00000000E+00  3.33931511E-04  4.18951242E-07  0.00000000E+00
 -8.05912857E-05  1.90885780E-06  0.00000000E+00  0.00000000E+00  1.59698692E-05