title                                                                   
Freq      RMP2-FC                                                     Aug-CC-pVTZ         
Number of atoms                            I                5
Info1-9                                    I   N=           9
          33          24           0           0           0         100
           6           2           1
Full Title                                 C   N=           1
title       
Route                                      C   N=           4
#p freq mp2/aug-cc-pvtz density=current         
Charge                                     I                0
Multiplicity                               I                1
Number of electrons                        I               32
Number of alpha electrons                  I               16
Number of beta electrons                   I               16
Number of basis functions                  I              207
Number of independent functions            I              207
Number of point charges in /Mol/           I                0
Number of translation vectors              I                0
Atomic numbers                             I   N=           5
           1           8           8           7           8
Nuclear charges                            R   N=           5
  1.00000000E+00  8.00000000E+00  8.00000000E+00  7.00000000E+00  8.00000000E+00
Current cartesian coordinates              R   N=          15
 -1.02101673E+00 -2.15142248E+00  4.92360805E-02 -2.41319483E+00 -9.15590572E-01
  5.12045467E-03 -1.02590738E+00  1.39613404E+00 -1.81613615E-02  1.55937082E+00
  1.04122638E+00  2.69438434E-02  2.20227984E+00 -1.12268874E+00 -1.66894662E-02
Number of symbols in /Mol/                 I                0
Force Field                                I                0
Atom Types                                 C   N=           5
                                                            
Int Atom Types                             I   N=           5
           0           0           0           0           0
MM charges                                 R   N=           5
  0.00000000E+00  0.00000000E+00  0.00000000E+00  0.00000000E+00  0.00000000E+00
Integer atomic weights                     I   N=           5
           1          16          16          14          16
Real atomic weights                        R   N=           5
  1.00782504E+00  1.59949146E+01  1.59949146E+01  1.40030740E+01  1.59949146E+01
Atom fragment info                         I   N=           5
           0           0           0           0           0
Atom residue num                           I   N=           5
           0           0           0           0           0
Nuclear spins                              I   N=           5
           1           0           0           2           0
Nuclear ZEff                               R   N=           5
 -1.00000000E+00 -5.60000000E+00 -5.60000000E+00 -4.55000000E+00 -5.60000000E+00
Nuclear ZNuc                               R   N=           5
  1.00000000E+00  8.00000000E+00  8.00000000E+00  7.00000000E+00  8.00000000E+00
Nuclear QMom                               R   N=           5
  0.00000000E+00  0.00000000E+00  0.00000000E+00  2.04400000E+00  0.00000000E+00
Nuclear GFac                               R   N=           5
  2.79284600E+00  0.00000000E+00  0.00000000E+00  4.03761000E-01  0.00000000E+00
MicOpt                                     I   N=           5
          -1          -1          -1          -1          -1
Number of residues                         I                0
Number of secondary structures             I                0
SymInf integers                            I   N=          26
           1           1           1           1           1           0
           0           0           0           0           0           0
           0           0           0           0           0           0
           0           0           0           0           0           0
           0           0
RotTr to input orientation                 R   N=          12
  6.63936255E-01  1.48373601E-02 -7.47641961E-01  7.47776596E-01 -1.89723056E-02
  6.63679301E-01 -4.33724295E-03 -9.99709910E-01 -2.36914322E-02  2.28688695E+00
  2.35535460E-02  6.65666086E-01
Number of contracted shells                I               65
Number of primitive shells                 I              119
Pure/Cartesian d shells                    I                0
Pure/Cartesian f shells                    I                0
Highest angular momentum                   I                3
Largest degree of contraction              I                7
Shell types                                I   N=          65
           0           0           0           0           1           1
           1          -2          -2           0           0           0
           0           0           1           1           1           1
          -2          -2          -2          -3          -3           0
           0           0           0           0           1           1
           1           1          -2          -2          -2          -3
          -3           0           0           0           0           0
           1           1           1           1          -2          -2
          -2          -3          -3           0           0           0
           0           0           1           1           1           1
          -2          -2          -2          -3          -3
Number of primitives per shell             I   N=          65
           3           1           1           1           1           1
           1           1           1           7           6           1
           1           1           3           1           1           1
           1           1           1           1           1           7
           6           1           1           1           3           1
           1           1           1           1           1           1
           1           7           6           1           1           1
           3           1           1           1           1           1
           1           1           1           7           6           1
           1           1           3           1           1           1
           1           1           1           1           1
Shell to atom map                          I   N=          65
           1           1           1           1           1           1
           1           1           1           2           2           2
           2           2           2           2           2           2
           2           2           2           2           2           3
           3           3           3           3           3           3
           3           3           3           3           3           3
           3           4           4           4           4           4
           4           4           4           4           4           4
           4           4           4           5           5           5
           5           5           5           5           5           5
           5           5           5           5           5
Primitive exponents                        R   N=         119
  3.38700000E+01  5.09500000E+00  1.15900000E+00  3.25800000E-01  1.02700000E-01
  2.52600000E-02  1.40700000E+00  3.88000000E-01  1.02000000E-01  1.05700000E+00
  2.47000000E-01  1.53300000E+04  2.29900000E+03  5.22400000E+02  1.47300000E+02
  4.75500000E+01  1.67600000E+01  6.20700000E+00  5.22400000E+02  1.47300000E+02
  4.75500000E+01  1.67600000E+01  6.20700000E+00  6.88200000E-01  1.75200000E+00
  2.38400000E-01  7.37600000E-02  3.44600000E+01  7.74900000E+00  2.28000000E+00
  7.15600000E-01  2.14000000E-01  5.97400000E-02  2.31400000E+00  6.45000000E-01
  2.14000000E-01  1.42800000E+00  5.00000000E-01  1.53300000E+04  2.29900000E+03
  5.22400000E+02  1.47300000E+02  4.75500000E+01  1.67600000E+01  6.20700000E+00
  5.22400000E+02  1.47300000E+02  4.75500000E+01  1.67600000E+01  6.20700000E+00
  6.88200000E-01  1.75200000E+00  2.38400000E-01  7.37600000E-02  3.44600000E+01
  7.74900000E+00  2.28000000E+00  7.15600000E-01  2.14000000E-01  5.97400000E-02
  2.31400000E+00  6.45000000E-01  2.14000000E-01  1.42800000E+00  5.00000000E-01
  1.14200000E+04  1.71200000E+03  3.89300000E+02  1.10000000E+02  3.55700000E+01
  1.25400000E+01  4.64400000E+00  3.89300000E+02  1.10000000E+02  3.55700000E+01
  1.25400000E+01  4.64400000E+00  5.11800000E-01  1.29300000E+00  1.78700000E-01
  5.76000000E-02  2.66300000E+01  5.94800000E+00  1.74200000E+00  5.55000000E-01
  1.72500000E-01  4.91000000E-02  1.65400000E+00  4.69000000E-01  1.51000000E-01
  1.09300000E+00  3.64000000E-01  1.53300000E+04  2.29900000E+03  5.22400000E+02
  1.47300000E+02  4.75500000E+01  1.67600000E+01  6.20700000E+00  5.22400000E+02
  1.47300000E+02  4.75500000E+01  1.67600000E+01  6.20700000E+00  6.88200000E-01
  1.75200000E+00  2.38400000E-01  7.37600000E-02  3.44600000E+01  7.74900000E+00
  2.28000000E+00  7.15600000E-01  2.14000000E-01  5.97400000E-02  2.31400000E+00
  6.45000000E-01  2.14000000E-01  1.42800000E+00  5.00000000E-01
Contraction coefficients                   R   N=         119
  2.54948632E-02  1.90362766E-01  8.52162022E-01  1.00000000E+00  1.00000000E+00
  1.00000000E+00  1.00000000E+00  1.00000000E+00  1.00000000E+00  1.00000000E+00
  1.00000000E+00  5.19808943E-04  4.02025621E-03  2.07128267E-02  8.10105536E-02
  2.35962985E-01  4.42653446E-01  3.57064423E-01 -4.42115008E-05 -1.22591041E-03
 -1.05517725E-02 -6.74452633E-02 -1.71198607E-01  1.07329856E+00  1.00000000E+00
  1.00000000E+00  1.00000000E+00  4.11634896E-02  2.57762836E-01  8.02419274E-01
  1.00000000E+00  1.00000000E+00  1.00000000E+00  1.00000000E+00  1.00000000E+00
  1.00000000E+00  1.00000000E+00  1.00000000E+00  5.19808943E-04  4.02025621E-03
  2.07128267E-02  8.10105536E-02  2.35962985E-01  4.42653446E-01  3.57064423E-01
 -4.42115008E-05 -1.22591041E-03 -1.05517725E-02 -6.74452633E-02 -1.71198607E-01
  1.07329856E+00  1.00000000E+00  1.00000000E+00  1.00000000E+00  4.11634896E-02
  2.57762836E-01  8.02419274E-01  1.00000000E+00  1.00000000E+00  1.00000000E+00
  1.00000000E+00  1.00000000E+00  1.00000000E+00  1.00000000E+00  1.00000000E+00
  5.34563860E-04  4.13435660E-03  2.12335358E-02  8.25006224E-02  2.38138871E-01
  4.42551547E-01  3.53757422E-01 -4.89867350E-05 -1.19527323E-03 -1.03490714E-02
 -6.48680190E-02 -1.71552477E-01  1.07289568E+00  1.00000000E+00  1.00000000E+00
  1.00000000E+00  3.98072123E-02  2.49002660E-01  8.10479727E-01  1.00000000E+00
  1.00000000E+00  1.00000000E+00  1.00000000E+00  1.00000000E+00  1.00000000E+00
  1.00000000E+00  1.00000000E+00  5.19808943E-04  4.02025621E-03  2.07128267E-02
  8.10105536E-02  2.35962985E-01  4.42653446E-01  3.57064423E-01 -4.42115008E-05
 -1.22591041E-03 -1.05517725E-02 -6.74452633E-02 -1.71198607E-01  1.07329856E+00
  1.00000000E+00  1.00000000E+00  1.00000000E+00  4.11634896E-02  2.57762836E-01
  8.02419274E-01  1.00000000E+00  1.00000000E+00  1.00000000E+00  1.00000000E+00
  1.00000000E+00  1.00000000E+00  1.00000000E+00  1.00000000E+00
Coordinates of each shell                  R   N=         195
 -1.02101673E+00 -2.15142248E+00  4.92360805E-02 -1.02101673E+00 -2.15142248E+00
  4.92360805E-02 -1.02101673E+00 -2.15142248E+00  4.92360805E-02 -1.02101673E+00
 -2.15142248E+00  4.92360805E-02 -1.02101673E+00 -2.15142248E+00  4.92360805E-02
 -1.02101673E+00 -2.15142248E+00  4.92360805E-02 -1.02101673E+00 -2.15142248E+00
  4.92360805E-02 -1.02101673E+00 -2.15142248E+00  4.92360805E-02 -1.02101673E+00
 -2.15142248E+00  4.92360805E-02 -2.41319483E+00 -9.15590572E-01  5.12045467E-03
 -2.41319483E+00 -9.15590572E-01  5.12045467E-03 -2.41319483E+00 -9.15590572E-01
  5.12045467E-03 -2.41319483E+00 -9.15590572E-01  5.12045467E-03 -2.41319483E+00
 -9.15590572E-01  5.12045467E-03 -2.41319483E+00 -9.15590572E-01  5.12045467E-03
 -2.41319483E+00 -9.15590572E-01  5.12045467E-03 -2.41319483E+00 -9.15590572E-01
  5.12045467E-03 -2.41319483E+00 -9.15590572E-01  5.12045467E-03 -2.41319483E+00
 -9.15590572E-01  5.12045467E-03 -2.41319483E+00 -9.15590572E-01  5.12045467E-03
 -2.41319483E+00 -9.15590572E-01  5.12045467E-03 -2.41319483E+00 -9.15590572E-01
  5.12045467E-03 -2.41319483E+00 -9.15590572E-01  5.12045467E-03 -1.02590738E+00
  1.39613404E+00 -1.81613615E-02 -1.02590738E+00  1.39613404E+00 -1.81613615E-02
 -1.02590738E+00  1.39613404E+00 -1.81613615E-02 -1.02590738E+00  1.39613404E+00
 -1.81613615E-02 -1.02590738E+00  1.39613404E+00 -1.81613615E-02 -1.02590738E+00
  1.39613404E+00 -1.81613615E-02 -1.02590738E+00  1.39613404E+00 -1.81613615E-02
 -1.02590738E+00  1.39613404E+00 -1.81613615E-02 -1.02590738E+00  1.39613404E+00
 -1.81613615E-02 -1.02590738E+00  1.39613404E+00 -1.81613615E-02 -1.02590738E+00
  1.39613404E+00 -1.81613615E-02 -1.02590738E+00  1.39613404E+00 -1.81613615E-02
 -1.02590738E+00  1.39613404E+00 -1.81613615E-02 -1.02590738E+00  1.39613404E+00
 -1.81613615E-02  1.55937082E+00  1.04122638E+00  2.69438434E-02  1.55937082E+00
  1.04122638E+00  2.69438434E-02  1.55937082E+00  1.04122638E+00  2.69438434E-02
  1.55937082E+00  1.04122638E+00  2.69438434E-02  1.55937082E+00  1.04122638E+00
  2.69438434E-02  1.55937082E+00  1.04122638E+00  2.69438434E-02  1.55937082E+00
  1.04122638E+00  2.69438434E-02  1.55937082E+00  1.04122638E+00  2.69438434E-02
  1.55937082E+00  1.04122638E+00  2.69438434E-02  1.55937082E+00  1.04122638E+00
  2.69438434E-02  1.55937082E+00  1.04122638E+00  2.69438434E-02  1.55937082E+00
  1.04122638E+00  2.69438434E-02  1.55937082E+00  1.04122638E+00  2.69438434E-02
  1.55937082E+00  1.04122638E+00  2.69438434E-02  2.20227984E+00 -1.12268874E+00
 -1.66894662E-02  2.20227984E+00 -1.12268874E+00 -1.66894662E-02  2.20227984E+00
 -1.12268874E+00 -1.66894662E-02  2.20227984E+00 -1.12268874E+00 -1.66894662E-02
  2.20227984E+00 -1.12268874E+00 -1.66894662E-02  2.20227984E+00 -1.12268874E+00
 -1.66894662E-02  2.20227984E+00 -1.12268874E+00 -1.66894662E-02  2.20227984E+00
 -1.12268874E+00 -1.66894662E-02  2.20227984E+00 -1.12268874E+00 -1.66894662E-02
  2.20227984E+00 -1.12268874E+00 -1.66894662E-02  2.20227984E+00 -1.12268874E+00
 -1.66894662E-02  2.20227984E+00 -1.12268874E+00 -1.66894662E-02  2.20227984E+00
 -1.12268874E+00 -1.66894662E-02  2.20227984E+00 -1.12268874E+00 -1.66894662E-02
Num ILSW                                   I              100
ILSW                                       I   N=         100
           0           0           0           0           2           0
           0           0           0           0           0          -1
           5           0           0           0           2           0
           0           0           0           0           1           0
           1           0           0           0           0           0
           0           0      100000           0          -1           0
           0           0           0           0           0           0
           0           0           0           1           1           0
           0 -2000000000           1           0           0           0
           0           0           4          52           0           0
           0           0           0           0           0           0
           0           0           0           5           4           1
           0           0           0           0           0           0
           0           0           0           0           0           0
           0           0           0           0           0           0
           0           0           0           0           0           0
           0           0           0           0
Num RLSW                                   I               52
RLSW                                       R   N=          52
  1.00000000E+00  1.00000000E+00  1.00000000E+00  1.00000000E+00  1.00000000E+00
  0.00000000E+00  0.00000000E+00  1.00000000E+00  0.00000000E+00  0.00000000E+00
  0.00000000E+00  0.00000000E+00  1.00000000E+00  0.00000000E+00  0.00000000E+00
  0.00000000E+00  0.00000000E+00  1.00000000E+00  0.00000000E+00  0.00000000E+00
  0.00000000E+00  0.00000000E+00  1.00000000E+00  0.00000000E+00  0.00000000E+00
  0.00000000E+00  0.00000000E+00  1.00000000E+00  0.00000000E+00  0.00000000E+00
  0.00000000E+00  0.00000000E+00  1.00000000E+00  0.00000000E+00  0.00000000E+00
  0.00000000E+00  0.00000000E+00  0.00000000E+00  1.00000000E+00  1.00000000E+00
  0.00000000E+00  1.00000000E+00  0.00000000E+00  0.00000000E+00  0.00000000E+00
  0.00000000E+00  0.00000000E+00  0.00000000E+00  0.00000000E+00  0.00000000E+00
  0.00000000E+00  0.00000000E+00
MxBond                                     I                2
NBond                                      I   N=           5
           1           2           2           2           1
IBond                                      I   N=          10
           2           0           1           3           2           4
           3           5           4           0
RBond                                      R   N=          10
  1.00000000E+00  0.00000000E+00  1.00000000E+00  1.00000000E+00  1.00000000E+00
  1.00000000E+00  1.00000000E+00  2.00000000E+00  2.00000000E+00  0.00000000E+00
Virial Ratio                               R      2.002226928260925E+00
SCF Energy                                 R     -2.795063505844911E+02
MP2 Energy                                 R     -2.804551264404185E+02
Total Energy                               R     -2.804551264404185E+02
Post-SCF wavefunction norm                 R      1.583721317068124E+00
RMS Force                                  R      1.378558355641594E-03
RMS Density                                R      9.813566857825841E-09
NImag                                      I                0
Job Status                                 I                1
Nuclear derivative order                   I                2
External E-field                           R   N=          35
  0.00000000E+00  0.00000000E+00  0.00000000E+00  0.00000000E+00  0.00000000E+00
  0.00000000E+00  0.00000000E+00  0.00000000E+00  0.00000000E+00  0.00000000E+00
  0.00000000E+00  0.00000000E+00  0.00000000E+00  0.00000000E+00  0.00000000E+00
  0.00000000E+00  0.00000000E+00  0.00000000E+00  0.00000000E+00  0.00000000E+00
  0.00000000E+00  0.00000000E+00  0.00000000E+00  0.00000000E+00  0.00000000E+00
  0.00000000E+00  0.00000000E+00  0.00000000E+00  0.00000000E+00  0.00000000E+00
  0.00000000E+00  0.00000000E+00  0.00000000E+00  0.00000000E+00  0.00000000E+00
IOpCl                                      I                0
IROHF                                      I                0
Alpha Orbital Energies                     R   N=         207
 -2.07197405E+01 -2.06872574E+01 -2.06683181E+01 -1.58259967E+01 -1.64426091E+00
 -1.50516233E+00 -1.29375398E+00 -9.60356611E-01 -8.34609048E-01 -7.58932593E-01
 -7.39925473E-01 -6.37449738E-01 -6.19072220E-01 -6.18062969E-01 -5.04777578E-01
 -4.97366099E-01  3.50567792E-02  6.01755656E-02  9.51180694E-02  1.00378145E-01
  1.19330511E-01  1.22898563E-01  1.49401476E-01  1.52043757E-01  1.77414644E-01
  1.80466482E-01  1.89691026E-01  2.11101331E-01  2.16756337E-01  2.42530944E-01
  2.46333787E-01  2.68939486E-01  3.11930349E-01  3.17462644E-01  3.38059563E-01
  3.43857375E-01  3.46810515E-01  3.92612340E-01  4.48599606E-01  4.88057891E-01
  5.05484634E-01  5.18608812E-01  5.44881637E-01  5.61244524E-01  5.99030937E-01
  6.20302052E-01  6.38432651E-01  6.89738139E-01  7.16908152E-01  7.24534867E-01
  7.43153248E-01  7.63737374E-01  7.67284277E-01  7.95165166E-01  8.06259314E-01
  8.40472480E-01  8.43188519E-01  8.51942592E-01  8.85524411E-01  9.07778912E-01
  9.30205162E-01  9.48416238E-01  9.54175873E-01  1.01799682E+00  1.03270425E+00
  1.06175016E+00  1.06568250E+00  1.09585112E+00  1.14383500E+00  1.15632322E+00
  1.17002965E+00  1.22206680E+00  1.22702552E+00  1.24611086E+00  1.35233162E+00
  1.36201397E+00  1.37131210E+00  1.46849898E+00  1.48576865E+00  1.50474434E+00
  1.54160535E+00  1.59346827E+00  1.59785305E+00  1.60875230E+00  1.62871909E+00
  1.69552747E+00  1.74049966E+00  1.80121299E+00  1.82992142E+00  1.88736382E+00
  1.89693836E+00  1.92951305E+00  1.97910789E+00  1.98949346E+00  2.05221894E+00
  2.12378399E+00  2.13062190E+00  2.16538285E+00  2.18804865E+00  2.24126267E+00
  2.26214549E+00  2.29448836E+00  2.35212116E+00  2.36608101E+00  2.38651110E+00
  2.40222434E+00  2.43368095E+00  2.46842873E+00  2.48000174E+00  2.52885283E+00
  2.53889507E+00  2.54887666E+00  2.55945525E+00  2.61613635E+00  2.63020632E+00
  2.67118214E+00  2.67452691E+00  2.75399900E+00  2.80885585E+00  2.81872149E+00
  2.84148173E+00  2.91867007E+00  2.98526119E+00  3.04677768E+00  3.05104112E+00
  3.11548927E+00  3.11820789E+00  3.17334767E+00  3.21317764E+00  3.30780694E+00
  3.33233660E+00  3.36108609E+00  3.47779970E+00  3.67801118E+00  3.86973825E+00
  3.93041274E+00  4.18326991E+00  4.22030994E+00  4.22820626E+00  4.26888971E+00
  4.36978886E+00  4.50022911E+00  4.52803123E+00  4.55619118E+00  4.59914302E+00
  4.69372805E+00  4.80979489E+00  4.89668888E+00  4.91680018E+00  4.94133401E+00
  4.99821472E+00  5.00603631E+00  5.10808720E+00  5.13307363E+00  5.17954923E+00
  5.24996189E+00  5.25899244E+00  5.31787869E+00  5.34705763E+00  5.35617538E+00
  5.54700690E+00  5.64494726E+00  5.70628506E+00  5.88950426E+00  5.99741685E+00
  6.26457439E+00  6.29596909E+00  6.36107467E+00  6.37672015E+00  6.59825583E+00
  6.65930166E+00  6.65979079E+00  6.69002263E+00  6.72604995E+00  6.79576398E+00
  6.80653259E+00  6.85084847E+00  6.96792084E+00  7.02074192E+00  7.06638244E+00
  7.08039752E+00  7.13873301E+00  7.17291402E+00  7.17767963E+00  7.20346005E+00
  7.24463207E+00  7.24886552E+00  7.27158478E+00  7.34962391E+00  7.39431445E+00
  7.42817953E+00  7.44283806E+00  7.46293080E+00  7.55968800E+00  7.66349017E+00
  7.66755962E+00  7.79446545E+00  7.88302617E+00  7.95284242E+00  8.06429232E+00
  8.30664252E+00  8.49991886E+00  8.65223119E+00  1.36190048E+01  1.47628951E+01
  1.51045499E+01  1.57633759E+01
Alpha MO coefficients                      R   N=       42849
  6.44833290E-05 -2.48814607E-05 -1.11127784E-03  1.28509273E-05  1.66208712E-05
  6.44438303E-05  6.28561164E-08  2.42407406E-04 -1.80828168E-04 -6.79825970E-06
  2.06909765E-04 -2.81370557E-04 -6.30397503E-06  4.24697790E-05 -6.16498790E-07
 -1.10516413E-06  4.27284091E-06 -2.78021612E-05  2.28461244E-04 -6.02848764E-06
 -3.18192072E-06 -2.11102782E-04  2.44214574E-05  3.07587704E-03 -9.56432794E-05
 -9.92289171E-05  3.54308189E-03  2.47990989E-03 -5.11936861E-05 -1.03706725E-04
  9.65508287E-07  4.18667573E-04  6.62054360E-04 -5.33433818E-06  9.38366150E-04
  2.06611904E-03 -1.23146935E-05  4.10281787E-04  3.50445566E-04  2.06998133E-06
  2.04613338E-05 -4.57038399E-08  1.64113722E-06  3.94212310E-05 -2.17225105E-05
 -4.43114788E-04 -4.45056364E-06 -1.85919881E-05 -5.03323559E-04  6.06978610E-04
 -3.64124277E-04 -8.56211448E-06 -1.72410382E-05 -5.44090647E-04  7.41047088E-04
  2.47581854E-06 -2.86284651E-05 -8.60659784E-05  1.68153984E-06 -1.40166026E-06
 -1.11269561E-04 -8.85530708E-06  3.05384864E-06 -1.37492356E-04 -1.63799474E-04
  2.60130030E-06 -9.82706044E-06 -3.39027081E-04  6.38678313E-05  9.76903721E-01
 -9.17363222E-03  4.34072933E-02  4.94263786E-04 -2.20886253E-03  9.09065717E-04
 -1.99695277E-03  3.68461391E-05 -1.07587301E-03  2.00552920E-03 -4.05315902E-05
  2.15241107E-03  9.81619307E-04  2.50208138E-05  1.23039308E-04  2.10927870E-04
 -4.63099370E-06  7.12908650E-06 -1.40438144E-06  1.72859677E-06  3.46572481E-05
 -1.60236832E-05  8.26995744E-04 -1.25447467E-05  1.59598682E-05 -3.05416614E-04
 -4.02210989E-04 -1.38678545E-04  2.20525891E-05 -1.06033631E-05  1.73694576E-04
 -6.31035858E-04  4.30172529E-06  5.20231403E-05 -6.01205723E-05 -7.58534649E-07
 -2.03652480E-07 -4.84465908E-05 -6.99059399E-06 -1.30653311E-06 -7.46493513E-05
 -5.39981439E-05 -5.35441428E-06 -3.06630397E-06 -4.68682184E-04  1.95069220E-04
  1.04390077E-04  4.57750937E-04 -3.23549938E-04 -8.26899443E-04  3.53366110E-04
  9.48305869E-05 -5.44151161E-05  2.01249377E-06 -1.22020681E-03  4.82011340E-04
 -1.83242460E-05  1.00608746E-03 -7.76109924E-05 -6.00541469E-06 -2.82439028E-04
  5.50360793E-05 -6.22518655E-06 -5.24808706E-05  2.65068433E-06 -1.03156394E-06
  9.46778795E-05 -9.56720580E-06 -4.15270606E-04  3.81511062E-05 -7.34378183E-06
  1.04292172E-03 -2.84192500E-04  2.69551892E-05  2.87284432E-06  2.53900460E-06
 -6.75463598E-05 -3.10661878E-04  5.00226628E-06  1.30382769E-04 -4.49225041E-05
 -7.72645749E-06  1.32503984E-06 -1.31651892E-04  5.69450981E-05  9.47021806E-06
  7.18824095E-05  1.11174154E-04 -1.98707008E-05 -5.80382400E-06 -4.87162578E-04
 -1.83037387E-04 -7.07262252E-04  4.59828290E-05 -7.03025726E-05  2.10212941E-04
 -1.78862851E-04  4.77833282E-05 -1.62803578E-05  1.52033992E-06 -2.85740403E-04
  1.04383881E-04 -8.70378847E-06 -6.19271224E-04 -5.33482264E-05  1.45995748E-05
  2.12394245E-04  7.84370701E-05  5.89833902E-06 -1.29301046E-05  1.58905283E-06
  4.44591730E-07  1.55347626E-05 -1.39250048E-06 -2.30553579E-06 -8.44668235E-06
 -3.72003355E-06 -3.92665055E-05 -1.59417123E-04 -2.20425250E-05 -2.46292894E-05
 -3.79224415E-07 -9.03917566E-05 -1.49607953E-04  1.54609034E-06  1.01528513E-05
 -3.76839205E-06 -1.49558347E-06  4.65126608E-07 -1.58949124E-05  1.72794058E-05
 -7.44974861E-06 -6.85762488E-05  2.50424635E-05  7.57424661E-06 -7.29861039E-06
  1.48806079E-04 -1.15031225E-04  4.01316979E-05  6.19163180E-05 -1.19664852E-04
 -2.98582503E-05 -2.14596535E-05 -2.19251804E-06  3.89333959E-07 -2.28310588E-04
 -9.32348743E-05  1.76115121E-06 -1.14292968E-04 -5.59046383E-05  5.56960685E-06
  1.33775602E-05  1.01080748E-06  1.12790030E-06  1.18224823E-05 -1.66707913E-05
  2.22506316E-05 -5.09268927E-06  5.26208145E-07  3.10659393E-05 -1.10629277E-04
 -2.59153011E-04  2.59172941E-05 -1.52164383E-05 -5.49942755E-04  1.61389645E-04
 -1.40329934E-05  6.67056776E-06  3.40168957E-07  2.52751220E-05 -3.38188043E-05
 -1.58368852E-06 -2.25955536E-04 -4.03357959E-06 -2.84405422E-06  8.42238611E-06
  6.66446786E-05 -5.43499469E-06 -1.41141574E-06 -7.64029331E-08 -4.74930406E-07
 -1.36206154E-05 -4.46161647E-06  2.10503349E-05 -3.42797005E-07  3.51935961E-06
  1.18467481E-04  1.48663686E-05  6.13955689E-05  7.82411114E-07  8.86649748E-06
 -8.34331319E-05 -4.31739263E-06  4.31030742E-07 -1.23307855E-05  3.68573033E-06
 -7.10448063E-07  4.09080585E-08  2.31672128E-05  8.99683769E-06 -8.19422636E-07
  3.24938705E-05 -2.05820919E-05  1.85897063E-06  2.41999862E-06  1.75854661E-05
  8.85330620E-06  7.35302176E-04  2.27317401E-05 -1.88765496E-05  2.97828914E-04
 -3.91946029E-04 -2.94022579E-05  1.21513404E-05 -3.41071656E-07  1.43820655E-04
 -8.44535735E-05  8.92405657E-07 -2.93347259E-06 -2.54599272E-04  1.19410603E-05
  4.24696021E-05  2.07454641E-04  5.36070440E-06 -4.06018645E-06 -5.70300426E-07
  4.24692699E-07 -1.82177943E-05 -2.52373878E-05 -5.13689211E-05  4.69149648E-06
 -2.12419195E-06  1.40170361E-04  3.99058008E-05 -6.47565376E-05  1.38491139E-05
 -3.15836204E-06  3.85004219E-05  3.21563593E-05  4.63799927E-07 -4.38341088E-06
  9.01291220E-07  5.37126917E-07  5.81933347E-07 -3.88036789E-07  8.17354440E-06
 -5.05532043E-06  1.19263668E-05 -2.24489785E-05  3.69690096E-06 -4.68996476E-06
  1.77380276E-04 -4.03924886E-05  2.37069545E-04  1.35752494E-03 -1.47128371E-04
 -6.91251716E-04  9.03417110E-04 -8.82997555E-06 -9.46461137E-05 -1.88823757E-06
  7.73686756E-04 -2.01672632E-03 -3.82350794E-05 -3.84916403E-04  3.33770620E-04
 -2.00597704E-05  3.23804309E-05 -3.57216344E-04 -6.95894807E-06 -1.27669205E-04
 -3.78574277E-06  8.21046144E-06 -2.11981897E-04 -1.47505361E-04 -4.59609217E-04
 -8.07781352E-06  4.10397423E-05 -1.05758510E-03 -3.00793881E-04 -4.18650587E-05
  1.01219117E-05  2.17000779E-06  1.29327860E-04  2.23255169E-05  9.37481017E-08
 -2.85829211E-05  2.46663558E-05  2.59239543E-06 -3.95885522E-07 -4.09226882E-06
  2.44637284E-05  1.48769108E-05  1.52634193E-05  2.07032929E-04  1.41307788E-05
  5.30831397E-06 -7.05670414E-05  3.08773436E-04  9.76646028E-01 -9.88639867E-03
  4.35753935E-02  3.68771673E-03 -8.93887202E-04 -9.01917669E-04  1.98225658E-03
  4.35442517E-05  1.07173888E-03 -2.32208656E-03 -4.84686048E-05 -4.27208280E-04
  6.98506340E-04  3.46303005E-05 -4.62037766E-05 -1.13879639E-04 -2.95665498E-06
 -1.93773422E-04  3.79890926E-06  8.18995379E-06 -6.36645461E-05 -5.80844757E-05
  4.08611174E-04  1.70600886E-05 -2.72491930E-05  7.17511974E-04  6.75664700E-04
 -2.05853670E-04 -1.20434553E-05  1.37677771E-05 -7.61171901E-05 -1.22805279E-04
  3.66635448E-06 -3.78245956E-05  5.93650499E-05  2.12965625E-06  9.66401579E-07
 -1.94112419E-05  2.39829224E-05  2.91520893E-06  1.76552552E-05  1.26504081E-04
  8.90426895E-06  7.24956775E-06 -2.48060490E-04  9.01030782E-05  3.75167009E-04
  1.99422277E-03  1.37181883E-03 -1.82260516E-05 -2.00100780E-04  1.86285249E-04
 -5.78730558E-06 -9.15053859E-04  6.01745606E-04 -3.04614052E-05 -4.10314627E-05
  2.64912941E-04 -1.66550516E-05 -2.36323936E-05 -1.25951574E-06 -1.69056333E-06
 -1.77846923E-05  3.97582653E-05 -2.16109168E-04  1.35480919E-05 -8.21193274E-06
  2.82921002E-04 -4.52648178E-04  9.76834458E-01 -9.18699773E-03  4.34653378E-02
  1.36086515E-04 -1.90868412E-03  2.14189415E-03  5.36998857E-04  2.14314353E-05
 -2.13477813E-03 -6.11020847E-04 -1.92407752E-05 -5.68797291E-05  7.59184828E-04
 -1.96253378E-05 -4.09303621E-06 -3.72625619E-04  1.09854965E-05  3.07600570E-05
  1.31453177E-06  2.14814028E-06  3.80435052E-05 -8.99959295E-05  7.65370031E-04
 -8.16970035E-06  2.69103734E-05  2.73992577E-04 -3.04835061E-04 -2.37874641E-04
 -1.36286225E-06 -4.02087712E-06  1.03074970E-04  3.19397617E-04 -3.94610785E-07
  6.40087281E-05  4.89955367E-05 -1.56981955E-06  1.76262822E-06  4.63414581E-05