title                                                                   
Freq      RMP2-FC                                                     Aug-CC-pVTZ         
Number of atoms                            I                5
Info1-9                                    I   N=           9
          33          24           0           0           0         100
           6           2           1
Full Title                                 C   N=           1
title       
Route                                      C   N=           4
#p freq mp2/aug-cc-pvtz density=current         
Charge                                     I                0
Multiplicity                               I                1
Number of electrons                        I               32
Number of alpha electrons                  I               16
Number of beta electrons                   I               16
Number of basis functions                  I              207
Number of independent functions            I              207
Number of point charges in /Mol/           I                0
Number of translation vectors              I                0
Atomic numbers                             I   N=           5
           1           8           8           7           8
Nuclear charges                            R   N=           5
  1.00000000E+00  8.00000000E+00  8.00000000E+00  7.00000000E+00  8.00000000E+00
Current cartesian coordinates              R   N=          15
  2.92045287E+00  3.22466558E+00  2.15857912E-32  2.74742252E+00  1.40176077E+00
 -3.86104082E-33 -7.76365255E-17  1.29752776E+00  1.15189785E-32 -4.94414399E-01
 -1.47114244E+00 -2.24490128E-32 -2.67986653E+00 -1.81512210E+00 -1.40803583E-33
Number of symbols in /Mol/                 I                0
Force Field                                I                0
Atom Types                                 C   N=           5
                                                            
Int Atom Types                             I   N=           5
           0           0           0           0           0
MM charges                                 R   N=           5
  0.00000000E+00  0.00000000E+00  0.00000000E+00  0.00000000E+00  0.00000000E+00
Integer atomic weights                     I   N=           5
           1          16          16          14          16
Real atomic weights                        R   N=           5
  1.00782504E+00  1.59949146E+01  1.59949146E+01  1.40030740E+01  1.59949146E+01
Atom fragment info                         I   N=           5
           0           0           0           0           0
Atom residue num                           I   N=           5
           0           0           0           0           0
Nuclear spins                              I   N=           5
           1           0           0           2           0
Nuclear ZEff                               R   N=           5
 -1.00000000E+00 -5.60000000E+00 -5.60000000E+00 -4.55000000E+00 -5.60000000E+00
Nuclear ZNuc                               R   N=           5
  1.00000000E+00  8.00000000E+00  8.00000000E+00  7.00000000E+00  8.00000000E+00
Nuclear QMom                               R   N=           5
  0.00000000E+00  0.00000000E+00  0.00000000E+00  2.04400000E+00  0.00000000E+00
Nuclear GFac                               R   N=           5
  2.79284600E+00  0.00000000E+00  0.00000000E+00  4.03761000E-01  0.00000000E+00
MicOpt                                     I   N=           5
          -1          -1          -1          -1          -1
Number of residues                         I                0
Number of secondary structures             I                0
SymInf integers                            I   N=          26
           1           2           1           1           1           1
           1          -1           0           0           0           0
           0           0           0           0           0           0
           0           0           0           0           0           0
           0           0
RotTr to input orientation                 R   N=          12
 -9.95525300E-01 -9.75365794E-17 -9.44953854E-02  9.44953854E-02 -7.40554758E-17
 -9.95525300E-01  9.01022317E-17 -1.00000000E+00  8.29408564E-17  2.60266870E+00
  0.00000000E+00  3.48620549E+00
Number of contracted shells                I               65
Number of primitive shells                 I              119
Pure/Cartesian d shells                    I                0
Pure/Cartesian f shells                    I                0
Highest angular momentum                   I                3
Largest degree of contraction              I                7
Shell types                                I   N=          65
           0           0           0           0           1           1
           1          -2          -2           0           0           0
           0           0           1           1           1           1
          -2          -2          -2          -3          -3           0
           0           0           0           0           1           1
           1           1          -2          -2          -2          -3
          -3           0           0           0           0           0
           1           1           1           1          -2          -2
          -2          -3          -3           0           0           0
           0           0           1           1           1           1
          -2          -2          -2          -3          -3
Number of primitives per shell             I   N=          65
           3           1           1           1           1           1
           1           1           1           7           6           1
           1           1           3           1           1           1
           1           1           1           1           1           7
           6           1           1           1           3           1
           1           1           1           1           1           1
           1           7           6           1           1           1
           3           1           1           1           1           1
           1           1           1           7           6           1
           1           1           3           1           1           1
           1           1           1           1           1
Shell to atom map                          I   N=          65
           1           1           1           1           1           1
           1           1           1           2           2           2
           2           2           2           2           2           2
           2           2           2           2           2           3
           3           3           3           3           3           3
           3           3           3           3           3           3
           3           4           4           4           4           4
           4           4           4           4           4           4
           4           4           4           5           5           5
           5           5           5           5           5           5
           5           5           5           5           5
Primitive exponents                        R   N=         119
  3.38700000E+01  5.09500000E+00  1.15900000E+00  3.25800000E-01  1.02700000E-01
  2.52600000E-02  1.40700000E+00  3.88000000E-01  1.02000000E-01  1.05700000E+00
  2.47000000E-01  1.53300000E+04  2.29900000E+03  5.22400000E+02  1.47300000E+02
  4.75500000E+01  1.67600000E+01  6.20700000E+00  5.22400000E+02  1.47300000E+02
  4.75500000E+01  1.67600000E+01  6.20700000E+00  6.88200000E-01  1.75200000E+00
  2.38400000E-01  7.37600000E-02  3.44600000E+01  7.74900000E+00  2.28000000E+00
  7.15600000E-01  2.14000000E-01  5.97400000E-02  2.31400000E+00  6.45000000E-01
  2.14000000E-01  1.42800000E+00  5.00000000E-01  1.53300000E+04  2.29900000E+03
  5.22400000E+02  1.47300000E+02  4.75500000E+01  1.67600000E+01  6.20700000E+00
  5.22400000E+02  1.47300000E+02  4.75500000E+01  1.67600000E+01  6.20700000E+00
  6.88200000E-01  1.75200000E+00  2.38400000E-01  7.37600000E-02  3.44600000E+01
  7.74900000E+00  2.28000000E+00  7.15600000E-01  2.14000000E-01  5.97400000E-02
  2.31400000E+00  6.45000000E-01  2.14000000E-01  1.42800000E+00  5.00000000E-01
  1.14200000E+04  1.71200000E+03  3.89300000E+02  1.10000000E+02  3.55700000E+01
  1.25400000E+01  4.64400000E+00  3.89300000E+02  1.10000000E+02  3.55700000E+01
  1.25400000E+01  4.64400000E+00  5.11800000E-01  1.29300000E+00  1.78700000E-01
  5.76000000E-02  2.66300000E+01  5.94800000E+00  1.74200000E+00  5.55000000E-01
  1.72500000E-01  4.91000000E-02  1.65400000E+00  4.69000000E-01  1.51000000E-01
  1.09300000E+00  3.64000000E-01  1.53300000E+04  2.29900000E+03  5.22400000E+02
  1.47300000E+02  4.75500000E+01  1.67600000E+01  6.20700000E+00  5.22400000E+02
  1.47300000E+02  4.75500000E+01  1.67600000E+01  6.20700000E+00  6.88200000E-01
  1.75200000E+00  2.38400000E-01  7.37600000E-02  3.44600000E+01  7.74900000E+00
  2.28000000E+00  7.15600000E-01  2.14000000E-01  5.97400000E-02  2.31400000E+00
  6.45000000E-01  2.14000000E-01  1.42800000E+00  5.00000000E-01
Contraction coefficients                   R   N=         119
  2.54948632E-02  1.90362766E-01  8.52162022E-01  1.00000000E+00  1.00000000E+00
  1.00000000E+00  1.00000000E+00  1.00000000E+00  1.00000000E+00  1.00000000E+00
  1.00000000E+00  5.19808943E-04  4.02025621E-03  2.07128267E-02  8.10105536E-02
  2.35962985E-01  4.42653446E-01  3.57064423E-01 -4.42115008E-05 -1.22591041E-03
 -1.05517725E-02 -6.74452633E-02 -1.71198607E-01  1.07329856E+00  1.00000000E+00
  1.00000000E+00  1.00000000E+00  4.11634896E-02  2.57762836E-01  8.02419274E-01
  1.00000000E+00  1.00000000E+00  1.00000000E+00  1.00000000E+00  1.00000000E+00
  1.00000000E+00  1.00000000E+00  1.00000000E+00  5.19808943E-04  4.02025621E-03
  2.07128267E-02  8.10105536E-02  2.35962985E-01  4.42653446E-01  3.57064423E-01
 -4.42115008E-05 -1.22591041E-03 -1.05517725E-02 -6.74452633E-02 -1.71198607E-01
  1.07329856E+00  1.00000000E+00  1.00000000E+00  1.00000000E+00  4.11634896E-02
  2.57762836E-01  8.02419274E-01  1.00000000E+00  1.00000000E+00  1.00000000E+00
  1.00000000E+00  1.00000000E+00  1.00000000E+00  1.00000000E+00  1.00000000E+00
  5.34563860E-04  4.13435660E-03  2.12335358E-02  8.25006224E-02  2.38138871E-01
  4.42551547E-01  3.53757422E-01 -4.89867350E-05 -1.19527323E-03 -1.03490714E-02
 -6.48680190E-02 -1.71552477E-01  1.07289568E+00  1.00000000E+00  1.00000000E+00
  1.00000000E+00  3.98072123E-02  2.49002660E-01  8.10479727E-01  1.00000000E+00
  1.00000000E+00  1.00000000E+00  1.00000000E+00  1.00000000E+00  1.00000000E+00
  1.00000000E+00  1.00000000E+00  5.19808943E-04  4.02025621E-03  2.07128267E-02
  8.10105536E-02  2.35962985E-01  4.42653446E-01  3.57064423E-01 -4.42115008E-05
 -1.22591041E-03 -1.05517725E-02 -6.74452633E-02 -1.71198607E-01  1.07329856E+00
  1.00000000E+00  1.00000000E+00  1.00000000E+00  4.11634896E-02  2.57762836E-01
  8.02419274E-01  1.00000000E+00  1.00000000E+00  1.00000000E+00  1.00000000E+00
  1.00000000E+00  1.00000000E+00  1.00000000E+00  1.00000000E+00
Coordinates of each shell                  R   N=         195
  2.92045287E+00  3.22466558E+00  0.00000000E+00  2.92045287E+00  3.22466558E+00
  0.00000000E+00  2.92045287E+00  3.22466558E+00  0.00000000E+00  2.92045287E+00
  3.22466558E+00  0.00000000E+00  2.92045287E+00  3.22466558E+00  0.00000000E+00
  2.92045287E+00  3.22466558E+00  0.00000000E+00  2.92045287E+00  3.22466558E+00
  0.00000000E+00  2.92045287E+00  3.22466558E+00  0.00000000E+00  2.92045287E+00
  3.22466558E+00  0.00000000E+00  2.74742252E+00  1.40176077E+00  0.00000000E+00
  2.74742252E+00  1.40176077E+00  0.00000000E+00  2.74742252E+00  1.40176077E+00
  0.00000000E+00  2.74742252E+00  1.40176077E+00  0.00000000E+00  2.74742252E+00
  1.40176077E+00  0.00000000E+00  2.74742252E+00  1.40176077E+00  0.00000000E+00
  2.74742252E+00  1.40176077E+00  0.00000000E+00  2.74742252E+00  1.40176077E+00
  0.00000000E+00  2.74742252E+00  1.40176077E+00  0.00000000E+00  2.74742252E+00
  1.40176077E+00  0.00000000E+00  2.74742252E+00  1.40176077E+00  0.00000000E+00
  2.74742252E+00  1.40176077E+00  0.00000000E+00  2.74742252E+00  1.40176077E+00
  0.00000000E+00  2.74742252E+00  1.40176077E+00  0.00000000E+00 -7.98089616E-18
  1.29752776E+00  0.00000000E+00 -7.98089616E-18  1.29752776E+00  0.00000000E+00
 -7.98089616E-18  1.29752776E+00  0.00000000E+00 -7.98089616E-18  1.29752776E+00
  0.00000000E+00 -7.98089616E-18  1.29752776E+00  0.00000000E+00 -7.98089616E-18
  1.29752776E+00  0.00000000E+00 -7.98089616E-18  1.29752776E+00  0.00000000E+00
 -7.98089616E-18  1.29752776E+00  0.00000000E+00 -7.98089616E-18  1.29752776E+00
  0.00000000E+00 -7.98089616E-18  1.29752776E+00  0.00000000E+00 -7.98089616E-18
  1.29752776E+00  0.00000000E+00 -7.98089616E-18  1.29752776E+00  0.00000000E+00
 -7.98089616E-18  1.29752776E+00  0.00000000E+00 -7.98089616E-18  1.29752776E+00
  0.00000000E+00 -4.94414399E-01 -1.47114244E+00  0.00000000E+00 -4.94414399E-01
 -1.47114244E+00  0.00000000E+00 -4.94414399E-01 -1.47114244E+00  0.00000000E+00
 -4.94414399E-01 -1.47114244E+00  0.00000000E+00 -4.94414399E-01 -1.47114244E+00
  0.00000000E+00 -4.94414399E-01 -1.47114244E+00  0.00000000E+00 -4.94414399E-01
 -1.47114244E+00  0.00000000E+00 -4.94414399E-01 -1.47114244E+00  0.00000000E+00
 -4.94414399E-01 -1.47114244E+00  0.00000000E+00 -4.94414399E-01 -1.47114244E+00
  0.00000000E+00 -4.94414399E-01 -1.47114244E+00  0.00000000E+00 -4.94414399E-01
 -1.47114244E+00  0.00000000E+00 -4.94414399E-01 -1.47114244E+00  0.00000000E+00
 -4.94414399E-01 -1.47114244E+00  0.00000000E+00 -2.67986653E+00 -1.81512210E+00
  0.00000000E+00 -2.67986653E+00 -1.81512210E+00  0.00000000E+00 -2.67986653E+00
 -1.81512210E+00  0.00000000E+00 -2.67986653E+00 -1.81512210E+00  0.00000000E+00
 -2.67986653E+00 -1.81512210E+00  0.00000000E+00 -2.67986653E+00 -1.81512210E+00
  0.00000000E+00 -2.67986653E+00 -1.81512210E+00  0.00000000E+00 -2.67986653E+00
 -1.81512210E+00  0.00000000E+00 -2.67986653E+00 -1.81512210E+00  0.00000000E+00
 -2.67986653E+00 -1.81512210E+00  0.00000000E+00 -2.67986653E+00 -1.81512210E+00
  0.00000000E+00 -2.67986653E+00 -1.81512210E+00  0.00000000E+00 -2.67986653E+00
 -1.81512210E+00  0.00000000E+00 -2.67986653E+00 -1.81512210E+00  0.00000000E+00
Num ILSW                                   I              100
ILSW                                       I   N=         100
           0           0           0           0           2           0
           0           0           0           0           0          -1
           5           0           0           0           2           0
           0           0           0           0           1           0
           1           0           0           0           0           0
           0           0      100000           0          -1           0
           0           0           0           0           0           0
           0           0           0           1           1           0
           0 -2000000000           1           0           0           0
           0           0           4          52           0           0
           0           0           0           0           0           0
           0           0           0           5           4           1
           0           0           0           0           0           0
           0           0           0           0           0           0
           0           0           0           0           0           0
           0           0           0           0           0           0
           0           0           0           0
Num RLSW                                   I               52
RLSW                                       R   N=          52
  1.00000000E+00  1.00000000E+00  1.00000000E+00  1.00000000E+00  1.00000000E+00
  0.00000000E+00  0.00000000E+00  1.00000000E+00  0.00000000E+00  0.00000000E+00
  0.00000000E+00  0.00000000E+00  1.00000000E+00  0.00000000E+00  0.00000000E+00
  0.00000000E+00  0.00000000E+00  1.00000000E+00  0.00000000E+00  0.00000000E+00
  0.00000000E+00  0.00000000E+00  1.00000000E+00  0.00000000E+00  0.00000000E+00
  0.00000000E+00  0.00000000E+00  1.00000000E+00  0.00000000E+00  0.00000000E+00
  0.00000000E+00  0.00000000E+00  1.00000000E+00  0.00000000E+00  0.00000000E+00
  0.00000000E+00  0.00000000E+00  0.00000000E+00  1.00000000E+00  1.00000000E+00
  0.00000000E+00  1.00000000E+00  0.00000000E+00  0.00000000E+00  0.00000000E+00
  0.00000000E+00  0.00000000E+00  0.00000000E+00  0.00000000E+00  0.00000000E+00
  0.00000000E+00  0.00000000E+00
MxBond                                     I                2
NBond                                      I   N=           5
           1           2           2           2           1
IBond                                      I   N=          10
           2           0           1           3           2           4
           3           5           4           0
RBond                                      R   N=          10
  1.00000000E+00  0.00000000E+00  1.00000000E+00  1.00000000E+00  1.00000000E+00
  1.00000000E+00  1.00000000E+00  2.00000000E+00  2.00000000E+00  0.00000000E+00
Virial Ratio                               R      2.002507477935758E+00
SCF Energy                                 R     -2.794986316254463E+02
MP2 Energy                                 R     -2.804465604635490E+02
Total Energy                               R     -2.804465604635490E+02
Post-SCF wavefunction norm                 R      1.586015536323519E+00
RMS Force                                  R      2.982349455324591E-03
RMS Density                                R      4.237591756072843E-09
NImag                                      I                1
Job Status                                 I                1
Nuclear derivative order                   I                2
External E-field                           R   N=          35
  0.00000000E+00  0.00000000E+00  0.00000000E+00  0.00000000E+00  0.00000000E+00
  0.00000000E+00  0.00000000E+00  0.00000000E+00  0.00000000E+00  0.00000000E+00
  0.00000000E+00  0.00000000E+00  0.00000000E+00  0.00000000E+00  0.00000000E+00
  0.00000000E+00  0.00000000E+00  0.00000000E+00  0.00000000E+00  0.00000000E+00
  0.00000000E+00  0.00000000E+00  0.00000000E+00  0.00000000E+00  0.00000000E+00
  0.00000000E+00  0.00000000E+00  0.00000000E+00  0.00000000E+00  0.00000000E+00
  0.00000000E+00  0.00000000E+00  0.00000000E+00  0.00000000E+00  0.00000000E+00
IOpCl                                      I                0
IROHF                                      I                0
Alpha Orbital Energies                     R   N=         207
 -2.06912514E+01 -2.06858959E+01 -2.06563645E+01 -1.58176062E+01 -1.62314595E+00
 -1.49138236E+00 -1.24562623E+00 -9.50476369E-01 -7.70487862E-01 -7.55951592E-01
 -7.07147772E-01 -6.80848332E-01 -6.21842040E-01 -5.87801203E-01 -4.82046158E-01
 -4.70999609E-01  3.04377349E-02  6.78807152E-02  8.53684738E-02  1.01362439E-01
  1.33778302E-01  1.34142828E-01  1.44697311E-01  1.55113687E-01  1.78902403E-01
  1.93984044E-01  1.99661551E-01  2.01869148E-01  2.21559526E-01  2.36666867E-01
  2.37051660E-01  2.65062565E-01  2.82393503E-01  3.04530657E-01  3.09711137E-01
  3.41253925E-01  3.48758804E-01  3.86929006E-01  4.23058680E-01  4.32677717E-01
  5.25860445E-01  5.27936822E-01  5.55339404E-01  5.80016213E-01  6.23779184E-01
  6.36597767E-01  6.73348815E-01  6.84497118E-01  7.07339418E-01  7.11745642E-01
  7.24465310E-01  7.31482302E-01  7.45796018E-01  7.89727273E-01  7.93116319E-01
  8.09160117E-01  8.14838915E-01  8.29288084E-01  8.65971549E-01  9.08168998E-01
  9.23057487E-01  9.24156540E-01  9.59375764E-01  9.73401757E-01  9.85845757E-01
  1.01899027E+00  1.05081364E+00  1.05325397E+00  1.07975152E+00  1.11538522E+00
  1.13836052E+00  1.18797611E+00  1.21984110E+00  1.23196008E+00  1.33557574E+00
  1.34488908E+00  1.38925939E+00  1.44886197E+00  1.48757240E+00  1.50996907E+00
  1.53605125E+00  1.56331140E+00  1.57438228E+00  1.61176874E+00  1.66164647E+00
  1.66967470E+00  1.70039322E+00  1.79288188E+00  1.82969679E+00  1.82970929E+00
  1.87914286E+00  1.90648419E+00  1.95569002E+00  1.98630423E+00  2.00188337E+00
  2.06874415E+00  2.11745283E+00  2.12794671E+00  2.15350788E+00  2.21870362E+00
  2.26138044E+00  2.26703977E+00  2.28692176E+00  2.31353953E+00  2.33685476E+00
  2.38601072E+00  2.41989792E+00  2.42193211E+00  2.45139443E+00  2.45982677E+00
  2.47157408E+00  2.49691281E+00  2.59217563E+00  2.59444864E+00  2.61385688E+00
  2.62209204E+00  2.63696674E+00  2.66477092E+00  2.75262766E+00  2.81017210E+00
  2.84247975E+00  2.87345913E+00  2.89588724E+00  2.89958644E+00  2.95644076E+00
  3.01466784E+00  3.05580408E+00  3.11385456E+00  3.20581859E+00  3.22412927E+00
  3.31161895E+00  3.33386243E+00  3.51207720E+00  3.63262361E+00  3.82436946E+00
  3.83820355E+00  4.14828476E+00  4.17087753E+00  4.18044946E+00  4.24518015E+00
  4.35193666E+00  4.39280410E+00  4.46543308E+00  4.51532014E+00  4.65133073E+00
  4.70564248E+00  4.79616471E+00  4.80765229E+00  4.83269931E+00  4.89246939E+00
  5.01329487E+00  5.06889800E+00  5.09035561E+00  5.14589199E+00  5.17029397E+00
  5.23549534E+00  5.26138945E+00  5.30228450E+00  5.32812144E+00  5.34297776E+00
  5.59652877E+00  5.66821092E+00  5.75104623E+00  5.83111571E+00  5.94265626E+00
  6.15573710E+00  6.30847303E+00  6.32662958E+00  6.39059569E+00  6.48648152E+00
  6.49923763E+00  6.61263887E+00  6.66916290E+00  6.69120249E+00  6.76217932E+00
  6.76349734E+00  6.82352717E+00  6.88936612E+00  7.00683943E+00  7.05244172E+00
  7.05977534E+00  7.09049296E+00  7.11559879E+00  7.14182294E+00  7.18050377E+00
  7.21007327E+00  7.24340820E+00  7.31287835E+00  7.32045752E+00  7.33830679E+00
  7.39035123E+00  7.41664462E+00  7.47680068E+00  7.59665000E+00  7.60318984E+00
  7.61198999E+00  7.65244132E+00  7.77745097E+00  7.88024476E+00  8.05963249E+00
  8.30087022E+00  8.40853110E+00  8.53069948E+00  1.33354458E+01  1.42416776E+01
  1.51386458E+01  1.60983509E+01
Alpha MO coefficients                      R   N=       42849
  3.71484352E-05 -9.71390829E-04 -4.82822917E-04 -1.31842034E-05 -2.27694258E-05
  1.69272386E-05  0.00000000E+00  5.06377633E-06  2.75355426E-04  0.00000000E+00
 -3.97761878E-05  1.33759126E-04  0.00000000E+00  2.55233121E-05  0.00000000E+00
  0.00000000E+00  1.37687913E-05  1.00365737E-05 -2.40332886E-05  0.00000000E+00
  0.00000000E+00  8.90947789E-06  2.95274231E-05  5.61784423E-05  8.61383489E-05
 -2.87515947E-05  7.01598708E-04  6.21592513E-04  8.89478138E-06  2.21920055E-06
  0.00000000E+00 -6.34211257E-05  2.02751441E-05  0.00000000E+00  3.45370976E-04
  8.54757682E-04  0.00000000E+00  9.44307179E-06  7.66778341E-05  0.00000000E+00
 -2.41417196E-06  0.00000000E+00  0.00000000E+00  4.64344121E-07 -7.04836575E-06
 -3.28162208E-05  0.00000000E+00  0.00000000E+00 -2.99988309E-05  8.70231055E-05
 -1.97624913E-05  0.00000000E+00  0.00000000E+00 -2.66198220E-04 -1.43364742E-04
  0.00000000E+00  8.41416197E-06  5.47613705E-06  0.00000000E+00  0.00000000E+00
  3.97779371E-06 -1.83361495E-05  0.00000000E+00 -4.19025136E-05 -3.56729442E-05
  0.00000000E+00  0.00000000E+00 -7.10531023E-05  1.21948339E-05 -3.06302745E-03
  9.30933056E-05 -1.61540502E-04 -1.09441727E-04 -4.88468704E-04  7.34500244E-07
  2.35837962E-05  0.00000000E+00 -5.80692062E-05 -5.84274508E-05  0.00000000E+00
  2.58462482E-04 -7.18717572E-05  0.00000000E+00 -1.73944338E-04 -4.52578778E-05
  0.00000000E+00 -8.33440595E-06  0.00000000E+00  0.00000000E+00  2.00363044E-05
  1.72946390E-05 -8.81771734E-07  0.00000000E+00  0.00000000E+00 -9.64674070E-05
 -3.07531204E-05  3.30251159E-06  0.00000000E+00  0.00000000E+00 -1.75306612E-04
 -1.84333086E-04  0.00000000E+00  5.55655554E-06  1.57857308E-06  0.00000000E+00
  0.00000000E+00  5.64515682E-06 -1.79485603E-05  0.00000000E+00 -4.94354138E-05
 -2.79909471E-06  0.00000000E+00  0.00000000E+00 -7.43580678E-05  1.84149973E-04
  2.60412994E-04  1.46862267E-03 -8.21637606E-05 -1.43460762E-03  4.39883403E-04
 -1.46443791E-04 -1.14376106E-06  0.00000000E+00 -2.06089721E-03 -3.94634013E-04
  0.00000000E+00  1.01694511E-03  7.82954472E-04  0.00000000E+00 -1.73428013E-04
  5.91332971E-05  0.00000000E+00 -1.23439203E-04  0.00000000E+00  0.00000000E+00
  2.40236565E-04  9.41097214E-05 -4.45411301E-04  0.00000000E+00  0.00000000E+00
  8.97160748E-04 -3.25064009E-05  4.49966433E-06  0.00000000E+00  0.00000000E+00
 -3.33263013E-04 -1.10679966E-04  0.00000000E+00 -2.71169268E-06  1.51930616E-05
  0.00000000E+00  0.00000000E+00  1.71649413E-05  1.38785300E-05  0.00000000E+00
  1.69505080E-04 -6.59881304E-05  0.00000000E+00  0.00000000E+00 -2.51876588E-04
  2.82280344E-05  9.76654680E-01 -9.85442620E-03  4.35517587E-02  4.46546094E-03
 -4.57327578E-04  2.14158370E-03  4.82769348E-04  0.00000000E+00 -2.38080964E-03
 -6.02859900E-04  0.00000000E+00  1.14228455E-03  9.38412707E-06  0.00000000E+00
  2.82442886E-06 -3.93340817E-05  0.00000000E+00 -2.31763298E-04  0.00000000E+00
  0.00000000E+00  1.04687208E-04  3.10311645E-05  3.85797435E-04  0.00000000E+00
  0.00000000E+00 -8.26081521E-04 -4.16468596E-04 -1.57428615E-04  0.00000000E+00
  0.00000000E+00  2.63452724E-04  2.50010172E-05  0.00000000E+00  5.17320767E-05
  1.76292958E-05  0.00000000E+00  0.00000000E+00 -2.25846591E-05 -1.35570116E-05
  0.00000000E+00  1.35040556E-04  9.18273341E-06  0.00000000E+00  0.00000000E+00
 -1.86858559E-04 -1.38366365E-04  9.39454457E-05 -6.87901868E-04 -7.77572978E-04
 -5.18296796E-06 -2.33453841E-05 -2.67993181E-05  0.00000000E+00 -5.14948322E-05
  7.56122319E-05  0.00000000E+00  8.85028254E-05  5.22136620E-05  0.00000000E+00
  3.29077512E-05  0.00000000E+00  0.00000000E+00 -4.83163044E-05  2.25059102E-05
 -4.27569877E-06  0.00000000E+00  0.00000000E+00 -1.40921014E-04  1.17201984E-04
  4.79775481E-03 -2.78149013E-04  2.24650699E-05  1.53855454E-03  1.83343646E-03
  1.06296608E-04  8.32511405E-06  0.00000000E+00 -6.14853689E-04 -3.61257281E-05
  0.00000000E+00 -1.04545778E-03  8.19551836E-04  0.00000000E+00 -3.97226660E-04
  6.69380436E-05  0.00000000E+00  2.87088610E-05  0.00000000E+00  0.00000000E+00
 -5.48318585E-05  4.25267955E-06 -3.79093168E-04  0.00000000E+00  0.00000000E+00
  7.40648162E-04 -1.76705031E-05 -4.48668301E-04  0.00000000E+00  0.00000000E+00
  2.20942668E-04 -1.38056450E-06  0.00000000E+00  8.04983585E-05  1.31643785E-05
  0.00000000E+00  0.00000000E+00 -1.09869713E-04 -4.62942232E-06  0.00000000E+00
  2.54476904E-04 -2.68775589E-05  0.00000000E+00  0.00000000E+00 -3.61381376E-04
  4.08416111E-05  9.76925829E-01 -9.20066491E-03  4.32807575E-02  2.27274389E-03
 -8.15062339E-04  1.51372240E-03 -1.28689210E-03  0.00000000E+00 -1.47134319E-03
  1.28327377E-03  0.00000000E+00  1.20670392E-04 -1.23819568E-03  0.00000000E+00
 -1.38078862E-04 -3.02856985E-05  0.00000000E+00  5.39279570E-05  0.00000000E+00
  0.00000000E+00 -2.75129862E-05  1.88194502E-05  7.21009718E-04  0.00000000E+00
  0.00000000E+00 -2.76407792E-04 -3.69964884E-04 -3.81266303E-04  0.00000000E+00
  0.00000000E+00 -3.12534688E-04 -3.63525178E-04  0.00000000E+00  5.01299361E-05
 -4.57569198E-05  0.00000000E+00  0.00000000E+00 -3.73522438E-05 -1.46219110E-05
  0.00000000E+00  1.89042267E-05  3.41798254E-05  0.00000000E+00  0.00000000E+00
 -2.97208377E-04 -1.20403489E-04  3.02214254E-05 -7.76621353E-06 -2.37172500E-04
 -7.97569057E-04 -1.72499707E-04 -2.75063860E-05 -9.03570707E-05  0.00000000E+00
  2.37649895E-04  5.70118611E-04  0.00000000E+00 -8.56759705E-04 -6.27598957E-04
  0.00000000E+00 -1.28148046E-04 -4.19209949E-05  0.00000000E+00 -7.70081280E-06
  0.00000000E+00  0.00000000E+00 -7.41507490E-06  9.69194174E-06 -2.99171773E-04
  0.00000000E+00  0.00000000E+00 -7.68444175E-04  1.16804088E-04 -2.31570942E-05
  0.00000000E+00  0.00000000E+00  1.12360534E-04 -1.04140536E-04  0.00000000E+00
 -1.95283420E-05 -1.14336957E-04  0.00000000E+00  0.00000000E+00 -5.52972351E-05
 -1.34339500E-04  0.00000000E+00  1.24243746E-05 -1.40937428E-04  0.00000000E+00
  0.00000000E+00  6.87056876E-05 -4.26100420E-04  3.10211588E-03  7.25016000E-05
  1.27722217E-04 -2.57857852E-04  9.31293173E-05  5.28274029E-06 -2.81799113E-05
  0.00000000E+00  5.13318637E-05  1.74532374E-04  0.00000000E+00  2.04927224E-04
  2.44390057E-04  0.00000000E+00  1.14403486E-04  2.23923557E-05  0.00000000E+00
 -5.86184103E-06  0.00000000E+00  0.00000000E+00 -1.65157778E-05  4.64630225E-07
  6.88188811E-06  0.00000000E+00  0.00000000E+00  6.64620727E-05  1.00081688E-04
 -9.45581173E-05  0.00000000E+00  0.00000000E+00  1.57891878E-04  1.77969369E-04
  0.00000000E+00  1.50626670E-05 -5.55725085E-06  0.00000000E+00  0.00000000E+00
 -8.07992826E-06 -9.88112076E-06  0.00000000E+00 -2.74364794E-05  4.80531087E-05
  0.00000000E+00  0.00000000E+00  8.18878767E-05  9.42468890E-05  4.75352957E-04
  2.01480099E-03  7.99080440E-05  1.32389612E-05 -4.11176466E-05 -2.45619363E-04
  0.00000000E+00  1.18728667E-04 -1.25872271E-03  0.00000000E+00  3.08969216E-04
 -3.24155994E-04  0.00000000E+00 -1.43249767E-06  0.00000000E+00  0.00000000E+00
  7.67955590E-05  1.57045653E-05 -1.59378437E-04  0.00000000E+00  0.00000000E+00
 -5.36811360E-04 -2.75374348E-05  9.76829319E-01 -9.15790301E-03  4.34486290E-02
  1.96395364E-04 -1.09418169E-03 -1.56297099E-03  1.43273867E-03  0.00000000E+00
  1.57321120E-03 -1.27242545E-03  0.00000000E+00 -5.58168199E-04 -8.27620592E-04
  0.00000000E+00  5.43172770E-05 -2.17693395E-05  0.00000000E+00  2.93070493E-05
  0.00000000E+00  0.00000000E+00 -1.17106874E-04 -4.34061551E-06  7.53324564E-04
  0.00000000E+00  0.00000000E+00 -1.98858064E-04 -2.35590469E-04 -2.71932170E-04
  0.00000000E+00  0.00000000E+00  1.64830566E-04  1.27105756E-04  0.00000000E+00
 -6.41037376E-05  1.02698284E-06  0.00000000E+00  0.00000000E+00  1.89433019E-05