title                                                                   
Freq      RMP2-FC                                                     Aug-CC-pVTZ         
Number of atoms                            I                5
Info1-9                                    I   N=           9
          33          24           0           0           0         100
           6           2           1
Full Title                                 C   N=           1
title       
Route                                      C   N=           4
#p freq mp2/aug-cc-pvtz density=current         
Charge                                     I                0
Multiplicity                               I                1
Number of electrons                        I               32
Number of alpha electrons                  I               16
Number of beta electrons                   I               16
Number of basis functions                  I              207
Number of independent functions            I              207
Number of point charges in /Mol/           I                0
Number of translation vectors              I                0
Atomic numbers                             I   N=           5
           1           8           8           7           8
Nuclear charges                            R   N=           5
  1.00000000E+00  8.00000000E+00  8.00000000E+00  7.00000000E+00  8.00000000E+00
Current cartesian coordinates              R   N=          15
  2.08137485E+00 -1.11255517E+00 -4.93038066E-32  2.46375859E+00  7.09852365E-01
 -4.93038066E-32  1.35233825E-16  1.72964887E+00  6.16297582E-32 -1.86545757E+00
 -9.56525703E-02  0.00000000E+00 -1.09165507E+00 -2.21673584E+00 -8.62816615E-32
Number of symbols in /Mol/                 I                0
Force Field                                I                0
Atom Types                                 C   N=           5
                                                            
Int Atom Types                             I   N=           5
           0           0           0           0           0
MM charges                                 R   N=           5
  0.00000000E+00  0.00000000E+00  0.00000000E+00  0.00000000E+00  0.00000000E+00
Integer atomic weights                     I   N=           5
           1          16          16          14          16
Real atomic weights                        R   N=           5
  1.00782504E+00  1.59949146E+01  1.59949146E+01  1.40030740E+01  1.59949146E+01
Atom fragment info                         I   N=           5
           0           0           0           0           0
Atom residue num                           I   N=           5
           0           0           0           0           0
Nuclear spins                              I   N=           5
           1           0           0           2           0
Nuclear ZEff                               R   N=           5
 -1.00000000E+00 -5.60000000E+00 -5.60000000E+00 -4.55000000E+00 -5.60000000E+00
Nuclear ZNuc                               R   N=           5
  1.00000000E+00  8.00000000E+00  8.00000000E+00  7.00000000E+00  8.00000000E+00
Nuclear QMom                               R   N=           5
  0.00000000E+00  0.00000000E+00  0.00000000E+00  2.04400000E+00  0.00000000E+00
Nuclear GFac                               R   N=           5
  2.79284600E+00  0.00000000E+00  0.00000000E+00  4.03761000E-01  0.00000000E+00
MicOpt                                     I   N=           5
          -1          -1          -1          -1          -1
Number of residues                         I                0
Number of secondary structures             I                0
SymInf integers                            I   N=          26
           1           2           1           1           1           1
           1          -1           0           0           0           0
           0           0           0           0           0           0
           0           0           0           0           0           0
           0           0
RotTr to input orientation                 R   N=          12
 -9.78688246E-01 -1.25043723E-16  2.05351693E-01  2.05351693E-01  2.62370988E-17
  9.78688246E-01 -1.27766655E-16  1.00000000E+00  0.00000000E+00  2.26548219E+00
  0.00000000E+00  6.61430817E-01
Number of contracted shells                I               65
Number of primitive shells                 I              119
Pure/Cartesian d shells                    I                0
Pure/Cartesian f shells                    I                0
Highest angular momentum                   I                3
Largest degree of contraction              I                7
Shell types                                I   N=          65
           0           0           0           0           1           1
           1          -2          -2           0           0           0
           0           0           1           1           1           1
          -2          -2          -2          -3          -3           0
           0           0           0           0           1           1
           1           1          -2          -2          -2          -3
          -3           0           0           0           0           0
           1           1           1           1          -2          -2
          -2          -3          -3           0           0           0
           0           0           1           1           1           1
          -2          -2          -2          -3          -3
Number of primitives per shell             I   N=          65
           3           1           1           1           1           1
           1           1           1           7           6           1
           1           1           3           1           1           1
           1           1           1           1           1           7
           6           1           1           1           3           1
           1           1           1           1           1           1
           1           7           6           1           1           1
           3           1           1           1           1           1
           1           1           1           7           6           1
           1           1           3           1           1           1
           1           1           1           1           1
Shell to atom map                          I   N=          65
           1           1           1           1           1           1
           1           1           1           2           2           2
           2           2           2           2           2           2
           2           2           2           2           2           3
           3           3           3           3           3           3
           3           3           3           3           3           3
           3           4           4           4           4           4
           4           4           4           4           4           4
           4           4           4           5           5           5
           5           5           5           5           5           5
           5           5           5           5           5
Primitive exponents                        R   N=         119
  3.38700000E+01  5.09500000E+00  1.15900000E+00  3.25800000E-01  1.02700000E-01
  2.52600000E-02  1.40700000E+00  3.88000000E-01  1.02000000E-01  1.05700000E+00
  2.47000000E-01  1.53300000E+04  2.29900000E+03  5.22400000E+02  1.47300000E+02
  4.75500000E+01  1.67600000E+01  6.20700000E+00  5.22400000E+02  1.47300000E+02
  4.75500000E+01  1.67600000E+01  6.20700000E+00  6.88200000E-01  1.75200000E+00
  2.38400000E-01  7.37600000E-02  3.44600000E+01  7.74900000E+00  2.28000000E+00
  7.15600000E-01  2.14000000E-01  5.97400000E-02  2.31400000E+00  6.45000000E-01
  2.14000000E-01  1.42800000E+00  5.00000000E-01  1.53300000E+04  2.29900000E+03
  5.22400000E+02  1.47300000E+02  4.75500000E+01  1.67600000E+01  6.20700000E+00
  5.22400000E+02  1.47300000E+02  4.75500000E+01  1.67600000E+01  6.20700000E+00
  6.88200000E-01  1.75200000E+00  2.38400000E-01  7.37600000E-02  3.44600000E+01
  7.74900000E+00  2.28000000E+00  7.15600000E-01  2.14000000E-01  5.97400000E-02
  2.31400000E+00  6.45000000E-01  2.14000000E-01  1.42800000E+00  5.00000000E-01
  1.14200000E+04  1.71200000E+03  3.89300000E+02  1.10000000E+02  3.55700000E+01
  1.25400000E+01  4.64400000E+00  3.89300000E+02  1.10000000E+02  3.55700000E+01
  1.25400000E+01  4.64400000E+00  5.11800000E-01  1.29300000E+00  1.78700000E-01
  5.76000000E-02  2.66300000E+01  5.94800000E+00  1.74200000E+00  5.55000000E-01
  1.72500000E-01  4.91000000E-02  1.65400000E+00  4.69000000E-01  1.51000000E-01
  1.09300000E+00  3.64000000E-01  1.53300000E+04  2.29900000E+03  5.22400000E+02
  1.47300000E+02  4.75500000E+01  1.67600000E+01  6.20700000E+00  5.22400000E+02
  1.47300000E+02  4.75500000E+01  1.67600000E+01  6.20700000E+00  6.88200000E-01
  1.75200000E+00  2.38400000E-01  7.37600000E-02  3.44600000E+01  7.74900000E+00
  2.28000000E+00  7.15600000E-01  2.14000000E-01  5.97400000E-02  2.31400000E+00
  6.45000000E-01  2.14000000E-01  1.42800000E+00  5.00000000E-01
Contraction coefficients                   R   N=         119
  2.54948632E-02  1.90362766E-01  8.52162022E-01  1.00000000E+00  1.00000000E+00
  1.00000000E+00  1.00000000E+00  1.00000000E+00  1.00000000E+00  1.00000000E+00
  1.00000000E+00  5.19808943E-04  4.02025621E-03  2.07128267E-02  8.10105536E-02
  2.35962985E-01  4.42653446E-01  3.57064423E-01 -4.42115008E-05 -1.22591041E-03
 -1.05517725E-02 -6.74452633E-02 -1.71198607E-01  1.07329856E+00  1.00000000E+00
  1.00000000E+00  1.00000000E+00  4.11634896E-02  2.57762836E-01  8.02419274E-01
  1.00000000E+00  1.00000000E+00  1.00000000E+00  1.00000000E+00  1.00000000E+00
  1.00000000E+00  1.00000000E+00  1.00000000E+00  5.19808943E-04  4.02025621E-03
  2.07128267E-02  8.10105536E-02  2.35962985E-01  4.42653446E-01  3.57064423E-01
 -4.42115008E-05 -1.22591041E-03 -1.05517725E-02 -6.74452633E-02 -1.71198607E-01
  1.07329856E+00  1.00000000E+00  1.00000000E+00  1.00000000E+00  4.11634896E-02
  2.57762836E-01  8.02419274E-01  1.00000000E+00  1.00000000E+00  1.00000000E+00
  1.00000000E+00  1.00000000E+00  1.00000000E+00  1.00000000E+00  1.00000000E+00
  5.34563860E-04  4.13435660E-03  2.12335358E-02  8.25006224E-02  2.38138871E-01
  4.42551547E-01  3.53757422E-01 -4.89867350E-05 -1.19527323E-03 -1.03490714E-02
 -6.48680190E-02 -1.71552477E-01  1.07289568E+00  1.00000000E+00  1.00000000E+00
  1.00000000E+00  3.98072123E-02  2.49002660E-01  8.10479727E-01  1.00000000E+00
  1.00000000E+00  1.00000000E+00  1.00000000E+00  1.00000000E+00  1.00000000E+00
  1.00000000E+00  1.00000000E+00  5.19808943E-04  4.02025621E-03  2.07128267E-02
  8.10105536E-02  2.35962985E-01  4.42653446E-01  3.57064423E-01 -4.42115008E-05
 -1.22591041E-03 -1.05517725E-02 -6.74452633E-02 -1.71198607E-01  1.07329856E+00
  1.00000000E+00  1.00000000E+00  1.00000000E+00  4.11634896E-02  2.57762836E-01
  8.02419274E-01  1.00000000E+00  1.00000000E+00  1.00000000E+00  1.00000000E+00
  1.00000000E+00  1.00000000E+00  1.00000000E+00  1.00000000E+00
Coordinates of each shell                  R   N=         195
  2.08137485E+00 -1.11255517E+00 -6.38139282E-32  2.08137485E+00 -1.11255517E+00
 -6.38139282E-32  2.08137485E+00 -1.11255517E+00 -6.38139282E-32  2.08137485E+00
 -1.11255517E+00 -6.38139282E-32  2.08137485E+00 -1.11255517E+00 -6.38139282E-32
  2.08137485E+00 -1.11255517E+00 -6.38139282E-32  2.08137485E+00 -1.11255517E+00
 -6.38139282E-32  2.08137485E+00 -1.11255517E+00 -6.38139282E-32  2.08137485E+00
 -1.11255517E+00 -6.38139282E-32  2.46375859E+00  7.09852365E-01 -4.40921247E-32
  2.46375859E+00  7.09852365E-01 -4.40921247E-32  2.46375859E+00  7.09852365E-01
 -4.40921247E-32  2.46375859E+00  7.09852365E-01 -4.40921247E-32  2.46375859E+00
  7.09852365E-01 -4.40921247E-32  2.46375859E+00  7.09852365E-01 -4.40921247E-32
  2.46375859E+00  7.09852365E-01 -4.40921247E-32  2.46375859E+00  7.09852365E-01
 -4.40921247E-32  2.46375859E+00  7.09852365E-01 -4.40921247E-32  2.46375859E+00
  7.09852365E-01 -4.40921247E-32  2.46375859E+00  7.09852365E-01 -4.40921247E-32
  2.46375859E+00  7.09852365E-01 -4.40921247E-32  2.46375859E+00  7.09852365E-01
 -4.40921247E-32  2.46375859E+00  7.09852365E-01 -4.40921247E-32  6.09580505E-17
  1.72964887E+00  2.68352091E-32  6.09580505E-17  1.72964887E+00  2.68352091E-32
  6.09580505E-17  1.72964887E+00  2.68352091E-32  6.09580505E-17  1.72964887E+00
  2.68352091E-32  6.09580505E-17  1.72964887E+00  2.68352091E-32  6.09580505E-17
  1.72964887E+00  2.68352091E-32  6.09580505E-17  1.72964887E+00  2.68352091E-32
  6.09580505E-17  1.72964887E+00  2.68352091E-32  6.09580505E-17  1.72964887E+00
  2.68352091E-32  6.09580505E-17  1.72964887E+00  2.68352091E-32  6.09580505E-17
  1.72964887E+00  2.68352091E-32  6.09580505E-17  1.72964887E+00  2.68352091E-32
  6.09580505E-17  1.72964887E+00  2.68352091E-32  6.09580505E-17  1.72964887E+00
  2.68352091E-32 -1.86545757E+00 -9.56525703E-02  4.02395017E-32 -1.86545757E+00
 -9.56525703E-02  4.02395017E-32 -1.86545757E+00 -9.56525703E-02  4.02395017E-32
 -1.86545757E+00 -9.56525703E-02  4.02395017E-32 -1.86545757E+00 -9.56525703E-02
  4.02395017E-32 -1.86545757E+00 -9.56525703E-02  4.02395017E-32 -1.86545757E+00
 -9.56525703E-02  4.02395017E-32 -1.86545757E+00 -9.56525703E-02  4.02395017E-32
 -1.86545757E+00 -9.56525703E-02  4.02395017E-32 -1.86545757E+00 -9.56525703E-02
  4.02395017E-32 -1.86545757E+00 -9.56525703E-02  4.02395017E-32 -1.86545757E+00
 -9.56525703E-02  4.02395017E-32 -1.86545757E+00 -9.56525703E-02  4.02395017E-32
 -1.86545757E+00 -9.56525703E-02  4.02395017E-32 -1.09165507E+00 -2.21673584E+00
 -9.97590732E-33 -1.09165507E+00 -2.21673584E+00 -9.97590732E-33 -1.09165507E+00
 -2.21673584E+00 -9.97590732E-33 -1.09165507E+00 -2.21673584E+00 -9.97590732E-33
 -1.09165507E+00 -2.21673584E+00 -9.97590732E-33 -1.09165507E+00 -2.21673584E+00
 -9.97590732E-33 -1.09165507E+00 -2.21673584E+00 -9.97590732E-33 -1.09165507E+00
 -2.21673584E+00 -9.97590732E-33 -1.09165507E+00 -2.21673584E+00 -9.97590732E-33
 -1.09165507E+00 -2.21673584E+00 -9.97590732E-33 -1.09165507E+00 -2.21673584E+00
 -9.97590732E-33 -1.09165507E+00 -2.21673584E+00 -9.97590732E-33 -1.09165507E+00
 -2.21673584E+00 -9.97590732E-33 -1.09165507E+00 -2.21673584E+00 -9.97590732E-33
Num ILSW                                   I              100
ILSW                                       I   N=         100
           0           0           0           0           2           0
           0           0           0           0           0          -1
           5           0           0           0           2           0
           0           0           0           0           1           0
           1           0           0           0           0           0
           0           0      100000           0          -1           0
           0           0           0           0           0           0
           0           0           0           1           1           0
           0 -2000000000           1           0           0           0
           0           0           4          52           0           0
           0           0           0           0           0           0
           0           0           0           5           4           1
           0           0           0           0           0           0
           0           0           0           0           0           0
           0           0           0           0           0           0
           0           0           0           0           0           0
           0           0           0           0
Num RLSW                                   I               52
RLSW                                       R   N=          52
  1.00000000E+00  1.00000000E+00  1.00000000E+00  1.00000000E+00  1.00000000E+00
  0.00000000E+00  0.00000000E+00  1.00000000E+00  0.00000000E+00  0.00000000E+00
  0.00000000E+00  0.00000000E+00  1.00000000E+00  0.00000000E+00  0.00000000E+00
  0.00000000E+00  0.00000000E+00  1.00000000E+00  0.00000000E+00  0.00000000E+00
  0.00000000E+00  0.00000000E+00  1.00000000E+00  0.00000000E+00  0.00000000E+00
  0.00000000E+00  0.00000000E+00  1.00000000E+00  0.00000000E+00  0.00000000E+00
  0.00000000E+00  0.00000000E+00  1.00000000E+00  0.00000000E+00  0.00000000E+00
  0.00000000E+00  0.00000000E+00  0.00000000E+00  1.00000000E+00  1.00000000E+00
  0.00000000E+00  1.00000000E+00  0.00000000E+00  0.00000000E+00  0.00000000E+00
  0.00000000E+00  0.00000000E+00  0.00000000E+00  0.00000000E+00  0.00000000E+00
  0.00000000E+00  0.00000000E+00
MxBond                                     I                2
NBond                                      I   N=           5
           1           2           2           2           1
IBond                                      I   N=          10
           2           0           1           3           2           4
           3           5           4           0
RBond                                      R   N=          10
  1.00000000E+00  0.00000000E+00  1.00000000E+00  1.00000000E+00  1.00000000E+00
  1.00000000E+00  1.00000000E+00  2.00000000E+00  2.00000000E+00  0.00000000E+00
Virial Ratio                               R      2.002125385158438E+00
SCF Energy                                 R     -2.795072305450318E+02
MP2 Energy                                 R     -2.804551187982191E+02
Total Energy                               R     -2.804551187982191E+02
Post-SCF wavefunction norm                 R      1.582972339724512E+00
RMS Force                                  R      2.708486543971717E-03
RMS Density                                R      4.152781906049403E-09
NImag                                      I                0
Job Status                                 I                1
Nuclear derivative order                   I                2
External E-field                           R   N=          35
  0.00000000E+00  0.00000000E+00  0.00000000E+00  0.00000000E+00  0.00000000E+00
  0.00000000E+00  0.00000000E+00  0.00000000E+00  0.00000000E+00  0.00000000E+00
  0.00000000E+00  0.00000000E+00  0.00000000E+00  0.00000000E+00  0.00000000E+00
  0.00000000E+00  0.00000000E+00  0.00000000E+00  0.00000000E+00  0.00000000E+00
  0.00000000E+00  0.00000000E+00  0.00000000E+00  0.00000000E+00  0.00000000E+00
  0.00000000E+00  0.00000000E+00  0.00000000E+00  0.00000000E+00  0.00000000E+00
  0.00000000E+00  0.00000000E+00  0.00000000E+00  0.00000000E+00  0.00000000E+00
IOpCl                                      I                0
IROHF                                      I                0
Alpha Orbital Energies                     R   N=         207
 -2.07199035E+01 -2.06874959E+01 -2.06667995E+01 -1.58257938E+01 -1.64695754E+00
 -1.51053826E+00 -1.29175447E+00 -9.61243480E-01 -8.37583704E-01 -7.60071974E-01
 -7.42255577E-01 -6.35155144E-01 -6.22390700E-01 -6.20009218E-01 -5.05262937E-01
 -4.94805158E-01  3.52441906E-02  6.01798468E-02  9.51379919E-02  1.00534343E-01
  1.19598909E-01  1.22917364E-01  1.49688659E-01  1.53543613E-01  1.77481378E-01
  1.80112648E-01  1.89680517E-01  2.11086886E-01  2.16862394E-01  2.46370404E-01
  2.50073577E-01  2.68853041E-01  3.13741811E-01  3.17159462E-01  3.38314549E-01
  3.44427847E-01  3.48215952E-01  3.92355131E-01  4.49385922E-01  4.89730100E-01
  5.05375978E-01  5.18695904E-01  5.44474663E-01  5.61137684E-01  5.99222363E-01
  6.20716364E-01  6.39043811E-01  6.90066598E-01  7.16912565E-01  7.23757603E-01
  7.44784068E-01  7.64444433E-01  7.68794029E-01  7.94700589E-01  8.06693907E-01
  8.38849978E-01  8.43380150E-01  8.51432910E-01  8.85919653E-01  9.09335158E-01
  9.32803946E-01  9.48118795E-01  9.53414589E-01  1.01903364E+00  1.03365482E+00
  1.06557957E+00  1.06644414E+00  1.09711459E+00  1.14566353E+00  1.15728214E+00
  1.16938142E+00  1.22334692E+00  1.22735923E+00  1.24693080E+00  1.35640449E+00
  1.35937960E+00  1.37209402E+00  1.46775153E+00  1.48441966E+00  1.50430352E+00
  1.54307666E+00  1.59766249E+00  1.59794652E+00  1.60593141E+00  1.63033773E+00
  1.69644950E+00  1.74300815E+00  1.80122484E+00  1.82989422E+00  1.88853785E+00
  1.90057442E+00  1.93106445E+00  1.98181095E+00  1.99022985E+00  2.05235605E+00
  2.12532859E+00  2.13120023E+00  2.16781726E+00  2.18836651E+00  2.24359432E+00
  2.26635153E+00  2.29691253E+00  2.35569730E+00  2.36756215E+00  2.38711183E+00
  2.40155231E+00  2.44176744E+00  2.47087734E+00  2.48219954E+00  2.52992496E+00
  2.53908834E+00  2.55267523E+00  2.55976594E+00  2.61744216E+00  2.63489866E+00
  2.67751683E+00  2.67800530E+00  2.76273855E+00  2.81411831E+00  2.81918360E+00
  2.84428974E+00  2.92279105E+00  2.98740461E+00  3.05100290E+00  3.05456627E+00
  3.11724009E+00  3.12117670E+00  3.18084186E+00  3.22221420E+00  3.31510996E+00
  3.33650395E+00  3.36365674E+00  3.49395660E+00  3.67822323E+00  3.87151749E+00
  3.93662370E+00  4.18902838E+00  4.22706632E+00  4.22853611E+00  4.27210847E+00
  4.37163379E+00  4.51436254E+00  4.53643589E+00  4.56203581E+00  4.60415637E+00
  4.69163913E+00  4.81372575E+00  4.90036776E+00  4.91556317E+00  4.94337060E+00
  4.99912731E+00  5.00520987E+00  5.10794609E+00  5.13657157E+00  5.17911901E+00
  5.25157281E+00  5.25851577E+00  5.32096009E+00  5.35049477E+00  5.36694611E+00
  5.54490526E+00  5.64516542E+00  5.70998143E+00  5.91104642E+00  6.00505393E+00
  6.23874310E+00  6.29871208E+00  6.36967955E+00  6.37319129E+00  6.59276772E+00
  6.64875046E+00  6.66196007E+00  6.68975709E+00  6.72406553E+00  6.79688837E+00
  6.80944524E+00  6.84832650E+00  6.97052077E+00  7.03201628E+00  7.07373081E+00
  7.08767068E+00  7.14597341E+00  7.18239903E+00  7.18420807E+00  7.22032685E+00
  7.25148833E+00  7.25974804E+00  7.27430567E+00  7.35418854E+00  7.40269305E+00
  7.44041772E+00  7.44266362E+00  7.47299545E+00  7.56332852E+00  7.67453909E+00
  7.67711119E+00  7.80786088E+00  7.90032992E+00  7.96010424E+00  8.07856324E+00
  8.33324941E+00  8.50997740E+00  8.66970146E+00  1.36812478E+01  1.47906898E+01
  1.51295931E+01  1.57892835E+01
Alpha MO coefficients                      R   N=       42849
  6.45040985E-05 -1.57352742E-05 -1.12177580E-03  1.73821201E-05 -4.65302652E-05
  3.88523773E-05  0.00000000E+00 -6.49336590E-05 -2.76791685E-04  0.00000000E+00
  2.44369463E-05 -3.34851196E-04  0.00000000E+00  4.12400559E-05  0.00000000E+00
  0.00000000E+00 -2.57319698E-05  2.05968549E-05  2.30937076E-04  0.00000000E+00
  0.00000000E+00 -4.58493044E-05 -2.16344090E-04  3.12585349E-03 -6.20626538E-05
 -1.11418107E-04  3.73906303E-03  2.56854884E-03  1.07480466E-04 -5.48767837E-05
  0.00000000E+00 -8.03799087E-04  3.24351382E-04  0.00000000E+00 -2.09927070E-03
  1.14831902E-03  0.00000000E+00 -5.61816981E-04  4.90351102E-05  0.00000000E+00
  1.55685797E-05  0.00000000E+00  0.00000000E+00 -3.80547064E-06  3.56548546E-05
 -4.59032648E-04  0.00000000E+00  0.00000000E+00  4.60901681E-04 -6.70392216E-04
 -3.75133838E-04  0.00000000E+00  0.00000000E+00  5.70094476E-04 -7.39054286E-04
  0.00000000E+00  7.65842717E-05 -5.37143363E-05  0.00000000E+00  0.00000000E+00
 -2.99243455E-05  1.10738617E-04  0.00000000E+00  2.09305293E-04 -4.50114944E-05
  0.00000000E+00  0.00000000E+00 -1.71584425E-04  2.86624688E-04  9.76892601E-01
 -9.17697988E-03  4.34338683E-02  2.86831750E-04 -2.29081430E-03  4.98818577E-04
 -2.16181853E-03  0.00000000E+00 -3.91204067E-04  2.27335736E-03  0.00000000E+00
 -2.43204440E-03 -4.51467961E-04  0.00000000E+00 -2.45666412E-04  1.00122289E-04
  0.00000000E+00  3.13381258E-06  0.00000000E+00  0.00000000E+00 -6.47310974E-07
  3.26116371E-05  8.45771662E-04  0.00000000E+00  0.00000000E+00 -4.99988407E-04
 -1.49303760E-04 -1.23993510E-04  0.00000000E+00  0.00000000E+00 -5.73285722E-04
  3.70725175E-04  0.00000000E+00 -3.02521709E-06 -8.01912510E-05  0.00000000E+00
  0.00000000E+00 -1.10804483E-05  5.07058566E-05  0.00000000E+00  9.97260895E-05
 -2.55557477E-06  0.00000000E+00  0.00000000E+00 -3.42604427E-04  3.89986677E-04
  1.04389985E-04  4.58447428E-04 -3.21559289E-04 -8.39641714E-04  3.22462068E-04
 -4.26839044E-05 -9.98061646E-05  0.00000000E+00  6.89943681E-04  1.11507489E-03
  0.00000000E+00 -7.74467324E-04 -6.77712808E-04  0.00000000E+00  1.87330184E-04
  2.07419601E-04  0.00000000E+00 -5.23149411E-05  0.00000000E+00  0.00000000E+00
  1.83665250E-05  9.39242116E-05 -4.13929867E-04  0.00000000E+00  0.00000000E+00
  2.41577619E-05  1.07490113E-03  2.73710068E-05  0.00000000E+00  0.00000000E+00
 -3.20460782E-04  1.70361039E-05  0.00000000E+00 -7.70577877E-05 -1.13503877E-04
  0.00000000E+00  0.00000000E+00 -9.85317886E-05  1.03416816E-04  0.00000000E+00
 -1.24432584E-04  4.81981309E-05  0.00000000E+00  0.00000000E+00  5.29551494E-06
  5.16600024E-04 -7.08570300E-04  3.99692290E-05 -7.05405133E-05  2.20422424E-04
 -1.49885491E-04 -2.87767763E-05 -4.15503429E-05  0.00000000E+00  1.67495232E-04
  2.51804714E-04  0.00000000E+00  5.43164033E-04  3.31494888E-04  0.00000000E+00
 -2.09982254E-04 -5.70485076E-05  0.00000000E+00 -1.27378888E-05  0.00000000E+00
  0.00000000E+00  3.04249218E-06  1.50858641E-05 -3.11516799E-06  0.00000000E+00
  0.00000000E+00 -1.62050245E-04  9.16257768E-06 -2.49001655E-05  0.00000000E+00
  0.00000000E+00 -1.67365411E-04 -4.07148352E-05  0.00000000E+00 -5.75789246E-06
 -9.05793615E-06  0.00000000E+00  0.00000000E+00 -2.11275714E-05  9.26563386E-06
  0.00000000E+00  3.90953784E-05  6.02731527E-05  0.00000000E+00  0.00000000E+00
  1.57859380E-04 -1.00506501E-04  3.87343092E-05  7.00407907E-05 -1.00891836E-04
 -3.08770168E-05  2.19029108E-05  1.28360792E-05  0.00000000E+00  2.38505585E-04
  6.30318508E-05  0.00000000E+00  1.18439120E-04  2.39590781E-05  0.00000000E+00
  1.15650508E-05  0.00000000E+00  0.00000000E+00 -1.07994122E-05  1.77915445E-05
  1.86956064E-05  0.00000000E+00  0.00000000E+00 -9.54698632E-05  6.60037151E-05
 -2.39607264E-04  2.50153051E-05 -1.41448712E-05 -5.84301548E-04  1.52720611E-04
  7.45204053E-06  1.37208286E-05  0.00000000E+00  9.07988985E-07 -4.39574237E-05
  0.00000000E+00  1.98146727E-04  1.44887204E-04  0.00000000E+00 -4.24474890E-05
  4.89536975E-05  0.00000000E+00 -1.66898814E-06  0.00000000E+00  0.00000000E+00
 -8.30869418E-06 -1.15439911E-05  2.31077913E-05  0.00000000E+00  0.00000000E+00
  5.10196913E-05  1.11800317E-04  6.41738970E-05  0.00000000E+00  0.00000000E+00
 -3.29171667E-05 -8.43121012E-05  0.00000000E+00  7.76003984E-06  1.03187731E-05
  0.00000000E+00  0.00000000E+00 -9.02964980E-07 -2.61259933E-05  0.00000000E+00
 -1.34579867E-05 -3.83127023E-05  0.00000000E+00  0.00000000E+00 -1.49507510E-06
 -1.89991741E-05  7.35305617E-04  2.11295529E-05 -1.97749406E-05  3.23103729E-04
 -3.94049390E-04  1.61982452E-05  2.74354756E-05  0.00000000E+00 -6.43874413E-05
 -1.54902050E-04  0.00000000E+00  1.66208582E-04 -2.25879125E-04  0.00000000E+00
 -1.56391848E-04  1.41875483E-04  0.00000000E+00 -3.93474723E-06  0.00000000E+00
  0.00000000E+00 -2.98025011E-05 -1.05018434E-05 -5.32483389E-05  0.00000000E+00
  0.00000000E+00  8.14145250E-05  1.24337031E-04 -6.71537629E-05  0.00000000E+00
  0.00000000E+00  3.37031190E-05  2.34245740E-05  0.00000000E+00  2.83961979E-06
  3.22845184E-06  0.00000000E+00  0.00000000E+00 -7.47707448E-06 -2.61376720E-06
  0.00000000E+00  3.70003668E-06 -2.44615613E-05  0.00000000E+00  0.00000000E+00
  1.00773890E-04 -1.54244359E-04  2.36803421E-04  1.35620681E-03 -1.46310405E-04
 -7.06143182E-04  9.11945976E-04  6.36200728E-05 -7.05672429E-05  0.00000000E+00
  5.78845743E-04 -2.08441849E-03  0.00000000E+00  1.00313629E-04  5.12000606E-04
  0.00000000E+00  1.88400985E-04 -3.06143547E-04  0.00000000E+00 -1.27731636E-04
  0.00000000E+00  0.00000000E+00 -2.02936296E-04 -1.60128475E-04 -4.59793671E-04
  0.00000000E+00  0.00000000E+00 -5.93892453E-04 -9.30374880E-04 -4.19605224E-05
  0.00000000E+00  0.00000000E+00  5.53632365E-05  1.21396685E-04  0.00000000E+00
  8.27346287E-06  3.71779351E-05  0.00000000E+00  0.00000000E+00 -2.44861343E-05
 -4.64645585E-06  0.00000000E+00 -1.36876373E-04  1.56691531E-04  0.00000000E+00
  0.00000000E+00 -3.15256198E-04 -4.21737938E-05  9.76645760E-01 -9.88607328E-03
  4.35758442E-02  3.69782679E-03 -9.00390356E-04 -4.52581266E-04  2.13221392E-03
  0.00000000E+00  5.20202349E-04 -2.50680258E-03  0.00000000E+00 -7.81081589E-05
  8.22861018E-04  0.00000000E+00  1.04539898E-04 -6.47995435E-05  0.00000000E+00
 -1.93454120E-04  0.00000000E+00  0.00000000E+00 -7.43205790E-05 -4.44270136E-05
  4.09487469E-04  0.00000000E+00  0.00000000E+00  8.56962144E-04  4.90211661E-04
 -2.04687722E-04  0.00000000E+00  0.00000000E+00 -1.43953572E-04 -3.51684484E-05
  0.00000000E+00 -5.21866387E-06  7.03802015E-05  0.00000000E+00  0.00000000E+00
 -2.84711892E-05  1.03925217E-05  0.00000000E+00 -8.93285215E-05  9.12107637E-05
  0.00000000E+00  0.00000000E+00 -1.70869786E-04  2.04067880E-04  3.70527461E-04
  1.96668353E-03  1.42367960E-03 -2.46850200E-05  4.93072042E-05  2.62087984E-04
  0.00000000E+00  3.78808054E-04  1.00629676E-03  0.00000000E+00 -1.49824873E-04
  2.28901782E-04  0.00000000E+00 -2.22835873E-05  0.00000000E+00  0.00000000E+00
  3.86164021E-05 -2.95046954E-05 -2.18681291E-04  0.00000000E+00  0.00000000E+00
 -3.46359990E-04  4.12979587E-04  9.76820765E-01 -9.18963437E-03  4.34964027E-02
 -1.18349555E-05 -2.03051057E-03 -2.07547884E-03 -8.20839002E-04  0.00000000E+00
  2.13429005E-03  7.40089671E-04  0.00000000E+00 -3.07538171E-04  6.21495907E-04
  0.00000000E+00  2.48728626E-04 -3.14679876E-04  0.00000000E+00  2.59149720E-05
  0.00000000E+00  0.00000000E+00 -6.86971051E-05  5.87173229E-05  7.83086513E-04
  0.00000000E+00  0.00000000E+00 -2.49240355E-04  3.78798914E-04 -2.24953207E-04
  0.00000000E+00  0.00000000E+00  3.08816328E-04  1.83749128E-05  0.00000000E+00
 -8.33780962E-05  4.30815932E-06  0.00000000E+00  0.00000000E+00  1.89679139E-05