title                                                                   
Freq      RMP2-FC                                                     Aug-CC-pVTZ         
Number of atoms                            I                5
Info1-9                                    I   N=           9
          33          24           0           0           0         100
           6           2           1
Full Title                                 C   N=           1
title       
Route                                      C   N=           4
#p freq mp2/aug-cc-pvtz density=current         
Charge                                     I                0
Multiplicity                               I                1
Number of electrons                        I               32
Number of alpha electrons                  I               16
Number of beta electrons                   I               16
Number of basis functions                  I              207
Number of independent functions            I              207
Number of point charges in /Mol/           I                0
Number of translation vectors              I                0
Atomic numbers                             I   N=           5
           1           8           8           7           8
Nuclear charges                            R   N=           5
  1.00000000E+00  8.00000000E+00  8.00000000E+00  7.00000000E+00  8.00000000E+00
Current cartesian coordinates              R   N=          15
  2.06580643E+00 -1.14289914E+00  0.00000000E+00  2.47544465E+00  6.73576314E-01
  0.00000000E+00  1.05241243E-16  1.74191755E+00 -1.23259516E-32 -1.86866314E+00
 -8.01020343E-02 -4.93038066E-32 -1.09859021E+00 -2.20254219E+00  1.23259516E-32
Number of symbols in /Mol/                 I                0
Force Field                                I                0
Atom Types                                 C   N=           5
                                                            
Int Atom Types                             I   N=           5
           0           0           0           0           0
MM charges                                 R   N=           5
  0.00000000E+00  0.00000000E+00  0.00000000E+00  0.00000000E+00  0.00000000E+00
Integer atomic weights                     I   N=           5
           1          16          16          14          16
Real atomic weights                        R   N=           5
  1.00782504E+00  1.59949146E+01  1.59949146E+01  1.40030740E+01  1.59949146E+01
Atom fragment info                         I   N=           5
           0           0           0           0           0
Atom residue num                           I   N=           5
           0           0           0           0           0
Nuclear spins                              I   N=           5
           1           0           0           2           0
Nuclear ZEff                               R   N=           5
 -1.00000000E+00 -5.60000000E+00 -5.60000000E+00 -4.55000000E+00 -5.60000000E+00
Nuclear ZNuc                               R   N=           5
  1.00000000E+00  8.00000000E+00  8.00000000E+00  7.00000000E+00  8.00000000E+00
Nuclear QMom                               R   N=           5
  0.00000000E+00  0.00000000E+00  0.00000000E+00  2.04400000E+00  0.00000000E+00
Nuclear GFac                               R   N=           5
  2.79284600E+00  0.00000000E+00  0.00000000E+00  4.03761000E-01  0.00000000E+00
MicOpt                                     I   N=           5
          -1          -1          -1          -1          -1
Number of residues                         I                0
Number of secondary structures             I                0
SymInf integers                            I   N=          26
           1           2           1           1           1           1
           1          -1           0           0           0           0
           0           0           0           0           0           0
           0           0           0           0           0           0
           0           0
RotTr to input orientation                 R   N=          12
 -9.75502539E-01  1.25382143E-16  2.19988173E-01  2.19988173E-01 -2.82752606E-17
  9.75502539E-01  1.28530822E-16  1.00000000E+00  0.00000000E+00  2.26662372E+00
  0.00000000E+00  6.60448030E-01
Number of contracted shells                I               65
Number of primitive shells                 I              119
Pure/Cartesian d shells                    I                0
Pure/Cartesian f shells                    I                0
Highest angular momentum                   I                3
Largest degree of contraction              I                7
Shell types                                I   N=          65
           0           0           0           0           1           1
           1          -2          -2           0           0           0
           0           0           1           1           1           1
          -2          -2          -2          -3          -3           0
           0           0           0           0           1           1
           1           1          -2          -2          -2          -3
          -3           0           0           0           0           0
           1           1           1           1          -2          -2
          -2          -3          -3           0           0           0
           0           0           1           1           1           1
          -2          -2          -2          -3          -3
Number of primitives per shell             I   N=          65
           3           1           1           1           1           1
           1           1           1           7           6           1
           1           1           3           1           1           1
           1           1           1           1           1           7
           6           1           1           1           3           1
           1           1           1           1           1           1
           1           7           6           1           1           1
           3           1           1           1           1           1
           1           1           1           7           6           1
           1           1           3           1           1           1
           1           1           1           1           1
Shell to atom map                          I   N=          65
           1           1           1           1           1           1
           1           1           1           2           2           2
           2           2           2           2           2           2
           2           2           2           2           2           3
           3           3           3           3           3           3
           3           3           3           3           3           3
           3           4           4           4           4           4
           4           4           4           4           4           4
           4           4           4           5           5           5
           5           5           5           5           5           5
           5           5           5           5           5
Primitive exponents                        R   N=         119
  3.38700000E+01  5.09500000E+00  1.15900000E+00  3.25800000E-01  1.02700000E-01
  2.52600000E-02  1.40700000E+00  3.88000000E-01  1.02000000E-01  1.05700000E+00
  2.47000000E-01  1.53300000E+04  2.29900000E+03  5.22400000E+02  1.47300000E+02
  4.75500000E+01  1.67600000E+01  6.20700000E+00  5.22400000E+02  1.47300000E+02
  4.75500000E+01  1.67600000E+01  6.20700000E+00  6.88200000E-01  1.75200000E+00
  2.38400000E-01  7.37600000E-02  3.44600000E+01  7.74900000E+00  2.28000000E+00
  7.15600000E-01  2.14000000E-01  5.97400000E-02  2.31400000E+00  6.45000000E-01
  2.14000000E-01  1.42800000E+00  5.00000000E-01  1.53300000E+04  2.29900000E+03
  5.22400000E+02  1.47300000E+02  4.75500000E+01  1.67600000E+01  6.20700000E+00
  5.22400000E+02  1.47300000E+02  4.75500000E+01  1.67600000E+01  6.20700000E+00
  6.88200000E-01  1.75200000E+00  2.38400000E-01  7.37600000E-02  3.44600000E+01
  7.74900000E+00  2.28000000E+00  7.15600000E-01  2.14000000E-01  5.97400000E-02
  2.31400000E+00  6.45000000E-01  2.14000000E-01  1.42800000E+00  5.00000000E-01
  1.14200000E+04  1.71200000E+03  3.89300000E+02  1.10000000E+02  3.55700000E+01
  1.25400000E+01  4.64400000E+00  3.89300000E+02  1.10000000E+02  3.55700000E+01
  1.25400000E+01  4.64400000E+00  5.11800000E-01  1.29300000E+00  1.78700000E-01
  5.76000000E-02  2.66300000E+01  5.94800000E+00  1.74200000E+00  5.55000000E-01
  1.72500000E-01  4.91000000E-02  1.65400000E+00  4.69000000E-01  1.51000000E-01
  1.09300000E+00  3.64000000E-01  1.53300000E+04  2.29900000E+03  5.22400000E+02
  1.47300000E+02  4.75500000E+01  1.67600000E+01  6.20700000E+00  5.22400000E+02
  1.47300000E+02  4.75500000E+01  1.67600000E+01  6.20700000E+00  6.88200000E-01
  1.75200000E+00  2.38400000E-01  7.37600000E-02  3.44600000E+01  7.74900000E+00
  2.28000000E+00  7.15600000E-01  2.14000000E-01  5.97400000E-02  2.31400000E+00
  6.45000000E-01  2.14000000E-01  1.42800000E+00  5.00000000E-01
Contraction coefficients                   R   N=         119
  2.54948632E-02  1.90362766E-01  8.52162022E-01  1.00000000E+00  1.00000000E+00
  1.00000000E+00  1.00000000E+00  1.00000000E+00  1.00000000E+00  1.00000000E+00
  1.00000000E+00  5.19808943E-04  4.02025621E-03  2.07128267E-02  8.10105536E-02
  2.35962985E-01  4.42653446E-01  3.57064423E-01 -4.42115008E-05 -1.22591041E-03
 -1.05517725E-02 -6.74452633E-02 -1.71198607E-01  1.07329856E+00  1.00000000E+00
  1.00000000E+00  1.00000000E+00  4.11634896E-02  2.57762836E-01  8.02419274E-01
  1.00000000E+00  1.00000000E+00  1.00000000E+00  1.00000000E+00  1.00000000E+00
  1.00000000E+00  1.00000000E+00  1.00000000E+00  5.19808943E-04  4.02025621E-03
  2.07128267E-02  8.10105536E-02  2.35962985E-01  4.42653446E-01  3.57064423E-01
 -4.42115008E-05 -1.22591041E-03 -1.05517725E-02 -6.74452633E-02 -1.71198607E-01
  1.07329856E+00  1.00000000E+00  1.00000000E+00  1.00000000E+00  4.11634896E-02
  2.57762836E-01  8.02419274E-01  1.00000000E+00  1.00000000E+00  1.00000000E+00
  1.00000000E+00  1.00000000E+00  1.00000000E+00  1.00000000E+00  1.00000000E+00
  5.34563860E-04  4.13435660E-03  2.12335358E-02  8.25006224E-02  2.38138871E-01
  4.42551547E-01  3.53757422E-01 -4.89867350E-05 -1.19527323E-03 -1.03490714E-02
 -6.48680190E-02 -1.71552477E-01  1.07289568E+00  1.00000000E+00  1.00000000E+00
  1.00000000E+00  3.98072123E-02  2.49002660E-01  8.10479727E-01  1.00000000E+00
  1.00000000E+00  1.00000000E+00  1.00000000E+00  1.00000000E+00  1.00000000E+00
  1.00000000E+00  1.00000000E+00  5.19808943E-04  4.02025621E-03  2.07128267E-02
  8.10105536E-02  2.35962985E-01  4.42653446E-01  3.57064423E-01 -4.42115008E-05
 -1.22591041E-03 -1.05517725E-02 -6.74452633E-02 -1.71198607E-01  1.07329856E+00
  1.00000000E+00  1.00000000E+00  1.00000000E+00  4.11634896E-02  2.57762836E-01
  8.02419274E-01  1.00000000E+00  1.00000000E+00  1.00000000E+00  1.00000000E+00
  1.00000000E+00  1.00000000E+00  1.00000000E+00  1.00000000E+00
Coordinates of each shell                  R   N=         195
  2.06580643E+00 -1.14289914E+00  6.05337525E-34  2.06580643E+00 -1.14289914E+00
  6.05337525E-34  2.06580643E+00 -1.14289914E+00  6.05337525E-34  2.06580643E+00
 -1.14289914E+00  6.05337525E-34  2.06580643E+00 -1.14289914E+00  6.05337525E-34
  2.06580643E+00 -1.14289914E+00  6.05337525E-34  2.06580643E+00 -1.14289914E+00
  6.05337525E-34  2.06580643E+00 -1.14289914E+00  6.05337525E-34  2.06580643E+00
 -1.14289914E+00  6.05337525E-34  2.47544465E+00  6.73576314E-01 -1.10137383E-33
  2.47544465E+00  6.73576314E-01 -1.10137383E-33  2.47544465E+00  6.73576314E-01
 -1.10137383E-33  2.47544465E+00  6.73576314E-01 -1.10137383E-33  2.47544465E+00
  6.73576314E-01 -1.10137383E-33  2.47544465E+00  6.73576314E-01 -1.10137383E-33
  2.47544465E+00  6.73576314E-01 -1.10137383E-33  2.47544465E+00  6.73576314E-01
 -1.10137383E-33  2.47544465E+00  6.73576314E-01 -1.10137383E-33  2.47544465E+00
  6.73576314E-01 -1.10137383E-33  2.47544465E+00  6.73576314E-01 -1.10137383E-33
  2.47544465E+00  6.73576314E-01 -1.10137383E-33  2.47544465E+00  6.73576314E-01
 -1.10137383E-33  2.47544465E+00  6.73576314E-01 -1.10137383E-33 -1.95772917E-17
  1.74191755E+00 -1.55745299E-33 -1.95772917E-17  1.74191755E+00 -1.55745299E-33
 -1.95772917E-17  1.74191755E+00 -1.55745299E-33 -1.95772917E-17  1.74191755E+00
 -1.55745299E-33 -1.95772917E-17  1.74191755E+00 -1.55745299E-33 -1.95772917E-17
  1.74191755E+00 -1.55745299E-33 -1.95772917E-17  1.74191755E+00 -1.55745299E-33
 -1.95772917E-17  1.74191755E+00 -1.55745299E-33 -1.95772917E-17  1.74191755E+00
 -1.55745299E-33 -1.95772917E-17  1.74191755E+00 -1.55745299E-33 -1.95772917E-17
  1.74191755E+00 -1.55745299E-33 -1.95772917E-17  1.74191755E+00 -1.55745299E-33
 -1.95772917E-17  1.74191755E+00 -1.55745299E-33 -1.95772917E-17  1.74191755E+00
 -1.55745299E-33 -1.86866314E+00 -8.01020343E-02  4.48400700E-34 -1.86866314E+00
 -8.01020343E-02  4.48400700E-34 -1.86866314E+00 -8.01020343E-02  4.48400700E-34
 -1.86866314E+00 -8.01020343E-02  4.48400700E-34 -1.86866314E+00 -8.01020343E-02
  4.48400700E-34 -1.86866314E+00 -8.01020343E-02  4.48400700E-34 -1.86866314E+00
 -8.01020343E-02  4.48400700E-34 -1.86866314E+00 -8.01020343E-02  4.48400700E-34
 -1.86866314E+00 -8.01020343E-02  4.48400700E-34 -1.86866314E+00 -8.01020343E-02
  4.48400700E-34 -1.86866314E+00 -8.01020343E-02  4.48400700E-34 -1.86866314E+00
 -8.01020343E-02  4.48400700E-34 -1.86866314E+00 -8.01020343E-02  4.48400700E-34
 -1.86866314E+00 -8.01020343E-02  4.48400700E-34 -1.09859021E+00 -2.20254219E+00
  2.19080902E-33 -1.09859021E+00 -2.20254219E+00  2.19080902E-33 -1.09859021E+00
 -2.20254219E+00  2.19080902E-33 -1.09859021E+00 -2.20254219E+00  2.19080902E-33
 -1.09859021E+00 -2.20254219E+00  2.19080902E-33 -1.09859021E+00 -2.20254219E+00
  2.19080902E-33 -1.09859021E+00 -2.20254219E+00  2.19080902E-33 -1.09859021E+00
 -2.20254219E+00  2.19080902E-33 -1.09859021E+00 -2.20254219E+00  2.19080902E-33
 -1.09859021E+00 -2.20254219E+00  2.19080902E-33 -1.09859021E+00 -2.20254219E+00
  2.19080902E-33 -1.09859021E+00 -2.20254219E+00  2.19080902E-33 -1.09859021E+00
 -2.20254219E+00  2.19080902E-33 -1.09859021E+00 -2.20254219E+00  2.19080902E-33
Num ILSW                                   I              100
ILSW                                       I   N=         100
           0           0           0           0           2           0
           0           0           0           0           0          -1
           5           0           0           0           2           0
           0           0           0           0           1           0
           1           0           0           0           0           0
           0           0      100000           0          -1           0
           0           0           0           0           0           0
           0           0           0           1           1           0
           0 -2000000000           1           0           0           0
           0           0           4          52           0           0
           0           0           0           0           0           0
           0           0           0           5           4           1
           0           0           0           0           0           0
           0           0           0           0           0           0
           0           0           0           0           0           0
           0           0           0           0           0           0
           0           0           0           0
Num RLSW                                   I               52
RLSW                                       R   N=          52
  1.00000000E+00  1.00000000E+00  1.00000000E+00  1.00000000E+00  1.00000000E+00
  0.00000000E+00  0.00000000E+00  1.00000000E+00  0.00000000E+00  0.00000000E+00
  0.00000000E+00  0.00000000E+00  1.00000000E+00  0.00000000E+00  0.00000000E+00
  0.00000000E+00  0.00000000E+00  1.00000000E+00  0.00000000E+00  0.00000000E+00
  0.00000000E+00  0.00000000E+00  1.00000000E+00  0.00000000E+00  0.00000000E+00
  0.00000000E+00  0.00000000E+00  1.00000000E+00  0.00000000E+00  0.00000000E+00
  0.00000000E+00  0.00000000E+00  1.00000000E+00  0.00000000E+00  0.00000000E+00
  0.00000000E+00  0.00000000E+00  0.00000000E+00  1.00000000E+00  1.00000000E+00
  0.00000000E+00  1.00000000E+00  0.00000000E+00  0.00000000E+00  0.00000000E+00
  0.00000000E+00  0.00000000E+00  0.00000000E+00  0.00000000E+00  0.00000000E+00
  0.00000000E+00  0.00000000E+00
MxBond                                     I                2
NBond                                      I   N=           5
           1           2           2           2           1
IBond                                      I   N=          10
           2           0           1           3           2           4
           3           5           4           0
RBond                                      R   N=          10
  1.00000000E+00  0.00000000E+00  1.00000000E+00  1.00000000E+00  1.00000000E+00
  1.00000000E+00  1.00000000E+00  2.00000000E+00  2.00000000E+00  0.00000000E+00
Virial Ratio                               R      2.002206740354917E+00
SCF Energy                                 R     -2.795062148684291E+02
MP2 Energy                                 R     -2.804551902491187E+02
Total Energy                               R     -2.804551902491187E+02
Post-SCF wavefunction norm                 R      1.583709442349547E+00
RMS Force                                  R      1.420072079446494E-03
RMS Density                                R      4.589791938661549E-09
NImag                                      I                0
Job Status                                 I                1
Nuclear derivative order                   I                2
External E-field                           R   N=          35
  0.00000000E+00  0.00000000E+00  0.00000000E+00  0.00000000E+00  0.00000000E+00
  0.00000000E+00  0.00000000E+00  0.00000000E+00  0.00000000E+00  0.00000000E+00
  0.00000000E+00  0.00000000E+00  0.00000000E+00  0.00000000E+00  0.00000000E+00
  0.00000000E+00  0.00000000E+00  0.00000000E+00  0.00000000E+00  0.00000000E+00
  0.00000000E+00  0.00000000E+00  0.00000000E+00  0.00000000E+00  0.00000000E+00
  0.00000000E+00  0.00000000E+00  0.00000000E+00  0.00000000E+00  0.00000000E+00
  0.00000000E+00  0.00000000E+00  0.00000000E+00  0.00000000E+00  0.00000000E+00
IOpCl                                      I                0
IROHF                                      I                0
Alpha Orbital Energies                     R   N=         207
 -2.07207128E+01 -2.06877091E+01 -2.06672246E+01 -1.58260184E+01 -1.64538282E+00
 -1.50504657E+00 -1.29373940E+00 -9.60478129E-01 -8.36243198E-01 -7.59317277E-01
 -7.40570048E-01 -6.36383393E-01 -6.19305710E-01 -6.18114758E-01 -5.05210949E-01
 -4.97738051E-01  3.52177944E-02  5.99077705E-02  9.50652472E-02  1.00122503E-01
  1.19704268E-01  1.22692141E-01  1.49632481E-01  1.52479943E-01  1.77452833E-01
  1.80132449E-01  1.89686988E-01  2.10988387E-01  2.16713115E-01  2.43454678E-01
  2.46265300E-01  2.69103816E-01  3.13814638E-01  3.17867027E-01  3.38125867E-01
  3.42798643E-01  3.46479580E-01  3.93420159E-01  4.50219366E-01  4.89165947E-01
  5.05291373E-01  5.17955456E-01  5.45185932E-01  5.60904962E-01  5.98338625E-01
  6.20056419E-01  6.38981617E-01  6.90131233E-01  7.16746362E-01  7.23730724E-01
  7.44130703E-01  7.65164516E-01  7.67771949E-01  7.95832382E-01  8.07590093E-01
  8.38761779E-01  8.42768796E-01  8.52028096E-01  8.85328394E-01  9.08434779E-01
  9.31882957E-01  9.47623394E-01  9.54664341E-01  1.01822314E+00  1.03376562E+00
  1.06656463E+00  1.06901288E+00  1.09728165E+00  1.14699432E+00  1.15649815E+00
  1.16970356E+00  1.22264091E+00  1.22857153E+00  1.24539781E+00  1.35612073E+00
  1.35757360E+00  1.37031768E+00  1.46908220E+00  1.48552214E+00  1.50385278E+00
  1.54446699E+00  1.59689813E+00  1.59946795E+00  1.60586853E+00  1.63129401E+00
  1.69580428E+00  1.74099772E+00  1.80029899E+00  1.82890073E+00  1.88814650E+00
  1.89828379E+00  1.93139564E+00  1.97994426E+00  1.99139183E+00  2.05260874E+00
  2.12190595E+00  2.13217865E+00  2.16679146E+00  2.19037009E+00  2.24484238E+00
  2.26134477E+00  2.29347140E+00  2.35625533E+00  2.36990498E+00  2.38517647E+00
  2.40426637E+00  2.43552264E+00  2.47035819E+00  2.48160598E+00  2.53134208E+00
  2.54003495E+00  2.55135753E+00  2.56004709E+00  2.61833809E+00  2.63212863E+00
  2.67470420E+00  2.67759257E+00  2.75512763E+00  2.80968575E+00  2.82168035E+00
  2.83941799E+00  2.92126971E+00  2.98583577E+00  3.04782052E+00  3.05449460E+00
  3.11285568E+00  3.11921818E+00  3.18261676E+00  3.21437218E+00  3.30909754E+00
  3.33222199E+00  3.35759675E+00  3.48146367E+00  3.67463141E+00  3.87034601E+00
  3.93857907E+00  4.18885175E+00  4.22652499E+00  4.22989839E+00  4.27403951E+00
  4.37301731E+00  4.49796510E+00  4.54627822E+00  4.55556120E+00  4.60032074E+00
  4.69021744E+00  4.80832485E+00  4.89685791E+00  4.91497902E+00  4.94294248E+00
  4.99913266E+00  5.00481169E+00  5.10609793E+00  5.13681290E+00  5.17761902E+00
  5.25275716E+00  5.25884438E+00  5.31878481E+00  5.35155792E+00  5.37210614E+00
  5.54383612E+00  5.64443397E+00  5.70793182E+00  5.89094119E+00  5.99550955E+00
  6.26326624E+00  6.29546144E+00  6.36091973E+00  6.37614649E+00  6.59943255E+00
  6.66063838E+00  6.66489507E+00  6.69424288E+00  6.72470468E+00  6.79468772E+00
  6.80448729E+00  6.85442071E+00  6.96836665E+00  7.02029719E+00  7.06633187E+00
  7.07962647E+00  7.13974790E+00  7.17498022E+00  7.18668676E+00  7.20478947E+00
  7.24670574E+00  7.24773533E+00  7.27254442E+00  7.35217408E+00  7.39800667E+00
  7.43010058E+00  7.44174634E+00  7.46296881E+00  7.56335298E+00  7.66244053E+00
  7.67629993E+00  7.79406750E+00  7.88560119E+00  7.95704143E+00  8.07868352E+00
  8.31161268E+00  8.50459202E+00  8.65055444E+00  1.36290538E+01  1.47461545E+01
  1.51236157E+01  1.57977850E+01
Alpha MO coefficients                      R   N=       42849
  6.30922013E-05  5.76627827E-06 -1.10768095E-03  1.09012848E-05 -5.08804918E-05
  4.13362347E-05  0.00000000E+00 -9.33616671E-05 -2.76986872E-04  0.00000000E+00
 -1.74404011E-05 -3.52947795E-04  0.00000000E+00  4.11453892E-05  0.00000000E+00
  0.00000000E+00 -2.38290934E-05  1.30644715E-05  2.31566939E-04  0.00000000E+00
  0.00000000E+00 -4.09983648E-05 -2.14219448E-04  2.96392049E-03 -9.53840962E-05
 -1.02608396E-04  3.50088782E-03  2.46861984E-03  1.01043938E-04 -5.40982661E-05
  0.00000000E+00 -7.17871830E-04  2.92400372E-04  0.00000000E+00 -1.93310202E-03
  1.15984405E-03  0.00000000E+00 -5.32082927E-04  3.39697967E-05  0.00000000E+00
  2.04765289E-05  0.00000000E+00  0.00000000E+00 -7.93502774E-06  4.43833795E-05
 -4.40790861E-04  0.00000000E+00  0.00000000E+00  4.11243789E-04 -6.70013582E-04
 -3.60532254E-04  0.00000000E+00  0.00000000E+00  5.20546421E-04 -7.62654445E-04
  0.00000000E+00  7.29721974E-05 -5.28510168E-05  0.00000000E+00  0.00000000E+00
 -2.47467083E-05  1.09265390E-04  0.00000000E+00  2.08656550E-04 -5.40890786E-05
  0.00000000E+00  0.00000000E+00 -1.56156058E-04  3.03775532E-04  9.76905721E-01
 -9.17883739E-03  4.34018577E-02  5.15061255E-04 -2.22649066E-03  4.38500785E-04
 -2.15227623E-03  0.00000000E+00 -3.10932090E-04  2.26321205E-03  0.00000000E+00
 -2.27924530E-03 -5.04171691E-04  0.00000000E+00 -2.07150108E-04  1.04767321E-04
  0.00000000E+00  8.28832528E-06  0.00000000E+00  0.00000000E+00 -6.22325472E-06
  3.67354867E-05  8.23477736E-04  0.00000000E+00  0.00000000E+00 -4.61092628E-04
 -1.61678043E-04 -1.39659405E-04  0.00000000E+00  0.00000000E+00 -5.71653470E-04
  3.52385353E-04  0.00000000E+00 -6.45442873E-06 -7.99581763E-05  0.00000000E+00
  0.00000000E+00 -8.49332022E-06  4.80105899E-05  0.00000000E+00  9.01126153E-05
  1.65373596E-06  0.00000000E+00  0.00000000E+00 -3.26646827E-04  3.80609498E-04
  1.03979298E-04  4.54832149E-04 -3.23812533E-04 -8.17916373E-04  3.95300993E-04
 -4.35058103E-05 -9.98848658E-05  0.00000000E+00  6.88463168E-04  1.10567778E-03
  0.00000000E+00 -7.71513014E-04 -6.22879638E-04  0.00000000E+00  2.01991499E-04
  2.17880032E-04  0.00000000E+00 -5.19215871E-05  0.00000000E+00  0.00000000E+00
  1.89281087E-05  9.32069406E-05 -4.18221169E-04  0.00000000E+00  0.00000000E+00
  2.48074555E-05  1.07709401E-03  2.44988816E-05  0.00000000E+00  0.00000000E+00
 -3.26432900E-04  3.49004666E-05  0.00000000E+00 -7.82819802E-05 -1.13162653E-04
  0.00000000E+00  0.00000000E+00 -9.80332560E-05  1.05996986E-04  0.00000000E+00
 -1.26777370E-04  4.26927372E-05  0.00000000E+00  0.00000000E+00  6.54071906E-06
  5.13235250E-04 -6.93815653E-04  4.50435006E-05 -6.95531421E-05  2.29014054E-04
 -2.10473068E-04 -2.91492183E-05 -4.09606654E-05  0.00000000E+00  1.70126873E-04
  2.49601220E-04  0.00000000E+00  5.27071237E-04  3.21340888E-04  0.00000000E+00
 -2.23932703E-04 -6.86726430E-05  0.00000000E+00 -1.28330752E-05  0.00000000E+00
  0.00000000E+00  3.09651615E-06  1.55127964E-05 -1.83089488E-06  0.00000000E+00
  0.00000000E+00 -1.60669038E-04  9.13442551E-06 -1.78304560E-05  0.00000000E+00
  0.00000000E+00 -1.71595225E-04 -4.41803753E-05  0.00000000E+00 -6.19276717E-06
 -9.11635333E-06  0.00000000E+00  0.00000000E+00 -2.08761574E-05  9.75249151E-06
  0.00000000E+00  4.08431061E-05  6.15404860E-05  0.00000000E+00  0.00000000E+00
  1.54761507E-04 -1.04216238E-04  3.85094510E-05  6.59406832E-05 -9.26650890E-05
 -3.08719935E-05  2.50218574E-05  1.62291189E-05  0.00000000E+00  2.26898096E-04
  4.81472559E-05  0.00000000E+00  1.14502389E-04  1.88774311E-05  0.00000000E+00
  1.00301461E-05  0.00000000E+00  0.00000000E+00 -7.98955196E-06  2.03606030E-05
  1.55604424E-05  0.00000000E+00  0.00000000E+00 -8.73907374E-05  7.30310628E-05
 -2.54556925E-04  3.50946226E-05 -1.50738219E-05 -5.63439103E-04  1.51077698E-04
  8.20601851E-06  1.30266644E-05  0.00000000E+00 -6.79392628E-06 -4.13908554E-05
  0.00000000E+00  1.96364386E-04  1.37670338E-04  0.00000000E+00 -4.10440679E-05
  5.21903090E-05  0.00000000E+00 -2.43551663E-06  0.00000000E+00  0.00000000E+00
 -8.70478184E-06 -1.08013089E-05  2.55580251E-05  0.00000000E+00  0.00000000E+00
  5.76387729E-05  1.07385628E-04  6.59457519E-05  0.00000000E+00  0.00000000E+00
 -3.73483111E-05 -8.22167715E-05  0.00000000E+00  8.07497546E-06  9.41656098E-06
  0.00000000E+00  0.00000000E+00 -1.45679455E-06 -2.69269802E-05  0.00000000E+00
 -1.57283481E-05 -3.89153777E-05  0.00000000E+00  0.00000000E+00 -5.58121747E-06
 -1.61524626E-05  7.21591238E-04  2.25318517E-05 -1.94363961E-05  2.98228367E-04
 -4.01931452E-04  1.66332965E-05  2.73078381E-05  0.00000000E+00 -6.64817813E-05
 -1.53837994E-04  0.00000000E+00  1.60289561E-04 -2.16301738E-04  0.00000000E+00
 -1.57567607E-04  1.43516765E-04  0.00000000E+00 -4.10559890E-06  0.00000000E+00
  0.00000000E+00 -2.93419954E-05 -1.01493454E-05 -5.12273243E-05  0.00000000E+00
  0.00000000E+00  7.77836536E-05  1.23056926E-04 -6.47147100E-05  0.00000000E+00
  0.00000000E+00  3.12376254E-05  2.64503493E-05  0.00000000E+00  3.11170864E-06
  3.34290238E-06  0.00000000E+00  0.00000000E+00 -8.10113468E-06 -2.70571153E-06
  0.00000000E+00  3.64288388E-06 -2.50270193E-05  0.00000000E+00  0.00000000E+00
  9.83147185E-05 -1.52568276E-04  2.36686171E-04  1.35574859E-03 -1.46516986E-04
 -7.09191148E-04  9.17310243E-04  6.34808350E-05 -7.08707294E-05  0.00000000E+00
  5.75669574E-04 -2.08157881E-03  0.00000000E+00  1.03855939E-04  5.22488678E-04
  0.00000000E+00  1.89641168E-04 -3.06726553E-04  0.00000000E+00 -1.27595062E-04
  0.00000000E+00  0.00000000E+00 -2.03229304E-04 -1.59178852E-04 -4.60331718E-04
  0.00000000E+00  0.00000000E+00 -5.98049931E-04 -9.25407062E-04 -4.30269101E-05
  0.00000000E+00  0.00000000E+00  5.67770981E-05  1.23946722E-04  0.00000000E+00
  8.33819328E-06  3.70260581E-05  0.00000000E+00  0.00000000E+00 -2.45444069E-05
 -4.42500040E-06  0.00000000E+00 -1.36712930E-04  1.56314006E-04  0.00000000E+00
  0.00000000E+00 -3.16516510E-04 -3.96255491E-05  9.76645170E-01 -9.88445743E-03
  4.35769257E-02  3.70193527E-03 -9.03402094E-04 -4.48507898E-04  2.13118563E-03
  0.00000000E+00  5.17960407E-04 -2.50575679E-03  0.00000000E+00 -8.80935155E-05
  8.27335651E-04  0.00000000E+00  1.03773686E-04 -6.50666640E-05  0.00000000E+00
 -1.93764935E-04  0.00000000E+00  0.00000000E+00 -7.36805152E-05 -4.35951401E-05
  4.08866717E-04  0.00000000E+00  0.00000000E+00  8.57093365E-04  4.87128853E-04
 -2.02873766E-04  0.00000000E+00  0.00000000E+00 -1.48386996E-04 -3.67897903E-05
  0.00000000E+00 -5.56637689E-06  7.02509150E-05  0.00000000E+00  0.00000000E+00
 -2.79270960E-05  1.05149244E-05  0.00000000E+00 -8.75945165E-05  9.13882894E-05
  0.00000000E+00  0.00000000E+00 -1.70966780E-04  2.03646112E-04  3.70825577E-04
  1.99322754E-03  1.45966759E-03 -1.75780396E-05  5.40096907E-05  2.66258290E-04
  0.00000000E+00  3.71676723E-04  1.01567748E-03  0.00000000E+00 -1.56379710E-04
  2.35970312E-04  0.00000000E+00 -2.37050097E-05  0.00000000E+00  0.00000000E+00
  3.41279873E-05 -3.13195662E-05 -2.23835837E-04  0.00000000E+00  0.00000000E+00
 -3.41633056E-04  4.20458760E-04  9.76832046E-01 -9.18905200E-03  4.34697931E-02
  1.19752541E-04 -1.90541841E-03 -2.05474203E-03 -8.05624217E-04  0.00000000E+00
  2.09312692E-03  7.41242596E-04  0.00000000E+00 -3.88110380E-04  6.33984038E-04
  0.00000000E+00  2.25023507E-04 -3.04350201E-04  0.00000000E+00  2.97015037E-05
  0.00000000E+00  0.00000000E+00 -7.30352853E-05  6.59128436E-05  7.65352455E-04
  0.00000000E+00  0.00000000E+00 -2.05307538E-04  3.58244144E-04 -2.42237355E-04
  0.00000000E+00  0.00000000E+00  3.27088390E-04  1.01930581E-06  0.00000000E+00
 -8.08487269E-05  2.53997928E-06  0.00000000E+00  0.00000000E+00  1.46338532E-05