 Entering Gaussian System, Link 0=g16
 Input=hoono_r2_1p473967.gjf
 Output=hoono_r2_1p473967.log
 Initial command:
 /sw/contrib/gaussian/g16/B01/g16/l1.exe "/scr/Gau-7003.inp" -scrdir="/scr/"
 Entering Link 1 = /sw/contrib/gaussian/g16/B01/g16/l1.exe PID=      7004.
  
 Copyright (c) 1988-2017, Gaussian, Inc.  All Rights Reserved.
  
 This is part of the Gaussian(R) 16 program.  It is based on
 the Gaussian(R) 09 system (copyright 2009, Gaussian, Inc.),
 the Gaussian(R) 03 system (copyright 2003, Gaussian, Inc.),
 the Gaussian(R) 98 system (copyright 1998, Gaussian, Inc.),
 the Gaussian(R) 94 system (copyright 1995, Gaussian, Inc.),
 the Gaussian 92(TM) system (copyright 1992, Gaussian, Inc.),
 the Gaussian 90(TM) system (copyright 1990, Gaussian, Inc.),
 the Gaussian 88(TM) system (copyright 1988, Gaussian, Inc.),
 the Gaussian 86(TM) system (copyright 1986, Carnegie Mellon
 University), and the Gaussian 82(TM) system (copyright 1983,
 Carnegie Mellon University). Gaussian is a federally registered
 trademark of Gaussian, Inc.
  
 This software contains proprietary and confidential information,
 including trade secrets, belonging to Gaussian, Inc.
  
 This software is provided under written license and may be
 used, copied, transmitted, or stored only in accord with that
 written license.
  
 The following legend is applicable only to US Government
 contracts under FAR:
  
                    RESTRICTED RIGHTS LEGEND
  
 Use, reproduction and disclosure by the US Government is
 subject to restrictions as set forth in subparagraphs (a)
 and (c) of the Commercial Computer Software - Restricted
 Rights clause in FAR 52.227-19.
  
 Gaussian, Inc.
 340 Quinnipiac St., Bldg. 40, Wallingford CT 06492
  
  
 ---------------------------------------------------------------
 Warning -- This program may not be used in any manner that
 competes with the business of Gaussian, Inc. or will provide
 assistance to any competitor of Gaussian, Inc.  The licensee
 of this program is prohibited from giving any competitor of
 Gaussian, Inc. access to this program.  By using this program,
 the user acknowledges that Gaussian, Inc. is engaged in the
 business of creating and licensing software in the field of
 computational chemistry and represents and warrants to the
 licensee that it is not a competitor of Gaussian, Inc. and that
 it will not use this program in any manner prohibited above.
 ---------------------------------------------------------------
  

 Cite this work as:
 Gaussian 16, Revision B.01,
 M. J. Frisch, G. W. Trucks, H. B. Schlegel, G. E. Scuseria, 
 M. A. Robb, J. R. Cheeseman, G. Scalmani, V. Barone, 
 G. A. Petersson, H. Nakatsuji, X. Li, M. Caricato, A. V. Marenich, 
 J. Bloino, B. G. Janesko, R. Gomperts, B. Mennucci, H. P. Hratchian, 
 J. V. Ortiz, A. F. Izmaylov, J. L. Sonnenberg, D. Williams-Young, 
 F. Ding, F. Lipparini, F. Egidi, J. Goings, B. Peng, A. Petrone, 
 T. Henderson, D. Ranasinghe, V. G. Zakrzewski, J. Gao, N. Rega, 
 G. Zheng, W. Liang, M. Hada, M. Ehara, K. Toyota, R. Fukuda, 
 J. Hasegawa, M. Ishida, T. Nakajima, Y. Honda, O. Kitao, H. Nakai, 
 T. Vreven, K. Throssell, J. A. Montgomery, Jr., J. E. Peralta, 
 F. Ogliaro, M. J. Bearpark, J. J. Heyd, E. N. Brothers, K. N. Kudin, 
 V. N. Staroverov, T. A. Keith, R. Kobayashi, J. Normand, 
 K. Raghavachari, A. P. Rendell, J. C. Burant, S. S. Iyengar, 
 J. Tomasi, M. Cossi, J. M. Millam, M. Klene, C. Adamo, R. Cammi, 
 J. W. Ochterski, R. L. Martin, K. Morokuma, O. Farkas, 
 J. B. Foresman, and D. J. Fox, Gaussian, Inc., Wallingford CT, 2016.
 
 ******************************************
 Gaussian 16:  ES64L-G16RevB.01 20-Dec-2017
                21-Feb-2022 
 ******************************************
 %nproc=28
 Will use up to   28 processors via shared memory.
 %mem=120GB
 %chk=hoono_r2_1p473967.chk
 ---------------------------------------
 #p freq mp2/aug-cc-pvtz density=current
 ---------------------------------------
 1/10=4,30=1,38=1/1,3;
 2/12=2,17=6,18=5,40=1/2;
 3/5=16,6=1,7=10,11=9,25=1,30=1,71=2,140=1/1,2,3;
 4//1;
 5/5=2,38=5,98=1/2;
 8/6=3,8=1,10=1,19=11,30=-1/1;
 9/15=3,16=-3/6;
 11/6=1,8=1,15=11,17=12,24=-1,27=1,28=-2,29=300,32=6,42=3/1,2,10;
 10/6=2,21=1/2;
 8/6=4,8=1,10=1,19=11,30=-1/11,4;
 10/5=1,20=4/2;
 11/12=2,14=11,16=1,17=2,28=-2,42=3,76=2/2,10,12;
 6/7=2,8=2,9=2,10=2,22=-1/1;
 7/8=1,10=1,12=2,25=1,44=2/1,2,3,16;
 1/10=4,30=1/3;
 99//99;
 Leave Link    1 at Mon Feb 21 20:07:22 2022, MaxMem= 16106127360 cpu:               2.8 elap:               0.1
 (Enter /sw/contrib/gaussian/g16/B01/g16/l101.exe)
 -----
 title
 -----
 Symbolic Z-matrix:
 Charge =  0 Multiplicity = 1
 H
 O                    1    r1
 O                    2    r2       1    a1
 N                    3    r3       2    a2       1    d1       0
 O                    4    r4       3    a3       2    d2       0
       Variables:
  r1                    0.96898                  
  r2                    1.47397                  
  r3                    1.45878                  
  r4                    1.17073                  
  a1                   97.59495                  
  a2                  102.29752                  
  a3                  109.06955                  
  d1                  180.                       
  d2                  180.                       
 
 ITRead=  0  0  0  0  0
 MicOpt= -1 -1 -1 -1 -1
 NAtoms=      5 NQM=        5 NQMF=       0 NMMI=      0 NMMIF=      0
                NMic=       0 NMicF=      0.
                    Isotopes and Nuclear Properties:
 (Nuclear quadrupole moments (NQMom) in fm**2, nuclear magnetic moments (NMagM)
  in nuclear magnetons)

  Atom         1           2           3           4           5
 IAtWgt=           1          16          16          14          16
 AtmWgt=   1.0078250  15.9949146  15.9949146  14.0030740  15.9949146
 NucSpn=           1           0           0           2           0
 AtZEff=  -0.0000000  -0.0000000  -0.0000000  -0.0000000  -0.0000000
 NQMom=    0.0000000   0.0000000   0.0000000   2.0440000   0.0000000
 NMagM=    2.7928460   0.0000000   0.0000000   0.4037610   0.0000000
 AtZNuc=   1.0000000   8.0000000   8.0000000   7.0000000   8.0000000
 Leave Link  101 at Mon Feb 21 20:07:22 2022, MaxMem= 16106127360 cpu:               2.5 elap:               0.1
 (Enter /sw/contrib/gaussian/g16/B01/g16/l103.exe)

 GradGradGradGradGradGradGradGradGradGradGradGradGradGradGradGradGradGrad
 Berny optimization.
 Initialization pass.
                       ----------------------------
                       !    Initial Parameters    !
                       ! (Angstroms and Degrees)  !
 ----------------------                            ----------------------
 !      Name          Value   Derivative information (Atomic Units)     !
 ------------------------------------------------------------------------
 !       r1          0.969    calculate D2E/DX2 analytically            !
 !       r2          1.474    calculate D2E/DX2 analytically            !
 !       r3          1.4588   calculate D2E/DX2 analytically            !
 !       r4          1.1707   calculate D2E/DX2 analytically            !
 !       a1         97.5949   calculate D2E/DX2 analytically            !
 !       a2        102.2975   calculate D2E/DX2 analytically            !
 !       a3        109.0696   calculate D2E/DX2 analytically            !
 !       d1        180.0      calculate D2E/DX2 analytically            !
 !       d2        180.0      calculate D2E/DX2 analytically            !
 ------------------------------------------------------------------------
 Trust Radius=3.00D-01 FncErr=1.00D-07 GrdErr=1.00D-07 EigMax=2.50D+02 EigMin=1.00D-04
 Number of steps in this run=      2 maximum allowed number of steps=      2.
 GradGradGradGradGradGradGradGradGradGradGradGradGradGradGradGradGradGrad

 Leave Link  103 at Mon Feb 21 20:07:22 2022, MaxMem= 16106127360 cpu:               0.4 elap:               0.0
 (Enter /sw/contrib/gaussian/g16/B01/g16/l202.exe)
                          Input orientation:                          
 ---------------------------------------------------------------------
 Center     Atomic      Atomic             Coordinates (Angstroms)
 Number     Number       Type             X           Y           Z
 ---------------------------------------------------------------------
      1          1           0        0.000000    0.000000    0.000000
      2          8           0        0.000000    0.000000    0.968976
      3          8           0        1.461036    0.000000    1.163788
      4          7           0        1.580632    0.000000    2.617662
      5          8           0        2.714748    0.000000    2.908156
 ---------------------------------------------------------------------
                    Distance matrix (angstroms):
                    1          2          3          4          5
     1  H    0.000000
     2  O    0.968976   0.000000
     3  O    1.867895   1.473967   0.000000
     4  N    3.057867   2.283980   1.458784   0.000000
     5  O    3.978345   3.336207   2.148165   1.170729   0.000000
 Stoichiometry    HNO3
 Framework group  CS[SG(HNO3)]
 Deg. of freedom     7
 Full point group                 CS      NOp   2
 Largest Abelian subgroup         CS      NOp   2
 Largest concise Abelian subgroup C1      NOp   1
                         Standard orientation:                         
 ---------------------------------------------------------------------
 Center     Atomic      Atomic             Coordinates (Angstroms)
 Number     Number       Type             X           Y           Z
 ---------------------------------------------------------------------
      1          1           0        1.576174    1.675196   -0.000000
      2          8           0        1.473456    0.711681   -0.000000
      3          8           0        0.000000    0.672847    0.000000
      4          7           0       -0.273044   -0.760157    0.000000
      5          8           0       -1.431564   -0.928790    0.000000
 ---------------------------------------------------------------------
 Rotational constants (GHZ):          54.4915369           4.9665639           4.5517044
 Leave Link  202 at Mon Feb 21 20:07:22 2022, MaxMem= 16106127360 cpu:               0.3 elap:               0.0
 (Enter /sw/contrib/gaussian/g16/B01/g16/l301.exe)
 Standard basis: Aug-CC-pVTZ (5D, 7F)
 Ernie: Thresh=  0.10000D-02 Tol=  0.10000D-05 Strict=F.
 Ernie:  12 primitive shells out of 131 were deleted.
 There are   166 symmetry adapted cartesian basis functions of A'  symmetry.
 There are    79 symmetry adapted cartesian basis functions of A"  symmetry.
 There are   136 symmetry adapted basis functions of A'  symmetry.
 There are    71 symmetry adapted basis functions of A"  symmetry.
   207 basis functions,   315 primitive gaussians,   245 cartesian basis functions
    16 alpha electrons       16 beta electrons
       nuclear repulsion energy       116.4062078937 Hartrees.
 IExCor=    0 DFT=F Ex=HF Corr=None ExCW=0 ScaHFX=  1.000000
 ScaDFX=  1.000000  1.000000  1.000000  1.000000 ScalE2=  1.000000  1.000000
 IRadAn=      5 IRanWt=     -1 IRanGd=            0 ICorTp=0 IEmpDi=  4
 NAtoms=    5 NActive=    5 NUniq=    5 SFac= 1.00D+00 NAtFMM=   60 NAOKFM=F Big=F
 Integral buffers will be    131072 words long.
 Raffenetti 1 integral format.
 Two-electron integral symmetry is turned on.
 Leave Link  301 at Mon Feb 21 20:07:22 2022, MaxMem= 16106127360 cpu:               2.4 elap:               0.1
 (Enter /sw/contrib/gaussian/g16/B01/g16/l302.exe)
 NPDir=0 NMtPBC=     1 NCelOv=     1 NCel=       1 NClECP=     1 NCelD=      1
         NCelK=      1 NCelE2=     1 NClLst=     1 CellRange=     0.0.
 One-electron integrals computed using PRISM.
 One-electron integral symmetry used in STVInt
 NBasis=   207 RedAO= T EigKep=  1.84D-04  NBF=   136    71
 NBsUse=   207 1.00D-06 EigRej= -1.00D+00 NBFU=   136    71
 Leave Link  302 at Mon Feb 21 20:07:22 2022, MaxMem= 16106127360 cpu:               4.4 elap:               0.2
 (Enter /sw/contrib/gaussian/g16/B01/g16/l303.exe)
 DipDrv:  MaxL=1.
 Leave Link  303 at Mon Feb 21 20:07:22 2022, MaxMem= 16106127360 cpu:               1.5 elap:               0.1
 (Enter /sw/contrib/gaussian/g16/B01/g16/l401.exe)
 ExpMin= 2.53D-02 ExpMax= 1.53D+04 ExpMxC= 5.22D+02 IAcc=3 IRadAn=         5 AccDes= 0.00D+00
 Harris functional with IExCor=  205 and IRadAn=       5 diagonalized for initial guess.
 HarFok:  IExCor=  205 AccDes= 0.00D+00 IRadAn=         5 IDoV= 1 UseB2=F ITyADJ=14
 ICtDFT=  3500011 ScaDFX=  1.000000  1.000000  1.000000  1.000000
 FoFCou: FMM=F IPFlag=           0 FMFlag=      100000 FMFlg1=           0
         NFxFlg=           0 DoJE=T BraDBF=F KetDBF=T FulRan=T
         wScrn=  0.000000 ICntrl=       500 IOpCl=  0 I1Cent=   200000004 NGrid=           0
         NMat0=    1 NMatS0=      1 NMatT0=    0 NMatD0=    1 NMtDS0=    0 NMtDT0=    0
 Petite list used in FoFCou.
 Harris En= -279.627740600443    
 JPrj=0 DoOrth=F DoCkMO=F.
 Initial guess orbital symmetries:
       Occupied  (A') (A') (A') (A') (A') (A') (A') (A') (A') (A')
                 (A") (A') (A') (A") (A") (A')
       Virtual   (A") (A') (A') (A') (A') (A') (A") (A') (A') (A')
                 (A") (A') (A") (A') (A') (A") (A') (A") (A') (A')
                 (A') (A') (A') (A') (A') (A") (A') (A") (A') (A')
                 (A") (A') (A") (A') (A') (A") (A') (A") (A') (A')
                 (A") (A') (A") (A') (A") (A') (A') (A') (A") (A")
                 (A') (A') (A') (A') (A") (A') (A") (A') (A") (A')
                 (A') (A') (A") (A') (A') (A") (A') (A") (A') (A')
                 (A") (A') (A') (A") (A") (A') (A') (A") (A') (A')
                 (A') (A") (A') (A") (A') (A") (A') (A") (A') (A')
                 (A') (A") (A') (A") (A') (A") (A") (A') (A') (A")
                 (A') (A') (A") (A') (A') (A') (A') (A") (A") (A')
                 (A") (A') (A') (A') (A") (A') (A') (A') (A") (A')
                 (A") (A') (A') (A") (A") (A') (A") (A') (A") (A')
                 (A') (A') (A') (A") (A") (A') (A") (A') (A') (A')
                 (A') (A") (A") (A') (A') (A") (A') (A') (A') (A')
                 (A') (A") (A') (A") (A') (A") (A') (A") (A") (A')
                 (A') (A") (A') (A") (A') (A") (A") (A") (A') (A')
                 (A") (A') (A") (A') (A') (A") (A") (A") (A') (A')
                 (A') (A') (A') (A') (A') (A') (A') (A') (A') (A')
                 (A')
 The electronic state of the initial guess is 1-A'.
 Leave Link  401 at Mon Feb 21 20:07:23 2022, MaxMem= 16106127360 cpu:               6.5 elap:               0.3
 (Enter /sw/contrib/gaussian/g16/B01/g16/l502.exe)
 Keep R1 ints in memory in symmetry-blocked form, NReq=348887737.
 FoFCou: FMM=F IPFlag=           0 FMFlag=           0 FMFlg1=           0
         NFxFlg=           0 DoJE=F BraDBF=F KetDBF=F FulRan=T
         wScrn=  0.000000 ICntrl=       600 IOpCl=  0 I1Cent=           0 NGrid=           0
         NMat0=    1 NMatS0=  21528 NMatT0=    0 NMatD0=    1 NMtDS0=    0 NMtDT0=    0
 Petite list used in FoFCou.
 Closed shell SCF:
 Using DIIS extrapolation, IDIIS=  1040.
 NGot= 16106127360 LenX= 15988850015 LenY= 15988789549
 Requested convergence on RMS density matrix=1.00D-08 within 128 cycles.
 Requested convergence on MAX density matrix=1.00D-06.
 Requested convergence on             energy=1.00D-06.
 No special actions if energy rises.

 Cycle   1  Pass 1  IDiag  1:
 E= -279.368166867468    
 DIIS: error= 2.95D-02 at cycle   1 NSaved=   1.
 NSaved= 1 IEnMin= 1 EnMin= -279.368166867468     IErMin= 1 ErrMin= 2.95D-02
 ErrMax= 2.95D-02  0.00D+00 EMaxC= 1.00D-01 BMatC= 4.38D-01 BMatP= 4.38D-01
 IDIUse=3 WtCom= 7.05D-01 WtEn= 2.95D-01
 Coeff-Com:  0.100D+01
 Coeff-En:   0.100D+01
 Coeff:      0.100D+01
 Gap=     0.516 Goal=   None    Shift=    0.000
 GapD=    0.516 DampG=2.000 DampE=0.500 DampFc=1.0000 IDamp=-1.
 RMSDP=1.62D-03 MaxDP=9.92D-02              OVMax= 1.15D-01

 Cycle   2  Pass 1  IDiag  1:
 E= -279.449517287703     Delta-E=       -0.081350420235 Rises=F Damp=F
 DIIS: error= 1.82D-02 at cycle   2 NSaved=   2.
 NSaved= 2 IEnMin= 2 EnMin= -279.449517287703     IErMin= 2 ErrMin= 1.82D-02
 ErrMax= 1.82D-02  0.00D+00 EMaxC= 1.00D-01 BMatC= 7.35D-02 BMatP= 4.38D-01
 IDIUse=3 WtCom= 8.18D-01 WtEn= 1.82D-01
 Coeff-Com:  0.198D+00 0.802D+00
 Coeff-En:   0.656D-02 0.993D+00
 Coeff:      0.163D+00 0.837D+00
 Gap=     0.530 Goal=   None    Shift=    0.000
 RMSDP=9.08D-04 MaxDP=3.72D-02 DE=-8.14D-02 OVMax= 7.01D-02

 Cycle   3  Pass 1  IDiag  1:
 E= -279.479320249201     Delta-E=       -0.029802961497 Rises=F Damp=F
 DIIS: error= 1.06D-02 at cycle   3 NSaved=   3.
 NSaved= 3 IEnMin= 3 EnMin= -279.479320249201     IErMin= 3 ErrMin= 1.06D-02
 ErrMax= 1.06D-02  0.00D+00 EMaxC= 1.00D-01 BMatC= 2.94D-02 BMatP= 7.35D-02
 IDIUse=3 WtCom= 8.94D-01 WtEn= 1.06D-01
 Coeff-Com: -0.332D-01 0.378D+00 0.655D+00
 Coeff-En:   0.000D+00 0.242D+00 0.758D+00
 Coeff:     -0.297D-01 0.364D+00 0.666D+00
 Gap=     0.511 Goal=   None    Shift=    0.000
 RMSDP=3.79D-04 MaxDP=1.51D-02 DE=-2.98D-02 OVMax= 3.86D-02

 Cycle   4  Pass 1  IDiag  1:
 E= -279.498856533547     Delta-E=       -0.019536284346 Rises=F Damp=F
 DIIS: error= 1.31D-03 at cycle   4 NSaved=   4.
 NSaved= 4 IEnMin= 4 EnMin= -279.498856533547     IErMin= 4 ErrMin= 1.31D-03
 ErrMax= 1.31D-03  0.00D+00 EMaxC= 1.00D-01 BMatC= 5.09D-04 BMatP= 2.94D-02
 IDIUse=3 WtCom= 9.87D-01 WtEn= 1.31D-02
 Coeff-Com: -0.120D-01 0.590D-01 0.162D+00 0.791D+00
 Coeff-En:   0.000D+00 0.000D+00 0.000D+00 0.100D+01
 Coeff:     -0.118D-01 0.582D-01 0.160D+00 0.794D+00
 Gap=     0.503 Goal=   None    Shift=    0.000
 RMSDP=9.04D-05 MaxDP=2.84D-03 DE=-1.95D-02 OVMax= 1.13D-02

 Cycle   5  Pass 1  IDiag  1:
 E= -279.499535786027     Delta-E=       -0.000679252480 Rises=F Damp=F
 DIIS: error= 7.47D-04 at cycle   5 NSaved=   5.
 NSaved= 5 IEnMin= 5 EnMin= -279.499535786027     IErMin= 5 ErrMin= 7.47D-04
 ErrMax= 7.47D-04  0.00D+00 EMaxC= 1.00D-01 BMatC= 8.81D-05 BMatP= 5.09D-04
 IDIUse=3 WtCom= 9.93D-01 WtEn= 7.47D-03
 Coeff-Com:  0.610D-02-0.719D-01-0.116D+00 0.262D-01 0.116D+01
 Coeff-En:   0.000D+00 0.000D+00 0.000D+00 0.000D+00 0.100D+01
 Coeff:      0.606D-02-0.713D-01-0.116D+00 0.260D-01 0.115D+01
 Gap=     0.502 Goal=   None    Shift=    0.000
 RMSDP=7.52D-05 MaxDP=2.07D-03 DE=-6.79D-04 OVMax= 1.08D-02

 Cycle   6  Pass 1  IDiag  1:
 E= -279.499847763288     Delta-E=       -0.000311977261 Rises=F Damp=F
 DIIS: error= 2.97D-04 at cycle   6 NSaved=   6.
 NSaved= 6 IEnMin= 6 EnMin= -279.499847763288     IErMin= 6 ErrMin= 2.97D-04
 ErrMax= 2.97D-04  0.00D+00 EMaxC= 1.00D-01 BMatC= 1.70D-05 BMatP= 8.81D-05
 IDIUse=3 WtCom= 9.97D-01 WtEn= 2.97D-03
 Coeff-Com:  0.856D-03-0.162D-02-0.113D-02-0.124D+00-0.186D+00 0.131D+01
 Coeff-En:   0.000D+00 0.000D+00 0.000D+00 0.000D+00 0.000D+00 0.100D+01
 Coeff:      0.853D-03-0.161D-02-0.113D-02-0.124D+00-0.186D+00 0.131D+01
 Gap=     0.503 Goal=   None    Shift=    0.000
 RMSDP=4.41D-05 MaxDP=1.23D-03 DE=-3.12D-04 OVMax= 5.36D-03

 Cycle   7  Pass 1  IDiag  1:
 E= -279.499919425620     Delta-E=       -0.000071662332 Rises=F Damp=F
 DIIS: error= 1.31D-04 at cycle   7 NSaved=   7.
 NSaved= 7 IEnMin= 7 EnMin= -279.499919425620     IErMin= 7 ErrMin= 1.31D-04
 ErrMax= 1.31D-04  0.00D+00 EMaxC= 1.00D-01 BMatC= 5.44D-06 BMatP= 1.70D-05
 IDIUse=3 WtCom= 9.99D-01 WtEn= 1.31D-03
 Coeff-Com: -0.947D-03 0.140D-01 0.271D-01-0.307D-01-0.309D+00 0.459D+00
 Coeff-Com:  0.841D+00
 Coeff-En:   0.000D+00 0.000D+00 0.000D+00 0.000D+00 0.000D+00 0.000D+00
 Coeff-En:   0.100D+01
 Coeff:     -0.946D-03 0.140D-01 0.271D-01-0.307D-01-0.309D+00 0.458D+00
 Coeff:      0.841D+00
 Gap=     0.503 Goal=   None    Shift=    0.000
 RMSDP=1.39D-05 MaxDP=3.88D-04 DE=-7.17D-05 OVMax= 1.60D-03

 Cycle   8  Pass 1  IDiag  1:
 E= -279.499929549467     Delta-E=       -0.000010123846 Rises=F Damp=F
 DIIS: error= 5.31D-05 at cycle   8 NSaved=   8.
 NSaved= 8 IEnMin= 8 EnMin= -279.499929549467     IErMin= 8 ErrMin= 5.31D-05
 ErrMax= 5.31D-05  0.00D+00 EMaxC= 1.00D-01 BMatC= 6.08D-07 BMatP= 5.44D-06
 IDIUse=1 WtCom= 1.00D+00 WtEn= 0.00D+00
 Coeff-Com: -0.446D-03 0.340D-02 0.749D-02 0.275D-01-0.407D-01-0.191D+00
 Coeff-Com:  0.873D-01 0.111D+01
 Coeff:     -0.446D-03 0.340D-02 0.749D-02 0.275D-01-0.407D-01-0.191D+00
 Coeff:      0.873D-01 0.111D+01
 Gap=     0.502 Goal=   None    Shift=    0.000
 RMSDP=7.41D-06 MaxDP=2.14D-04 DE=-1.01D-05 OVMax= 8.01D-04

 Cycle   9  Pass 1  IDiag  1:
 E= -279.499931502426     Delta-E=       -0.000001952960 Rises=F Damp=F
 DIIS: error= 1.59D-05 at cycle   9 NSaved=   9.
 NSaved= 9 IEnMin= 9 EnMin= -279.499931502426     IErMin= 9 ErrMin= 1.59D-05
 ErrMax= 1.59D-05  0.00D+00 EMaxC= 1.00D-01 BMatC= 6.63D-08 BMatP= 6.08D-07
 IDIUse=1 WtCom= 1.00D+00 WtEn= 0.00D+00
 Coeff-Com:  0.124D-03-0.172D-02-0.306D-02-0.192D-02 0.342D-01 0.473D-03
 Coeff-Com: -0.142D+00-0.143D+00 0.126D+01
 Coeff:      0.124D-03-0.172D-02-0.306D-02-0.192D-02 0.342D-01 0.473D-03
 Coeff:     -0.142D+00-0.143D+00 0.126D+01
 Gap=     0.503 Goal=   None    Shift=    0.000
 RMSDP=1.94D-06 MaxDP=6.62D-05 DE=-1.95D-06 OVMax= 1.72D-04

 Cycle  10  Pass 1  IDiag  1:
 E= -279.499931661946     Delta-E=       -0.000000159520 Rises=F Damp=F
 DIIS: error= 4.10D-06 at cycle  10 NSaved=  10.
 NSaved=10 IEnMin=10 EnMin= -279.499931661946     IErMin=10 ErrMin= 4.10D-06
 ErrMax= 4.10D-06  0.00D+00 EMaxC= 1.00D-01 BMatC= 5.54D-09 BMatP= 6.63D-08
 IDIUse=1 WtCom= 1.00D+00 WtEn= 0.00D+00
 Coeff-Com:  0.299D-04-0.228D-03-0.298D-03-0.265D-02 0.127D-02 0.192D-01
 Coeff-Com: -0.655D-02-0.789D-01-0.851D-01 0.115D+01
 Coeff:      0.299D-04-0.228D-03-0.298D-03-0.265D-02 0.127D-02 0.192D-01
 Coeff:     -0.655D-02-0.789D-01-0.851D-01 0.115D+01
 Gap=     0.502 Goal=   None    Shift=    0.000
 RMSDP=5.09D-07 MaxDP=2.11D-05 DE=-1.60D-07 OVMax= 4.10D-05

 Cycle  11  Pass 1  IDiag  1:
 E= -279.499931674519     Delta-E=       -0.000000012573 Rises=F Damp=F
 DIIS: error= 2.01D-06 at cycle  11 NSaved=  11.
 NSaved=11 IEnMin=11 EnMin= -279.499931674519     IErMin=11 ErrMin= 2.01D-06
 ErrMax= 2.01D-06  0.00D+00 EMaxC= 1.00D-01 BMatC= 6.48D-10 BMatP= 5.54D-09
 IDIUse=1 WtCom= 1.00D+00 WtEn= 0.00D+00
 Coeff-Com: -0.213D-04 0.243D-03 0.480D-03 0.505D-03-0.428D-02-0.328D-02
 Coeff-Com:  0.164D-01 0.366D-01-0.138D+00-0.179D+00 0.127D+01
 Coeff:     -0.213D-04 0.243D-03 0.480D-03 0.505D-03-0.428D-02-0.328D-02
 Coeff:      0.164D-01 0.366D-01-0.138D+00-0.179D+00 0.127D+01
 Gap=     0.502 Goal=   None    Shift=    0.000
 RMSDP=1.77D-07 MaxDP=6.44D-06 DE=-1.26D-08 OVMax= 1.74D-05

 Cycle  12  Pass 1  IDiag  1:
 E= -279.499931676304     Delta-E=       -0.000000001784 Rises=F Damp=F
 DIIS: error= 5.80D-07 at cycle  12 NSaved=  12.
 NSaved=12 IEnMin=12 EnMin= -279.499931676304     IErMin=12 ErrMin= 5.80D-07
 ErrMax= 5.80D-07  0.00D+00 EMaxC= 1.00D-01 BMatC= 7.14D-11 BMatP= 6.48D-10
 IDIUse=1 WtCom= 1.00D+00 WtEn= 0.00D+00
 Coeff-Com:  0.123D-05-0.292D-04-0.624D-04 0.188D-03 0.109D-02-0.224D-02
 Coeff-Com: -0.408D-02 0.505D-02 0.419D-01-0.115D+00-0.275D+00 0.135D+01
 Coeff:      0.123D-05-0.292D-04-0.624D-04 0.188D-03 0.109D-02-0.224D-02
 Coeff:     -0.408D-02 0.505D-02 0.419D-01-0.115D+00-0.275D+00 0.135D+01
 Gap=     0.503 Goal=   None    Shift=    0.000
 RMSDP=7.16D-08 MaxDP=2.83D-06 DE=-1.78D-09 OVMax= 6.74D-06

 Cycle  13  Pass 1  IDiag  1:
 E= -279.499931676533     Delta-E=       -0.000000000230 Rises=F Damp=F
 DIIS: error= 1.75D-07 at cycle  13 NSaved=  13.
 NSaved=13 IEnMin=13 EnMin= -279.499931676533     IErMin=13 ErrMin= 1.75D-07
 ErrMax= 1.75D-07  0.00D+00 EMaxC= 1.00D-01 BMatC= 4.12D-12 BMatP= 7.14D-11
 IDIUse=1 WtCom= 1.00D+00 WtEn= 0.00D+00
 Coeff-Com:  0.130D-05-0.141D-04-0.228D-04-0.872D-04 0.120D-03 0.729D-03
 Coeff-Com: -0.539D-03-0.356D-02 0.581D-03 0.417D-01-0.389D-01-0.324D+00
 Coeff-Com:  0.132D+01
 Coeff:      0.130D-05-0.141D-04-0.228D-04-0.872D-04 0.120D-03 0.729D-03
 Coeff:     -0.539D-03-0.356D-02 0.581D-03 0.417D-01-0.389D-01-0.324D+00
 Coeff:      0.132D+01
 Gap=     0.503 Goal=   None    Shift=    0.000
 RMSDP=1.94D-08 MaxDP=5.64D-07 DE=-2.30D-10 OVMax= 1.62D-06

 Cycle  14  Pass 1  IDiag  1:
 E= -279.499931676546     Delta-E=       -0.000000000012 Rises=F Damp=F
 DIIS: error= 2.60D-08 at cycle  14 NSaved=  14.
 NSaved=14 IEnMin=14 EnMin= -279.499931676546     IErMin=14 ErrMin= 2.60D-08
 ErrMax= 2.60D-08  0.00D+00 EMaxC= 1.00D-01 BMatC= 2.19D-13 BMatP= 4.12D-12
 IDIUse=1 WtCom= 1.00D+00 WtEn= 0.00D+00
 Coeff-Com: -0.199D-06 0.325D-05 0.573D-05 0.451D-05-0.860D-04 0.476D-04
 Coeff-Com:  0.248D-03 0.291D-03-0.253D-02 0.148D-02 0.178D-01-0.260D-01
 Coeff-Com: -0.209D+00 0.122D+01
 Coeff:     -0.199D-06 0.325D-05 0.573D-05 0.451D-05-0.860D-04 0.476D-04
 Coeff:      0.248D-03 0.291D-03-0.253D-02 0.148D-02 0.178D-01-0.260D-01
 Coeff:     -0.209D+00 0.122D+01
 Gap=     0.503 Goal=   None    Shift=    0.000
 RMSDP=3.98D-09 MaxDP=9.29D-08 DE=-1.21D-11 OVMax= 3.70D-07

 SCF Done:  E(RHF) =  -279.499931677     A.U. after   14 cycles
            NFock= 14  Conv=0.40D-08     -V/T= 2.0025
 KE= 2.788137005599D+02 PE=-8.941184819819D+02 EE= 2.193986418518D+02
 Leave Link  502 at Mon Feb 21 20:07:26 2022, MaxMem= 16106127360 cpu:              55.4 elap:               3.6
 (Enter /sw/contrib/gaussian/g16/B01/g16/l801.exe)
 ExpMin= 2.53D-02 ExpMax= 1.53D+04 ExpMxC= 5.22D+02 IAcc=3 IRadAn=         5 AccDes= 0.00D+00
 HarFok:  IExCor=  205 AccDes= 0.00D+00 IRadAn=         5 IDoV=-2 UseB2=F ITyADJ=14
 ICtDFT= 12500011 ScaDFX=  1.000000  1.000000  1.000000  1.000000
 Largest valence mixing into a core orbital is  2.08D-04
 Largest core mixing into a valence orbital is  3.64D-05
 Range of M.O.s used for correlation:     5   207
 NBasis=   207 NAE=    16 NBE=    16 NFC=     4 NFV=     0
 NROrb=    203 NOA=    12 NOB=    12 NVA=   191 NVB=   191

 **** Warning!!: The largest alpha MO coefficient is  0.17527999D+02

 Leave Link  801 at Mon Feb 21 20:07:26 2022, MaxMem= 16106127360 cpu:               2.2 elap:               0.1
 (Enter /sw/contrib/gaussian/g16/B01/g16/l906.exe)
 Frozen-core derivative calculation, NFC=   4 NFV=   0.
 FulOut=F Deriv=T AODrv=T NAtomX=     5
   MMem=           0  MDisk=          12 MDiskD=          12
  W3Min=      811440 MinDsk=     2425030 NBas6D=         245
 NBas2D=       30762    NTT=       30135    LW2=     7400000
    MDV= 16105574339 MDiskM=      328644 NBas2p=       30702
 Disk-based method using ON**2 memory for 12 occupieds at a time.
 Permanent disk used for amplitudes=    11516536 words.
 Estimated scratch disk usage=   321251614 words.
 IMap=   1   2   3   4   5   6   7   8   9  10  11  12  13  14  15  16
 Actual    scratch disk usage=   310331678 words.
 JobTyp=1 Pass  1:  I=   5 to  16 NPSUse= 28 ParTrn=T ParDer=T DoDerP=T.
 (rs|ai) integrals will be sorted in core.
 Spin components of T(2) and E(2):
     alpha-alpha T2 =       0.3420438828D-01 E2=     -0.1225254277D+00
     alpha-beta  T2 =       0.1882471588D+00 E2=     -0.7015676921D+00
     beta-beta   T2 =       0.3420438828D-01 E2=     -0.1225254277D+00
 The integrals were generated   1 times.
 ANorm=    0.1121006662D+01
 E2 =    -0.9466185475D+00 EUMP2 =    -0.28044655022404D+03
 Leave Link  906 at Mon Feb 21 20:09:04 2022, MaxMem= 16106127360 cpu:            2717.8 elap:              97.2
 (Enter /sw/contrib/gaussian/g16/B01/g16/l1101.exe)
 Using compressed Sx but separate Hx and Fx, NAtomX=     5.
 Will process      6 centers per pass.
 Leave Link 1101 at Mon Feb 21 20:09:04 2022, MaxMem= 16106127360 cpu:               6.2 elap:               0.3
 (Enter /sw/contrib/gaussian/g16/B01/g16/l1102.exe)
 Leave Link 1102 at Mon Feb 21 20:09:04 2022, MaxMem= 16106127360 cpu:               1.3 elap:               0.1
 (Enter /sw/contrib/gaussian/g16/B01/g16/l1110.exe)
 Forming Gx(P) for the SCF density, NAtomX=     5.
 Integral derivatives from FoFJK, PRISM(SPDF).
 Do as many integral derivatives as possible in FoFJK.
 G2DrvN: MDV=   16106126844.
 G2DrvN: will do     6 centers at a time, making    1 passes.
 Calling FoFCou, ICntrl=  3107 FMM=F I1Cent=   0 AccDes= 0.00D+00.
 FoFJK:  IHMeth= 1 ICntrl=    3107 DoSepK=F KAlg= 0 I1Cent=           0 FoldK=F
 IRaf=         0 NMat=       1 IRICut=       1 DoRegI=T DoRafI=F ISym2E= 1 IDoP0=0 IntGTp=1.
 FoFCou: FMM=F IPFlag=           0 FMFlag=      100000 FMFlg1=           0
         NFxFlg=           0 DoJE=F BraDBF=F KetDBF=F FulRan=T
         wScrn=  0.000000 ICntrl=      3107 IOpCl=  0 I1Cent=           0 NGrid=           0
         NMat0=    1 NMatS0=      1 NMatT0=    0 NMatD0=    1 NMtDS0=    0 NMtDT0=    0
 Petite list used in FoFCou.
 End of G2Drv F.D. properties file   721 does not exist.
 End of G2Drv F.D. properties file   722 does not exist.
 End of G2Drv F.D. properties file   788 does not exist.
 Leave Link 1110 at Mon Feb 21 20:09:07 2022, MaxMem= 16106127360 cpu:              83.8 elap:               3.0
 (Enter /sw/contrib/gaussian/g16/B01/g16/l1002.exe)
 Minotr:  Closed shell wavefunction.
          IDoAtm=11111
          Frozen-core window.
          Direct CPHF calculation.
          Differentiating once with respect to electric field.
                with respect to dipole field.
          Differentiating once with respect to nuclear coordinates.
          Requested convergence is 1.0D-08 RMS, and 1.0D-07 maximum.
          Secondary convergence is 1.0D-12 RMS, and 1.0D-12 maximum.
          NewPWx=T KeepS1=T KeepF1=T KeepIn=T MapXYZ=F SortEE=F KeepMc=T.
 Keep R1 ints in memory in symmetry-blocked form, NReq=348888983.
 FoFCou: FMM=F IPFlag=           0 FMFlag=           0 FMFlg1=           0
         NFxFlg=           0 DoJE=F BraDBF=F KetDBF=F FulRan=T
         wScrn=  0.000000 ICntrl=       600 IOpCl=  0 I1Cent=           0 NGrid=           0
         NMat0=    1 NMatS0=  21528 NMatT0=    0 NMatD0=    1 NMtDS0=    0 NMtDT0=    0
 Petite list used in FoFCou.
          MDV=   16106127360 using IRadAn=       1.
          Solving linear equations simultaneously, MaxMat=       0.
          There are    18 degrees of freedom in the 1st order CPHF.  IDoFFX=6 NUNeed=    18.
     15 vectors produced by pass  0 Test12= 1.70D-14 5.56D-09 XBig12= 8.53D+00 1.01D+00.
 AX will form    15 AO Fock derivatives at one time.
     15 vectors produced by pass  1 Test12= 1.70D-14 5.56D-09 XBig12= 1.38D+00 2.68D-01.
     15 vectors produced by pass  2 Test12= 1.70D-14 5.56D-09 XBig12= 1.46D-01 9.50D-02.
     15 vectors produced by pass  3 Test12= 1.70D-14 5.56D-09 XBig12= 5.04D-03 1.05D-02.
     15 vectors produced by pass  4 Test12= 1.70D-14 5.56D-09 XBig12= 1.00D-04 1.89D-03.
     15 vectors produced by pass  5 Test12= 1.70D-14 5.56D-09 XBig12= 1.42D-06 1.77D-04.
     15 vectors produced by pass  6 Test12= 1.70D-14 5.56D-09 XBig12= 1.13D-08 1.50D-05.
     12 vectors produced by pass  7 Test12= 1.70D-14 5.56D-09 XBig12= 8.29D-11 1.29D-06.
      3 vectors produced by pass  8 Test12= 1.70D-14 5.56D-09 XBig12= 5.90D-13 1.23D-07.
      2 vectors produced by pass  9 Test12= 1.70D-14 5.56D-09 XBig12= 3.90D-15 1.05D-08.
 InvSVY:  IOpt=1 It=  1 EMax= 6.66D-16
 Solved reduced A of dimension   122 with    15 vectors.
 FullF1:  Do perturbations      1 to      18.
 Saving first derivative matrices.
 End of Minotr F.D. properties file   721 does not exist.
 End of Minotr F.D. properties file   722 does not exist.
 End of Minotr F.D. properties file   788 does not exist.
 Leave Link 1002 at Mon Feb 21 20:09:10 2022, MaxMem= 16106127360 cpu:              79.2 elap:               2.9
 (Enter /sw/contrib/gaussian/g16/B01/g16/l811.exe)
 MDV= 16106127360.
 Form MO integral derivatives with frozen-active canonical formalism.
 MOERI=1 MOERIx=1 NAtoms=     5 NAtomX=     5.
 Discarding MO integrals.
 MO basis two electron integral derivatives will not be stored on disk.
 IAlg= 3 DoFC=T DoPWx=T Debug=F.
 Frozen-core window:  NFC=   4 NFV=   0.
 Reordered first order wavefunction length =     18678272
 In DefCFB: NBatch=  1 ICI= 16 ICA=191 LFMax= 96
            Large arrays: LIAPS=   619940160 LIARS=   288257200 words.
 In StABat: MaxSiz= 55 MinSiz= 25 NAtomB=  5
 DoIAMN: NPSUse= 28.
 Leave Link  811 at Mon Feb 21 20:10:31 2022, MaxMem= 16106127360 cpu:            2260.0 elap:              80.9
 (Enter /sw/contrib/gaussian/g16/B01/g16/l804.exe)
 Frozen-core window:  NFC=   4 NFV=   0.
 Closed-shell transformation, MDV= 16106127360 ITran=4 ISComp=1.
 Semi-Direct transformation.
 ModeAB=           2 MOrb=            16 LenV=   16104923065
 LASXX=     67341636 LTotXX=    67341636 LenRXX=    67341636
 LTotAB=    68301760 MaxLAS=    99807120 LenRXY=    99807120
 NonZer=   134683272 LenScr=   202817536 LnRSAI=           0
 LnScr1=           0 LExtra=           0 Total=    369966292
 MaxDsk=          -1 SrtSym=           F ITran=            4
 DoSDTr:  NPSUse= 28
 JobTyp=0 Pass  1:  I=   1 to  16.
 (rs|ai) integrals will be sorted in core.
 Complete sort for first half transformation.
 First half transformation complete.
 Begin second half transformation for I=  10.
 Begin second half transformation for I=  10.
 Complete sort for second half transformation.
 Second half transformation complete.
 Spin components of T(2) and E(2):
     alpha-alpha T2 =       0.3420438828D-01 E2=     -0.1225254277D+00
     alpha-beta  T2 =       0.1882471588D+00 E2=     -0.7015676921D+00
     beta-beta   T2 =       0.3420438828D-01 E2=     -0.1225254277D+00
 ANorm=    0.1585342824D+01
 E2 =    -0.9466185475D+00 EUMP2 =    -0.28044655022404D+03
 Leave Link  804 at Mon Feb 21 20:10:47 2022, MaxMem= 16106127360 cpu:             439.2 elap:              15.7
 (Enter /sw/contrib/gaussian/g16/B01/g16/l1002.exe)
 Minotr:  Closed shell wavefunction.
          Computing MP2/KS-MP2 derivatives.
          Using Z-Vector for PSCF gradient.
          Skipping F1 and S1 gradient terms here.
          IDoAtm=11111
          Frozen-core window.
          Using MO integrals in the linear equations.
          Forming densities via direct SCF.
          Differentiating once with respect to electric field.
                with respect to dipole field.
          Differentiating once with respect to nuclear coordinates.
          Using symmetry in CPHF.
          Requested convergence is 1.0D-10 RMS, and 1.0D-09 maximum.
          NewPWx=F KeepS1=T KeepF1=T KeepIn=T MapXYZ=F SortEE=F KeepMc=T.
          MDV=   16106127360 using IRadAn=       5.
          Solving linear equations separately, MaxMat=       0.
          There are     1 degrees of freedom in the 1st order CPHF.  IDoFFX=0 NUNeed=     1.
 FoFJK:  IHMeth= 1 ICntrl=       0 DoSepK=F KAlg= 0 I1Cent=           0 FoldK=F
 IRaf=         0 NMat=       1 IRICut=       1 DoRegI=T DoRafI=F ISym2E= 0 IDoP0=0 IntGTp=1.
 FoFCou: FMM=F IPFlag=           0 FMFlag=      100000 FMFlg1=           0
         NFxFlg=           0 DoJE=F BraDBF=F KetDBF=F FulRan=T
         wScrn=  0.000000 ICntrl=         0 IOpCl=  0 I1Cent=           0 NGrid=           0
         NMat0=    1 NMatS0=      1 NMatT0=    0 NMatD0=    1 NMtDS0=    0 NMtDT0=    0
 Symmetry not used in FoFCou.
 LinEq1:  Iter=  0 NonCon=     1 RMS=5.99D-03 Max=1.34D-01 NDo=     1
 LinEq1:  Iter=  1 NonCon=     1 RMS=1.91D-03 Max=3.79D-02 NDo=     1
 LinEq1:  Iter=  2 NonCon=     1 RMS=8.72D-04 Max=1.44D-02 NDo=     1
 LinEq1:  Iter=  3 NonCon=     1 RMS=3.87D-04 Max=7.72D-03 NDo=     1
 LinEq1:  Iter=  4 NonCon=     1 RMS=1.19D-04 Max=1.87D-03 NDo=     1
 LinEq1:  Iter=  5 NonCon=     1 RMS=4.37D-05 Max=6.90D-04 NDo=     1
 LinEq1:  Iter=  6 NonCon=     1 RMS=2.00D-05 Max=2.17D-04 NDo=     1
 LinEq1:  Iter=  7 NonCon=     1 RMS=8.17D-06 Max=1.35D-04 NDo=     1
 LinEq1:  Iter=  8 NonCon=     1 RMS=3.51D-06 Max=3.39D-05 NDo=     1
 LinEq1:  Iter=  9 NonCon=     1 RMS=9.57D-07 Max=1.34D-05 NDo=     1
 LinEq1:  Iter= 10 NonCon=     1 RMS=1.89D-07 Max=2.07D-06 NDo=     1
 LinEq1:  Iter= 11 NonCon=     1 RMS=3.51D-08 Max=3.60D-07 NDo=     1
 LinEq1:  Iter= 12 NonCon=     1 RMS=8.55D-09 Max=1.09D-07 NDo=     1
 LinEq1:  Iter= 13 NonCon=     1 RMS=1.59D-09 Max=2.25D-08 NDo=     1
 LinEq1:  Iter= 14 NonCon=     1 RMS=2.89D-10 Max=4.05D-09 NDo=     1
 LinEq1:  Iter= 15 NonCon=     0 RMS=5.25D-11 Max=5.37D-10 NDo=     1
 Linear equations converged to 1.000D-10 1.000D-09 after    15 iterations.
 End of Minotr F.D. properties file   721 does not exist.
 End of Minotr F.D. properties file   722 does not exist.
 End of Minotr F.D. properties file   788 does not exist.
 Leave Link 1002 at Mon Feb 21 20:10:49 2022, MaxMem= 16106127360 cpu:              67.0 elap:               2.5
 (Enter /sw/contrib/gaussian/g16/B01/g16/l1102.exe)
 Use density number 2.
 Symmetrizing basis deriv contribution to polar:
 IMax=3 JMax=2 DiffMx= 0.00D+00
 Leave Link 1102 at Mon Feb 21 20:10:49 2022, MaxMem= 16106127360 cpu:               1.5 elap:               0.1
 (Enter /sw/contrib/gaussian/g16/B01/g16/l1110.exe)
 Forming Gx(P) for generalized density number  2 NAtomX=     5.
 Integral derivatives from FoFJK, PRISM(SPDF).
 Do as many integral derivatives as possible in FoFJK.
 G2DrvN: MDV=   16106126844.
 G2DrvN: will do     6 centers at a time, making    1 passes.
 Calling FoFCou, ICntrl=  3107 FMM=F I1Cent=   0 AccDes= 0.00D+00.
 FoFJK:  IHMeth= 1 ICntrl=    3107 DoSepK=F KAlg= 0 I1Cent=           0 FoldK=F
 IRaf=         0 NMat=       1 IRICut=       1 DoRegI=T DoRafI=F ISym2E= 1 IDoP0=0 IntGTp=1.
 FoFCou: FMM=F IPFlag=           0 FMFlag=      100000 FMFlg1=           0
         NFxFlg=           0 DoJE=F BraDBF=F KetDBF=F FulRan=T
         wScrn=  0.000000 ICntrl=      3107 IOpCl=  0 I1Cent=           0 NGrid=           0
         NMat0=    1 NMatS0=      1 NMatT0=    0 NMatD0=    1 NMtDS0=    0 NMtDT0=    0
 Petite list used in FoFCou.
 End of G2Drv F.D. properties file   721 does not exist.
 End of G2Drv F.D. properties file   722 does not exist.
 End of G2Drv F.D. properties file   788 does not exist.
 Leave Link 1110 at Mon Feb 21 20:10:52 2022, MaxMem= 16106127360 cpu:              84.0 elap:               3.0
 (Enter /sw/contrib/gaussian/g16/B01/g16/l1112.exe)
 MP22nd: MDV=   16106127360
 This link is doing NAtomX=     5 total of    18 degrees of freedom.
 Using ON3 I/O method in MakUI.
 Frozen-core window:  NFC=   4 NFV=   0.
 Using Ix for Sx.
 Use MO integrals over full window.
 Using OV2 memory method for fx*t*t/D, MaxI=    16 DoOO2=F NP=  28.
 R2 and R3 integrals will be kept in memory, NReq=   915591705.
 FoFCou: FMM=F IPFlag=           0 FMFlag=           0 FMFlg1=           0
         NFxFlg=           0 DoJE=F BraDBF=F KetDBF=F FulRan=T
         wScrn=  0.000000 ICntrl=       600 IOpCl=  0 I1Cent=           0 NGrid=           0
         NMat0=    1 NMatS0=      1 NMatT0=    0 NMatD0=    1 NMtDS0=    0 NMtDT0=    0
 Symmetry not used in FoFCou.
 DD1Dir will call FoFMem   1 times, MxPair=       272
 NAB=   136 NAA=     0 NBB=     0.
 Symmetry is being used.
 FoFJK:  IHMeth= 1 ICntrl=       0 DoSepK=F KAlg= 0 I1Cent=           0 FoldK=F
 IRaf=         0 NMat=      18 IRICut=      45 DoRegI=T DoRafI=T ISym2E= 2 IDoP0=3 IntGTp=3.
 Discarding MO integrals.
 Leave Link 1112 at Mon Feb 21 20:11:24 2022, MaxMem= 16106127360 cpu:             874.5 elap:              31.5
 (Enter /sw/contrib/gaussian/g16/B01/g16/l601.exe)
 Copying SCF densities to generalized density rwf, IOpCl= 0 IROHF=0.

 **********************************************************************

            Population analysis using the MP2 Density.

 **********************************************************************

 Orbital symmetries:
       Occupied  (A') (A') (A') (A') (A') (A') (A') (A') (A') (A')
                 (A") (A') (A") (A') (A") (A')
       Virtual   (A') (A") (A') (A') (A') (A") (A') (A') (A") (A')
                 (A") (A') (A') (A') (A") (A') (A') (A") (A') (A')
                 (A') (A') (A') (A') (A") (A') (A') (A") (A') (A')
                 (A") (A') (A") (A') (A') (A") (A') (A') (A") (A')
                 (A") (A') (A") (A') (A') (A") (A') (A') (A") (A')
                 (A") (A') (A') (A') (A") (A') (A") (A') (A") (A')
                 (A') (A') (A") (A') (A') (A") (A') (A") (A') (A')
                 (A") (A') (A') (A") (A") (A') (A') (A") (A') (A')
                 (A') (A") (A') (A") (A') (A") (A') (A") (A') (A')
                 (A") (A') (A') (A") (A') (A") (A') (A") (A') (A')
                 (A") (A') (A") (A') (A') (A") (A') (A') (A") (A')
                 (A") (A') (A') (A') (A") (A') (A') (A') (A") (A')
                 (A") (A') (A") (A') (A') (A") (A") (A') (A") (A')
                 (A') (A') (A') (A") (A") (A") (A') (A') (A') (A')
                 (A") (A') (A") (A') (A') (A") (A') (A') (A') (A')
                 (A') (A") (A') (A") (A') (A") (A') (A") (A") (A')
                 (A') (A") (A') (A") (A') (A") (A") (A') (A") (A')
                 (A") (A') (A") (A') (A") (A') (A") (A") (A') (A')
                 (A') (A') (A') (A') (A') (A') (A') (A') (A') (A')
                 (A')
 The electronic state is 1-A'.
 Alpha  occ. eigenvalues --  -20.69195 -20.68462 -20.66161 -15.81320  -1.62352
 Alpha  occ. eigenvalues --   -1.48833  -1.25777  -0.94781  -0.77084  -0.75769
 Alpha  occ. eigenvalues --   -0.71016  -0.67939  -0.61865  -0.58673  -0.48858
 Alpha  occ. eigenvalues --   -0.47291
 Alpha virt. eigenvalues --    0.02959   0.07165   0.08544   0.10162   0.13293
 Alpha virt. eigenvalues --    0.13397   0.14398   0.15445   0.17830   0.19435
 Alpha virt. eigenvalues --    0.19989   0.20612   0.21677   0.22923   0.23722
 Alpha virt. eigenvalues --    0.26592   0.29328   0.30372   0.31002   0.34237
 Alpha virt. eigenvalues --    0.34901   0.38697   0.42110   0.43133   0.52703
 Alpha virt. eigenvalues --    0.52887   0.55818   0.58111   0.62559   0.63843
 Alpha virt. eigenvalues --    0.67457   0.68467   0.70484   0.71170   0.72310
 Alpha virt. eigenvalues --    0.72987   0.74484   0.79021   0.79183   0.81033
 Alpha virt. eigenvalues --    0.81238   0.82929   0.86804   0.90637   0.92162
 Alpha virt. eigenvalues --    0.92471   0.95734   0.97654   0.98339   1.01639
 Alpha virt. eigenvalues --    1.05064   1.05525   1.08059   1.11560   1.13838
 Alpha virt. eigenvalues --    1.18818   1.22076   1.23128   1.33830   1.34927
 Alpha virt. eigenvalues --    1.38602   1.45287   1.48811   1.51025   1.53690
 Alpha virt. eigenvalues --    1.56542   1.57854   1.61209   1.66066   1.66879
 Alpha virt. eigenvalues --    1.70298   1.79071   1.82998   1.83431   1.87641
 Alpha virt. eigenvalues --    1.90848   1.95588   1.98985   2.00771   2.07663
 Alpha virt. eigenvalues --    2.11657   2.13172   2.14630   2.22354   2.26044
 Alpha virt. eigenvalues --    2.26341   2.28840   2.31228   2.33867   2.38827
 Alpha virt. eigenvalues --    2.42129   2.42578   2.45274   2.46311   2.47449
 Alpha virt. eigenvalues --    2.49938   2.58701   2.59393   2.61437   2.62200
 Alpha virt. eigenvalues --    2.62933   2.66204   2.75631   2.82338   2.85039
 Alpha virt. eigenvalues --    2.87487   2.88443   2.91795   2.95340   3.01197
 Alpha virt. eigenvalues --    3.06838   3.12555   3.18151   3.22127   3.30959
 Alpha virt. eigenvalues --    3.34835   3.51052   3.64033   3.83821   3.83988
 Alpha virt. eigenvalues --    4.14534   4.15690   4.18078   4.25529   4.34720
 Alpha virt. eigenvalues --    4.38889   4.44579   4.52213   4.65902   4.70058
 Alpha virt. eigenvalues --    4.80304   4.82325   4.83129   4.89414   5.02178
 Alpha virt. eigenvalues --    5.07679   5.09939   5.14487   5.17835   5.23996
 Alpha virt. eigenvalues --    5.27200   5.30762   5.32699   5.35061   5.59522
 Alpha virt. eigenvalues --    5.67333   5.76403   5.79511   5.95104   6.16471
 Alpha virt. eigenvalues --    6.33535   6.33862   6.39888   6.49522   6.50565
 Alpha virt. eigenvalues --    6.61786   6.68032   6.70180   6.75530   6.75900
 Alpha virt. eigenvalues --    6.83192   6.89659   6.99833   7.02917   7.04183
 Alpha virt. eigenvalues --    7.07695   7.12216   7.13775   7.17585   7.22011
 Alpha virt. eigenvalues --    7.23709   7.30367   7.32448   7.34755   7.39478
 Alpha virt. eigenvalues --    7.40842   7.48265   7.59385   7.61107   7.61757
 Alpha virt. eigenvalues --    7.65879   7.77048   7.88234   8.06148   8.28944
 Alpha virt. eigenvalues --    8.38820   8.54506  13.33589  14.37077  15.14214
 Alpha virt. eigenvalues --   16.15005
          Condensed to atoms (all electrons):
               1          2          3          4          5
     1  H    0.588304   0.127950   0.020977   0.011998  -0.000575
     2  O    0.127950   8.299179  -0.150802  -0.087344   0.014906
     3  O    0.020977  -0.150802   8.447877  -0.131960  -0.038014
     4  N    0.011998  -0.087344  -0.131960   6.969169  -0.055122
     5  O   -0.000575   0.014906  -0.038014  -0.055122   8.271441
 Mulliken charges:
               1
     1  H    0.251346
     2  O   -0.203890
     3  O   -0.148077
     4  N    0.293258
     5  O   -0.192637
 Sum of Mulliken charges =  -0.00000
 Mulliken charges with hydrogens summed into heavy atoms:
               1
     2  O    0.047456
     3  O   -0.148077
     4  N    0.293258
     5  O   -0.192637
 APT charges:
               1
     1  H    0.297931
     2  O   -0.289294
     3  O   -0.495620
     4  N    0.877509
     5  O   -0.390526
 Sum of APT charges =  -0.00000
 APT charges with hydrogens summed into heavy atoms:
               1
     2  O    0.008637
     3  O   -0.495620
     4  N    0.877509
     5  O   -0.390526
 Electronic spatial extent (au):  <R**2>=            254.7245
 Charge=             -0.0000 electrons
 Dipole moment (field-independent basis, Debye):
    X=              0.5117    Y=              1.3439    Z=             -0.0000  Tot=              1.4381
 Quadrupole moment (field-independent basis, Debye-Ang):
   XX=            -22.3643   YY=            -18.6859   ZZ=            -22.0367
   XY=              3.3150   XZ=              0.0000   YZ=             -0.0000
 Traceless Quadrupole moment (field-independent basis, Debye-Ang):
   XX=             -1.3354   YY=              2.3431   ZZ=             -1.0077
   XY=              3.3150   XZ=              0.0000   YZ=             -0.0000
 Octapole moment (field-independent basis, Debye-Ang**2):
  XXX=              3.1405  YYY=             11.0397  ZZZ=              0.0000  XYY=              7.9289
  XXY=              6.7680  XXZ=             -0.0000  XZZ=             -1.6163  YZZ=             -0.8674
  YYZ=             -0.0000  XYZ=             -0.0000
 Hexadecapole moment (field-independent basis, Debye-Ang**3):
 XXXX=           -161.3140 YYYY=            -88.8882 ZZZZ=            -18.2928 XXXY=            -36.2434
 XXXZ=              0.0000 YYYX=            -30.8330 YYYZ=              0.0000 ZZZX=              0.0000
 ZZZY=              0.0000 XXYY=            -33.9939 XXZZ=            -31.4782 YYZZ=            -20.4647
 XXYZ=              0.0000 YYXZ=              0.0000 ZZXY=            -15.0890
 N-N= 1.164062078937D+02 E-N=-8.949107424579D+02  KE= 2.801717566517D+02
 Symmetry A'   KE= 2.662109904163D+02
 Symmetry A"   KE= 1.396076623542D+01
  Exact polarizability:  34.466   9.501  30.177  -0.000  -0.000  17.991
 Approx polarizability:  29.575   5.090  23.479  -0.000  -0.000  15.553
 No NMR shielding tensors so no spin-rotation constants.
 Leave Link  601 at Mon Feb 21 20:11:24 2022, MaxMem= 16106127360 cpu:               5.6 elap:               0.2
 (Enter /sw/contrib/gaussian/g16/B01/g16/l701.exe)
 ... and contract with generalized density number  2.
 Compute integral second derivatives.
 Leave Link  701 at Mon Feb 21 20:11:24 2022, MaxMem= 16106127360 cpu:               5.9 elap:               0.2
 (Enter /sw/contrib/gaussian/g16/B01/g16/l702.exe)
 L702 exits ... SP integral derivatives will be done elsewhere.
 Leave Link  702 at Mon Feb 21 20:11:24 2022, MaxMem= 16106127360 cpu:               0.5 elap:               0.0
 (Enter /sw/contrib/gaussian/g16/B01/g16/l703.exe)
 Integral derivatives from FoFJK, PRISM(SPDF).
 Compute integral second derivatives, UseDBF=F ICtDFT=           0.
 Calling FoFJK, ICntrl=  10100127 FMM=F ISym2X=1 I1Cent= 0 IOpClX= 0 NMat=1 NMatS=1 NMatT=0.
 FoFJK:  IHMeth= 1 ICntrl=10100127 DoSepK=F KAlg= 0 I1Cent=           0 FoldK=F
 IRaf=         0 NMat=       1 IRICut=       1 DoRegI=T DoRafI=F ISym2E= 1 IDoP0=0 IntGTp=1.
 FoFCou: FMM=F IPFlag=           0 FMFlag=      100000 FMFlg1=         800
         NFxFlg=           0 DoJE=F BraDBF=F KetDBF=F FulRan=T
         wScrn=  0.000000 ICntrl=  10100127 IOpCl=  0 I1Cent=           0 NGrid=           0
         NMat0=    1 NMatS0=      1 NMatT0=    0 NMatD0=    1 NMtDS0=    0 NMtDT0=    0
 Petite list used in FoFCou.
 Leave Link  703 at Mon Feb 21 20:11:39 2022, MaxMem= 16106127360 cpu:             421.6 elap:              15.1
 (Enter /sw/contrib/gaussian/g16/B01/g16/l716.exe)
 Dipole        = 2.01324674D-01 5.28747583D-01-1.27941784D-33
 Polarizability= 3.44656897D+01 9.50101436D+00 3.01766375D+01
                -1.87707735D-31-1.60009569D-31 1.79908416D+01
 Full mass-weighted force constant matrix:
 Low frequencies --- -276.8724  -27.5570   -0.0016   -0.0012   -0.0011   40.9483
 Low frequencies ---   64.5840  236.3590  343.7238
 ******    1 imaginary frequencies (negative Signs) ****** 
 Diagonal vibrational polarizability:
       14.6840684      24.8803166      44.1412802
 Harmonic frequencies (cm**-1), IR intensities (KM/Mole), Raman scattering
 activities (A**4/AMU), depolarization ratios for plane and unpolarized
 incident light, reduced masses (AMU), force constants (mDyne/A),
 and normal coordinates:
                      1                      2                      3
                     A"                     A"                     A'
 Frequencies --   -276.4488               234.9596               343.5790
 Red. masses --      1.1417                10.2781                 8.7407
 Frc consts  --      0.0514                 0.3343                 0.6079
 IR Inten    --    124.0624                 0.9336                 2.4682
  Atom  AN      X      Y      Z        X      Y      Z        X      Y      Z
     1   1    -0.00   0.00   1.00    -0.00   0.00  -0.59     0.52  -0.45  -0.00
     2   8    -0.00   0.00  -0.07    -0.00   0.00  -0.30    -0.11  -0.39  -0.00
     3   8    -0.00  -0.00  -0.04     0.00  -0.00   0.32    -0.15   0.41   0.00
     4   7     0.00  -0.00   0.06     0.00  -0.00   0.52     0.06   0.28   0.00
     5   8     0.00   0.00  -0.01    -0.00   0.00  -0.44     0.18  -0.24  -0.00
                      4                      5                      6
                     A'                     A'                     A'
 Frequencies --    446.1052               771.6694               931.0514
 Red. masses --     12.1372                13.2307                14.7582
 Frc consts  --      1.4231                 4.6419                 7.5376
 IR Inten    --    198.7370               161.3499                35.2214
  Atom  AN      X      Y      Z        X      Y      Z        X      Y      Z
     1   1     0.44   0.16  -0.00    -0.31   0.19  -0.00    -0.26  -0.01   0.00
     2   8     0.33   0.18  -0.00     0.48   0.07  -0.00    -0.45   0.04  -0.00
     3   8     0.16   0.46   0.00    -0.15  -0.27   0.00     0.72  -0.05   0.00
     4   7    -0.35  -0.38   0.00    -0.12   0.60   0.00    -0.14   0.31   0.00
     5   8    -0.21  -0.31  -0.00    -0.20  -0.34  -0.00    -0.14  -0.26  -0.00
                      7                      8                      9
                     A'                     A'                     A'
 Frequencies --   1349.8919              1676.3790              3780.4887
 Red. masses --      1.1324                13.4099                 1.0677
 Frc consts  --      1.2158                22.2035                 8.9904
 IR Inten    --    151.1593               141.6144                81.5733
  Atom  AN      X      Y      Z        X      Y      Z        X      Y      Z
     1   1     0.99  -0.06   0.00    -0.32   0.01  -0.00     0.11   0.99  -0.00
     2   8    -0.03   0.05   0.00    -0.00  -0.04  -0.00    -0.01  -0.06   0.00
     3   8    -0.02  -0.05  -0.00     0.00   0.15   0.00     0.00   0.00   0.00
     4   7     0.02   0.01  -0.00     0.71  -0.06   0.00    -0.00  -0.00  -0.00
     5   8    -0.03  -0.01   0.00    -0.60  -0.06  -0.00     0.00   0.00  -0.00

 -------------------
 - Thermochemistry -
 -------------------
 Temperature   298.150 Kelvin.  Pressure   1.00000 Atm.
 Atom     1 has atomic number  1 and mass   1.00783
 Atom     2 has atomic number  8 and mass  15.99491
 Atom     3 has atomic number  8 and mass  15.99491
 Atom     4 has atomic number  7 and mass  14.00307
 Atom     5 has atomic number  8 and mass  15.99491
 Molecular mass:    62.99564 amu.
 Principal axes and moments of inertia in atomic units:
                           1         2         3
     Eigenvalues --    33.11966 363.37823 396.49789
           X            0.81706  -0.57655   0.00000
           Y            0.57655   0.81706   0.00000
           Z           -0.00000   0.00000   1.00000
 This molecule is an asymmetric top.
 Rotational symmetry number  1.
 Rotational temperatures (Kelvin)      2.61518     0.23836     0.21845
 Rotational constants (GHZ):          54.49154     4.96656     4.55170
    1 imaginary frequencies ignored.
 Zero-point vibrational energy      57026.7 (Joules/Mol)
                                   13.62971 (Kcal/Mol)
 Warning -- explicit consideration of   3 degrees of freedom as
           vibrations may cause significant error
 Vibrational temperatures:    338.05   494.33   641.85  1110.26  1339.58
          (Kelvin)           1942.19  2411.94  5439.28
 
 Zero-point correction=                           0.021720 (Hartree/Particle)
 Thermal correction to Energy=                    0.025843
 Thermal correction to Enthalpy=                  0.026787
 Thermal correction to Gibbs Free Energy=        -0.004405
 Sum of electronic and zero-point Energies=           -280.424830
 Sum of electronic and thermal Energies=              -280.420707
 Sum of electronic and thermal Enthalpies=            -280.419763
 Sum of electronic and thermal Free Energies=         -280.450956
 
                     E (Thermal)             CV                S
                      KCal/Mol        Cal/Mol-Kelvin    Cal/Mol-Kelvin
 Total                   16.217             12.030             65.650
 Electronic               0.000              0.000              0.000
 Translational            0.889              2.981             38.341
 Rotational               0.889              2.981             23.083
 Vibrational             14.439              6.068              4.227
 Vibration     1          0.655              1.787              1.841
 Vibration     2          0.722              1.588              1.195
 Vibration     3          0.805              1.369              0.808
                       Q            Log10(Q)             Ln(Q)
 Total Bot       0.106241D+03          2.026294          4.665714
 Total V=0       0.103979D+13         12.016945         27.670038
 Vib (Bot)       0.218618D-09         -9.660314        -22.243695
 Vib (Bot)    1  0.836428D+00         -0.077571         -0.178614
 Vib (Bot)    2  0.539216D+00         -0.268237         -0.617639
 Vib (Bot)    3  0.385622D+00         -0.413839         -0.952898
 Vib (V=0)       0.213962D+01          0.330337          0.760629
 Vib (V=0)    1  0.147448D+01          0.168639          0.388306
 Vib (V=0)    2  0.123536D+01          0.091793          0.211362
 Vib (V=0)    3  0.113143D+01          0.053628          0.123483
 Electronic      0.100000D+01          0.000000          0.000000
 Translational   0.196526D+08          7.293420         16.793719
 Rotational      0.247280D+05          4.393188         10.115690
 
                                                                title
                                                             IR Spectrum
 
     3                                                                      1          1                                             
     7                                                                      6          3             9     7          4  3   2       
     8                                                                      7          5             3     7          4  4   3       
     0                                                                      6          0             1     2          6  4   5       
 
     X                                                                      X          X             X     X          X  X   X       
     X                                                                      X          X             X     X          X              
     X                                                                      X          X             X     X          X              
     X                                                                      X          X             X     X          X              
     X                                                                      X          X                   X          X              
     X                                                                      X          X                   X          X              
     X                                                                      X          X                   X          X              
     X                                                                      X          X                   X          X              
                                                                            X          X                   X          X              
                                                                            X          X                   X          X              
                                                                            X          X                   X          X              
                                                                            X          X                   X          X              
                                                                            X          X                   X          X              
                                                                            X          X                   X          X              
                                                                                       X                   X          X              
                                                                                                           X          X              
                                                                                                                      X              
                                                                                                                      X              
                                                                                                                      X              
                                                                                                                      X              
 
 ***** Axes restored to original set *****
 -------------------------------------------------------------------
 Center     Atomic                   Forces (Hartrees/Bohr)
 Number     Number              X              Y              Z
 -------------------------------------------------------------------
      1        1           0.001306745    0.000000000   -0.000379746
      2        8           0.008221339    0.000000000    0.003278965
      3        8          -0.008253375   -0.000000000   -0.002835221
      4        7          -0.001609781   -0.000000000    0.000495736
      5        8           0.000335071   -0.000000000   -0.000559735
 -------------------------------------------------------------------
 Cartesian Forces:  Max     0.008253375 RMS     0.003262036
 -----------------------------------------------------------------------------------------------
                       Internal Coordinate Forces (Hartree/Bohr or radian)
  Cent   Atom   N1       Length/X         N2         Alpha/Y        N3         Beta/Z          J
 -----------------------------------------------------------------------------------------------
      1  H 
      2  O        1   0.000380(     1)
      3  O        2  -0.009828(     2)      1  -0.002393(     5)
      4  N        3  -0.000168(     3)      2  -0.002104(     6)      1   0.000000(     8)     0
      5  O        4   0.000186(     4)      3  -0.001384(     7)      2   0.000000(     9)     0
 -----------------------------------------------------------------------------------------------
 Internal  Forces:  Max     0.009827684 RMS     0.003477825
 Force constants in Cartesian coordinates: 
                1             2             3             4             5 
      1  0.626416D-01
      2  0.000000D+00 -0.251983D-02
      3  0.413366D-02  0.000000D+00  0.512808D+00
      4 -0.360029D-01  0.000000D+00 -0.154737D-01  0.247027D+00
      5  0.000000D+00  0.362055D-02  0.000000D+00  0.000000D+00  0.429838D-02
      6  0.472785D-01  0.000000D+00 -0.509469D+00  0.267817D-01  0.000000D+00
      7 -0.161949D-01  0.000000D+00  0.127856D-01 -0.196026D+00  0.000000D+00
      8  0.000000D+00  0.487955D-03  0.000000D+00  0.000000D+00 -0.894950D-02
      9 -0.509155D-01  0.000000D+00  0.120069D-03 -0.139571D-01  0.000000D+00
     10 -0.931926D-02  0.000000D+00 -0.469561D-02 -0.160106D-01  0.000000D+00
     11  0.000000D+00 -0.256463D-02  0.000000D+00  0.000000D+00 -0.522636D-02
     12  0.516830D-02  0.000000D+00 -0.490958D-02  0.112860D-01  0.000000D+00
     13 -0.112450D-02  0.000000D+00  0.325007D-02  0.101284D-02  0.000000D+00
     14  0.000000D+00  0.975957D-03  0.000000D+00  0.000000D+00  0.625693D-02
     15 -0.566499D-02  0.000000D+00  0.145117D-02 -0.863684D-02  0.000000D+00
                6             7             8             9            10 
      6  0.593846D+00
      7 -0.159414D-01  0.314662D+00
      8  0.000000D+00  0.000000D+00  0.679468D-02
      9 -0.778449D-01  0.290602D-01  0.000000D+00  0.179573D+00
     10 -0.501701D-01 -0.768026D-01  0.000000D+00  0.174482D+00  0.826289D+00
     11  0.000000D+00  0.000000D+00  0.889235D-02  0.000000D+00  0.000000D+00
     12  0.175732D-01  0.643523D-01  0.000000D+00 -0.813451D-01 -0.195352D-01
     13 -0.794861D-02 -0.256384D-01  0.000000D+00 -0.138670D+00 -0.724157D+00
     14  0.000000D+00  0.000000D+00 -0.722548D-02  0.000000D+00  0.000000D+00
     15 -0.241050D-01 -0.902567D-01  0.000000D+00 -0.205033D-01 -0.100082D+00
               11            12            13            14            15 
     11  0.806801D-02
     12  0.000000D+00  0.185385D+00
     13  0.000000D+00 -0.612714D-01  0.749907D+00
     14 -0.916936D-02  0.000000D+00  0.000000D+00  0.916196D-02
     15  0.000000D+00 -0.116704D+00  0.204640D+00  0.000000D+00  0.159861D+00
 Force constants in internal coordinates: 
                1             2             3             4             5 
      1  0.512808D+00
      2 -0.107994D-01  0.251477D+00
      3  0.356528D-02  0.190243D-02  0.115828D+00
      4 -0.350851D-02  0.496935D-02  0.153262D+00  0.811958D+00
      5  0.887592D-02  0.607925D-01  0.247437D-02  0.456855D-02  0.210728D+00
      6  0.451586D-02  0.547008D-01  0.385197D-01  0.221717D-01  0.312330D-01
      7 -0.132595D-02  0.363976D-01  0.309559D-01  0.838334D-01  0.211023D-01
      8  0.000000D+00  0.000000D+00  0.000000D+00  0.000000D+00  0.000000D+00
      9  0.000000D+00  0.000000D+00  0.000000D+00  0.000000D+00  0.000000D+00
                6             7             8             9 
      6  0.272783D+00
      7  0.945620D-01  0.479145D+00
      8  0.000000D+00  0.000000D+00 -0.730389D-02
      9  0.000000D+00  0.000000D+00 -0.370333D-02  0.408509D-01
 Leave Link  716 at Mon Feb 21 20:11:40 2022, MaxMem= 16106127360 cpu:               1.1 elap:               0.1
 (Enter /sw/contrib/gaussian/g16/B01/g16/l103.exe)

 GradGradGradGradGradGradGradGradGradGradGradGradGradGradGradGradGradGrad
 Berny optimization.
 Search for a local minimum.
 Step number   1 out of a maximum of    2
 All quantities printed in internal units (Hartrees-Bohrs-Radians)
 Second derivative matrix not updated -- analytic derivatives used.
 The second derivative matrix:
                          r1        r2        r3        r4        a1
           r1           0.51281
           r2          -0.01080   0.25148
           r3           0.00357   0.00190   0.11583
           r4          -0.00351   0.00497   0.15326   0.81196
           a1           0.00888   0.06079   0.00247   0.00457   0.21073
           a2           0.00452   0.05470   0.03852   0.02217   0.03123
           a3          -0.00133   0.03640   0.03096   0.08383   0.02110
           d1           0.00000  -0.00000  -0.00000  -0.00000  -0.00000
           d2          -0.00000   0.00000   0.00000   0.00000   0.00000
                          a2        a3        d1        d2
           a2           0.27278
           a3           0.09456   0.47914
           d1          -0.00000  -0.00000  -0.00730
           d2          -0.00000  -0.00000  -0.00370   0.04085
 ITU=  0
     Eigenvalues ---   -0.00759   0.04113   0.07744   0.16595   0.21487
     Eigenvalues ---    0.30412   0.50907   0.51350   0.86978
 Eigenvalue     1 is  -7.59D-03 should be greater than     0.000000 Eigenvector:
                          d1        d2        a3        a2        r3
   1                    0.99709   0.07623   0.00000   0.00000  -0.00000
                          r4        a1        r1        r2
   1                    0.00000  -0.00000  -0.00000   0.00000
 Angle between quadratic step and forces=  19.90 degrees.
 Linear search not attempted -- first point.
 Variable       Old X    -DE/DX   Delta X   Delta X   Delta X     New X
                                 (Linear)    (Quad)   (Total)
    r1        1.83110   0.00038   0.00000  -0.00007  -0.00007   1.83103
    r2        2.78539  -0.00983   0.00000  -0.03914  -0.03914   2.74626
    r3        2.75670  -0.00017   0.00000  -0.00205  -0.00205   2.75466
    r4        2.21236   0.00019   0.00000   0.00084   0.00084   2.21320
    a1        1.70335  -0.00239   0.00000  -0.00011  -0.00011   1.70324
    a2        1.78543  -0.00210   0.00000   0.00037   0.00037   1.78580
    a3        1.90362  -0.00138   0.00000   0.00000   0.00000   1.90362
    d1        3.14159   0.00000   0.00000  -0.00000   0.00000   3.14159
    d2        3.14159   0.00000   0.00000   0.00000   0.00000   3.14159
         Item               Value     Threshold  Converged?
 Maximum Force            0.009828     0.000450     NO 
 RMS     Force            0.003478     0.000300     NO 
 Maximum Displacement     0.039138     0.001800     NO 
 RMS     Displacement     0.013067     0.001200     NO 
 Predicted change in Energy=-1.922974D-04
                       ----------------------------
                       ! Non-Optimized Parameters !
                       ! (Angstroms and Degrees)  !
 ----------------------                            ----------------------
 !      Name          Value   Derivative information (Atomic Units)     !
 ------------------------------------------------------------------------
 !       r1          0.9689   -DE/DX =    0.0004                        !
 !       r2          1.4533   -DE/DX =   -0.0098                        !
 !       r3          1.4577   -DE/DX =   -0.0002                        !
 !       r4          1.1712   -DE/DX =    0.0002                        !
 !       a1         97.5886   -DE/DX =   -0.0024                        !
 !       a2        102.3186   -DE/DX =   -0.0021                        !
 !       a3        109.0697   -DE/DX =   -0.0014                        !
 !       d1        180.0      -DE/DX =    0.0                           !
 !       d2        180.0      -DE/DX =    0.0                           !
 ------------------------------------------------------------------------
 GradGradGradGradGradGradGradGradGradGradGradGradGradGradGradGradGradGrad

 Leave Link  103 at Mon Feb 21 20:11:40 2022, MaxMem= 16106127360 cpu:               1.6 elap:               0.1
 (Enter /sw/contrib/gaussian/g16/B01/g16/l9999.exe)

 ----------------------------------------------------------------------

 Electric dipole moment (input orientation):
 (Debye = 10**-18 statcoulomb cm , SI units = C m)
                  (au)            (Debye)         (10**-30 SI)
   Tot        0.565779D+00      0.143807D+01      0.479687D+01
   x         -0.144139D+00     -0.366365D+00     -0.122206D+01
   y          0.000000D+00      0.000000D+00      0.000000D+00
   z         -0.547110D+00     -0.139062D+01     -0.463859D+01

 Dipole polarizability, Alpha (input orientation).
 (esu units = cm**3 , SI units = C**2 m**2 J**-1)
 Alpha(0;0):
               (au)            (10**-24 esu)      (10**-40 SI)
   iso        0.275444D+02      0.408166D+01      0.454146D+01
   aniso      0.221351D+02      0.328008D+01      0.364959D+01
   xx         0.324145D+02      0.480333D+01      0.534443D+01
   yx         0.000000D+00      0.000000D+00      0.000000D+00
   yy         0.179908D+02      0.266597D+01      0.296629D+01
   zx         0.973959D+01      0.144326D+01      0.160584D+01
   zy         0.000000D+00      0.000000D+00      0.000000D+00
   zz         0.322278D+02      0.477567D+01      0.531365D+01

 ----------------------------------------------------------------------

 Dipole orientation:
     1          0.00000000          0.00000000          0.00000000
     8         -0.46649437          0.00000000         -1.77067910
     8          2.10957420          0.00000000         -2.83006202
     7          1.62818155          0.00000000         -5.54440706
     8          3.56078043          0.00000000         -6.62124715

 Electric dipole moment (dipole orientation):
 (Debye = 10**-18 statcoulomb cm , SI units = C m)
                  (au)            (Debye)         (10**-30 SI)
   Tot        0.565779D+00      0.143807D+01      0.479687D+01
   x          0.000000D+00      0.000000D+00      0.000000D+00
   y          0.000000D+00      0.000000D+00      0.000000D+00
   z          0.565779D+00      0.143807D+01      0.479687D+01

 Dipole polarizability, Alpha (dipole orientation).
 (esu units = cm**3 , SI units = C**2 m**2 J**-1)
 Alpha(0;0):
               (au)            (10**-24 esu)      (10**-40 SI)
   iso        0.275444D+02      0.408166D+01      0.454146D+01
   aniso      0.221351D+02      0.328008D+01      0.364959D+01
   xx         0.276036D+02      0.409043D+01      0.455121D+01
   yx         0.000000D+00      0.000000D+00      0.000000D+00
   yy         0.179908D+02      0.266597D+01      0.296629D+01
   zx        -0.852129D+01     -0.126273D+01     -0.140497D+01
   zy         0.000000D+00      0.000000D+00      0.000000D+00
   zz         0.370388D+02      0.548858D+01      0.610687D+01

 ----------------------------------------------------------------------
 1\1\GINC-N2126\Freq\RMP2-FC\Aug-CC-pVTZ\H1N1O3\CGAVINH\21-Feb-2022\1\\
 #p freq mp2/aug-cc-pvtz density=current\\title\\0,1\H\O,1,r1\O,2,r2,1,
 a1\N,3,r3,2,a2,1,d1,0\O,4,r4,3,a3,2,d2,0\\r1=0.96897556\r2=1.47396719\
 r3=1.45878406\r4=1.17072885\a1=97.59494903\a2=102.29752444\a3=109.0695
 5123\d1=180.\d2=180.\\Version=ES64L-G16RevB.01\State=1-A'\HF=-279.4999
 317\MP2=-280.4465502\RMSD=3.984e-09\RMSF=3.262e-03\ZeroPoint=0.0217203
 \Thermal=0.0258429\Dipole=-0.144139,0.,-0.5471102\DipoleDeriv=0.265995
 2,0.,0.0471873,0.,0.354738,0.,0.0847834,0.,0.2730603,-0.3278362,0.,-0.
 1985412,0.,-0.3138724,0.,-0.1184222,0.,-0.2261738,-0.0509784,0.,0.1370
 754,0.,-0.0875332,0.,-0.7521613,0.,-1.3483486,0.8953627,0.,0.9098499,0
 .,0.0661983,0.,0.9291738,0.,1.6709651,-0.7825433,0.,-0.8955714,0.,-0.0
 195307,0.,-0.1433736,0.,-0.369503\Polar=32.4144799,0.,17.9908416,9.739
 5872,0.,32.2278473\Quadrupole=-1.4816627,-0.7492149,2.2308777,0.,2.120
 9334,0.\PG=CS [SG(H1N1O3)]\NImag=1\\0.06264156,0.,-0.00251983,0.004133
 66,0.,0.51280760,-0.03600292,0.,-0.01547374,0.24702660,0.,0.00362055,0
 .,0.,0.00429838,0.04727852,0.,-0.50946926,0.02678166,0.,0.59384594,-0.
 01619487,0.,0.01278563,-0.19602592,0.,-0.01594144,0.31466184,0.,0.0004
 8796,0.,0.,-0.00894950,0.,0.,0.00679468,-0.05091549,0.,0.00012007,-0.0
 1395709,0.,-0.07784488,0.02906018,0.,0.17957316,-0.00931926,0.,-0.0046
 9561,-0.01601059,0.,-0.05017012,-0.07680261,0.,0.17448250,0.82628932,0
 .,-0.00256463,0.,0.,-0.00522636,0.,0.,0.00889235,0.,0.,0.00806801,0.00
 516830,0.,-0.00490958,0.01128602,0.,0.01757318,0.06435229,0.,-0.081345
 08,-0.01953523,0.,0.18538514,-0.00112450,0.,0.00325007,0.00101284,0.,-
 0.00794861,-0.02563845,0.,-0.13867009,-0.72415685,0.,-0.06127138,0.749
 90696,0.,0.00097596,0.,0.,0.00625693,0.,0.,-0.00722548,0.,0.,-0.009169
 36,0.,0.,0.00916196,-0.00566499,0.,0.00145117,-0.00863684,0.,-0.024104
 97,-0.09025666,0.,-0.02050327,-0.10008153,0.,-0.11670367,0.20464002,0.
 ,0.15986074\\-0.00130675,0.,0.00037975,-0.00822134,0.,-0.00327897,0.00
 825338,0.,0.00283522,0.00160978,0.,-0.00049574,-0.00033507,0.,0.000559
 73\\\@


 We're simply so accustomed to the marvels of everyday thought
 that we never wonder about it.
 -- Marvin Minsky in "Why people think computers are smart"
 Job cpu time:       0 days  1 hours 58 minutes 50.6 seconds.
 Elapsed time:       0 days  0 hours  4 minutes 17.6 seconds.
 File lengths (MBytes):  RWF=   7239 Int=      0 D2E=      0 Chk=      8 Scr=      1
 Normal termination of Gaussian 16 at Mon Feb 21 20:11:41 2022.
