title                                                                   
Freq      RMP2-FC                                                     Aug-CC-pVTZ         
Number of atoms                            I                5
Info1-9                                    I   N=           9
          33          24           0           0           0         100
           6           2           1
Full Title                                 C   N=           1
title       
Route                                      C   N=           4
#p freq mp2/aug-cc-pvtz density=current         
Charge                                     I                0
Multiplicity                               I                1
Number of electrons                        I               32
Number of alpha electrons                  I               16
Number of beta electrons                   I               16
Number of basis functions                  I              207
Number of independent functions            I              207
Number of point charges in /Mol/           I                0
Number of translation vectors              I                0
Atomic numbers                             I   N=           5
           1           8           8           7           8
Nuclear charges                            R   N=           5
  1.00000000E+00  8.00000000E+00  8.00000000E+00  7.00000000E+00  8.00000000E+00
Current cartesian coordinates              R   N=          15
  2.11903881E+00 -1.10820596E+00  0.00000000E+00  2.49486319E+00  7.15565562E-01
  0.00000000E+00 -2.05749565E-16  1.73773819E+00  0.00000000E+00 -1.85887820E+00
 -9.42632146E-02  0.00000000E+00 -1.13322462E+00 -2.23229769E+00  0.00000000E+00
Number of symbols in /Mol/                 I                0
Force Field                                I                0
Atom Types                                 C   N=           5
                                                            
Int Atom Types                             I   N=           5
           0           0           0           0           0
MM charges                                 R   N=           5
  0.00000000E+00  0.00000000E+00  0.00000000E+00  0.00000000E+00  0.00000000E+00
Integer atomic weights                     I   N=           5
           1          16          16          14          16
Real atomic weights                        R   N=           5
  1.00782504E+00  1.59949146E+01  1.59949146E+01  1.40030740E+01  1.59949146E+01
Atom fragment info                         I   N=           5
           0           0           0           0           0
Atom residue num                           I   N=           5
           0           0           0           0           0
Nuclear spins                              I   N=           5
           1           0           0           2           0
Nuclear ZEff                               R   N=           5
 -1.00000000E+00 -5.60000000E+00 -5.60000000E+00 -4.55000000E+00 -5.60000000E+00
Nuclear ZNuc                               R   N=           5
  1.00000000E+00  8.00000000E+00  8.00000000E+00  7.00000000E+00  8.00000000E+00
Nuclear QMom                               R   N=           5
  0.00000000E+00  0.00000000E+00  0.00000000E+00  2.04400000E+00  0.00000000E+00
Nuclear GFac                               R   N=           5
  2.79284600E+00  0.00000000E+00  0.00000000E+00  4.03761000E-01  0.00000000E+00
MicOpt                                     I   N=           5
          -1          -1          -1          -1          -1
Number of residues                         I                0
Number of secondary structures             I                0
SymInf integers                            I   N=          26
           1           2           1           1           1           1
           1          -1           0           0           0           0
           0           0           0           0           0           0
           0           0           0           0           0           0
           0           0
RotTr to input orientation                 R   N=          12
 -9.79420751E-01  0.00000000E+00  2.01829118E-01  2.01829118E-01  0.00000000E+00
  9.79420751E-01  0.00000000E+00  1.00000000E+00  0.00000000E+00  2.29909881E+00
  0.00000000E+00  6.57716184E-01
Number of contracted shells                I               65
Number of primitive shells                 I              119
Pure/Cartesian d shells                    I                0
Pure/Cartesian f shells                    I                0
Highest angular momentum                   I                3
Largest degree of contraction              I                7
Shell types                                I   N=          65
           0           0           0           0           1           1
           1          -2          -2           0           0           0
           0           0           1           1           1           1
          -2          -2          -2          -3          -3           0
           0           0           0           0           1           1
           1           1          -2          -2          -2          -3
          -3           0           0           0           0           0
           1           1           1           1          -2          -2
          -2          -3          -3           0           0           0
           0           0           1           1           1           1
          -2          -2          -2          -3          -3
Number of primitives per shell             I   N=          65
           3           1           1           1           1           1
           1           1           1           7           6           1
           1           1           3           1           1           1
           1           1           1           1           1           7
           6           1           1           1           3           1
           1           1           1           1           1           1
           1           7           6           1           1           1
           3           1           1           1           1           1
           1           1           1           7           6           1
           1           1           3           1           1           1
           1           1           1           1           1
Shell to atom map                          I   N=          65
           1           1           1           1           1           1
           1           1           1           2           2           2
           2           2           2           2           2           2
           2           2           2           2           2           3
           3           3           3           3           3           3
           3           3           3           3           3           3
           3           4           4           4           4           4
           4           4           4           4           4           4
           4           4           4           5           5           5
           5           5           5           5           5           5
           5           5           5           5           5
Primitive exponents                        R   N=         119
  3.38700000E+01  5.09500000E+00  1.15900000E+00  3.25800000E-01  1.02700000E-01
  2.52600000E-02  1.40700000E+00  3.88000000E-01  1.02000000E-01  1.05700000E+00
  2.47000000E-01  1.53300000E+04  2.29900000E+03  5.22400000E+02  1.47300000E+02
  4.75500000E+01  1.67600000E+01  6.20700000E+00  5.22400000E+02  1.47300000E+02
  4.75500000E+01  1.67600000E+01  6.20700000E+00  6.88200000E-01  1.75200000E+00
  2.38400000E-01  7.37600000E-02  3.44600000E+01  7.74900000E+00  2.28000000E+00
  7.15600000E-01  2.14000000E-01  5.97400000E-02  2.31400000E+00  6.45000000E-01
  2.14000000E-01  1.42800000E+00  5.00000000E-01  1.53300000E+04  2.29900000E+03
  5.22400000E+02  1.47300000E+02  4.75500000E+01  1.67600000E+01  6.20700000E+00
  5.22400000E+02  1.47300000E+02  4.75500000E+01  1.67600000E+01  6.20700000E+00
  6.88200000E-01  1.75200000E+00  2.38400000E-01  7.37600000E-02  3.44600000E+01
  7.74900000E+00  2.28000000E+00  7.15600000E-01  2.14000000E-01  5.97400000E-02
  2.31400000E+00  6.45000000E-01  2.14000000E-01  1.42800000E+00  5.00000000E-01
  1.14200000E+04  1.71200000E+03  3.89300000E+02  1.10000000E+02  3.55700000E+01
  1.25400000E+01  4.64400000E+00  3.89300000E+02  1.10000000E+02  3.55700000E+01
  1.25400000E+01  4.64400000E+00  5.11800000E-01  1.29300000E+00  1.78700000E-01
  5.76000000E-02  2.66300000E+01  5.94800000E+00  1.74200000E+00  5.55000000E-01
  1.72500000E-01  4.91000000E-02  1.65400000E+00  4.69000000E-01  1.51000000E-01
  1.09300000E+00  3.64000000E-01  1.53300000E+04  2.29900000E+03  5.22400000E+02
  1.47300000E+02  4.75500000E+01  1.67600000E+01  6.20700000E+00  5.22400000E+02
  1.47300000E+02  4.75500000E+01  1.67600000E+01  6.20700000E+00  6.88200000E-01
  1.75200000E+00  2.38400000E-01  7.37600000E-02  3.44600000E+01  7.74900000E+00
  2.28000000E+00  7.15600000E-01  2.14000000E-01  5.97400000E-02  2.31400000E+00
  6.45000000E-01  2.14000000E-01  1.42800000E+00  5.00000000E-01
Contraction coefficients                   R   N=         119
  2.54948632E-02  1.90362766E-01  8.52162022E-01  1.00000000E+00  1.00000000E+00
  1.00000000E+00  1.00000000E+00  1.00000000E+00  1.00000000E+00  1.00000000E+00
  1.00000000E+00  5.19808943E-04  4.02025621E-03  2.07128267E-02  8.10105536E-02
  2.35962985E-01  4.42653446E-01  3.57064423E-01 -4.42115008E-05 -1.22591041E-03
 -1.05517725E-02 -6.74452633E-02 -1.71198607E-01  1.07329856E+00  1.00000000E+00
  1.00000000E+00  1.00000000E+00  4.11634896E-02  2.57762836E-01  8.02419274E-01
  1.00000000E+00  1.00000000E+00  1.00000000E+00  1.00000000E+00  1.00000000E+00
  1.00000000E+00  1.00000000E+00  1.00000000E+00  5.19808943E-04  4.02025621E-03
  2.07128267E-02  8.10105536E-02  2.35962985E-01  4.42653446E-01  3.57064423E-01
 -4.42115008E-05 -1.22591041E-03 -1.05517725E-02 -6.74452633E-02 -1.71198607E-01
  1.07329856E+00  1.00000000E+00  1.00000000E+00  1.00000000E+00  4.11634896E-02
  2.57762836E-01  8.02419274E-01  1.00000000E+00  1.00000000E+00  1.00000000E+00
  1.00000000E+00  1.00000000E+00  1.00000000E+00  1.00000000E+00  1.00000000E+00
  5.34563860E-04  4.13435660E-03  2.12335358E-02  8.25006224E-02  2.38138871E-01
  4.42551547E-01  3.53757422E-01 -4.89867350E-05 -1.19527323E-03 -1.03490714E-02
 -6.48680190E-02 -1.71552477E-01  1.07289568E+00  1.00000000E+00  1.00000000E+00
  1.00000000E+00  3.98072123E-02  2.49002660E-01  8.10479727E-01  1.00000000E+00
  1.00000000E+00  1.00000000E+00  1.00000000E+00  1.00000000E+00  1.00000000E+00
  1.00000000E+00  1.00000000E+00  5.19808943E-04  4.02025621E-03  2.07128267E-02
  8.10105536E-02  2.35962985E-01  4.42653446E-01  3.57064423E-01 -4.42115008E-05
 -1.22591041E-03 -1.05517725E-02 -6.74452633E-02 -1.71198607E-01  1.07329856E+00
  1.00000000E+00  1.00000000E+00  1.00000000E+00  4.11634896E-02  2.57762836E-01
  8.02419274E-01  1.00000000E+00  1.00000000E+00  1.00000000E+00  1.00000000E+00
  1.00000000E+00  1.00000000E+00  1.00000000E+00  1.00000000E+00
Coordinates of each shell                  R   N=         195
  2.11903881E+00 -1.10820596E+00  0.00000000E+00  2.11903881E+00 -1.10820596E+00
  0.00000000E+00  2.11903881E+00 -1.10820596E+00  0.00000000E+00  2.11903881E+00
 -1.10820596E+00  0.00000000E+00  2.11903881E+00 -1.10820596E+00  0.00000000E+00
  2.11903881E+00 -1.10820596E+00  0.00000000E+00  2.11903881E+00 -1.10820596E+00
  0.00000000E+00  2.11903881E+00 -1.10820596E+00  0.00000000E+00  2.11903881E+00
 -1.10820596E+00  0.00000000E+00  2.49486319E+00  7.15565562E-01  0.00000000E+00
  2.49486319E+00  7.15565562E-01  0.00000000E+00  2.49486319E+00  7.15565562E-01
  0.00000000E+00  2.49486319E+00  7.15565562E-01  0.00000000E+00  2.49486319E+00
  7.15565562E-01  0.00000000E+00  2.49486319E+00  7.15565562E-01  0.00000000E+00
  2.49486319E+00  7.15565562E-01  0.00000000E+00  2.49486319E+00  7.15565562E-01
  0.00000000E+00  2.49486319E+00  7.15565562E-01  0.00000000E+00  2.49486319E+00
  7.15565562E-01  0.00000000E+00  2.49486319E+00  7.15565562E-01  0.00000000E+00
  2.49486319E+00  7.15565562E-01  0.00000000E+00  2.49486319E+00  7.15565562E-01
  0.00000000E+00  2.49486319E+00  7.15565562E-01  0.00000000E+00 -1.71648885E-19
  1.73773819E+00  0.00000000E+00 -1.71648885E-19  1.73773819E+00  0.00000000E+00
 -1.71648885E-19  1.73773819E+00  0.00000000E+00 -1.71648885E-19  1.73773819E+00
  0.00000000E+00 -1.71648885E-19  1.73773819E+00  0.00000000E+00 -1.71648885E-19
  1.73773819E+00  0.00000000E+00 -1.71648885E-19  1.73773819E+00  0.00000000E+00
 -1.71648885E-19  1.73773819E+00  0.00000000E+00 -1.71648885E-19  1.73773819E+00
  0.00000000E+00 -1.71648885E-19  1.73773819E+00  0.00000000E+00 -1.71648885E-19
  1.73773819E+00  0.00000000E+00 -1.71648885E-19  1.73773819E+00  0.00000000E+00
 -1.71648885E-19  1.73773819E+00  0.00000000E+00 -1.71648885E-19  1.73773819E+00
  0.00000000E+00 -1.85887820E+00 -9.42632146E-02  0.00000000E+00 -1.85887820E+00
 -9.42632146E-02  0.00000000E+00 -1.85887820E+00 -9.42632146E-02  0.00000000E+00
 -1.85887820E+00 -9.42632146E-02  0.00000000E+00 -1.85887820E+00 -9.42632146E-02
  0.00000000E+00 -1.85887820E+00 -9.42632146E-02  0.00000000E+00 -1.85887820E+00
 -9.42632146E-02  0.00000000E+00 -1.85887820E+00 -9.42632146E-02  0.00000000E+00
 -1.85887820E+00 -9.42632146E-02  0.00000000E+00 -1.85887820E+00 -9.42632146E-02
  0.00000000E+00 -1.85887820E+00 -9.42632146E-02  0.00000000E+00 -1.85887820E+00
 -9.42632146E-02  0.00000000E+00 -1.85887820E+00 -9.42632146E-02  0.00000000E+00
 -1.85887820E+00 -9.42632146E-02  0.00000000E+00 -1.13322462E+00 -2.23229769E+00
  0.00000000E+00 -1.13322462E+00 -2.23229769E+00  0.00000000E+00 -1.13322462E+00
 -2.23229769E+00  0.00000000E+00 -1.13322462E+00 -2.23229769E+00  0.00000000E+00
 -1.13322462E+00 -2.23229769E+00  0.00000000E+00 -1.13322462E+00 -2.23229769E+00
  0.00000000E+00 -1.13322462E+00 -2.23229769E+00  0.00000000E+00 -1.13322462E+00
 -2.23229769E+00  0.00000000E+00 -1.13322462E+00 -2.23229769E+00  0.00000000E+00
 -1.13322462E+00 -2.23229769E+00  0.00000000E+00 -1.13322462E+00 -2.23229769E+00
  0.00000000E+00 -1.13322462E+00 -2.23229769E+00  0.00000000E+00 -1.13322462E+00
 -2.23229769E+00  0.00000000E+00 -1.13322462E+00 -2.23229769E+00  0.00000000E+00
Num ILSW                                   I              100
ILSW                                       I   N=         100
           0           0           0           0           2           0
           0           0           0           0           0          -1
           5           0           0           0           2           0
           0           0           0           0           1           0
           1           0           0           0           0           0
           0           0      100000           0          -1           0
           0           0           0           0           0           0
           0           0           0           1           1           0
           0 -2000000000           1           0           0           0
           0           0           4          52           0           0
           0           0           0           0           0           0
           0           0           0           5           4           1
           0           0           0           0           0           0
           0           0           0           0           0           0
           0           0           0           0           0           0
           0           0           0           0           0           0
           0           0           0           0
Num RLSW                                   I               52
RLSW                                       R   N=          52
  1.00000000E+00  1.00000000E+00  1.00000000E+00  1.00000000E+00  1.00000000E+00
  0.00000000E+00  0.00000000E+00  1.00000000E+00  0.00000000E+00  0.00000000E+00
  0.00000000E+00  0.00000000E+00  1.00000000E+00  0.00000000E+00  0.00000000E+00
  0.00000000E+00  0.00000000E+00  1.00000000E+00  0.00000000E+00  0.00000000E+00
  0.00000000E+00  0.00000000E+00  1.00000000E+00  0.00000000E+00  0.00000000E+00
  0.00000000E+00  0.00000000E+00  1.00000000E+00  0.00000000E+00  0.00000000E+00
  0.00000000E+00  0.00000000E+00  1.00000000E+00  0.00000000E+00  0.00000000E+00
  0.00000000E+00  0.00000000E+00  0.00000000E+00  1.00000000E+00  1.00000000E+00
  0.00000000E+00  1.00000000E+00  0.00000000E+00  0.00000000E+00  0.00000000E+00
  0.00000000E+00  0.00000000E+00  0.00000000E+00  0.00000000E+00  0.00000000E+00
  0.00000000E+00  0.00000000E+00
MxBond                                     I                2
NBond                                      I   N=           5
           1           2           2           2           1
IBond                                      I   N=          10
           2           0           1           3           2           4
           3           5           4           0
RBond                                      R   N=          10
  1.00000000E+00  0.00000000E+00  1.00000000E+00  1.00000000E+00  1.00000000E+00
  1.00000000E+00  1.00000000E+00  2.00000000E+00  2.00000000E+00  0.00000000E+00
Virial Ratio                               R      2.002267658742117E+00
SCF Energy                                 R     -2.795062443810569E+02
MP2 Energy                                 R     -2.804550144113609E+02
Total Energy                               R     -2.804550144113609E+02
Post-SCF wavefunction norm                 R      1.583826202750618E+00
RMS Force                                  R      3.320958067140357E-03
RMS Density                                R      4.266345144035318E-09
NImag                                      I                0
Job Status                                 I                1
Nuclear derivative order                   I                2
External E-field                           R   N=          35
  0.00000000E+00  0.00000000E+00  0.00000000E+00  0.00000000E+00  0.00000000E+00
  0.00000000E+00  0.00000000E+00  0.00000000E+00  0.00000000E+00  0.00000000E+00
  0.00000000E+00  0.00000000E+00  0.00000000E+00  0.00000000E+00  0.00000000E+00
  0.00000000E+00  0.00000000E+00  0.00000000E+00  0.00000000E+00  0.00000000E+00
  0.00000000E+00  0.00000000E+00  0.00000000E+00  0.00000000E+00  0.00000000E+00
  0.00000000E+00  0.00000000E+00  0.00000000E+00  0.00000000E+00  0.00000000E+00
  0.00000000E+00  0.00000000E+00  0.00000000E+00  0.00000000E+00  0.00000000E+00
IOpCl                                      I                0
IROHF                                      I                0
Alpha Orbital Energies                     R   N=         207
 -2.07213356E+01 -2.06879759E+01 -2.06692227E+01 -1.58250521E+01 -1.64244426E+00
 -1.50720392E+00 -1.29443276E+00 -9.60826410E-01 -8.32791848E-01 -7.58621224E-01
 -7.39732643E-01 -6.39447757E-01 -6.20112356E-01 -6.19345270E-01 -5.02019191E-01
 -4.98339666E-01  3.49314620E-02  6.11025394E-02  9.51007209E-02  1.00604295E-01
  1.19752799E-01  1.22705751E-01  1.48817423E-01  1.51799290E-01  1.77753953E-01
  1.80376834E-01  1.89484818E-01  2.11137463E-01  2.16743771E-01  2.42616779E-01
  2.46356376E-01  2.68026364E-01  3.10903462E-01  3.15105748E-01  3.38075366E-01
  3.42443074E-01  3.46082183E-01  3.92645088E-01  4.46336249E-01  4.88515397E-01
  5.04327429E-01  5.19180820E-01  5.43833473E-01  5.62586681E-01  5.99352373E-01
  6.21007132E-01  6.39879006E-01  6.89122087E-01  7.17473343E-01  7.23685254E-01
  7.38147634E-01  7.65382919E-01  7.67698226E-01  7.95640510E-01  8.04131771E-01
  8.40375798E-01  8.43159694E-01  8.50657605E-01  8.84576269E-01  9.06395077E-01
  9.26329809E-01  9.49081949E-01  9.54854595E-01  1.01776005E+00  1.03151238E+00
  1.05284832E+00  1.06473149E+00  1.09235054E+00  1.14196094E+00  1.15552921E+00
  1.17277455E+00  1.21988477E+00  1.22644263E+00  1.24624504E+00  1.34972649E+00
  1.36445401E+00  1.37065880E+00  1.46923952E+00  1.48323224E+00  1.50773366E+00
  1.54091561E+00  1.58891351E+00  1.59603738E+00  1.60511345E+00  1.62814975E+00
  1.69581006E+00  1.74000569E+00  1.80172765E+00  1.82779338E+00  1.88698241E+00
  1.89648619E+00  1.92604352E+00  1.98057947E+00  1.99191916E+00  2.04820220E+00
  2.12011720E+00  2.13006047E+00  2.16368182E+00  2.18531958E+00  2.24139722E+00
  2.25968517E+00  2.29481040E+00  2.35180845E+00  2.36038331E+00  2.38602145E+00
  2.40199177E+00  2.43357773E+00  2.47073703E+00  2.47806490E+00  2.52549451E+00
  2.53729515E+00  2.54436583E+00  2.55609706E+00  2.61092669E+00  2.62650251E+00
  2.66897946E+00  2.67036127E+00  2.75654296E+00  2.80810883E+00  2.80870549E+00
  2.84333815E+00  2.91588261E+00  2.97415156E+00  3.04894846E+00  3.05527427E+00
  3.11434493E+00  3.11860782E+00  3.17192504E+00  3.21246706E+00  3.30516197E+00
  3.33550307E+00  3.36008381E+00  3.48298454E+00  3.67676920E+00  3.86856110E+00
  3.92262025E+00  4.17897079E+00  4.21356569E+00  4.21706767E+00  4.26492871E+00
  4.36389046E+00  4.50172792E+00  4.50545989E+00  4.56045769E+00  4.60066064E+00
  4.69090590E+00  4.80734828E+00  4.90560499E+00  4.91184919E+00  4.94450344E+00
  4.99439833E+00  5.00440239E+00  5.10860442E+00  5.13539339E+00  5.17561540E+00
  5.24702572E+00  5.25409239E+00  5.31518400E+00  5.33488279E+00  5.35267420E+00
  5.54102896E+00  5.64208062E+00  5.70022512E+00  5.88252974E+00  6.00333508E+00
  6.26379610E+00  6.29584534E+00  6.35850867E+00  6.37604680E+00  6.59892911E+00
  6.64508337E+00  6.65764897E+00  6.68266272E+00  6.72230124E+00  6.80680196E+00
  6.80759874E+00  6.83721809E+00  6.97036036E+00  7.01815576E+00  7.06605701E+00
  7.08067390E+00  7.14074032E+00  7.16037993E+00  7.17536681E+00  7.20231622E+00
  7.24340337E+00  7.24404349E+00  7.26911391E+00  7.34777584E+00  7.39613480E+00
  7.42088377E+00  7.44277176E+00  7.46122655E+00  7.56013703E+00  7.64885904E+00
  7.66368592E+00  7.79441177E+00  7.88155450E+00  7.95291788E+00  8.05136978E+00
  8.30375062E+00  8.50335470E+00  8.65272410E+00  1.36077041E+01  1.47624474E+01
  1.50966721E+01  1.57242155E+01
Alpha MO coefficients                      R   N=       42849
  6.61351229E-05 -6.48345704E-05 -1.11166499E-03  8.53195828E-06 -5.24283260E-05
  4.22650460E-05  0.00000000E+00 -7.90040000E-05 -3.07124422E-04  0.00000000E+00
  5.44664340E-06 -3.44259927E-04  0.00000000E+00  4.38398724E-05  0.00000000E+00
  0.00000000E+00 -2.51371792E-05  1.29882174E-05  2.23802163E-04  0.00000000E+00
  0.00000000E+00 -3.56994148E-05 -2.01884054E-04  3.03073484E-03 -9.56095079E-05
 -1.02636025E-04  3.60181569E-03  2.48153614E-03  1.04465377E-04 -5.18690721E-05
  0.00000000E+00 -7.39368644E-04  2.75469826E-04  0.00000000E+00 -2.02285320E-03
  1.07898387E-03  0.00000000E+00 -5.37631297E-04  3.94610197E-05  0.00000000E+00
  2.06246462E-05  0.00000000E+00  0.00000000E+00 -9.51250049E-06  4.40738211E-05
 -4.46554642E-04  0.00000000E+00  0.00000000E+00  4.38586543E-04 -6.54547857E-04
 -3.67132996E-04  0.00000000E+00  0.00000000E+00  5.58559741E-04 -7.27524991E-04
  0.00000000E+00  7.52944401E-05 -5.13958628E-05  0.00000000E+00  0.00000000E+00
 -2.96208840E-05  1.07077212E-04  0.00000000E+00  2.07424776E-04 -5.07953678E-05
  0.00000000E+00  0.00000000E+00 -1.77476772E-04  2.97908945E-04  9.76907951E-01
 -9.17020317E-03  4.34015012E-02  5.19696298E-04 -2.21257425E-03  4.74824875E-04
 -2.14361009E-03  0.00000000E+00 -3.44579274E-04  2.24983229E-03  0.00000000E+00
 -2.35042522E-03 -4.91809066E-04  0.00000000E+00 -2.26027674E-04  9.74166351E-05
  0.00000000E+00  8.02518478E-06  0.00000000E+00  0.00000000E+00 -4.17184331E-06
  3.75299358E-05  8.28519149E-04  0.00000000E+00  0.00000000E+00 -4.72137116E-04
 -1.80224497E-04 -1.30342959E-04  0.00000000E+00  0.00000000E+00 -5.46671542E-04
  3.56195722E-04  0.00000000E+00 -6.03282516E-06 -7.84989886E-05  0.00000000E+00
  0.00000000E+00 -9.72134912E-06  4.88285513E-05  0.00000000E+00  9.41147036E-05
 -1.75301488E-06  0.00000000E+00  0.00000000E+00 -3.48966391E-04  3.72715418E-04
  1.04210280E-04  4.58149602E-04 -3.22531790E-04 -8.17630229E-04  3.64713713E-04
 -4.16918676E-05 -1.00906800E-04  0.00000000E+00  6.89904345E-04  1.12009407E-03
  0.00000000E+00 -8.31285045E-04 -7.70894712E-04  0.00000000E+00  1.87153306E-04
  2.06801022E-04  0.00000000E+00 -5.22620947E-05  0.00000000E+00  0.00000000E+00
  2.03024846E-05  9.22758190E-05 -4.14754467E-04  0.00000000E+00  0.00000000E+00
  1.35539279E-05  1.09263099E-03  2.78211186E-05  0.00000000E+00  0.00000000E+00
 -3.51348416E-04  2.06686188E-05  0.00000000E+00 -7.72391274E-05 -1.15447552E-04
  0.00000000E+00  0.00000000E+00 -9.79206546E-05  1.04798786E-04  0.00000000E+00
 -1.18165736E-04  5.16868683E-05  0.00000000E+00  0.00000000E+00  1.02199771E-05
  5.32533439E-04 -6.77580504E-04  1.84984959E-05 -7.30584555E-05  1.40158822E-04
 -1.74190675E-04 -3.08214880E-05 -4.37931550E-05  0.00000000E+00  1.78642079E-04
  2.48282769E-04  0.00000000E+00  6.05445716E-04  3.47771363E-04  0.00000000E+00
 -1.99295345E-04 -6.31939056E-05  0.00000000E+00 -1.13500532E-05  0.00000000E+00
  0.00000000E+00  5.36370769E-06  1.14620681E-05 -1.19632520E-05  0.00000000E+00
  0.00000000E+00 -1.75460193E-04  3.73843246E-05 -3.90005412E-05  0.00000000E+00
  0.00000000E+00 -1.76441756E-04  1.22034216E-06  0.00000000E+00 -6.73876456E-06
 -1.16398140E-05  0.00000000E+00  0.00000000E+00 -2.33436994E-05  7.63620892E-06
  0.00000000E+00  4.04070441E-05  5.63355345E-05  0.00000000E+00  0.00000000E+00
  1.41356406E-04 -1.05912991E-04  4.26961670E-05  6.47363530E-05 -1.45300268E-04
 -3.06932915E-05  1.07712496E-05  4.41099635E-06  0.00000000E+00  2.55993797E-04
  8.90503726E-05  0.00000000E+00  1.39881427E-04  3.58858552E-05  0.00000000E+00
  1.70885407E-05  0.00000000E+00  0.00000000E+00 -1.85295409E-05  1.15865362E-05
  2.87718857E-05  0.00000000E+00  0.00000000E+00 -1.17161317E-04  5.04980009E-05
 -2.46146561E-04  1.34292767E-05 -1.55083170E-05 -5.76678119E-04  1.62718726E-04
  7.62276005E-06  1.37970236E-05  0.00000000E+00  2.41112770E-06 -3.64521682E-05
  0.00000000E+00  1.91270739E-04  1.14457540E-04  0.00000000E+00 -5.05940727E-05
  4.42552880E-05  0.00000000E+00 -1.12462251E-07  0.00000000E+00  0.00000000E+00
 -8.93367177E-06 -1.35434838E-05  1.48210795E-05  0.00000000E+00  0.00000000E+00
  5.07334566E-05  1.11051801E-04  5.47805916E-05  0.00000000E+00  0.00000000E+00
 -2.67970206E-05 -7.24691944E-05  0.00000000E+00  8.03733722E-06  1.07542733E-05
  0.00000000E+00  0.00000000E+00 -1.56284876E-06 -2.17882119E-05  0.00000000E+00
 -1.11611994E-05 -3.00003391E-05  0.00000000E+00  0.00000000E+00 -4.26395235E-06
 -2.36645109E-05  7.00642406E-04  1.79306668E-05 -2.46381887E-05  3.10471051E-04
 -3.76519243E-04  1.78874207E-05  3.12280607E-05  0.00000000E+00 -7.04889595E-05
 -1.65787681E-04  0.00000000E+00  1.95167239E-04 -2.34317562E-04  0.00000000E+00
 -1.51834896E-04  1.43008746E-04  0.00000000E+00 -3.60563058E-06  0.00000000E+00
  0.00000000E+00 -2.63897326E-05 -1.14917463E-05 -5.76715866E-05  0.00000000E+00
  0.00000000E+00  5.82529280E-05  1.34705368E-04 -7.00447763E-05  0.00000000E+00
  0.00000000E+00  2.83957201E-05  2.04297280E-05  0.00000000E+00  4.29408789E-06
  6.34340590E-06  0.00000000E+00  0.00000000E+00 -5.38354795E-06 -1.93978618E-07
  0.00000000E+00  2.68122060E-06 -2.56766016E-05  0.00000000E+00  0.00000000E+00
  1.08015165E-04 -1.44425318E-04  2.37888260E-04  1.36613125E-03 -1.44477693E-04
 -6.62266720E-04  9.06503923E-04  6.40634457E-05 -6.94621142E-05  0.00000000E+00
  5.36600970E-04 -2.11602822E-03  0.00000000E+00  1.18436513E-04  5.32813069E-04
  0.00000000E+00  1.76617623E-04 -3.15144541E-04  0.00000000E+00 -1.28502490E-04
  0.00000000E+00  0.00000000E+00 -2.07623490E-04 -1.51771994E-04 -4.57570800E-04
  0.00000000E+00  0.00000000E+00 -6.46954270E-04 -9.15611871E-04 -4.17911902E-05
  0.00000000E+00  0.00000000E+00  5.02595858E-05  1.20063808E-04  0.00000000E+00
  9.90197916E-06  3.92082260E-05  0.00000000E+00  0.00000000E+00 -2.50351880E-05
 -3.20173438E-06  0.00000000E+00 -1.30578294E-04  1.54197297E-04  0.00000000E+00
  0.00000000E+00 -3.28631082E-04 -3.12612995E-05  9.76650155E-01 -9.89092742E-03
  4.35685531E-02  3.68465302E-03 -8.98918553E-04 -4.00563164E-04  2.14717616E-03
  0.00000000E+00  4.55056719E-04 -2.52902371E-03  0.00000000E+00 -4.54679760E-05
  7.94154011E-04  0.00000000E+00  1.08915153E-04 -6.62357822E-05  0.00000000E+00
 -1.92903856E-04  0.00000000E+00  0.00000000E+00 -7.60004314E-05 -4.36363286E-05
  4.10819280E-04  0.00000000E+00  0.00000000E+00  8.87817099E-04  4.51144624E-04
 -2.04060811E-04  0.00000000E+00  0.00000000E+00 -1.24645862E-04 -3.32784143E-05
  0.00000000E+00 -3.41727280E-06  7.06721761E-05  0.00000000E+00  0.00000000E+00
 -2.99880621E-05  1.20198923E-05  0.00000000E+00 -8.77756992E-05  9.41304781E-05
  0.00000000E+00  0.00000000E+00 -1.54361959E-04  2.19592014E-04  3.80726067E-04
  1.97164149E-03  1.31652300E-03 -2.28247265E-05  4.69484319E-05  2.69005213E-04
  0.00000000E+00  4.04691203E-04  1.03710607E-03  0.00000000E+00 -1.08256034E-04
  2.43851959E-04  0.00000000E+00 -2.23088435E-05  0.00000000E+00  0.00000000E+00
  3.09003355E-05 -2.72385775E-05 -2.12975028E-04  0.00000000E+00  0.00000000E+00
 -3.50796820E-04  3.95092103E-04  9.76835296E-01 -9.18646329E-03  4.34634374E-02
  1.68640343E-04 -1.91177657E-03 -2.03827240E-03 -8.56838169E-04  0.00000000E+00
  2.07193925E-03  7.91206449E-04  0.00000000E+00 -4.32264304E-04  6.57205405E-04
  0.00000000E+00  2.27119565E-04 -2.96346110E-04  0.00000000E+00  3.14463195E-05
  0.00000000E+00  0.00000000E+00 -7.39230172E-05  6.11178848E-05  7.65286065E-04
  0.00000000E+00  0.00000000E+00 -2.10231232E-04  3.51058137E-04 -2.35029750E-04
  0.00000000E+00  0.00000000E+00  3.45744318E-04  5.32600165E-06  0.00000000E+00
 -8.00918872E-05  1.63958811E-06  0.00000000E+00  0.00000000E+00  1.71995216E-05