title                                                                   
Freq      RMP2-FC                                                     Aug-CC-pVTZ         
Number of atoms                            I                5
Info1-9                                    I   N=           9
          33          24           0           0           0         100
           6           2           1
Full Title                                 C   N=           1
title       
Route                                      C   N=           4
#p freq mp2/aug-cc-pvtz density=current         
Charge                                     I                0
Multiplicity                               I                1
Number of electrons                        I               32
Number of alpha electrons                  I               16
Number of beta electrons                   I               16
Number of basis functions                  I              207
Number of independent functions            I              207
Number of point charges in /Mol/           I                0
Number of translation vectors              I                0
Atomic numbers                             I   N=           5
           1           8           8           7           8
Nuclear charges                            R   N=           5
  1.00000000E+00  8.00000000E+00  8.00000000E+00  7.00000000E+00  8.00000000E+00
Current cartesian coordinates              R   N=          15
  2.07280127E+00 -1.12386423E+00  0.00000000E+00  2.48701815E+00  6.91572613E-01
  0.00000000E+00  7.49766685E-18  1.73268737E+00  0.00000000E+00 -1.87275553E+00
 -8.51256089E-02  0.00000000E+00 -1.10745722E+00 -2.20929204E+00  0.00000000E+00
Number of symbols in /Mol/                 I                0
Force Field                                I                0
Atom Types                                 C   N=           5
                                                            
Int Atom Types                             I   N=           5
           0           0           0           0           0
MM charges                                 R   N=           5
  0.00000000E+00  0.00000000E+00  0.00000000E+00  0.00000000E+00  0.00000000E+00
Integer atomic weights                     I   N=           5
           1          16          16          14          16
Real atomic weights                        R   N=           5
  1.00782504E+00  1.59949146E+01  1.59949146E+01  1.40030740E+01  1.59949146E+01
Atom fragment info                         I   N=           5
           0           0           0           0           0
Atom residue num                           I   N=           5
           0           0           0           0           0
Nuclear spins                              I   N=           5
           1           0           0           2           0
Nuclear ZEff                               R   N=           5
 -1.00000000E+00 -5.60000000E+00 -5.60000000E+00 -4.55000000E+00 -5.60000000E+00
Nuclear ZNuc                               R   N=           5
  1.00000000E+00  8.00000000E+00  8.00000000E+00  7.00000000E+00  8.00000000E+00
Nuclear QMom                               R   N=           5
  0.00000000E+00  0.00000000E+00  0.00000000E+00  2.04400000E+00  0.00000000E+00
Nuclear GFac                               R   N=           5
  2.79284600E+00  0.00000000E+00  0.00000000E+00  4.03761000E-01  0.00000000E+00
MicOpt                                     I   N=           5
          -1          -1          -1          -1          -1
Number of residues                         I                0
Number of secondary structures             I                0
SymInf integers                            I   N=          26
           1           2           1           1           1           1
           1          -1           0           0           0           0
           0           0           0           0           0           0
           0           0           0           0           0           0
           0           0
RotTr to input orientation                 R   N=          12
 -9.74944771E-01  0.00000000E+00  2.22447058E-01  2.22447058E-01  0.00000000E+00
  9.74944771E-01  0.00000000E+00  1.00000000E+00  0.00000000E+00  2.27086705E+00
  0.00000000E+00  6.34617007E-01
Number of contracted shells                I               65
Number of primitive shells                 I              119
Pure/Cartesian d shells                    I                0
Pure/Cartesian f shells                    I                0
Highest angular momentum                   I                3
Largest degree of contraction              I                7
Shell types                                I   N=          65
           0           0           0           0           1           1
           1          -2          -2           0           0           0
           0           0           1           1           1           1
          -2          -2          -2          -3          -3           0
           0           0           0           0           1           1
           1           1          -2          -2          -2          -3
          -3           0           0           0           0           0
           1           1           1           1          -2          -2
          -2          -3          -3           0           0           0
           0           0           1           1           1           1
          -2          -2          -2          -3          -3
Number of primitives per shell             I   N=          65
           3           1           1           1           1           1
           1           1           1           7           6           1
           1           1           3           1           1           1
           1           1           1           1           1           7
           6           1           1           1           3           1
           1           1           1           1           1           1
           1           7           6           1           1           1
           3           1           1           1           1           1
           1           1           1           7           6           1
           1           1           3           1           1           1
           1           1           1           1           1
Shell to atom map                          I   N=          65
           1           1           1           1           1           1
           1           1           1           2           2           2
           2           2           2           2           2           2
           2           2           2           2           2           3
           3           3           3           3           3           3
           3           3           3           3           3           3
           3           4           4           4           4           4
           4           4           4           4           4           4
           4           4           4           5           5           5
           5           5           5           5           5           5
           5           5           5           5           5
Primitive exponents                        R   N=         119
  3.38700000E+01  5.09500000E+00  1.15900000E+00  3.25800000E-01  1.02700000E-01
  2.52600000E-02  1.40700000E+00  3.88000000E-01  1.02000000E-01  1.05700000E+00
  2.47000000E-01  1.53300000E+04  2.29900000E+03  5.22400000E+02  1.47300000E+02
  4.75500000E+01  1.67600000E+01  6.20700000E+00  5.22400000E+02  1.47300000E+02
  4.75500000E+01  1.67600000E+01  6.20700000E+00  6.88200000E-01  1.75200000E+00
  2.38400000E-01  7.37600000E-02  3.44600000E+01  7.74900000E+00  2.28000000E+00
  7.15600000E-01  2.14000000E-01  5.97400000E-02  2.31400000E+00  6.45000000E-01
  2.14000000E-01  1.42800000E+00  5.00000000E-01  1.53300000E+04  2.29900000E+03
  5.22400000E+02  1.47300000E+02  4.75500000E+01  1.67600000E+01  6.20700000E+00
  5.22400000E+02  1.47300000E+02  4.75500000E+01  1.67600000E+01  6.20700000E+00
  6.88200000E-01  1.75200000E+00  2.38400000E-01  7.37600000E-02  3.44600000E+01
  7.74900000E+00  2.28000000E+00  7.15600000E-01  2.14000000E-01  5.97400000E-02
  2.31400000E+00  6.45000000E-01  2.14000000E-01  1.42800000E+00  5.00000000E-01
  1.14200000E+04  1.71200000E+03  3.89300000E+02  1.10000000E+02  3.55700000E+01
  1.25400000E+01  4.64400000E+00  3.89300000E+02  1.10000000E+02  3.55700000E+01
  1.25400000E+01  4.64400000E+00  5.11800000E-01  1.29300000E+00  1.78700000E-01
  5.76000000E-02  2.66300000E+01  5.94800000E+00  1.74200000E+00  5.55000000E-01
  1.72500000E-01  4.91000000E-02  1.65400000E+00  4.69000000E-01  1.51000000E-01
  1.09300000E+00  3.64000000E-01  1.53300000E+04  2.29900000E+03  5.22400000E+02
  1.47300000E+02  4.75500000E+01  1.67600000E+01  6.20700000E+00  5.22400000E+02
  1.47300000E+02  4.75500000E+01  1.67600000E+01  6.20700000E+00  6.88200000E-01
  1.75200000E+00  2.38400000E-01  7.37600000E-02  3.44600000E+01  7.74900000E+00
  2.28000000E+00  7.15600000E-01  2.14000000E-01  5.97400000E-02  2.31400000E+00
  6.45000000E-01  2.14000000E-01  1.42800000E+00  5.00000000E-01
Contraction coefficients                   R   N=         119
  2.54948632E-02  1.90362766E-01  8.52162022E-01  1.00000000E+00  1.00000000E+00
  1.00000000E+00  1.00000000E+00  1.00000000E+00  1.00000000E+00  1.00000000E+00
  1.00000000E+00  5.19808943E-04  4.02025621E-03  2.07128267E-02  8.10105536E-02
  2.35962985E-01  4.42653446E-01  3.57064423E-01 -4.42115008E-05 -1.22591041E-03
 -1.05517725E-02 -6.74452633E-02 -1.71198607E-01  1.07329856E+00  1.00000000E+00
  1.00000000E+00  1.00000000E+00  4.11634896E-02  2.57762836E-01  8.02419274E-01
  1.00000000E+00  1.00000000E+00  1.00000000E+00  1.00000000E+00  1.00000000E+00
  1.00000000E+00  1.00000000E+00  1.00000000E+00  5.19808943E-04  4.02025621E-03
  2.07128267E-02  8.10105536E-02  2.35962985E-01  4.42653446E-01  3.57064423E-01
 -4.42115008E-05 -1.22591041E-03 -1.05517725E-02 -6.74452633E-02 -1.71198607E-01
  1.07329856E+00  1.00000000E+00  1.00000000E+00  1.00000000E+00  4.11634896E-02
  2.57762836E-01  8.02419274E-01  1.00000000E+00  1.00000000E+00  1.00000000E+00
  1.00000000E+00  1.00000000E+00  1.00000000E+00  1.00000000E+00  1.00000000E+00
  5.34563860E-04  4.13435660E-03  2.12335358E-02  8.25006224E-02  2.38138871E-01
  4.42551547E-01  3.53757422E-01 -4.89867350E-05 -1.19527323E-03 -1.03490714E-02
 -6.48680190E-02 -1.71552477E-01  1.07289568E+00  1.00000000E+00  1.00000000E+00
  1.00000000E+00  3.98072123E-02  2.49002660E-01  8.10479727E-01  1.00000000E+00
  1.00000000E+00  1.00000000E+00  1.00000000E+00  1.00000000E+00  1.00000000E+00
  1.00000000E+00  1.00000000E+00  5.19808943E-04  4.02025621E-03  2.07128267E-02
  8.10105536E-02  2.35962985E-01  4.42653446E-01  3.57064423E-01 -4.42115008E-05
 -1.22591041E-03 -1.05517725E-02 -6.74452633E-02 -1.71198607E-01  1.07329856E+00
  1.00000000E+00  1.00000000E+00  1.00000000E+00  4.11634896E-02  2.57762836E-01
  8.02419274E-01  1.00000000E+00  1.00000000E+00  1.00000000E+00  1.00000000E+00
  1.00000000E+00  1.00000000E+00  1.00000000E+00  1.00000000E+00
Coordinates of each shell                  R   N=         195
  2.07280127E+00 -1.12386423E+00  0.00000000E+00  2.07280127E+00 -1.12386423E+00
  0.00000000E+00  2.07280127E+00 -1.12386423E+00  0.00000000E+00  2.07280127E+00
 -1.12386423E+00  0.00000000E+00  2.07280127E+00 -1.12386423E+00  0.00000000E+00
  2.07280127E+00 -1.12386423E+00  0.00000000E+00  2.07280127E+00 -1.12386423E+00
  0.00000000E+00  2.07280127E+00 -1.12386423E+00  0.00000000E+00  2.07280127E+00
 -1.12386423E+00  0.00000000E+00  2.48701815E+00  6.91572613E-01  0.00000000E+00
  2.48701815E+00  6.91572613E-01  0.00000000E+00  2.48701815E+00  6.91572613E-01
  0.00000000E+00  2.48701815E+00  6.91572613E-01  0.00000000E+00  2.48701815E+00
  6.91572613E-01  0.00000000E+00  2.48701815E+00  6.91572613E-01  0.00000000E+00
  2.48701815E+00  6.91572613E-01  0.00000000E+00  2.48701815E+00  6.91572613E-01
  0.00000000E+00  2.48701815E+00  6.91572613E-01  0.00000000E+00  2.48701815E+00
  6.91572613E-01  0.00000000E+00  2.48701815E+00  6.91572613E-01  0.00000000E+00
  2.48701815E+00  6.91572613E-01  0.00000000E+00  2.48701815E+00  6.91572613E-01
  0.00000000E+00  2.48701815E+00  6.91572613E-01  0.00000000E+00 -7.71843208E-17
  1.73268737E+00  0.00000000E+00 -7.71843208E-17  1.73268737E+00  0.00000000E+00
 -7.71843208E-17  1.73268737E+00  0.00000000E+00 -7.71843208E-17  1.73268737E+00
  0.00000000E+00 -7.71843208E-17  1.73268737E+00  0.00000000E+00 -7.71843208E-17
  1.73268737E+00  0.00000000E+00 -7.71843208E-17  1.73268737E+00  0.00000000E+00
 -7.71843208E-17  1.73268737E+00  0.00000000E+00 -7.71843208E-17  1.73268737E+00
  0.00000000E+00 -7.71843208E-17  1.73268737E+00  0.00000000E+00 -7.71843208E-17
  1.73268737E+00  0.00000000E+00 -7.71843208E-17  1.73268737E+00  0.00000000E+00
 -7.71843208E-17  1.73268737E+00  0.00000000E+00 -7.71843208E-17  1.73268737E+00
  0.00000000E+00 -1.87275553E+00 -8.51256089E-02  0.00000000E+00 -1.87275553E+00
 -8.51256089E-02  0.00000000E+00 -1.87275553E+00 -8.51256089E-02  0.00000000E+00
 -1.87275553E+00 -8.51256089E-02  0.00000000E+00 -1.87275553E+00 -8.51256089E-02
  0.00000000E+00 -1.87275553E+00 -8.51256089E-02  0.00000000E+00 -1.87275553E+00
 -8.51256089E-02  0.00000000E+00 -1.87275553E+00 -8.51256089E-02  0.00000000E+00
 -1.87275553E+00 -8.51256089E-02  0.00000000E+00 -1.87275553E+00 -8.51256089E-02
  0.00000000E+00 -1.87275553E+00 -8.51256089E-02  0.00000000E+00 -1.87275553E+00
 -8.51256089E-02  0.00000000E+00 -1.87275553E+00 -8.51256089E-02  0.00000000E+00
 -1.87275553E+00 -8.51256089E-02  0.00000000E+00 -1.10745722E+00 -2.20929204E+00
  0.00000000E+00 -1.10745722E+00 -2.20929204E+00  0.00000000E+00 -1.10745722E+00
 -2.20929204E+00  0.00000000E+00 -1.10745722E+00 -2.20929204E+00  0.00000000E+00
 -1.10745722E+00 -2.20929204E+00  0.00000000E+00 -1.10745722E+00 -2.20929204E+00
  0.00000000E+00 -1.10745722E+00 -2.20929204E+00  0.00000000E+00 -1.10745722E+00
 -2.20929204E+00  0.00000000E+00 -1.10745722E+00 -2.20929204E+00  0.00000000E+00
 -1.10745722E+00 -2.20929204E+00  0.00000000E+00 -1.10745722E+00 -2.20929204E+00
  0.00000000E+00 -1.10745722E+00 -2.20929204E+00  0.00000000E+00 -1.10745722E+00
 -2.20929204E+00  0.00000000E+00 -1.10745722E+00 -2.20929204E+00  0.00000000E+00
Num ILSW                                   I              100
ILSW                                       I   N=         100
           0           0           0           0           2           0
           0           0           0           0           0          -1
           5           0           0           0           2           0
           0           0           0           0           1           0
           1           0           0           0           0           0
           0           0      100000           0          -1           0
           0           0           0           0           0           0
           0           0           0           1           1           0
           0 -2000000000           1           0           0           0
           0           0           4          52           0           0
           0           0           0           0           0           0
           0           0           0           5           4           1
           0           0           0           0           0           0
           0           0           0           0           0           0
           0           0           0           0           0           0
           0           0           0           0           0           0
           0           0           0           0
Num RLSW                                   I               52
RLSW                                       R   N=          52
  1.00000000E+00  1.00000000E+00  1.00000000E+00  1.00000000E+00  1.00000000E+00
  0.00000000E+00  0.00000000E+00  1.00000000E+00  0.00000000E+00  0.00000000E+00
  0.00000000E+00  0.00000000E+00  1.00000000E+00  0.00000000E+00  0.00000000E+00
  0.00000000E+00  0.00000000E+00  1.00000000E+00  0.00000000E+00  0.00000000E+00
  0.00000000E+00  0.00000000E+00  1.00000000E+00  0.00000000E+00  0.00000000E+00
  0.00000000E+00  0.00000000E+00  1.00000000E+00  0.00000000E+00  0.00000000E+00
  0.00000000E+00  0.00000000E+00  1.00000000E+00  0.00000000E+00  0.00000000E+00
  0.00000000E+00  0.00000000E+00  0.00000000E+00  1.00000000E+00  1.00000000E+00
  0.00000000E+00  1.00000000E+00  0.00000000E+00  0.00000000E+00  0.00000000E+00
  0.00000000E+00  0.00000000E+00  0.00000000E+00  0.00000000E+00  0.00000000E+00
  0.00000000E+00  0.00000000E+00
MxBond                                     I                2
NBond                                      I   N=           5
           1           2           2           2           1
IBond                                      I   N=          10
           2           0           1           3           2           4
           3           5           4           0
RBond                                      R   N=          10
  1.00000000E+00  0.00000000E+00  1.00000000E+00  1.00000000E+00  1.00000000E+00
  1.00000000E+00  1.00000000E+00  2.00000000E+00  2.00000000E+00  0.00000000E+00
Virial Ratio                               R      2.002215005546236E+00
SCF Energy                                 R     -2.795062414847417E+02
MP2 Energy                                 R     -2.804552178846878E+02
Total Energy                               R     -2.804552178846878E+02
Post-SCF wavefunction norm                 R      1.583765226866180E+00
RMS Force                                  R      7.339046009363707E-04
RMS Density                                R      4.452620601515489E-09
NImag                                      I                0
Job Status                                 I                1
Nuclear derivative order                   I                2
External E-field                           R   N=          35
  0.00000000E+00  0.00000000E+00  0.00000000E+00  0.00000000E+00  0.00000000E+00
  0.00000000E+00  0.00000000E+00  0.00000000E+00  0.00000000E+00  0.00000000E+00
  0.00000000E+00  0.00000000E+00  0.00000000E+00  0.00000000E+00  0.00000000E+00
  0.00000000E+00  0.00000000E+00  0.00000000E+00  0.00000000E+00  0.00000000E+00
  0.00000000E+00  0.00000000E+00  0.00000000E+00  0.00000000E+00  0.00000000E+00
  0.00000000E+00  0.00000000E+00  0.00000000E+00  0.00000000E+00  0.00000000E+00
  0.00000000E+00  0.00000000E+00  0.00000000E+00  0.00000000E+00  0.00000000E+00
IOpCl                                      I                0
IROHF                                      I                0
Alpha Orbital Energies                     R   N=         207
 -2.07197168E+01 -2.06877295E+01 -2.06684576E+01 -1.58264073E+01 -1.64491360E+00
 -1.50559791E+00 -1.29383020E+00 -9.60339755E-01 -8.35389120E-01 -7.59224856E-01
 -7.40269122E-01 -6.37645575E-01 -6.18823076E-01 -6.18713202E-01 -5.05207816E-01
 -4.97594290E-01  3.52119069E-02  5.99222873E-02  9.50731435E-02  1.00348425E-01
  1.19568475E-01  1.22606180E-01  1.49326218E-01  1.52439680E-01  1.77457172E-01
  1.80092407E-01  1.89711303E-01  2.10919496E-01  2.16819078E-01  2.42428414E-01
  2.46333562E-01  2.68819498E-01  3.13066106E-01  3.17257061E-01  3.37907191E-01
  3.43934125E-01  3.47343181E-01  3.92688399E-01  4.49458360E-01  4.89897391E-01
  5.05333010E-01  5.18265546E-01  5.44089709E-01  5.60863250E-01  5.98291287E-01
  6.20414200E-01  6.38658953E-01  6.90283356E-01  7.16648138E-01  7.24093274E-01
  7.42701877E-01  7.64227626E-01  7.67169972E-01  7.95629402E-01  8.06447325E-01
  8.38876542E-01  8.43174752E-01  8.52239869E-01  8.85112562E-01  9.08047672E-01
  9.30049964E-01  9.48467146E-01  9.53703539E-01  1.01885315E+00  1.03369352E+00
  1.06554546E+00  1.06681220E+00  1.09600107E+00  1.14517773E+00  1.15626375E+00
  1.16960129E+00  1.22214430E+00  1.22768070E+00  1.24700250E+00  1.35611534E+00
  1.35638929E+00  1.37101102E+00  1.46842771E+00  1.48483683E+00  1.50377913E+00
  1.54379705E+00  1.59721162E+00  1.59731733E+00  1.60472379E+00  1.62910116E+00
  1.69510558E+00  1.74390349E+00  1.80078334E+00  1.82941148E+00  1.88800697E+00
  1.90187655E+00  1.93091600E+00  1.97908660E+00  1.98921174E+00  2.05235626E+00
  2.12458607E+00  2.13186680E+00  2.16721412E+00  2.18913845E+00  2.24310020E+00
  2.26003711E+00  2.29570949E+00  2.35394364E+00  2.36734341E+00  2.38760416E+00
  2.40298282E+00  2.43465516E+00  2.46945748E+00  2.47986976E+00  2.53018567E+00
  2.53964811E+00  2.54883831E+00  2.55950556E+00  2.61639419E+00  2.63081133E+00
  2.67259790E+00  2.67467934E+00  2.75373116E+00  2.80698828E+00  2.81541320E+00
  2.84502528E+00  2.91829007E+00  2.98587766E+00  3.04762183E+00  3.05080884E+00
  3.11639887E+00  3.12065304E+00  3.17609611E+00  3.21755785E+00  3.31035713E+00
  3.33194567E+00  3.35957041E+00  3.48003200E+00  3.67790251E+00  3.87013219E+00
  3.93622636E+00  4.18654149E+00  4.22350659E+00  4.22494668E+00  4.26852528E+00
  4.36900023E+00  4.49898113E+00  4.53096307E+00  4.55558184E+00  4.60389975E+00
  4.69233647E+00  4.81112696E+00  4.89827728E+00  4.91456830E+00  4.93963556E+00
  4.99839950E+00  5.00525517E+00  5.10765419E+00  5.13312834E+00  5.17847611E+00
  5.25188461E+00  5.25674920E+00  5.31820535E+00  5.34851278E+00  5.36281588E+00
  5.54671567E+00  5.64468472E+00  5.70757159E+00  5.89223121E+00  5.99689482E+00
  6.26488389E+00  6.29775556E+00  6.35912937E+00  6.37523077E+00  6.60009686E+00
  6.65714929E+00  6.66171246E+00  6.69070023E+00  6.72571279E+00  6.79614491E+00
  6.80600423E+00  6.85069341E+00  6.96841977E+00  7.02715584E+00  7.06630709E+00
  7.07781117E+00  7.13399605E+00  7.17508288E+00  7.17795826E+00  7.20498497E+00
  7.24644401E+00  7.24870920E+00  7.27210539E+00  7.35009288E+00  7.39758654E+00
  7.43189512E+00  7.44188368E+00  7.46396740E+00  7.55943280E+00  7.66335361E+00
  7.67178148E+00  7.79574788E+00  7.88646610E+00  7.95286416E+00  8.07234522E+00
  8.31295829E+00  8.49844037E+00  8.65220146E+00  1.36204029E+01  1.47718490E+01
  1.51124243E+01  1.57838176E+01
Alpha MO coefficients                      R   N=       42849
  6.72863860E-05 -1.57297270E-05 -1.10313231E-03  1.29615760E-05 -4.69664265E-05
  4.13951555E-05  0.00000000E+00 -7.67597713E-05 -2.75981457E-04  0.00000000E+00
  4.25933826E-06 -3.40145099E-04  0.00000000E+00  4.22802258E-05  0.00000000E+00
  0.00000000E+00 -2.65767407E-05  1.90200544E-05  2.26386998E-04  0.00000000E+00
  0.00000000E+00 -4.78500520E-05 -2.10569311E-04  3.08662916E-03 -9.78479116E-05
 -9.78293346E-05  3.50276284E-03  2.45317735E-03  1.03063776E-04 -5.36835423E-05
  0.00000000E+00 -7.29831684E-04  2.93856407E-04  0.00000000E+00 -1.96764998E-03
  1.10604404E-03  0.00000000E+00 -5.36835192E-04  3.97010223E-05  0.00000000E+00
  2.05788941E-05  0.00000000E+00  0.00000000E+00 -8.89815421E-06  4.30240045E-05
 -4.41384667E-04  0.00000000E+00  0.00000000E+00  4.31946268E-04 -6.56304325E-04
 -3.61546993E-04  0.00000000E+00  0.00000000E+00  5.36425731E-04 -7.33964248E-04
  0.00000000E+00  7.39082054E-05 -5.27355086E-05  0.00000000E+00  0.00000000E+00
 -2.75303130E-05  1.07169259E-04  0.00000000E+00  2.09377256E-04 -5.00904954E-05
  0.00000000E+00  0.00000000E+00 -1.66752008E-04  2.97923690E-04  9.76902799E-01
 -9.17525788E-03  4.34079221E-02  5.17640441E-04 -2.20085265E-03  4.50246632E-04
 -2.14833711E-03  0.00000000E+00 -3.19956776E-04  2.25281038E-03  0.00000000E+00
 -2.29613335E-03 -4.95037251E-04  0.00000000E+00 -2.18535320E-04  9.61494799E-05
  0.00000000E+00  6.74717205E-06  0.00000000E+00  0.00000000E+00 -5.23237601E-06
  3.69995308E-05  8.25775268E-04  0.00000000E+00  0.00000000E+00 -4.72524461E-04
 -1.72931272E-04 -1.40277913E-04  0.00000000E+00  0.00000000E+00 -5.51963034E-04
  3.49788022E-04  0.00000000E+00 -6.48632614E-06 -7.95528401E-05  0.00000000E+00
  0.00000000E+00 -8.81410761E-06  4.80382487E-05  0.00000000E+00  9.21729182E-05
  1.29652738E-06  0.00000000E+00  0.00000000E+00 -3.36569566E-04  3.78865799E-04
  1.04321832E-04  4.57477978E-04 -3.23077831E-04 -8.38278512E-04  3.59195352E-04
 -4.40779862E-05 -1.00151481E-04  0.00000000E+00  6.96343453E-04  1.11139830E-03
  0.00000000E+00 -7.72852336E-04 -6.45152271E-04  0.00000000E+00  1.94550808E-04
  2.12782327E-04  0.00000000E+00 -5.24968087E-05  0.00000000E+00  0.00000000E+00
  1.90051409E-05  9.33451979E-05 -4.14910266E-04  0.00000000E+00  0.00000000E+00
  4.00234723E-05  1.08043110E-03  2.66225611E-05  0.00000000E+00  0.00000000E+00
 -3.19889081E-04  3.38330253E-05  0.00000000E+00 -7.84291219E-05 -1.13674497E-04
  0.00000000E+00  0.00000000E+00 -9.65821343E-05  1.06273278E-04  0.00000000E+00
 -1.24746094E-04  4.66916432E-05  0.00000000E+00  0.00000000E+00  1.44712775E-05
  5.19575131E-04 -7.19166759E-04  4.44288072E-05 -7.11059739E-05  2.35906688E-04
 -1.73923929E-04 -2.92459171E-05 -4.15172520E-05  0.00000000E+00  1.69794317E-04
  2.53726154E-04  0.00000000E+00  5.34607978E-04  3.35274153E-04  0.00000000E+00
 -2.14292881E-04 -6.23276033E-05  0.00000000E+00 -1.27912716E-05  0.00000000E+00
  0.00000000E+00  3.11490468E-06  1.51617813E-05 -3.13339488E-06  0.00000000E+00
  0.00000000E+00 -1.62936511E-04  1.00651423E-05 -2.07843485E-05  0.00000000E+00
  0.00000000E+00 -1.74376909E-04 -3.97912894E-05  0.00000000E+00 -6.10403202E-06
 -9.06043683E-06  0.00000000E+00  0.00000000E+00 -2.09544922E-05  9.40495056E-06
  0.00000000E+00  4.04259842E-05  6.07102358E-05  0.00000000E+00  0.00000000E+00
  1.55938951E-04 -1.03272521E-04  3.77760350E-05  4.17187220E-05 -8.69498260E-05
 -3.00209939E-05  2.15966923E-05  1.15192859E-05  0.00000000E+00  2.42931704E-04
  5.39972626E-05  0.00000000E+00  1.25268195E-04  2.85998477E-05  0.00000000E+00
  1.19975092E-05  0.00000000E+00  0.00000000E+00 -9.61736546E-06  1.79525833E-05
  1.48618876E-05  0.00000000E+00  0.00000000E+00 -9.36630352E-05  7.26122003E-05
 -2.58740725E-04  2.53084180E-05 -1.49223649E-05 -5.64144593E-04  1.38610228E-04
  7.51024877E-06  1.34278028E-05  0.00000000E+00 -6.85299750E-07 -4.06682026E-05
  0.00000000E+00  1.85503094E-04  1.13136686E-04  0.00000000E+00 -4.26133823E-05
  5.16933640E-05  0.00000000E+00 -1.46713134E-06  0.00000000E+00  0.00000000E+00
 -8.39006265E-06 -1.20474293E-05  2.15788352E-05  0.00000000E+00  0.00000000E+00
  5.05715080E-05  1.10895456E-04  6.14079157E-05  0.00000000E+00  0.00000000E+00
 -3.52780882E-05 -6.68201331E-05  0.00000000E+00  7.64556091E-06  1.00021999E-05
  0.00000000E+00  0.00000000E+00 -1.08744429E-06 -2.52916743E-05  0.00000000E+00
 -1.33817363E-05 -3.56742254E-05  0.00000000E+00  0.00000000E+00 -1.39650625E-06
 -2.07748422E-05  7.46773401E-04  2.15284996E-05 -1.86169989E-05  3.13307929E-04
 -3.86246953E-04  1.65097484E-05  2.74139369E-05  0.00000000E+00 -6.61338373E-05
 -1.54480640E-04  0.00000000E+00  1.70528082E-04 -2.09114551E-04  0.00000000E+00
 -1.55999644E-04  1.41082405E-04  0.00000000E+00 -4.01160664E-06  0.00000000E+00
  0.00000000E+00 -2.95908155E-05 -9.91888249E-06 -5.20313270E-05  0.00000000E+00
  0.00000000E+00  8.02818051E-05  1.22308595E-04 -6.62979153E-05  0.00000000E+00
  0.00000000E+00  4.18351629E-05  2.63782432E-05  0.00000000E+00  3.00070245E-06
  3.25119011E-06  0.00000000E+00  0.00000000E+00 -7.90431873E-06 -2.47287090E-06
  0.00000000E+00  3.62933226E-06 -2.47605917E-05  0.00000000E+00  0.00000000E+00
  9.73251582E-05 -1.54455788E-04  2.36987057E-04  1.35722486E-03 -1.46632758E-04
 -7.10032989E-04  9.06840981E-04  6.32182386E-05 -7.11244900E-05  0.00000000E+00
  5.71956880E-04 -2.08295449E-03  0.00000000E+00  1.04481019E-04  5.13297231E-04
  0.00000000E+00  1.85939929E-04 -3.06771203E-04  0.00000000E+00 -1.27821786E-04
  0.00000000E+00  0.00000000E+00 -2.03994213E-04 -1.58392463E-04 -4.59434798E-04
  0.00000000E+00  0.00000000E+00 -6.01662245E-04 -9.22838629E-04 -4.22927800E-05
  0.00000000E+00  0.00000000E+00  5.74320858E-05  1.22466890E-04  0.00000000E+00
  8.48464627E-06  3.68802864E-05  0.00000000E+00  0.00000000E+00 -2.44873045E-05
 -4.30962794E-06  0.00000000E+00 -1.35737953E-04  1.57688807E-04  0.00000000E+00
  0.00000000E+00 -3.16303111E-04 -3.61327750E-05  9.76645775E-01 -9.88594588E-03
  4.35755630E-02  3.69995406E-03 -8.94759094E-04 -4.45771410E-04  2.13264084E-03
  0.00000000E+00  5.12512011E-04 -2.50692183E-03  0.00000000E+00 -8.15396804E-05
  8.26846716E-04  0.00000000E+00  1.05388790E-04 -6.45813405E-05  0.00000000E+00
 -1.93546006E-04  0.00000000E+00  0.00000000E+00 -7.45737655E-05 -4.35366508E-05
  4.08793190E-04  0.00000000E+00  0.00000000E+00  8.59342386E-04  4.83993330E-04
 -2.04216967E-04  0.00000000E+00  0.00000000E+00 -1.47160029E-04 -3.67005178E-05
  0.00000000E+00 -5.11664765E-06  7.03460966E-05  0.00000000E+00  0.00000000E+00
 -2.83270509E-05  1.06621081E-05  0.00000000E+00 -8.83871607E-05  9.12966710E-05
  0.00000000E+00  0.00000000E+00 -1.68198255E-04  2.05582785E-04  3.71971310E-04
  1.93861770E-03  1.44997257E-03 -1.86126063E-05  5.13910558E-05  2.67678194E-04
  0.00000000E+00  3.99074271E-04  1.01180201E-03  0.00000000E+00 -1.36680539E-04
  2.32285373E-04  0.00000000E+00 -2.37548617E-05  0.00000000E+00  0.00000000E+00
  3.08991513E-05 -3.18061672E-05 -2.32110049E-04  0.00000000E+00  0.00000000E+00
 -3.39268646E-04  4.33630773E-04  9.76834541E-01 -9.19252460E-03  4.34630656E-02
  1.39900423E-04 -1.92880186E-03 -2.04846565E-03 -8.22756407E-04  0.00000000E+00
  2.08808855E-03  7.62454628E-04  0.00000000E+00 -3.97620319E-04  6.04962760E-04
  0.00000000E+00  2.30211547E-04 -2.91887484E-04  0.00000000E+00  3.14753657E-05
  0.00000000E+00  0.00000000E+00 -7.24980351E-05  6.59152504E-05  7.63013241E-04
  0.00000000E+00  0.00000000E+00 -2.17141438E-04  3.44292419E-04 -2.39628906E-04
  0.00000000E+00  0.00000000E+00  3.24103765E-04  1.86610329E-05  0.00000000E+00
 -8.08629117E-05  1.74361374E-06  0.00000000E+00  0.00000000E+00  1.54454549E-05