 Entering Gaussian System, Link 0=g16
 Input=hoono_a2_100p2402.gjf
 Output=hoono_a2_100p2402.log
 Initial command:
 /sw/contrib/gaussian/g16/B01/g16/l1.exe "/scr/Gau-22049.inp" -scrdir="/scr/"
 Entering Link 1 = /sw/contrib/gaussian/g16/B01/g16/l1.exe PID=     22051.
  
 Copyright (c) 1988-2017, Gaussian, Inc.  All Rights Reserved.
  
 This is part of the Gaussian(R) 16 program.  It is based on
 the Gaussian(R) 09 system (copyright 2009, Gaussian, Inc.),
 the Gaussian(R) 03 system (copyright 2003, Gaussian, Inc.),
 the Gaussian(R) 98 system (copyright 1998, Gaussian, Inc.),
 the Gaussian(R) 94 system (copyright 1995, Gaussian, Inc.),
 the Gaussian 92(TM) system (copyright 1992, Gaussian, Inc.),
 the Gaussian 90(TM) system (copyright 1990, Gaussian, Inc.),
 the Gaussian 88(TM) system (copyright 1988, Gaussian, Inc.),
 the Gaussian 86(TM) system (copyright 1986, Carnegie Mellon
 University), and the Gaussian 82(TM) system (copyright 1983,
 Carnegie Mellon University). Gaussian is a federally registered
 trademark of Gaussian, Inc.
  
 This software contains proprietary and confidential information,
 including trade secrets, belonging to Gaussian, Inc.
  
 This software is provided under written license and may be
 used, copied, transmitted, or stored only in accord with that
 written license.
  
 The following legend is applicable only to US Government
 contracts under FAR:
  
                    RESTRICTED RIGHTS LEGEND
  
 Use, reproduction and disclosure by the US Government is
 subject to restrictions as set forth in subparagraphs (a)
 and (c) of the Commercial Computer Software - Restricted
 Rights clause in FAR 52.227-19.
  
 Gaussian, Inc.
 340 Quinnipiac St., Bldg. 40, Wallingford CT 06492
  
  
 ---------------------------------------------------------------
 Warning -- This program may not be used in any manner that
 competes with the business of Gaussian, Inc. or will provide
 assistance to any competitor of Gaussian, Inc.  The licensee
 of this program is prohibited from giving any competitor of
 Gaussian, Inc. access to this program.  By using this program,
 the user acknowledges that Gaussian, Inc. is engaged in the
 business of creating and licensing software in the field of
 computational chemistry and represents and warrants to the
 licensee that it is not a competitor of Gaussian, Inc. and that
 it will not use this program in any manner prohibited above.
 ---------------------------------------------------------------
  

 Cite this work as:
 Gaussian 16, Revision B.01,
 M. J. Frisch, G. W. Trucks, H. B. Schlegel, G. E. Scuseria, 
 M. A. Robb, J. R. Cheeseman, G. Scalmani, V. Barone, 
 G. A. Petersson, H. Nakatsuji, X. Li, M. Caricato, A. V. Marenich, 
 J. Bloino, B. G. Janesko, R. Gomperts, B. Mennucci, H. P. Hratchian, 
 J. V. Ortiz, A. F. Izmaylov, J. L. Sonnenberg, D. Williams-Young, 
 F. Ding, F. Lipparini, F. Egidi, J. Goings, B. Peng, A. Petrone, 
 T. Henderson, D. Ranasinghe, V. G. Zakrzewski, J. Gao, N. Rega, 
 G. Zheng, W. Liang, M. Hada, M. Ehara, K. Toyota, R. Fukuda, 
 J. Hasegawa, M. Ishida, T. Nakajima, Y. Honda, O. Kitao, H. Nakai, 
 T. Vreven, K. Throssell, J. A. Montgomery, Jr., J. E. Peralta, 
 F. Ogliaro, M. J. Bearpark, J. J. Heyd, E. N. Brothers, K. N. Kudin, 
 V. N. Staroverov, T. A. Keith, R. Kobayashi, J. Normand, 
 K. Raghavachari, A. P. Rendell, J. C. Burant, S. S. Iyengar, 
 J. Tomasi, M. Cossi, J. M. Millam, M. Klene, C. Adamo, R. Cammi, 
 J. W. Ochterski, R. L. Martin, K. Morokuma, O. Farkas, 
 J. B. Foresman, and D. J. Fox, Gaussian, Inc., Wallingford CT, 2016.
 
 ******************************************
 Gaussian 16:  ES64L-G16RevB.01 20-Dec-2017
                21-Feb-2022 
 ******************************************
 %nproc=28
 Will use up to   28 processors via shared memory.
 %mem=120GB
 %chk=hoono_a2_100p2402.chk
 ---------------------------------------
 #p freq mp2/aug-cc-pvtz density=current
 ---------------------------------------
 1/10=4,30=1,38=1/1,3;
 2/12=2,17=6,18=5,40=1/2;
 3/5=16,6=1,7=10,11=9,25=1,30=1,71=2,140=1/1,2,3;
 4//1;
 5/5=2,38=5,98=1/2;
 8/6=3,8=1,10=1,19=11,30=-1/1;
 9/15=3,16=-3/6;
 11/6=1,8=1,15=11,17=12,24=-1,27=1,28=-2,29=300,32=6,42=3/1,2,10;
 10/6=2,21=1/2;
 8/6=4,8=1,10=1,19=11,30=-1/11,4;
 10/5=1,20=4/2;
 11/12=2,14=11,16=1,17=2,28=-2,42=3,76=2/2,10,12;
 6/7=2,8=2,9=2,10=2,22=-1/1;
 7/8=1,10=1,12=2,25=1,44=2/1,2,3,16;
 1/10=4,30=1/3;
 99//99;
 Leave Link    1 at Mon Feb 21 20:46:53 2022, MaxMem= 16106127360 cpu:               2.9 elap:               0.1
 (Enter /sw/contrib/gaussian/g16/B01/g16/l101.exe)
 -----
 title
 -----
 Symbolic Z-matrix:
 Charge =  0 Multiplicity = 1
 H
 O                    1    r1
 O                    2    r2       1    a1
 N                    3    r3       2    a2       1    d1       0
 O                    4    r4       3    a3       2    d2       0
       Variables:
  r1                    0.96898                  
  r2                    1.45492                  
  r3                    1.45878                  
  r4                    1.17073                  
  a1                   97.59495                  
  a2                  100.24027                  
  a3                  109.06955                  
  d1                  180.                       
  d2                  180.                       
 
 ITRead=  0  0  0  0  0
 MicOpt= -1 -1 -1 -1 -1
 NAtoms=      5 NQM=        5 NQMF=       0 NMMI=      0 NMMIF=      0
                NMic=       0 NMicF=      0.
                    Isotopes and Nuclear Properties:
 (Nuclear quadrupole moments (NQMom) in fm**2, nuclear magnetic moments (NMagM)
  in nuclear magnetons)

  Atom         1           2           3           4           5
 IAtWgt=           1          16          16          14          16
 AtmWgt=   1.0078250  15.9949146  15.9949146  14.0030740  15.9949146
 NucSpn=           1           0           0           2           0
 AtZEff=  -0.0000000  -0.0000000  -0.0000000  -0.0000000  -0.0000000
 NQMom=    0.0000000   0.0000000   0.0000000   2.0440000   0.0000000
 NMagM=    2.7928460   0.0000000   0.0000000   0.4037610   0.0000000
 AtZNuc=   1.0000000   8.0000000   8.0000000   7.0000000   8.0000000
 Leave Link  101 at Mon Feb 21 20:46:53 2022, MaxMem= 16106127360 cpu:               3.2 elap:               0.1
 (Enter /sw/contrib/gaussian/g16/B01/g16/l103.exe)

 GradGradGradGradGradGradGradGradGradGradGradGradGradGradGradGradGradGrad
 Berny optimization.
 Initialization pass.
                       ----------------------------
                       !    Initial Parameters    !
                       ! (Angstroms and Degrees)  !
 ----------------------                            ----------------------
 !      Name          Value   Derivative information (Atomic Units)     !
 ------------------------------------------------------------------------
 !       r1          0.969    calculate D2E/DX2 analytically            !
 !       r2          1.4549   calculate D2E/DX2 analytically            !
 !       r3          1.4588   calculate D2E/DX2 analytically            !
 !       r4          1.1707   calculate D2E/DX2 analytically            !
 !       a1         97.5949   calculate D2E/DX2 analytically            !
 !       a2        100.2403   calculate D2E/DX2 analytically            !
 !       a3        109.0696   calculate D2E/DX2 analytically            !
 !       d1        180.0      calculate D2E/DX2 analytically            !
 !       d2        180.0      calculate D2E/DX2 analytically            !
 ------------------------------------------------------------------------
 Trust Radius=3.00D-01 FncErr=1.00D-07 GrdErr=1.00D-07 EigMax=2.50D+02 EigMin=1.00D-04
 Number of steps in this run=      2 maximum allowed number of steps=      2.
 GradGradGradGradGradGradGradGradGradGradGradGradGradGradGradGradGradGrad

 Leave Link  103 at Mon Feb 21 20:46:53 2022, MaxMem= 16106127360 cpu:               0.5 elap:               0.0
 (Enter /sw/contrib/gaussian/g16/B01/g16/l202.exe)
                          Input orientation:                          
 ---------------------------------------------------------------------
 Center     Atomic      Atomic             Coordinates (Angstroms)
 Number     Number       Type             X           Y           Z
 ---------------------------------------------------------------------
      1          1           0        0.000000    0.000000    0.000000
      2          8           0        0.000000    0.000000    0.968976
      3          8           0        1.442156    0.000000    1.161271
      4          7           0        1.509483    0.000000    2.618500
      5          8           0        2.632440    0.000000    2.949521
 ---------------------------------------------------------------------
                    Distance matrix (angstroms):
                    1          2          3          4          5
     1  H    0.000000
     2  O    0.968976   0.000000
     3  O    1.851584   1.454919   0.000000
     4  N    3.022430   2.235950   1.458784   0.000000
     5  O    3.953405   3.294283   2.148165   1.170729   0.000000
 Stoichiometry    HNO3
 Framework group  CS[SG(HNO3)]
 Deg. of freedom     7
 Full point group                 CS      NOp   2
 Largest Abelian subgroup         CS      NOp   2
 Largest concise Abelian subgroup C1      NOp   1
                         Standard orientation:                         
 ---------------------------------------------------------------------
 Center     Atomic      Atomic             Coordinates (Angstroms)
 Number     Number       Type             X           Y           Z
 ---------------------------------------------------------------------
      1          1           0        1.586357    1.642726   -0.000000
      2          8           0        1.454910    0.682707   -0.000000
      3          8           0       -0.000000    0.687826   -0.000000
      4          7           0       -0.264386   -0.746800    0.000000
      5          8           0       -1.421867   -0.922425    0.000000
 ---------------------------------------------------------------------
 Rotational constants (GHZ):          53.1996589           5.0899666           4.6455005
 Leave Link  202 at Mon Feb 21 20:46:53 2022, MaxMem= 16106127360 cpu:               0.5 elap:               0.0
 (Enter /sw/contrib/gaussian/g16/B01/g16/l301.exe)
 Standard basis: Aug-CC-pVTZ (5D, 7F)
 Ernie: Thresh=  0.10000D-02 Tol=  0.10000D-05 Strict=F.
 Ernie:  12 primitive shells out of 131 were deleted.
 There are   166 symmetry adapted cartesian basis functions of A'  symmetry.
 There are    79 symmetry adapted cartesian basis functions of A"  symmetry.
 There are   136 symmetry adapted basis functions of A'  symmetry.
 There are    71 symmetry adapted basis functions of A"  symmetry.
   207 basis functions,   315 primitive gaussians,   245 cartesian basis functions
    16 alpha electrons       16 beta electrons
       nuclear repulsion energy       117.1558070906 Hartrees.
 IExCor=    0 DFT=F Ex=HF Corr=None ExCW=0 ScaHFX=  1.000000
 ScaDFX=  1.000000  1.000000  1.000000  1.000000 ScalE2=  1.000000  1.000000
 IRadAn=      5 IRanWt=     -1 IRanGd=            0 ICorTp=0 IEmpDi=  4
 NAtoms=    5 NActive=    5 NUniq=    5 SFac= 1.00D+00 NAtFMM=   60 NAOKFM=F Big=F
 Integral buffers will be    131072 words long.
 Raffenetti 1 integral format.
 Two-electron integral symmetry is turned on.
 Leave Link  301 at Mon Feb 21 20:46:53 2022, MaxMem= 16106127360 cpu:               2.4 elap:               0.1
 (Enter /sw/contrib/gaussian/g16/B01/g16/l302.exe)
 NPDir=0 NMtPBC=     1 NCelOv=     1 NCel=       1 NClECP=     1 NCelD=      1
         NCelK=      1 NCelE2=     1 NClLst=     1 CellRange=     0.0.
 One-electron integrals computed using PRISM.
 One-electron integral symmetry used in STVInt
 NBasis=   207 RedAO= T EigKep=  1.82D-04  NBF=   136    71
 NBsUse=   207 1.00D-06 EigRej= -1.00D+00 NBFU=   136    71
 Leave Link  302 at Mon Feb 21 20:46:54 2022, MaxMem= 16106127360 cpu:               4.6 elap:               0.2
 (Enter /sw/contrib/gaussian/g16/B01/g16/l303.exe)
 DipDrv:  MaxL=1.
 Leave Link  303 at Mon Feb 21 20:46:54 2022, MaxMem= 16106127360 cpu:               0.9 elap:               0.1
 (Enter /sw/contrib/gaussian/g16/B01/g16/l401.exe)
 ExpMin= 2.53D-02 ExpMax= 1.53D+04 ExpMxC= 5.22D+02 IAcc=3 IRadAn=         5 AccDes= 0.00D+00
 Harris functional with IExCor=  205 and IRadAn=       5 diagonalized for initial guess.
 HarFok:  IExCor=  205 AccDes= 0.00D+00 IRadAn=         5 IDoV= 1 UseB2=F ITyADJ=14
 ICtDFT=  3500011 ScaDFX=  1.000000  1.000000  1.000000  1.000000
 FoFCou: FMM=F IPFlag=           0 FMFlag=      100000 FMFlg1=           0
         NFxFlg=           0 DoJE=T BraDBF=F KetDBF=T FulRan=T
         wScrn=  0.000000 ICntrl=       500 IOpCl=  0 I1Cent=   200000004 NGrid=           0
         NMat0=    1 NMatS0=      1 NMatT0=    0 NMatD0=    1 NMtDS0=    0 NMtDT0=    0
 Petite list used in FoFCou.
 Harris En= -279.628150295454    
 JPrj=0 DoOrth=F DoCkMO=F.
 Initial guess orbital symmetries:
       Occupied  (A') (A') (A') (A') (A') (A') (A') (A') (A') (A')
                 (A") (A') (A') (A") (A") (A')
       Virtual   (A") (A') (A') (A') (A') (A') (A") (A') (A') (A')
                 (A") (A') (A") (A') (A') (A") (A') (A") (A') (A')
                 (A') (A') (A') (A') (A') (A") (A') (A") (A') (A')
                 (A") (A') (A") (A') (A') (A") (A') (A") (A') (A')
                 (A') (A") (A") (A') (A") (A') (A') (A') (A") (A")
                 (A') (A') (A') (A') (A") (A') (A") (A') (A") (A')
                 (A') (A') (A") (A') (A') (A") (A') (A") (A') (A')
                 (A") (A') (A') (A") (A") (A') (A') (A") (A') (A')
                 (A') (A") (A') (A") (A') (A") (A') (A") (A') (A')
                 (A') (A") (A') (A") (A') (A") (A") (A') (A') (A")
                 (A') (A') (A") (A') (A') (A') (A') (A") (A") (A')
                 (A") (A') (A') (A') (A") (A') (A') (A') (A") (A')
                 (A") (A') (A') (A") (A") (A') (A') (A") (A") (A')
                 (A') (A') (A') (A") (A") (A') (A") (A') (A') (A')
                 (A') (A") (A") (A') (A') (A") (A') (A') (A') (A')
                 (A") (A') (A') (A") (A') (A") (A') (A") (A") (A')
                 (A') (A") (A') (A") (A') (A") (A") (A") (A') (A')
                 (A") (A') (A") (A') (A") (A') (A") (A") (A') (A')
                 (A') (A') (A') (A') (A') (A') (A') (A') (A') (A')
                 (A')
 The electronic state of the initial guess is 1-A'.
 Leave Link  401 at Mon Feb 21 20:46:54 2022, MaxMem= 16106127360 cpu:               7.5 elap:               0.4
 (Enter /sw/contrib/gaussian/g16/B01/g16/l502.exe)
 Keep R1 ints in memory in symmetry-blocked form, NReq=348887737.
 FoFCou: FMM=F IPFlag=           0 FMFlag=           0 FMFlg1=           0
         NFxFlg=           0 DoJE=F BraDBF=F KetDBF=F FulRan=T
         wScrn=  0.000000 ICntrl=       600 IOpCl=  0 I1Cent=           0 NGrid=           0
         NMat0=    1 NMatS0=  21528 NMatT0=    0 NMatD0=    1 NMtDS0=    0 NMtDT0=    0
 Petite list used in FoFCou.
 Closed shell SCF:
 Using DIIS extrapolation, IDIIS=  1040.
 NGot= 16106127360 LenX= 15988850015 LenY= 15988789549
 Requested convergence on RMS density matrix=1.00D-08 within 128 cycles.
 Requested convergence on MAX density matrix=1.00D-06.
 Requested convergence on             energy=1.00D-06.
 No special actions if energy rises.

 Cycle   1  Pass 1  IDiag  1:
 E= -279.369848821776    
 DIIS: error= 2.87D-02 at cycle   1 NSaved=   1.
 NSaved= 1 IEnMin= 1 EnMin= -279.369848821776     IErMin= 1 ErrMin= 2.87D-02
 ErrMax= 2.87D-02  0.00D+00 EMaxC= 1.00D-01 BMatC= 4.39D-01 BMatP= 4.39D-01
 IDIUse=3 WtCom= 7.13D-01 WtEn= 2.87D-01
 Coeff-Com:  0.100D+01
 Coeff-En:   0.100D+01
 Coeff:      0.100D+01
 Gap=     0.514 Goal=   None    Shift=    0.000
 GapD=    0.514 DampG=2.000 DampE=0.500 DampFc=1.0000 IDamp=-1.
 RMSDP=1.62D-03 MaxDP=9.88D-02              OVMax= 1.14D-01

 Cycle   2  Pass 1  IDiag  1:
 E= -279.451835126983     Delta-E=       -0.081986305207 Rises=F Damp=F
 DIIS: error= 1.80D-02 at cycle   2 NSaved=   2.
 NSaved= 2 IEnMin= 2 EnMin= -279.451835126983     IErMin= 2 ErrMin= 1.80D-02
 ErrMax= 1.80D-02  0.00D+00 EMaxC= 1.00D-01 BMatC= 7.22D-02 BMatP= 4.39D-01
 IDIUse=3 WtCom= 8.20D-01 WtEn= 1.80D-01
 Coeff-Com:  0.196D+00 0.804D+00
 Coeff-En:   0.000D+00 0.100D+01
 Coeff:      0.160D+00 0.840D+00
 Gap=     0.530 Goal=   None    Shift=    0.000
 RMSDP=9.02D-04 MaxDP=3.73D-02 DE=-8.20D-02 OVMax= 6.94D-02

 Cycle   3  Pass 1  IDiag  1:
 E= -279.481133112318     Delta-E=       -0.029297985335 Rises=F Damp=F
 DIIS: error= 1.04D-02 at cycle   3 NSaved=   3.
 NSaved= 3 IEnMin= 3 EnMin= -279.481133112318     IErMin= 3 ErrMin= 1.04D-02
 ErrMax= 1.04D-02  0.00D+00 EMaxC= 1.00D-01 BMatC= 2.88D-02 BMatP= 7.22D-02
 IDIUse=3 WtCom= 8.96D-01 WtEn= 1.04D-01
 Coeff-Com: -0.329D-01 0.378D+00 0.655D+00
 Coeff-En:   0.000D+00 0.240D+00 0.760D+00
 Coeff:     -0.295D-01 0.363D+00 0.666D+00
 Gap=     0.511 Goal=   None    Shift=    0.000
 RMSDP=3.77D-04 MaxDP=1.53D-02 DE=-2.93D-02 OVMax= 3.81D-02

 Cycle   4  Pass 1  IDiag  1:
 E= -279.500222695335     Delta-E=       -0.019089583018 Rises=F Damp=F
 DIIS: error= 1.28D-03 at cycle   4 NSaved=   4.
 NSaved= 4 IEnMin= 4 EnMin= -279.500222695335     IErMin= 4 ErrMin= 1.28D-03
 ErrMax= 1.28D-03  0.00D+00 EMaxC= 1.00D-01 BMatC= 4.93D-04 BMatP= 2.88D-02
 IDIUse=3 WtCom= 9.87D-01 WtEn= 1.28D-02
 Coeff-Com: -0.117D-01 0.572D-01 0.159D+00 0.796D+00
 Coeff-En:   0.000D+00 0.000D+00 0.000D+00 0.100D+01
 Coeff:     -0.115D-01 0.565D-01 0.157D+00 0.798D+00
 Gap=     0.502 Goal=   None    Shift=    0.000
 RMSDP=9.00D-05 MaxDP=2.76D-03 DE=-1.91D-02 OVMax= 1.12D-02

 Cycle   5  Pass 1  IDiag  1:
 E= -279.500896252132     Delta-E=       -0.000673556796 Rises=F Damp=F
 DIIS: error= 7.20D-04 at cycle   5 NSaved=   5.
 NSaved= 5 IEnMin= 5 EnMin= -279.500896252132     IErMin= 5 ErrMin= 7.20D-04
 ErrMax= 7.20D-04  0.00D+00 EMaxC= 1.00D-01 BMatC= 8.66D-05 BMatP= 4.93D-04
 IDIUse=3 WtCom= 9.93D-01 WtEn= 7.20D-03
 Coeff-Com:  0.611D-02-0.720D-01-0.117D+00 0.189D-01 0.116D+01
 Coeff-En:   0.000D+00 0.000D+00 0.000D+00 0.000D+00 0.100D+01
 Coeff:      0.606D-02-0.715D-01-0.117D+00 0.188D-01 0.116D+01
 Gap=     0.502 Goal=   None    Shift=    0.000
 RMSDP=7.58D-05 MaxDP=2.09D-03 DE=-6.74D-04 OVMax= 1.10D-02

 Cycle   6  Pass 1  IDiag  1:
 E= -279.501208947463     Delta-E=       -0.000312695331 Rises=F Damp=F
 DIIS: error= 2.83D-04 at cycle   6 NSaved=   6.
 NSaved= 6 IEnMin= 6 EnMin= -279.501208947463     IErMin= 6 ErrMin= 2.83D-04
 ErrMax= 2.83D-04  0.00D+00 EMaxC= 1.00D-01 BMatC= 1.65D-05 BMatP= 8.66D-05
 IDIUse=3 WtCom= 9.97D-01 WtEn= 2.83D-03
 Coeff-Com:  0.625D-03 0.119D-02 0.379D-02-0.128D+00-0.227D+00 0.135D+01
 Coeff-En:   0.000D+00 0.000D+00 0.000D+00 0.000D+00 0.000D+00 0.100D+01
 Coeff:      0.624D-03 0.119D-02 0.377D-02-0.128D+00-0.227D+00 0.135D+01
 Gap=     0.503 Goal=   None    Shift=    0.000
 RMSDP=4.49D-05 MaxDP=1.23D-03 DE=-3.13D-04 OVMax= 5.50D-03

 Cycle   7  Pass 1  IDiag  1:
 E= -279.501280795181     Delta-E=       -0.000071847718 Rises=F Damp=F
 DIIS: error= 1.22D-04 at cycle   7 NSaved=   7.
 NSaved= 7 IEnMin= 7 EnMin= -279.501280795181     IErMin= 7 ErrMin= 1.22D-04
 ErrMax= 1.22D-04  0.00D+00 EMaxC= 1.00D-01 BMatC= 4.60D-06 BMatP= 1.65D-05
 IDIUse=3 WtCom= 9.99D-01 WtEn= 1.22D-03
 Coeff-Com: -0.926D-03 0.135D-01 0.263D-01-0.252D-01-0.291D+00 0.407D+00
 Coeff-Com:  0.870D+00
 Coeff-En:   0.000D+00 0.000D+00 0.000D+00 0.000D+00 0.000D+00 0.000D+00
 Coeff-En:   0.100D+01
 Coeff:     -0.924D-03 0.134D-01 0.263D-01-0.251D-01-0.290D+00 0.406D+00
 Coeff:      0.871D+00
 Gap=     0.503 Goal=   None    Shift=    0.000
 RMSDP=1.32D-05 MaxDP=3.73D-04 DE=-7.18D-05 OVMax= 1.54D-03

 Cycle   8  Pass 1  IDiag  1:
 E= -279.501289663788     Delta-E=       -0.000008868607 Rises=F Damp=F
 DIIS: error= 5.45D-05 at cycle   8 NSaved=   8.
 NSaved= 8 IEnMin= 8 EnMin= -279.501289663788     IErMin= 8 ErrMin= 5.45D-05
 ErrMax= 5.45D-05  0.00D+00 EMaxC= 1.00D-01 BMatC= 5.99D-07 BMatP= 4.60D-06
 IDIUse=1 WtCom= 1.00D+00 WtEn= 0.00D+00
 Coeff-Com: -0.447D-03 0.342D-02 0.757D-02 0.274D-01-0.406D-01-0.197D+00
 Coeff-Com:  0.160D+00 0.104D+01
 Coeff:     -0.447D-03 0.342D-02 0.757D-02 0.274D-01-0.406D-01-0.197D+00
 Coeff:      0.160D+00 0.104D+01
 Gap=     0.503 Goal=   None    Shift=    0.000
 RMSDP=6.87D-06 MaxDP=2.02D-04 DE=-8.87D-06 OVMax= 7.41D-04

 Cycle   9  Pass 1  IDiag  1:
 E= -279.501291426741     Delta-E=       -0.000001762954 Rises=F Damp=F
 DIIS: error= 1.70D-05 at cycle   9 NSaved=   9.
 NSaved= 9 IEnMin= 9 EnMin= -279.501291426741     IErMin= 9 ErrMin= 1.70D-05
 ErrMax= 1.70D-05  0.00D+00 EMaxC= 1.00D-01 BMatC= 6.69D-08 BMatP= 5.99D-07
 IDIUse=1 WtCom= 1.00D+00 WtEn= 0.00D+00
 Coeff-Com:  0.124D-03-0.172D-02-0.307D-02-0.230D-02 0.342D-01 0.116D-02
 Coeff-Com: -0.162D+00-0.117D+00 0.125D+01
 Coeff:      0.124D-03-0.172D-02-0.307D-02-0.230D-02 0.342D-01 0.116D-02
 Coeff:     -0.162D+00-0.117D+00 0.125D+01
 Gap=     0.503 Goal=   None    Shift=    0.000
 RMSDP=1.91D-06 MaxDP=6.62D-05 DE=-1.76D-06 OVMax= 1.74D-04

 Cycle  10  Pass 1  IDiag  1:
 E= -279.501291583055     Delta-E=       -0.000000156313 Rises=F Damp=F
 DIIS: error= 4.50D-06 at cycle  10 NSaved=  10.
 NSaved=10 IEnMin=10 EnMin= -279.501291583055     IErMin=10 ErrMin= 4.50D-06
 ErrMax= 4.50D-06  0.00D+00 EMaxC= 1.00D-01 BMatC= 5.43D-09 BMatP= 6.69D-08
 IDIUse=1 WtCom= 1.00D+00 WtEn= 0.00D+00
 Coeff-Com:  0.296D-04-0.228D-03-0.294D-03-0.263D-02 0.135D-02 0.192D-01
 Coeff-Com: -0.110D-01-0.732D-01-0.861D-01 0.115D+01
 Coeff:      0.296D-04-0.228D-03-0.294D-03-0.263D-02 0.135D-02 0.192D-01
 Coeff:     -0.110D-01-0.732D-01-0.861D-01 0.115D+01
 Gap=     0.503 Goal=   None    Shift=    0.000
 RMSDP=4.95D-07 MaxDP=2.07D-05 DE=-1.56D-07 OVMax= 4.17D-05

 Cycle  11  Pass 1  IDiag  1:
 E= -279.501291595222     Delta-E=       -0.000000012168 Rises=F Damp=F
 DIIS: error= 2.01D-06 at cycle  11 NSaved=  11.
 NSaved=11 IEnMin=11 EnMin= -279.501291595222     IErMin=11 ErrMin= 2.01D-06
 ErrMax= 2.01D-06  0.00D+00 EMaxC= 1.00D-01 BMatC= 6.44D-10 BMatP= 5.43D-09
 IDIUse=1 WtCom= 1.00D+00 WtEn= 0.00D+00
 Coeff-Com: -0.211D-04 0.241D-03 0.483D-03 0.534D-03-0.428D-02-0.344D-02
 Coeff-Com:  0.202D-01 0.319D-01-0.140D+00-0.173D+00 0.127D+01
 Coeff:     -0.211D-04 0.241D-03 0.483D-03 0.534D-03-0.428D-02-0.344D-02
 Coeff:      0.202D-01 0.319D-01-0.140D+00-0.173D+00 0.127D+01
 Gap=     0.503 Goal=   None    Shift=    0.000
 RMSDP=1.74D-07 MaxDP=6.29D-06 DE=-1.22D-08 OVMax= 1.73D-05

 Cycle  12  Pass 1  IDiag  1:
 E= -279.501291596976     Delta-E=       -0.000000001753 Rises=F Damp=F
 DIIS: error= 5.66D-07 at cycle  12 NSaved=  12.
 NSaved=12 IEnMin=12 EnMin= -279.501291596976     IErMin=12 ErrMin= 5.66D-07
 ErrMax= 5.66D-07  0.00D+00 EMaxC= 1.00D-01 BMatC= 6.98D-11 BMatP= 6.44D-10
 IDIUse=1 WtCom= 1.00D+00 WtEn= 0.00D+00
 Coeff-Com:  0.120D-05-0.284D-04-0.619D-04 0.182D-03 0.107D-02-0.230D-02
 Coeff-Com: -0.402D-02 0.541D-02 0.416D-01-0.118D+00-0.266D+00 0.134D+01
 Coeff:      0.120D-05-0.284D-04-0.619D-04 0.182D-03 0.107D-02-0.230D-02
 Coeff:     -0.402D-02 0.541D-02 0.416D-01-0.118D+00-0.266D+00 0.134D+01
 Gap=     0.503 Goal=   None    Shift=    0.000
 RMSDP=6.99D-08 MaxDP=2.73D-06 DE=-1.75D-09 OVMax= 6.68D-06

 Cycle  13  Pass 1  IDiag  1:
 E= -279.501291597198     Delta-E=       -0.000000000223 Rises=F Damp=F
 DIIS: error= 1.65D-07 at cycle  13 NSaved=  13.
 NSaved=13 IEnMin=13 EnMin= -279.501291597198     IErMin=13 ErrMin= 1.65D-07
 ErrMax= 1.65D-07  0.00D+00 EMaxC= 1.00D-01 BMatC= 3.93D-12 BMatP= 6.98D-11
 IDIUse=1 WtCom= 1.00D+00 WtEn= 0.00D+00
 Coeff-Com:  0.127D-05-0.139D-04-0.224D-04-0.885D-04 0.124D-03 0.747D-03
 Coeff-Com: -0.806D-03-0.329D-02 0.659D-03 0.416D-01-0.389D-01-0.322D+00
 Coeff-Com:  0.132D+01
 Coeff:      0.127D-05-0.139D-04-0.224D-04-0.885D-04 0.124D-03 0.747D-03
 Coeff:     -0.806D-03-0.329D-02 0.659D-03 0.416D-01-0.389D-01-0.322D+00
 Coeff:      0.132D+01
 Gap=     0.503 Goal=   None    Shift=    0.000
 RMSDP=1.88D-08 MaxDP=5.57D-07 DE=-2.23D-10 OVMax= 1.56D-06

 Cycle  14  Pass 1  IDiag  1:
 E= -279.501291597211     Delta-E=       -0.000000000013 Rises=F Damp=F
 DIIS: error= 2.40D-08 at cycle  14 NSaved=  14.
 NSaved=14 IEnMin=14 EnMin= -279.501291597211     IErMin=14 ErrMin= 2.40D-08
 ErrMax= 2.40D-08  0.00D+00 EMaxC= 1.00D-01 BMatC= 1.96D-13 BMatP= 3.93D-12
 IDIUse=1 WtCom= 1.00D+00 WtEn= 0.00D+00
 Coeff-Com: -0.192D-06 0.312D-05 0.560D-05 0.456D-05-0.827D-04 0.456D-04
 Coeff-Com:  0.274D-03 0.244D-03-0.248D-02 0.158D-02 0.168D-01-0.253D-01
 Coeff-Com: -0.202D+00 0.121D+01
 Coeff:     -0.192D-06 0.312D-05 0.560D-05 0.456D-05-0.827D-04 0.456D-04
 Coeff:      0.274D-03 0.244D-03-0.248D-02 0.158D-02 0.168D-01-0.253D-01
 Coeff:     -0.202D+00 0.121D+01
 Gap=     0.503 Goal=   None    Shift=    0.000
 RMSDP=3.78D-09 MaxDP=8.92D-08 DE=-1.28D-11 OVMax= 3.42D-07

 SCF Done:  E(RHF) =  -279.501291597     A.U. after   14 cycles
            NFock= 14  Conv=0.38D-08     -V/T= 2.0023
 KE= 2.788582166918D+02 PE=-8.956542819817D+02 EE= 2.201389666021D+02
 Leave Link  502 at Mon Feb 21 20:46:58 2022, MaxMem= 16106127360 cpu:              55.1 elap:               3.5
 (Enter /sw/contrib/gaussian/g16/B01/g16/l801.exe)
 ExpMin= 2.53D-02 ExpMax= 1.53D+04 ExpMxC= 5.22D+02 IAcc=3 IRadAn=         5 AccDes= 0.00D+00
 HarFok:  IExCor=  205 AccDes= 0.00D+00 IRadAn=         5 IDoV=-2 UseB2=F ITyADJ=14
 ICtDFT= 12500011 ScaDFX=  1.000000  1.000000  1.000000  1.000000
 Largest valence mixing into a core orbital is  2.08D-04
 Largest core mixing into a valence orbital is  3.64D-05
 Range of M.O.s used for correlation:     5   207
 NBasis=   207 NAE=    16 NBE=    16 NFC=     4 NFV=     0
 NROrb=    203 NOA=    12 NOB=    12 NVA=   191 NVB=   191

 **** Warning!!: The largest alpha MO coefficient is  0.18193271D+02

 Leave Link  801 at Mon Feb 21 20:46:58 2022, MaxMem= 16106127360 cpu:               2.3 elap:               0.1
 (Enter /sw/contrib/gaussian/g16/B01/g16/l906.exe)
 Frozen-core derivative calculation, NFC=   4 NFV=   0.
 FulOut=F Deriv=T AODrv=T NAtomX=     5
   MMem=           0  MDisk=          12 MDiskD=          12
  W3Min=      811440 MinDsk=     2425030 NBas6D=         245
 NBas2D=       30762    NTT=       30135    LW2=     7400000
    MDV= 16105574283 MDiskM=      328644 NBas2p=       30702
 Disk-based method using ON**2 memory for 12 occupieds at a time.
 Permanent disk used for amplitudes=    11516536 words.
 Estimated scratch disk usage=   321251614 words.
 IMap=   1   2   3   4   5   6   7   8   9  10  11  12  13  14  15  16
 Actual    scratch disk usage=   310331678 words.
 JobTyp=1 Pass  1:  I=   5 to  16 NPSUse= 28 ParTrn=T ParDer=T DoDerP=T.
 (rs|ai) integrals will be sorted in core.
 Spin components of T(2) and E(2):
     alpha-alpha T2 =       0.3402263673D-01 E2=     -0.1224402218D+00
     alpha-beta  T2 =       0.1868703106D+00 E2=     -0.7003762693D+00
     beta-beta   T2 =       0.3402263673D-01 E2=     -0.1224402218D+00
 The integrals were generated   1 times.
 ANorm=    0.1120230148D+01
 E2 =    -0.9452567129D+00 EUMP2 =    -0.28044654831006D+03
 Leave Link  906 at Mon Feb 21 20:48:34 2022, MaxMem= 16106127360 cpu:            2700.6 elap:              96.6
 (Enter /sw/contrib/gaussian/g16/B01/g16/l1101.exe)
 Using compressed Sx but separate Hx and Fx, NAtomX=     5.
 Will process      6 centers per pass.
 Leave Link 1101 at Mon Feb 21 20:48:35 2022, MaxMem= 16106127360 cpu:               5.4 elap:               0.2
 (Enter /sw/contrib/gaussian/g16/B01/g16/l1102.exe)
 Leave Link 1102 at Mon Feb 21 20:48:35 2022, MaxMem= 16106127360 cpu:               0.5 elap:               0.0
 (Enter /sw/contrib/gaussian/g16/B01/g16/l1110.exe)
 Forming Gx(P) for the SCF density, NAtomX=     5.
 Integral derivatives from FoFJK, PRISM(SPDF).
 Do as many integral derivatives as possible in FoFJK.
 G2DrvN: MDV=   16106126844.
 G2DrvN: will do     6 centers at a time, making    1 passes.
 Calling FoFCou, ICntrl=  3107 FMM=F I1Cent=   0 AccDes= 0.00D+00.
 FoFJK:  IHMeth= 1 ICntrl=    3107 DoSepK=F KAlg= 0 I1Cent=           0 FoldK=F
 IRaf=         0 NMat=       1 IRICut=       1 DoRegI=T DoRafI=F ISym2E= 1 IDoP0=0 IntGTp=1.
 FoFCou: FMM=F IPFlag=           0 FMFlag=      100000 FMFlg1=           0
         NFxFlg=           0 DoJE=F BraDBF=F KetDBF=F FulRan=T
         wScrn=  0.000000 ICntrl=      3107 IOpCl=  0 I1Cent=           0 NGrid=           0
         NMat0=    1 NMatS0=      1 NMatT0=    0 NMatD0=    1 NMtDS0=    0 NMtDT0=    0
 Petite list used in FoFCou.
 End of G2Drv F.D. properties file   721 does not exist.
 End of G2Drv F.D. properties file   722 does not exist.
 End of G2Drv F.D. properties file   788 does not exist.
 Leave Link 1110 at Mon Feb 21 20:48:38 2022, MaxMem= 16106127360 cpu:              83.6 elap:               3.0
 (Enter /sw/contrib/gaussian/g16/B01/g16/l1002.exe)
 Minotr:  Closed shell wavefunction.
          IDoAtm=11111
          Frozen-core window.
          Direct CPHF calculation.
          Differentiating once with respect to electric field.
                with respect to dipole field.
          Differentiating once with respect to nuclear coordinates.
          Requested convergence is 1.0D-08 RMS, and 1.0D-07 maximum.
          Secondary convergence is 1.0D-12 RMS, and 1.0D-12 maximum.
          NewPWx=T KeepS1=T KeepF1=T KeepIn=T MapXYZ=F SortEE=F KeepMc=T.
 Keep R1 ints in memory in symmetry-blocked form, NReq=348888983.
 FoFCou: FMM=F IPFlag=           0 FMFlag=           0 FMFlg1=           0
         NFxFlg=           0 DoJE=F BraDBF=F KetDBF=F FulRan=T
         wScrn=  0.000000 ICntrl=       600 IOpCl=  0 I1Cent=           0 NGrid=           0
         NMat0=    1 NMatS0=  21528 NMatT0=    0 NMatD0=    1 NMtDS0=    0 NMtDT0=    0
 Petite list used in FoFCou.
          MDV=   16106127360 using IRadAn=       1.
          Solving linear equations simultaneously, MaxMat=       0.
          There are    18 degrees of freedom in the 1st order CPHF.  IDoFFX=6 NUNeed=    18.
     15 vectors produced by pass  0 Test12= 1.70D-14 5.56D-09 XBig12= 8.28D+00 1.06D+00.
 AX will form    15 AO Fock derivatives at one time.
     15 vectors produced by pass  1 Test12= 1.70D-14 5.56D-09 XBig12= 1.34D+00 2.79D-01.
     15 vectors produced by pass  2 Test12= 1.70D-14 5.56D-09 XBig12= 1.40D-01 9.57D-02.
     15 vectors produced by pass  3 Test12= 1.70D-14 5.56D-09 XBig12= 4.83D-03 1.06D-02.
     15 vectors produced by pass  4 Test12= 1.70D-14 5.56D-09 XBig12= 9.71D-05 1.86D-03.
     15 vectors produced by pass  5 Test12= 1.70D-14 5.56D-09 XBig12= 1.41D-06 1.70D-04.
     15 vectors produced by pass  6 Test12= 1.70D-14 5.56D-09 XBig12= 1.12D-08 1.43D-05.
     13 vectors produced by pass  7 Test12= 1.70D-14 5.56D-09 XBig12= 8.16D-11 1.30D-06.
      3 vectors produced by pass  8 Test12= 1.70D-14 5.56D-09 XBig12= 5.59D-13 1.20D-07.
      2 vectors produced by pass  9 Test12= 1.70D-14 5.56D-09 XBig12= 3.60D-15 1.02D-08.
 InvSVY:  IOpt=1 It=  1 EMax= 9.99D-16
 Solved reduced A of dimension   123 with    15 vectors.
 FullF1:  Do perturbations      1 to      18.
 Saving first derivative matrices.
 End of Minotr F.D. properties file   721 does not exist.
 End of Minotr F.D. properties file   722 does not exist.
 End of Minotr F.D. properties file   788 does not exist.
 Leave Link 1002 at Mon Feb 21 20:48:40 2022, MaxMem= 16106127360 cpu:              78.7 elap:               2.8
 (Enter /sw/contrib/gaussian/g16/B01/g16/l811.exe)
 MDV= 16106127360.
 Form MO integral derivatives with frozen-active canonical formalism.
 MOERI=1 MOERIx=1 NAtoms=     5 NAtomX=     5.
 Discarding MO integrals.
 MO basis two electron integral derivatives will not be stored on disk.
 IAlg= 3 DoFC=T DoPWx=T Debug=F.
 Frozen-core window:  NFC=   4 NFV=   0.
 Reordered first order wavefunction length =     18678272
 In DefCFB: NBatch=  1 ICI= 16 ICA=191 LFMax= 96
            Large arrays: LIAPS=   619940160 LIARS=   288257200 words.
 In StABat: MaxSiz= 55 MinSiz= 25 NAtomB=  5
 DoIAMN: NPSUse= 28.
 Leave Link  811 at Mon Feb 21 20:50:02 2022, MaxMem= 16106127360 cpu:            2273.2 elap:              81.4
 (Enter /sw/contrib/gaussian/g16/B01/g16/l804.exe)
 Frozen-core window:  NFC=   4 NFV=   0.
 Closed-shell transformation, MDV= 16106127360 ITran=4 ISComp=1.
 Semi-Direct transformation.
 ModeAB=           2 MOrb=            16 LenV=   16104922981
 LASXX=     67341636 LTotXX=    67341636 LenRXX=    67341636
 LTotAB=    68301760 MaxLAS=    99807120 LenRXY=    99807120
 NonZer=   134683272 LenScr=   202817536 LnRSAI=           0
 LnScr1=           0 LExtra=           0 Total=    369966292
 MaxDsk=          -1 SrtSym=           F ITran=            4
 DoSDTr:  NPSUse= 28
 JobTyp=0 Pass  1:  I=   1 to  16.
 (rs|ai) integrals will be sorted in core.
 Complete sort for first half transformation.
 First half transformation complete.
 Begin second half transformation for I=  10.
 Begin second half transformation for I=  10.
 Complete sort for second half transformation.
 Second half transformation complete.
 Spin components of T(2) and E(2):
     alpha-alpha T2 =       0.3402263673D-01 E2=     -0.1224402218D+00
     alpha-beta  T2 =       0.1868703106D+00 E2=     -0.7003762693D+00
     beta-beta   T2 =       0.3402263673D-01 E2=     -0.1224402218D+00
 ANorm=    0.1584244668D+01
 E2 =    -0.9452567129D+00 EUMP2 =    -0.28044654831006D+03
 Leave Link  804 at Mon Feb 21 20:50:17 2022, MaxMem= 16106127360 cpu:             431.1 elap:              15.4
 (Enter /sw/contrib/gaussian/g16/B01/g16/l1002.exe)
 Minotr:  Closed shell wavefunction.
          Computing MP2/KS-MP2 derivatives.
          Using Z-Vector for PSCF gradient.
          Skipping F1 and S1 gradient terms here.
          IDoAtm=11111
          Frozen-core window.
          Using MO integrals in the linear equations.
          Forming densities via direct SCF.
          Differentiating once with respect to electric field.
                with respect to dipole field.
          Differentiating once with respect to nuclear coordinates.
          Using symmetry in CPHF.
          Requested convergence is 1.0D-10 RMS, and 1.0D-09 maximum.
          NewPWx=F KeepS1=T KeepF1=T KeepIn=T MapXYZ=F SortEE=F KeepMc=T.
          MDV=   16106127360 using IRadAn=       5.
          Solving linear equations separately, MaxMat=       0.
          There are     1 degrees of freedom in the 1st order CPHF.  IDoFFX=0 NUNeed=     1.
 FoFJK:  IHMeth= 1 ICntrl=       0 DoSepK=F KAlg= 0 I1Cent=           0 FoldK=F
 IRaf=         0 NMat=       1 IRICut=       1 DoRegI=T DoRafI=F ISym2E= 0 IDoP0=0 IntGTp=1.
 FoFCou: FMM=F IPFlag=           0 FMFlag=      100000 FMFlg1=           0
         NFxFlg=           0 DoJE=F BraDBF=F KetDBF=F FulRan=T
         wScrn=  0.000000 ICntrl=         0 IOpCl=  0 I1Cent=           0 NGrid=           0
         NMat0=    1 NMatS0=      1 NMatT0=    0 NMatD0=    1 NMtDS0=    0 NMtDT0=    0
 Symmetry not used in FoFCou.
 LinEq1:  Iter=  0 NonCon=     1 RMS=5.93D-03 Max=1.33D-01 NDo=     1
 LinEq1:  Iter=  1 NonCon=     1 RMS=1.89D-03 Max=3.83D-02 NDo=     1
 LinEq1:  Iter=  2 NonCon=     1 RMS=8.65D-04 Max=1.47D-02 NDo=     1
 LinEq1:  Iter=  3 NonCon=     1 RMS=3.85D-04 Max=7.72D-03 NDo=     1
 LinEq1:  Iter=  4 NonCon=     1 RMS=1.18D-04 Max=1.86D-03 NDo=     1
 LinEq1:  Iter=  5 NonCon=     1 RMS=4.33D-05 Max=6.95D-04 NDo=     1
 LinEq1:  Iter=  6 NonCon=     1 RMS=1.95D-05 Max=2.16D-04 NDo=     1
 LinEq1:  Iter=  7 NonCon=     1 RMS=7.93D-06 Max=1.59D-04 NDo=     1
 LinEq1:  Iter=  8 NonCon=     1 RMS=3.41D-06 Max=3.35D-05 NDo=     1
 LinEq1:  Iter=  9 NonCon=     1 RMS=9.38D-07 Max=1.33D-05 NDo=     1
 LinEq1:  Iter= 10 NonCon=     1 RMS=1.84D-07 Max=2.02D-06 NDo=     1
 LinEq1:  Iter= 11 NonCon=     1 RMS=3.48D-08 Max=3.85D-07 NDo=     1
 LinEq1:  Iter= 12 NonCon=     1 RMS=8.42D-09 Max=1.37D-07 NDo=     1
 LinEq1:  Iter= 13 NonCon=     1 RMS=1.53D-09 Max=2.58D-08 NDo=     1
 LinEq1:  Iter= 14 NonCon=     1 RMS=2.72D-10 Max=3.99D-09 NDo=     1
 LinEq1:  Iter= 15 NonCon=     0 RMS=4.85D-11 Max=5.28D-10 NDo=     1
 Linear equations converged to 1.000D-10 1.000D-09 after    15 iterations.
 End of Minotr F.D. properties file   721 does not exist.
 End of Minotr F.D. properties file   722 does not exist.
 End of Minotr F.D. properties file   788 does not exist.
 Leave Link 1002 at Mon Feb 21 20:50:20 2022, MaxMem= 16106127360 cpu:              65.2 elap:               2.4
 (Enter /sw/contrib/gaussian/g16/B01/g16/l1102.exe)
 Use density number 2.
 Symmetrizing basis deriv contribution to polar:
 IMax=3 JMax=2 DiffMx= 0.00D+00
 Leave Link 1102 at Mon Feb 21 20:50:20 2022, MaxMem= 16106127360 cpu:               0.6 elap:               0.1
 (Enter /sw/contrib/gaussian/g16/B01/g16/l1110.exe)
 Forming Gx(P) for generalized density number  2 NAtomX=     5.
 Integral derivatives from FoFJK, PRISM(SPDF).
 Do as many integral derivatives as possible in FoFJK.
 G2DrvN: MDV=   16106126844.
 G2DrvN: will do     6 centers at a time, making    1 passes.
 Calling FoFCou, ICntrl=  3107 FMM=F I1Cent=   0 AccDes= 0.00D+00.
 FoFJK:  IHMeth= 1 ICntrl=    3107 DoSepK=F KAlg= 0 I1Cent=           0 FoldK=F
 IRaf=         0 NMat=       1 IRICut=       1 DoRegI=T DoRafI=F ISym2E= 1 IDoP0=0 IntGTp=1.
 FoFCou: FMM=F IPFlag=           0 FMFlag=      100000 FMFlg1=           0
         NFxFlg=           0 DoJE=F BraDBF=F KetDBF=F FulRan=T
         wScrn=  0.000000 ICntrl=      3107 IOpCl=  0 I1Cent=           0 NGrid=           0
         NMat0=    1 NMatS0=      1 NMatT0=    0 NMatD0=    1 NMtDS0=    0 NMtDT0=    0
 Petite list used in FoFCou.
 End of G2Drv F.D. properties file   721 does not exist.
 End of G2Drv F.D. properties file   722 does not exist.
 End of G2Drv F.D. properties file   788 does not exist.
 Leave Link 1110 at Mon Feb 21 20:50:23 2022, MaxMem= 16106127360 cpu:              83.5 elap:               3.0
 (Enter /sw/contrib/gaussian/g16/B01/g16/l1112.exe)
 MP22nd: MDV=   16106127360
 This link is doing NAtomX=     5 total of    18 degrees of freedom.
 Using ON3 I/O method in MakUI.
 Frozen-core window:  NFC=   4 NFV=   0.
 Using Ix for Sx.
 Use MO integrals over full window.
 Using OV2 memory method for fx*t*t/D, MaxI=    16 DoOO2=F NP=  28.
 R2 and R3 integrals will be kept in memory, NReq=   915591705.
 FoFCou: FMM=F IPFlag=           0 FMFlag=           0 FMFlg1=           0
         NFxFlg=           0 DoJE=F BraDBF=F KetDBF=F FulRan=T
         wScrn=  0.000000 ICntrl=       600 IOpCl=  0 I1Cent=           0 NGrid=           0
         NMat0=    1 NMatS0=      1 NMatT0=    0 NMatD0=    1 NMtDS0=    0 NMtDT0=    0
 Symmetry not used in FoFCou.
 DD1Dir will call FoFMem   1 times, MxPair=       272
 NAB=   136 NAA=     0 NBB=     0.
 Symmetry is being used.
 FoFJK:  IHMeth= 1 ICntrl=       0 DoSepK=F KAlg= 0 I1Cent=           0 FoldK=F
 IRaf=         0 NMat=      18 IRICut=      45 DoRegI=T DoRafI=T ISym2E= 2 IDoP0=3 IntGTp=3.
 Discarding MO integrals.
 Leave Link 1112 at Mon Feb 21 20:51:06 2022, MaxMem= 16106127360 cpu:            1188.4 elap:              43.1
 (Enter /sw/contrib/gaussian/g16/B01/g16/l601.exe)
 Copying SCF densities to generalized density rwf, IOpCl= 0 IROHF=0.

 **********************************************************************

            Population analysis using the MP2 Density.

 **********************************************************************

 Orbital symmetries:
       Occupied  (A') (A') (A') (A') (A') (A') (A') (A') (A') (A')
                 (A") (A') (A") (A') (A") (A')
       Virtual   (A') (A") (A') (A') (A') (A") (A') (A') (A") (A')
                 (A") (A') (A') (A') (A") (A') (A') (A") (A') (A')
                 (A') (A') (A') (A') (A") (A') (A') (A") (A') (A')
                 (A") (A') (A") (A') (A') (A") (A') (A') (A") (A')
                 (A") (A') (A") (A') (A') (A") (A') (A') (A") (A')
                 (A') (A") (A') (A') (A") (A') (A") (A') (A") (A')
                 (A') (A') (A") (A') (A') (A") (A') (A") (A') (A')
                 (A") (A') (A') (A") (A") (A') (A') (A") (A') (A')
                 (A') (A") (A') (A") (A') (A") (A') (A") (A') (A')
                 (A") (A') (A') (A") (A') (A") (A') (A") (A') (A')
                 (A") (A') (A") (A') (A') (A") (A') (A') (A") (A')
                 (A") (A') (A') (A') (A") (A') (A') (A') (A") (A')
                 (A") (A') (A") (A') (A') (A") (A") (A') (A") (A')
                 (A') (A') (A') (A") (A") (A") (A') (A') (A') (A')
                 (A") (A') (A") (A') (A') (A") (A') (A') (A') (A')
                 (A") (A') (A') (A") (A') (A") (A') (A") (A") (A')
                 (A') (A") (A') (A') (A") (A") (A") (A') (A") (A')
                 (A") (A') (A") (A') (A") (A') (A") (A") (A') (A')
                 (A') (A') (A') (A') (A') (A') (A') (A') (A') (A')
                 (A')
 The electronic state is 1-A'.
 Alpha  occ. eigenvalues --  -20.69137 -20.68384 -20.65928 -15.81220  -1.62411
 Alpha  occ. eigenvalues --   -1.49634  -1.25338  -0.94851  -0.77444  -0.75831
 Alpha  occ. eigenvalues --   -0.71210  -0.67608  -0.61988  -0.59093  -0.48538
 Alpha  occ. eigenvalues --   -0.47292
 Alpha virt. eigenvalues --    0.02962   0.07193   0.08591   0.10116   0.13413
 Alpha virt. eigenvalues --    0.13419   0.14433   0.15516   0.17816   0.19391
 Alpha virt. eigenvalues --    0.19961   0.20637   0.22115   0.23554   0.23756
 Alpha virt. eigenvalues --    0.26465   0.29306   0.30506   0.31012   0.34298
 Alpha virt. eigenvalues --    0.35040   0.38817   0.42121   0.43037   0.52702
 Alpha virt. eigenvalues --    0.53077   0.56135   0.58482   0.62626   0.63655
 Alpha virt. eigenvalues --    0.67410   0.68429   0.70517   0.71263   0.72367
 Alpha virt. eigenvalues --    0.73060   0.74475   0.78926   0.79186   0.80933
 Alpha virt. eigenvalues --    0.81301   0.83258   0.86826   0.90711   0.92309
 Alpha virt. eigenvalues --    0.92569   0.95984   0.98489   0.98644   1.01656
 Alpha virt. eigenvalues --    1.05326   1.05344   1.08813   1.12268   1.14500
 Alpha virt. eigenvalues --    1.18733   1.22269   1.23077   1.33717   1.34884
 Alpha virt. eigenvalues --    1.38862   1.45223   1.48745   1.50877   1.54060
 Alpha virt. eigenvalues --    1.56880   1.58115   1.61655   1.66471   1.67073
 Alpha virt. eigenvalues --    1.70322   1.79206   1.82679   1.83219   1.88014
 Alpha virt. eigenvalues --    1.91341   1.95970   1.99405   2.00639   2.07646
 Alpha virt. eigenvalues --    2.11631   2.13056   2.15062   2.22510   2.26351
 Alpha virt. eigenvalues --    2.26555   2.28745   2.31836   2.35566   2.38875
 Alpha virt. eigenvalues --    2.42793   2.42865   2.45319   2.46485   2.47728
 Alpha virt. eigenvalues --    2.50927   2.59001   2.59426   2.61788   2.62820
 Alpha virt. eigenvalues --    2.63010   2.67157   2.76344   2.83311   2.87020
 Alpha virt. eigenvalues --    2.89324   2.89843   2.92220   2.95584   3.03741
 Alpha virt. eigenvalues --    3.07376   3.12709   3.20762   3.23396   3.31446
 Alpha virt. eigenvalues --    3.33099   3.50184   3.65573   3.84074   3.84458
 Alpha virt. eigenvalues --    4.15139   4.16183   4.18614   4.26312   4.34561
 Alpha virt. eigenvalues --    4.39749   4.46421   4.51736   4.67472   4.71192
 Alpha virt. eigenvalues --    4.81078   4.82262   4.83118   4.89769   5.02125
 Alpha virt. eigenvalues --    5.07691   5.09981   5.13880   5.18642   5.24853
 Alpha virt. eigenvalues --    5.27092   5.30837   5.33564   5.36742   5.62279
 Alpha virt. eigenvalues --    5.67406   5.77322   5.82922   5.95750   6.17611
 Alpha virt. eigenvalues --    6.30873   6.33598   6.39263   6.49271   6.50372
 Alpha virt. eigenvalues --    6.61774   6.66413   6.69706   6.76371   6.76447
 Alpha virt. eigenvalues --    6.83481   6.89550   7.00831   7.05008   7.05815
 Alpha virt. eigenvalues --    7.09044   7.12695   7.15328   7.18337   7.22178
 Alpha virt. eigenvalues --    7.24469   7.31145   7.32445   7.35913   7.40393
 Alpha virt. eigenvalues --    7.42838   7.48812   7.60136   7.61747   7.63760
 Alpha virt. eigenvalues --    7.67182   7.79686   7.89778   8.08540   8.31621
 Alpha virt. eigenvalues --    8.40943   8.54333  13.40826  14.35217  15.18739
 Alpha virt. eigenvalues --   16.15726
          Condensed to atoms (all electrons):
               1          2          3          4          5
     1  H    0.593985   0.127372   0.018393   0.013863  -0.000830
     2  O    0.127372   8.322191  -0.170116  -0.098842   0.016305
     3  O    0.018393  -0.170116   8.470287  -0.127047  -0.041023
     4  N    0.013863  -0.098842  -0.127047   6.973066  -0.056257
     5  O   -0.000830   0.016305  -0.041023  -0.056257   8.276833
 Mulliken charges:
               1
     1  H    0.247217
     2  O   -0.196910
     3  O   -0.150494
     4  N    0.295216
     5  O   -0.195029
 Sum of Mulliken charges =  -0.00000
 Mulliken charges with hydrogens summed into heavy atoms:
               1
     2  O    0.050307
     3  O   -0.150494
     4  N    0.295216
     5  O   -0.195029
 APT charges:
               1
     1  H    0.298227
     2  O   -0.278340
     3  O   -0.500768
     4  N    0.871248
     5  O   -0.390368
 Sum of APT charges =  -0.00000
 APT charges with hydrogens summed into heavy atoms:
               1
     2  O    0.019887
     3  O   -0.500768
     4  N    0.871248
     5  O   -0.390368
 Electronic spatial extent (au):  <R**2>=            250.5836
 Charge=             -0.0000 electrons
 Dipole moment (field-independent basis, Debye):
    X=              0.5588    Y=              1.3425    Z=             -0.0000  Tot=              1.4542
 Quadrupole moment (field-independent basis, Debye-Ang):
   XX=            -22.2540   YY=            -18.8248   ZZ=            -22.0063
   XY=              3.3140   XZ=             -0.0000   YZ=              0.0000
 Traceless Quadrupole moment (field-independent basis, Debye-Ang):
   XX=             -1.2256   YY=              2.2036   ZZ=             -0.9780
   XY=              3.3140   XZ=             -0.0000   YZ=              0.0000
 Octapole moment (field-independent basis, Debye-Ang**2):
  XXX=              3.4455  YYY=             10.5498  ZZZ=              0.0000  XYY=              7.8031
  XXY=              6.8900  XXZ=             -0.0000  XZZ=             -1.5818  YZZ=             -0.8344
  YYZ=             -0.0000  XYZ=             -0.0000
 Hexadecapole moment (field-independent basis, Debye-Ang**3):
 XXXX=           -157.9689 YYYY=            -88.0078 ZZZZ=            -18.2336 XXXY=            -34.6833
 XXXZ=              0.0000 YYYX=            -30.1221 YYYZ=              0.0000 ZZZX=              0.0000
 ZZZY=              0.0000 XXYY=            -33.4291 XXZZ=            -30.9895 YYZZ=            -20.0971
 XXYZ=              0.0000 YYXZ=              0.0000 ZZXY=            -14.5794
 N-N= 1.171558070906D+02 E-N=-8.964403616175D+02  KE= 2.802102130648D+02
 Symmetry A'   KE= 2.662374536873D+02
 Symmetry A"   KE= 1.397275937753D+01
  Exact polarizability:  34.005   9.198  29.874  -0.000  -0.000  17.902
 Approx polarizability:  29.018   4.851  23.411  -0.000  -0.000  15.513
 No NMR shielding tensors so no spin-rotation constants.
 Leave Link  601 at Mon Feb 21 20:51:06 2022, MaxMem= 16106127360 cpu:               4.2 elap:               0.2
 (Enter /sw/contrib/gaussian/g16/B01/g16/l701.exe)
 ... and contract with generalized density number  2.
 Compute integral second derivatives.
 Leave Link  701 at Mon Feb 21 20:51:07 2022, MaxMem= 16106127360 cpu:               6.7 elap:               0.3
 (Enter /sw/contrib/gaussian/g16/B01/g16/l702.exe)
 L702 exits ... SP integral derivatives will be done elsewhere.
 Leave Link  702 at Mon Feb 21 20:51:07 2022, MaxMem= 16106127360 cpu:               0.6 elap:               0.0
 (Enter /sw/contrib/gaussian/g16/B01/g16/l703.exe)
 Integral derivatives from FoFJK, PRISM(SPDF).
 Compute integral second derivatives, UseDBF=F ICtDFT=           0.
 Calling FoFJK, ICntrl=  10100127 FMM=F ISym2X=1 I1Cent= 0 IOpClX= 0 NMat=1 NMatS=1 NMatT=0.
 FoFJK:  IHMeth= 1 ICntrl=10100127 DoSepK=F KAlg= 0 I1Cent=           0 FoldK=F
 IRaf=         0 NMat=       1 IRICut=       1 DoRegI=T DoRafI=F ISym2E= 1 IDoP0=0 IntGTp=1.
 FoFCou: FMM=F IPFlag=           0 FMFlag=      100000 FMFlg1=         800
         NFxFlg=           0 DoJE=F BraDBF=F KetDBF=F FulRan=T
         wScrn=  0.000000 ICntrl=  10100127 IOpCl=  0 I1Cent=           0 NGrid=           0
         NMat0=    1 NMatS0=      1 NMatT0=    0 NMatD0=    1 NMtDS0=    0 NMtDT0=    0
 Petite list used in FoFCou.
 Leave Link  703 at Mon Feb 21 20:51:22 2022, MaxMem= 16106127360 cpu:             422.2 elap:              15.1
 (Enter /sw/contrib/gaussian/g16/B01/g16/l716.exe)
 Dipole        = 2.19836717D-01 5.28193578D-01-7.12812361D-33
 Polarizability= 3.40050844D+01 9.19846578D+00 2.98742268D+01
                -1.18721527D-31-6.22865273D-31 1.79022642D+01
 Full mass-weighted force constant matrix:
 Low frequencies --- -254.4193  -41.3774  -29.9450   -0.0010    0.0012    0.0014
 Low frequencies ---   86.4766  223.7884  344.8323
 ******    1 imaginary frequencies (negative Signs) ****** 
 Diagonal vibrational polarizability:
       13.5868692      24.6525699      52.3784047
 Harmonic frequencies (cm**-1), IR intensities (KM/Mole), Raman scattering
 activities (A**4/AMU), depolarization ratios for plane and unpolarized
 incident light, reduced masses (AMU), force constants (mDyne/A),
 and normal coordinates:
                      1                      2                      3
                     A"                     A"                     A'
 Frequencies --   -254.4185               223.7522               344.8323
 Red. masses --      1.1368                10.4269                 8.4909
 Frc consts  --      0.0434                 0.3076                 0.5949
 IR Inten    --    125.0204                 0.7456                16.1361
  Atom  AN      X      Y      Z        X      Y      Z        X      Y      Z
     1   1     0.00  -0.00   1.00     0.00  -0.00  -0.58     0.55  -0.44   0.00
     2   8    -0.00  -0.00  -0.07     0.00  -0.00  -0.30    -0.07  -0.35   0.00
     3   8    -0.00   0.00  -0.04    -0.00   0.00   0.31    -0.12   0.47  -0.00
     4   7    -0.00   0.00   0.06    -0.00   0.00   0.54     0.01   0.21  -0.00
     5   8     0.00  -0.00  -0.01     0.00  -0.00  -0.44     0.15  -0.27   0.00
                      4                      5                      6
                     A'                     A'                     A'
 Frequencies --    470.1135               786.7720               966.4951
 Red. masses --     12.7387                13.1480                15.5430
 Frc consts  --      1.6587                 4.7952                 8.5543
 IR Inten    --    189.0758               168.3465                20.5644
  Atom  AN      X      Y      Z        X      Y      Z        X      Y      Z
     1   1    -0.33  -0.25  -0.00    -0.31   0.20   0.00    -0.14  -0.05  -0.00
     2   8    -0.34  -0.25  -0.00     0.42   0.07   0.00    -0.53   0.04   0.00
     3   8    -0.20  -0.39   0.00    -0.06  -0.25  -0.00     0.75  -0.03  -0.00
     4   7     0.36   0.44   0.00    -0.15   0.63  -0.00    -0.12   0.24  -0.00
     5   8     0.25   0.26  -0.00    -0.22  -0.38   0.00    -0.11  -0.22   0.00
                      7                      8                      9
                     A'                     A'                     A'
 Frequencies --   1370.6312              1678.3681              3778.6116
 Red. masses --      1.1304                13.1568                 1.0675
 Frc consts  --      1.2512                21.8360                 8.9798
 IR Inten    --    150.4253               141.3530                78.5187
  Atom  AN      X      Y      Z        X      Y      Z        X      Y      Z
     1   1     0.99  -0.09   0.00    -0.35   0.02  -0.00     0.14   0.99  -0.00
     2   8    -0.03   0.05   0.00    -0.01  -0.04  -0.00    -0.01  -0.06   0.00
     3   8    -0.02  -0.05  -0.00     0.01   0.15   0.00     0.00   0.00   0.00
     4   7     0.02   0.01  -0.00     0.70  -0.05   0.00    -0.00  -0.00  -0.00
     5   8    -0.03  -0.01   0.00    -0.59  -0.07  -0.00     0.00   0.00  -0.00

 -------------------
 - Thermochemistry -
 -------------------
 Temperature   298.150 Kelvin.  Pressure   1.00000 Atm.
 Atom     1 has atomic number  1 and mass   1.00783
 Atom     2 has atomic number  8 and mass  15.99491
 Atom     3 has atomic number  8 and mass  15.99491
 Atom     4 has atomic number  7 and mass  14.00307
 Atom     5 has atomic number  8 and mass  15.99491
 Molecular mass:    62.99564 amu.
 Principal axes and moments of inertia in atomic units:
                           1         2         3
     Eigenvalues --    33.92392 354.56838 388.49230
           X            0.81861  -0.57435   0.00000
           Y            0.57435   0.81861   0.00000
           Z            0.00000  -0.00000   1.00000
 This molecule is an asymmetric top.
 Rotational symmetry number  1.
 Rotational temperatures (Kelvin)      2.55318     0.24428     0.22295
 Rotational constants (GHZ):          53.19966     5.08997     4.64550
    1 imaginary frequencies ignored.
 Zero-point vibrational energy      57537.8 (Joules/Mol)
                                   13.75187 (Kcal/Mol)
 Warning -- explicit consideration of   3 degrees of freedom as
           vibrations may cause significant error
 Vibrational temperatures:    321.93   496.14   676.39  1131.99  1390.57
          (Kelvin)           1972.03  2414.80  5436.58
 
 Zero-point correction=                           0.021915 (Hartree/Particle)
 Thermal correction to Energy=                    0.026021
 Thermal correction to Enthalpy=                  0.026965
 Thermal correction to Gibbs Free Energy=        -0.004208
 Sum of electronic and zero-point Energies=           -280.424633
 Sum of electronic and thermal Energies=              -280.420527
 Sum of electronic and thermal Enthalpies=            -280.419583
 Sum of electronic and thermal Free Energies=         -280.450756
 
                     E (Thermal)             CV                S
                      KCal/Mol        Cal/Mol-Kelvin    Cal/Mol-Kelvin
 Total                   16.329             11.913             65.609
 Electronic               0.000              0.000              0.000
 Translational            0.889              2.981             38.341
 Rotational               0.889              2.981             23.062
 Vibrational             14.551              5.952              4.207
 Vibration     1          0.649              1.805              1.929
 Vibration     2          0.723              1.586              1.190
 Vibration     3          0.827              1.316              0.737
                       Q            Log10(Q)             Ln(Q)
 Total Bot       0.861792D+02          1.935403          4.456429
 Total V=0       0.103657D+13         12.015597         27.666934
 Vib (Bot)       0.179202D-09         -9.746657        -22.442507
 Vib (Bot)    1  0.882629D+00         -0.054222         -0.124850
 Vib (Bot)    2  0.536826D+00         -0.270167         -0.622081
 Vib (Bot)    3  0.358760D+00         -0.445196         -1.025102
 Vib (V=0)       0.215545D+01          0.333537          0.767998
 Vib (V=0)    1  0.151441D+01          0.180244          0.415028
 Vib (V=0)    2  0.123361D+01          0.091178          0.209944
 Vib (V=0)    3  0.111539D+01          0.047428          0.109207
 Electronic      0.100000D+01          0.000000          0.000000
 Translational   0.196526D+08          7.293420         16.793719
 Rotational      0.244703D+05          4.388640         10.105217
 
                                                                title
                                                             IR Spectrum
 
     3                                                                      1         1                                              
     7                                                                      6         3             9     7          4   3   2       
     7                                                                      7         7             6     8          7   4   2       
     9                                                                      8         1             6     7          0   5   4       
 
     X                                                                      X         X             X     X          X   X   X       
     X                                                                      X         X             X     X          X   X           
     X                                                                      X         X                   X          X               
     X                                                                      X         X                   X          X               
     X                                                                      X         X                   X          X               
     X                                                                      X         X                   X          X               
     X                                                                      X         X                   X          X               
     X                                                                      X         X                   X          X               
                                                                            X         X                   X          X               
                                                                            X         X                   X          X               
                                                                            X         X                   X          X               
                                                                            X         X                   X          X               
                                                                            X         X                   X          X               
                                                                            X         X                   X          X               
                                                                            X         X                   X          X               
                                                                                      X                   X          X               
                                                                                                          X          X               
                                                                                                          X          X               
                                                                                                                     X               
                                                                                                                     X               
 
 ***** Axes restored to original set *****
 -------------------------------------------------------------------
 Center     Atomic                   Forces (Hartrees/Bohr)
 Number     Number              X              Y              Z
 -------------------------------------------------------------------
      1        1          -0.000548648   -0.000000000   -0.000183328
      2        8          -0.000939012   -0.000000000   -0.004280325
      3        8          -0.003662445   -0.000000000    0.003088480
      4        7           0.004491891    0.000000000   -0.000415277
      5        8           0.000658214    0.000000000    0.001790451
 -------------------------------------------------------------------
 Cartesian Forces:  Max     0.004491891 RMS     0.002105204
 -----------------------------------------------------------------------------------------------
                       Internal Coordinate Forces (Hartree/Bohr or radian)
  Cent   Atom   N1       Length/X         N2         Alpha/Y        N3         Beta/Z          J
 -----------------------------------------------------------------------------------------------
      1  H 
      2  O        1   0.000183(     1)
      3  O        2   0.002065(     2)      1   0.001005(     5)
      4  N        3   0.001611(     3)      2   0.010619(     6)      1  -0.000000(     8)     0
      5  O        4   0.001138(     4)      3   0.003388(     7)      2   0.000000(     9)     0
 -----------------------------------------------------------------------------------------------
 Internal  Forces:  Max     0.010619472 RMS     0.003850629
 Force constants in Cartesian coordinates: 
                1             2             3             4             5 
      1  0.647419D-01
      2  0.000000D+00 -0.210995D-02
      3  0.588021D-02  0.000000D+00  0.512377D+00
      4 -0.358947D-01  0.000000D+00 -0.168052D-01  0.276207D+00
      5  0.000000D+00  0.263522D-02  0.000000D+00  0.000000D+00  0.190032D-02
      6  0.478434D-01  0.000000D+00 -0.507989D+00  0.392866D-01  0.000000D+00
      7 -0.182901D-01  0.000000D+00  0.126878D-01 -0.219700D+00  0.000000D+00
      8  0.000000D+00  0.974225D-03  0.000000D+00  0.000000D+00 -0.705137D-02
      9 -0.523431D-01  0.000000D+00 -0.528358D-03 -0.229180D-01  0.000000D+00
     10 -0.983776D-02  0.000000D+00 -0.499237D-02 -0.213993D-01  0.000000D+00
     11  0.000000D+00 -0.252264D-02  0.000000D+00  0.000000D+00 -0.360058D-02
     12  0.434470D-02  0.000000D+00 -0.544554D-02  0.103023D-01  0.000000D+00
     13 -0.719368D-03  0.000000D+00  0.322956D-02  0.787112D-03  0.000000D+00
     14  0.000000D+00  0.102314D-02  0.000000D+00  0.000000D+00  0.611641D-02
     15 -0.572517D-02  0.000000D+00  0.158618D-02 -0.986578D-02  0.000000D+00
                6             7             8             9            10 
      6  0.598211D+00
      7 -0.224708D-01  0.339435D+00
      8  0.000000D+00  0.000000D+00  0.597074D-02
      9 -0.757568D-01  0.409918D-01  0.000000D+00  0.176139D+00
     10 -0.582820D-01 -0.842421D-01  0.000000D+00  0.173282D+00  0.831932D+00
     11  0.000000D+00  0.000000D+00  0.619145D-02  0.000000D+00  0.000000D+00
     12  0.103475D-01  0.582050D-01  0.000000D+00 -0.711432D-01  0.123534D-01
     13 -0.637728D-02 -0.172022D-01  0.000000D+00 -0.139012D+00 -0.716453D+00
     14  0.000000D+00  0.000000D+00 -0.608505D-02  0.000000D+00  0.000000D+00
     15 -0.248126D-01 -0.894138D-01  0.000000D+00 -0.287102D-01 -0.122361D+00
               11            12            13            14            15 
     11  0.990804D-02
     12  0.000000D+00  0.191946D+00
     13  0.000000D+00 -0.852054D-01  0.733587D+00
     14 -0.997627D-02  0.000000D+00  0.000000D+00  0.892176D-02
     15  0.000000D+00 -0.125705D+00  0.227366D+00  0.000000D+00  0.177641D+00
 Force constants in internal coordinates: 
                1             2             3             4             5 
      1  0.512377D+00
      2 -0.102493D-01  0.286078D+00
      3  0.393660D-02  0.518507D-02  0.121173D+00
      4 -0.354627D-02  0.557225D-02  0.153012D+00  0.812469D+00
      5  0.102186D-01  0.653606D-01  0.341741D-02  0.422758D-02  0.217411D+00
      6  0.570911D-02  0.697369D-01  0.539576D-01  0.203199D-01  0.314883D-01
      7 -0.134580D-02  0.390911D-01  0.310539D-01  0.874803D-01  0.214239D-01
      8  0.000000D+00  0.000000D+00  0.000000D+00  0.000000D+00  0.000000D+00
      9  0.000000D+00  0.000000D+00  0.000000D+00  0.000000D+00  0.000000D+00
                6             7             8             9 
      6  0.312574D+00
      7  0.954962D-01  0.485897D+00
      8  0.000000D+00  0.000000D+00 -0.675210D-02
      9  0.000000D+00  0.000000D+00 -0.388230D-02  0.402086D-01
 Leave Link  716 at Mon Feb 21 20:51:22 2022, MaxMem= 16106127360 cpu:               1.6 elap:               0.1
 (Enter /sw/contrib/gaussian/g16/B01/g16/l103.exe)

 GradGradGradGradGradGradGradGradGradGradGradGradGradGradGradGradGradGrad
 Berny optimization.
 Search for a local minimum.
 Step number   1 out of a maximum of    2
 All quantities printed in internal units (Hartrees-Bohrs-Radians)
 Second derivative matrix not updated -- analytic derivatives used.
 The second derivative matrix:
                          r1        r2        r3        r4        a1
           r1           0.51238
           r2          -0.01025   0.28608
           r3           0.00394   0.00519   0.12117
           r4          -0.00355   0.00557   0.15301   0.81247
           a1           0.01022   0.06536   0.00342   0.00423   0.21741
           a2           0.00571   0.06974   0.05396   0.02032   0.03149
           a3          -0.00135   0.03909   0.03105   0.08748   0.02142
           d1           0.00000  -0.00000  -0.00000  -0.00000  -0.00000
           d2          -0.00000  -0.00000   0.00000   0.00000   0.00000
                          a2        a3        d1        d2
           a2           0.31257
           a3           0.09550   0.48590
           d1          -0.00000  -0.00000  -0.00675
           d2          -0.00000  -0.00000  -0.00388   0.04021
 ITU=  0
     Eigenvalues ---   -0.00707   0.04053   0.07798   0.17651   0.24206
     Eigenvalues ---    0.33754   0.51307   0.52726   0.87356
 Eigenvalue     1 is  -7.07D-03 should be greater than     0.000000 Eigenvector:
                          d1        d2        a3        a2        r3
   1                    0.99665   0.08184   0.00000   0.00000  -0.00000
                          r4        a1        r2        r1
   1                    0.00000  -0.00000   0.00000  -0.00000
 Angle between quadratic step and forces=  26.18 degrees.
 Linear search not attempted -- first point.
 Variable       Old X    -DE/DX   Delta X   Delta X   Delta X     New X
                                 (Linear)    (Quad)   (Total)
    r1        1.83110   0.00018   0.00000  -0.00002  -0.00002   1.83108
    r2        2.74940   0.00206   0.00000  -0.00124  -0.00124   2.74816
    r3        2.75670   0.00161   0.00000  -0.00371  -0.00371   2.75299
    r4        2.21236   0.00114   0.00000   0.00121   0.00121   2.21357
    a1        1.70335   0.00100   0.00000  -0.00003  -0.00003   1.70332
    a2        1.74952   0.01062   0.00000   0.03473   0.03473   1.78426
    a3        1.90362   0.00339   0.00000   0.00027   0.00027   1.90389
    d1        3.14159  -0.00000   0.00000  -0.00000   0.00000   3.14159
    d2        3.14159   0.00000   0.00000   0.00000   0.00000   3.14159
         Item               Value     Threshold  Converged?
 Maximum Force            0.010619     0.000450     NO 
 RMS     Force            0.003851     0.000300     NO 
 Maximum Displacement     0.034734     0.001800     NO 
 RMS     Displacement     0.011659     0.001200     NO 
 Predicted change in Energy=-1.812851D-04
                       ----------------------------
                       ! Non-Optimized Parameters !
                       ! (Angstroms and Degrees)  !
 ----------------------                            ----------------------
 !      Name          Value   Derivative information (Atomic Units)     !
 ------------------------------------------------------------------------
 !       r1          0.969    -DE/DX =    0.0002                        !
 !       r2          1.4543   -DE/DX =    0.0021                        !
 !       r3          1.4568   -DE/DX =    0.0016                        !
 !       r4          1.1714   -DE/DX =    0.0011                        !
 !       a1         97.5933   -DE/DX =    0.001                         !
 !       a2        102.2304   -DE/DX =    0.0106                        !
 !       a3        109.0848   -DE/DX =    0.0034                        !
 !       d1        180.0      -DE/DX =    0.0                           !
 !       d2        180.0      -DE/DX =    0.0                           !
 ------------------------------------------------------------------------
 GradGradGradGradGradGradGradGradGradGradGradGradGradGradGradGradGradGrad

 Leave Link  103 at Mon Feb 21 20:51:22 2022, MaxMem= 16106127360 cpu:               0.6 elap:               0.0
 (Enter /sw/contrib/gaussian/g16/B01/g16/l9999.exe)

 ----------------------------------------------------------------------

 Electric dipole moment (input orientation):
 (Debye = 10**-18 statcoulomb cm , SI units = C m)
                  (au)            (Debye)         (10**-30 SI)
   Tot        0.572116D+00      0.145417D+01      0.485060D+01
   x         -0.146152D+00     -0.371482D+00     -0.123913D+01
   y          0.000000D+00      0.000000D+00      0.000000D+00
   z         -0.553133D+00     -0.140592D+01     -0.468966D+01

 Dipole polarizability, Alpha (input orientation).
 (esu units = cm**3 , SI units = C**2 m**2 J**-1)
 Alpha(0;0):
               (au)            (10**-24 esu)      (10**-40 SI)
   iso        0.272605D+02      0.403959D+01      0.449465D+01
   aniso      0.215333D+02      0.319090D+01      0.355036D+01
   xx         0.314565D+02      0.466137D+01      0.518647D+01
   yx         0.000000D+00      0.000000D+00      0.000000D+00
   yy         0.179023D+02      0.265284D+01      0.295168D+01
   zx         0.941511D+01      0.139518D+01      0.155234D+01
   zy         0.000000D+00      0.000000D+00      0.000000D+00
   zz         0.324228D+02      0.480457D+01      0.534580D+01

 ----------------------------------------------------------------------

 Dipole orientation:
     1         -0.00000000          0.00000000          0.00000000
     8         -0.46777073          0.00000000         -1.77034234
     8          2.07425315          0.00000000         -2.81786781
     7          1.49378777          0.00000000         -5.51276443
     8          3.38565808          0.00000000         -6.65965142

 Electric dipole moment (dipole orientation):
 (Debye = 10**-18 statcoulomb cm , SI units = C m)
                  (au)            (Debye)         (10**-30 SI)
   Tot        0.572116D+00      0.145417D+01      0.485060D+01
   x          0.000000D+00      0.000000D+00      0.000000D+00
   y          0.000000D+00      0.000000D+00      0.000000D+00
   z          0.572116D+00      0.145417D+01      0.485060D+01

 Dipole polarizability, Alpha (dipole orientation).
 (esu units = cm**3 , SI units = C**2 m**2 J**-1)
 Alpha(0;0):
               (au)            (10**-24 esu)      (10**-40 SI)
   iso        0.272605D+02      0.403959D+01      0.449465D+01
   aniso      0.215333D+02      0.319090D+01      0.355036D+01
   xx         0.268688D+02      0.398155D+01      0.443007D+01
   yx         0.000000D+00      0.000000D+00      0.000000D+00
   yy         0.179023D+02      0.265284D+01      0.295168D+01
   zx        -0.794760D+01     -0.117771D+01     -0.131038D+01
   zy         0.000000D+00      0.000000D+00      0.000000D+00
   zz         0.370105D+02      0.548439D+01      0.610221D+01

 ----------------------------------------------------------------------
 1\1\GINC-N2126\Freq\RMP2-FC\Aug-CC-pVTZ\H1N1O3\CGAVINH\21-Feb-2022\1\\
 #p freq mp2/aug-cc-pvtz density=current\\title\\0,1\H\O,1,r1\O,2,r2,1,
 a1\N,3,r3,2,a2,1,d1,0\O,4,r4,3,a3,2,d2,0\\r1=0.96897556\r2=1.45491931\
 r3=1.45878406\r4=1.17072885\a1=97.59494903\a2=100.2402665\a3=109.06955
 123\d1=180.\d2=180.\\Version=ES64L-G16RevB.01\State=1-A'\HF=-279.50129
 16\MP2=-280.4465483\RMSD=3.775e-09\RMSF=2.105e-03\ZeroPoint=0.021915\T
 hermal=0.0260211\Dipole=-0.1461522,0.,-0.553133\DipoleDeriv=0.2688292,
 0.,0.0508211,0.,0.3554346,0.,0.0769445,0.,0.2704177,-0.312989,0.,-0.19
 69841,0.,-0.3168184,0.,-0.1014932,0.,-0.2052138,-0.0397148,0.,0.183242
 5,0.,-0.0841917,0.,-0.7149703,0.,-1.3783963,0.8351455,0.,0.8687353,0.,
 0.0675872,0.,0.8917472,0.,1.7110124,-0.7512709,0.,-0.9058149,0.,-0.022
 0118,0.,-0.1522281,0.,-0.39782\Polar=31.4564917,0.,17.9022642,9.415111
 3,0.,32.4228195\Quadrupole=-1.5266229,-0.7270887,2.2537115,0.,2.030541
 7,0.\PG=CS [SG(H1N1O3)]\NImag=1\\0.06474190,0.,-0.00210995,0.00588021,
 0.,0.51237697,-0.03589469,0.,-0.01680523,0.27620741,0.,0.00263522,0.,0
 .,0.00190032,0.04784338,0.,-0.50798926,0.03928665,0.,0.59821106,-0.018
 29008,0.,0.01268783,-0.21970050,0.,-0.02247077,0.33943489,0.,0.0009742
 2,0.,0.,-0.00705137,0.,0.,0.00597074,-0.05234312,0.,-0.00052836,-0.022
 91798,0.,-0.07575677,0.04099179,0.,0.17613855,-0.00983776,0.,-0.004992
 37,-0.02139934,0.,-0.05828198,-0.08424210,0.,0.17328180,0.83193205,0.,
 -0.00252264,0.,0.,-0.00360058,0.,0.,0.00619145,0.,0.,0.00990804,0.0043
 4470,0.,-0.00544554,0.01030235,0.,0.01034755,0.05820497,0.,-0.07114324
 ,0.01235339,0.,0.19194596,-0.00071937,0.,0.00322956,0.00078711,0.,-0.0
 0637728,-0.01720221,0.,-0.13901249,-0.71645284,0.,-0.08520542,0.733587
 30,0.,0.00102314,0.,0.,0.00611641,0.,0.,-0.00608505,0.,0.,-0.00997627,
 0.,0.,0.00892176,-0.00572517,0.,0.00158618,-0.00986578,0.,-0.02481257,
 -0.08941383,0.,-0.02871019,-0.12236084,0.,-0.12570472,0.22736562,0.,0.
 17764130\\0.00054865,0.,0.00018333,0.00093901,0.,0.00428033,0.00366245
 ,0.,-0.00308848,-0.00449189,0.,0.00041528,-0.00065821,0.,-0.00179045\\
 \@


 ON A TOMBSTONE, "HERE LIES LESTER MOORE,
 FOUR SLUGS FROM A 44, NO LES, NO MORE".
 Job cpu time:       0 days  2 hours  3 minutes 48.2 seconds.
 Elapsed time:       0 days  0 hours  4 minutes 28.8 seconds.
 File lengths (MBytes):  RWF=   7239 Int=      0 D2E=      0 Chk=      8 Scr=      1
 Normal termination of Gaussian 16 at Mon Feb 21 20:51:23 2022.
