title                                                                   
Freq      RMP2-FC                                                     Aug-CC-pVTZ         
Number of atoms                            I                5
Info1-9                                    I   N=           9
          33          24           0           0           0         100
           6           2           1
Full Title                                 C   N=           1
title       
Route                                      C   N=           4
#p freq mp2/aug-cc-pvtz density=current         
Charge                                     I                0
Multiplicity                               I                1
Number of electrons                        I               32
Number of alpha electrons                  I               16
Number of beta electrons                   I               16
Number of basis functions                  I              207
Number of independent functions            I              207
Number of point charges in /Mol/           I                0
Number of translation vectors              I                0
Atomic numbers                             I   N=           5
           1           8           8           7           8
Nuclear charges                            R   N=           5
  1.00000000E+00  8.00000000E+00  8.00000000E+00  7.00000000E+00  8.00000000E+00
Current cartesian coordinates              R   N=          15
  2.07681248E+00 -1.14832470E+00  0.00000000E+00  2.47950806E+00  6.69702475E-01
  0.00000000E+00 -1.16058409E-16  1.72857876E+00  0.00000000E+00 -1.88570936E+00
 -7.57930098E-02  0.00000000E+00 -1.08911392E+00 -2.18842176E+00  0.00000000E+00
Number of symbols in /Mol/                 I                0
Force Field                                I                0
Atom Types                                 C   N=           5
                                                            
Int Atom Types                             I   N=           5
           0           0           0           0           0
MM charges                                 R   N=           5
  0.00000000E+00  0.00000000E+00  0.00000000E+00  0.00000000E+00  0.00000000E+00
Integer atomic weights                     I   N=           5
           1          16          16          14          16
Real atomic weights                        R   N=           5
  1.00782504E+00  1.59949146E+01  1.59949146E+01  1.40030740E+01  1.59949146E+01
Atom fragment info                         I   N=           5
           0           0           0           0           0
Atom residue num                           I   N=           5
           0           0           0           0           0
Nuclear spins                              I   N=           5
           1           0           0           2           0
Nuclear ZEff                               R   N=           5
 -1.00000000E+00 -5.60000000E+00 -5.60000000E+00 -4.55000000E+00 -5.60000000E+00
Nuclear ZNuc                               R   N=           5
  1.00000000E+00  8.00000000E+00  8.00000000E+00  7.00000000E+00  8.00000000E+00
Nuclear QMom                               R   N=           5
  0.00000000E+00  0.00000000E+00  0.00000000E+00  2.04400000E+00  0.00000000E+00
Nuclear GFac                               R   N=           5
  2.79284600E+00  0.00000000E+00  0.00000000E+00  4.03761000E-01  0.00000000E+00
MicOpt                                     I   N=           5
          -1          -1          -1          -1          -1
Number of residues                         I                0
Number of secondary structures             I                0
SymInf integers                            I   N=          26
           1           2           1           1           1           1
           1          -1           0           0           0           0
           0           0           0           0           0           0
           0           0           0           0           0           0
           0           0
RotTr to input orientation                 R   N=          12
 -9.76335860E-01  0.00000000E+00  2.16259770E-01  2.16259770E-01  0.00000000E+00
  9.76335860E-01  0.00000000E+00  1.00000000E+00  0.00000000E+00  2.27600293E+00
  0.00000000E+00  6.72019595E-01
Number of contracted shells                I               65
Number of primitive shells                 I              119
Pure/Cartesian d shells                    I                0
Pure/Cartesian f shells                    I                0
Highest angular momentum                   I                3
Largest degree of contraction              I                7
Shell types                                I   N=          65
           0           0           0           0           1           1
           1          -2          -2           0           0           0
           0           0           1           1           1           1
          -2          -2          -2          -3          -3           0
           0           0           0           0           1           1
           1           1          -2          -2          -2          -3
          -3           0           0           0           0           0
           1           1           1           1          -2          -2
          -2          -3          -3           0           0           0
           0           0           1           1           1           1
          -2          -2          -2          -3          -3
Number of primitives per shell             I   N=          65
           3           1           1           1           1           1
           1           1           1           7           6           1
           1           1           3           1           1           1
           1           1           1           1           1           7
           6           1           1           1           3           1
           1           1           1           1           1           1
           1           7           6           1           1           1
           3           1           1           1           1           1
           1           1           1           7           6           1
           1           1           3           1           1           1
           1           1           1           1           1
Shell to atom map                          I   N=          65
           1           1           1           1           1           1
           1           1           1           2           2           2
           2           2           2           2           2           2
           2           2           2           2           2           3
           3           3           3           3           3           3
           3           3           3           3           3           3
           3           4           4           4           4           4
           4           4           4           4           4           4
           4           4           4           5           5           5
           5           5           5           5           5           5
           5           5           5           5           5
Primitive exponents                        R   N=         119
  3.38700000E+01  5.09500000E+00  1.15900000E+00  3.25800000E-01  1.02700000E-01
  2.52600000E-02  1.40700000E+00  3.88000000E-01  1.02000000E-01  1.05700000E+00
  2.47000000E-01  1.53300000E+04  2.29900000E+03  5.22400000E+02  1.47300000E+02
  4.75500000E+01  1.67600000E+01  6.20700000E+00  5.22400000E+02  1.47300000E+02
  4.75500000E+01  1.67600000E+01  6.20700000E+00  6.88200000E-01  1.75200000E+00
  2.38400000E-01  7.37600000E-02  3.44600000E+01  7.74900000E+00  2.28000000E+00
  7.15600000E-01  2.14000000E-01  5.97400000E-02  2.31400000E+00  6.45000000E-01
  2.14000000E-01  1.42800000E+00  5.00000000E-01  1.53300000E+04  2.29900000E+03
  5.22400000E+02  1.47300000E+02  4.75500000E+01  1.67600000E+01  6.20700000E+00
  5.22400000E+02  1.47300000E+02  4.75500000E+01  1.67600000E+01  6.20700000E+00
  6.88200000E-01  1.75200000E+00  2.38400000E-01  7.37600000E-02  3.44600000E+01
  7.74900000E+00  2.28000000E+00  7.15600000E-01  2.14000000E-01  5.97400000E-02
  2.31400000E+00  6.45000000E-01  2.14000000E-01  1.42800000E+00  5.00000000E-01
  1.14200000E+04  1.71200000E+03  3.89300000E+02  1.10000000E+02  3.55700000E+01
  1.25400000E+01  4.64400000E+00  3.89300000E+02  1.10000000E+02  3.55700000E+01
  1.25400000E+01  4.64400000E+00  5.11800000E-01  1.29300000E+00  1.78700000E-01
  5.76000000E-02  2.66300000E+01  5.94800000E+00  1.74200000E+00  5.55000000E-01
  1.72500000E-01  4.91000000E-02  1.65400000E+00  4.69000000E-01  1.51000000E-01
  1.09300000E+00  3.64000000E-01  1.53300000E+04  2.29900000E+03  5.22400000E+02
  1.47300000E+02  4.75500000E+01  1.67600000E+01  6.20700000E+00  5.22400000E+02
  1.47300000E+02  4.75500000E+01  1.67600000E+01  6.20700000E+00  6.88200000E-01
  1.75200000E+00  2.38400000E-01  7.37600000E-02  3.44600000E+01  7.74900000E+00
  2.28000000E+00  7.15600000E-01  2.14000000E-01  5.97400000E-02  2.31400000E+00
  6.45000000E-01  2.14000000E-01  1.42800000E+00  5.00000000E-01
Contraction coefficients                   R   N=         119
  2.54948632E-02  1.90362766E-01  8.52162022E-01  1.00000000E+00  1.00000000E+00
  1.00000000E+00  1.00000000E+00  1.00000000E+00  1.00000000E+00  1.00000000E+00
  1.00000000E+00  5.19808943E-04  4.02025621E-03  2.07128267E-02  8.10105536E-02
  2.35962985E-01  4.42653446E-01  3.57064423E-01 -4.42115008E-05 -1.22591041E-03
 -1.05517725E-02 -6.74452633E-02 -1.71198607E-01  1.07329856E+00  1.00000000E+00
  1.00000000E+00  1.00000000E+00  4.11634896E-02  2.57762836E-01  8.02419274E-01
  1.00000000E+00  1.00000000E+00  1.00000000E+00  1.00000000E+00  1.00000000E+00
  1.00000000E+00  1.00000000E+00  1.00000000E+00  5.19808943E-04  4.02025621E-03
  2.07128267E-02  8.10105536E-02  2.35962985E-01  4.42653446E-01  3.57064423E-01
 -4.42115008E-05 -1.22591041E-03 -1.05517725E-02 -6.74452633E-02 -1.71198607E-01
  1.07329856E+00  1.00000000E+00  1.00000000E+00  1.00000000E+00  4.11634896E-02
  2.57762836E-01  8.02419274E-01  1.00000000E+00  1.00000000E+00  1.00000000E+00
  1.00000000E+00  1.00000000E+00  1.00000000E+00  1.00000000E+00  1.00000000E+00
  5.34563860E-04  4.13435660E-03  2.12335358E-02  8.25006224E-02  2.38138871E-01
  4.42551547E-01  3.53757422E-01 -4.89867350E-05 -1.19527323E-03 -1.03490714E-02
 -6.48680190E-02 -1.71552477E-01  1.07289568E+00  1.00000000E+00  1.00000000E+00
  1.00000000E+00  3.98072123E-02  2.49002660E-01  8.10479727E-01  1.00000000E+00
  1.00000000E+00  1.00000000E+00  1.00000000E+00  1.00000000E+00  1.00000000E+00
  1.00000000E+00  1.00000000E+00  5.19808943E-04  4.02025621E-03  2.07128267E-02
  8.10105536E-02  2.35962985E-01  4.42653446E-01  3.57064423E-01 -4.42115008E-05
 -1.22591041E-03 -1.05517725E-02 -6.74452633E-02 -1.71198607E-01  1.07329856E+00
  1.00000000E+00  1.00000000E+00  1.00000000E+00  4.11634896E-02  2.57762836E-01
  8.02419274E-01  1.00000000E+00  1.00000000E+00  1.00000000E+00  1.00000000E+00
  1.00000000E+00  1.00000000E+00  1.00000000E+00  1.00000000E+00
Coordinates of each shell                  R   N=         195
  2.07681248E+00 -1.14832470E+00  0.00000000E+00  2.07681248E+00 -1.14832470E+00
  0.00000000E+00  2.07681248E+00 -1.14832470E+00  0.00000000E+00  2.07681248E+00
 -1.14832470E+00  0.00000000E+00  2.07681248E+00 -1.14832470E+00  0.00000000E+00
  2.07681248E+00 -1.14832470E+00  0.00000000E+00  2.07681248E+00 -1.14832470E+00
  0.00000000E+00  2.07681248E+00 -1.14832470E+00  0.00000000E+00  2.07681248E+00
 -1.14832470E+00  0.00000000E+00  2.47950806E+00  6.69702475E-01  0.00000000E+00
  2.47950806E+00  6.69702475E-01  0.00000000E+00  2.47950806E+00  6.69702475E-01
  0.00000000E+00  2.47950806E+00  6.69702475E-01  0.00000000E+00  2.47950806E+00
  6.69702475E-01  0.00000000E+00  2.47950806E+00  6.69702475E-01  0.00000000E+00
  2.47950806E+00  6.69702475E-01  0.00000000E+00  2.47950806E+00  6.69702475E-01
  0.00000000E+00  2.47950806E+00  6.69702475E-01  0.00000000E+00  2.47950806E+00
  6.69702475E-01  0.00000000E+00  2.47950806E+00  6.69702475E-01  0.00000000E+00
  2.47950806E+00  6.69702475E-01  0.00000000E+00  2.47950806E+00  6.69702475E-01
  0.00000000E+00  2.47950806E+00  6.69702475E-01  0.00000000E+00 -9.31018667E-18
  1.72857876E+00  0.00000000E+00 -9.31018667E-18  1.72857876E+00  0.00000000E+00
 -9.31018667E-18  1.72857876E+00  0.00000000E+00 -9.31018667E-18  1.72857876E+00
  0.00000000E+00 -9.31018667E-18  1.72857876E+00  0.00000000E+00 -9.31018667E-18
  1.72857876E+00  0.00000000E+00 -9.31018667E-18  1.72857876E+00  0.00000000E+00
 -9.31018667E-18  1.72857876E+00  0.00000000E+00 -9.31018667E-18  1.72857876E+00
  0.00000000E+00 -9.31018667E-18  1.72857876E+00  0.00000000E+00 -9.31018667E-18
  1.72857876E+00  0.00000000E+00 -9.31018667E-18  1.72857876E+00  0.00000000E+00
 -9.31018667E-18  1.72857876E+00  0.00000000E+00 -9.31018667E-18  1.72857876E+00
  0.00000000E+00 -1.88570936E+00 -7.57930098E-02  0.00000000E+00 -1.88570936E+00
 -7.57930098E-02  0.00000000E+00 -1.88570936E+00 -7.57930098E-02  0.00000000E+00
 -1.88570936E+00 -7.57930098E-02  0.00000000E+00 -1.88570936E+00 -7.57930098E-02
  0.00000000E+00 -1.88570936E+00 -7.57930098E-02  0.00000000E+00 -1.88570936E+00
 -7.57930098E-02  0.00000000E+00 -1.88570936E+00 -7.57930098E-02  0.00000000E+00
 -1.88570936E+00 -7.57930098E-02  0.00000000E+00 -1.88570936E+00 -7.57930098E-02
  0.00000000E+00 -1.88570936E+00 -7.57930098E-02  0.00000000E+00 -1.88570936E+00
 -7.57930098E-02  0.00000000E+00 -1.88570936E+00 -7.57930098E-02  0.00000000E+00
 -1.88570936E+00 -7.57930098E-02  0.00000000E+00 -1.08911392E+00 -2.18842176E+00
  0.00000000E+00 -1.08911392E+00 -2.18842176E+00  0.00000000E+00 -1.08911392E+00
 -2.18842176E+00  0.00000000E+00 -1.08911392E+00 -2.18842176E+00  0.00000000E+00
 -1.08911392E+00 -2.18842176E+00  0.00000000E+00 -1.08911392E+00 -2.18842176E+00
  0.00000000E+00 -1.08911392E+00 -2.18842176E+00  0.00000000E+00 -1.08911392E+00
 -2.18842176E+00  0.00000000E+00 -1.08911392E+00 -2.18842176E+00  0.00000000E+00
 -1.08911392E+00 -2.18842176E+00  0.00000000E+00 -1.08911392E+00 -2.18842176E+00
  0.00000000E+00 -1.08911392E+00 -2.18842176E+00  0.00000000E+00 -1.08911392E+00
 -2.18842176E+00  0.00000000E+00 -1.08911392E+00 -2.18842176E+00  0.00000000E+00
Num ILSW                                   I              100
ILSW                                       I   N=         100
           0           0           0           0           2           0
           0           0           0           0           0          -1
           5           0           0           0           2           0
           0           0           0           0           1           0
           1           0           0           0           0           0
           0           0      100000           0          -1           0
           0           0           0           0           0           0
           0           0           0           1           1           0
           0 -2000000000           1           0           0           0
           0           0           4          52           0           0
           0           0           0           0           0           0
           0           0           0           5           4           1
           0           0           0           0           0           0
           0           0           0           0           0           0
           0           0           0           0           0           0
           0           0           0           0           0           0
           0           0           0           0
Num RLSW                                   I               52
RLSW                                       R   N=          52
  1.00000000E+00  1.00000000E+00  1.00000000E+00  1.00000000E+00  1.00000000E+00
  0.00000000E+00  0.00000000E+00  1.00000000E+00  0.00000000E+00  0.00000000E+00
  0.00000000E+00  0.00000000E+00  1.00000000E+00  0.00000000E+00  0.00000000E+00
  0.00000000E+00  0.00000000E+00  1.00000000E+00  0.00000000E+00  0.00000000E+00
  0.00000000E+00  0.00000000E+00  1.00000000E+00  0.00000000E+00  0.00000000E+00
  0.00000000E+00  0.00000000E+00  1.00000000E+00  0.00000000E+00  0.00000000E+00
  0.00000000E+00  0.00000000E+00  1.00000000E+00  0.00000000E+00  0.00000000E+00
  0.00000000E+00  0.00000000E+00  0.00000000E+00  1.00000000E+00  1.00000000E+00
  0.00000000E+00  1.00000000E+00  0.00000000E+00  0.00000000E+00  0.00000000E+00
  0.00000000E+00  0.00000000E+00  0.00000000E+00  0.00000000E+00  0.00000000E+00
  0.00000000E+00  0.00000000E+00
MxBond                                     I                2
NBond                                      I   N=           5
           1           2           2           2           1
IBond                                      I   N=          10
           2           0           1           3           2           4
           3           5           4           0
RBond                                      R   N=          10
  1.00000000E+00  0.00000000E+00  1.00000000E+00  1.00000000E+00  1.00000000E+00
  1.00000000E+00  1.00000000E+00  2.00000000E+00  2.00000000E+00  0.00000000E+00
Virial Ratio                               R      2.002188334918395E+00
SCF Energy                                 R     -2.795061935654481E+02
MP2 Energy                                 R     -2.804550803307222E+02
Total Energy                               R     -2.804550803307222E+02
Post-SCF wavefunction norm                 R      1.583664938875638E+00
RMS Force                                  R      2.781757860126462E-03
RMS Density                                R      4.543947707883239E-09
NImag                                      I                0
Job Status                                 I                1
Nuclear derivative order                   I                2
External E-field                           R   N=          35
  0.00000000E+00  0.00000000E+00  0.00000000E+00  0.00000000E+00  0.00000000E+00
  0.00000000E+00  0.00000000E+00  0.00000000E+00  0.00000000E+00  0.00000000E+00
  0.00000000E+00  0.00000000E+00  0.00000000E+00  0.00000000E+00  0.00000000E+00
  0.00000000E+00  0.00000000E+00  0.00000000E+00  0.00000000E+00  0.00000000E+00
  0.00000000E+00  0.00000000E+00  0.00000000E+00  0.00000000E+00  0.00000000E+00
  0.00000000E+00  0.00000000E+00  0.00000000E+00  0.00000000E+00  0.00000000E+00
  0.00000000E+00  0.00000000E+00  0.00000000E+00  0.00000000E+00  0.00000000E+00
IOpCl                                      I                0
IROHF                                      I                0
Alpha Orbital Energies                     R   N=         207
 -2.07185146E+01 -2.06866158E+01 -2.06674337E+01 -1.58268301E+01 -1.64590750E+00
 -1.50336671E+00 -1.29323411E+00 -9.59950021E-01 -8.36409262E-01 -7.59189787E-01
 -7.40205383E-01 -6.35553024E-01 -6.17593144E-01 -6.17522248E-01 -5.06822473E-01
 -4.96806542E-01  3.51748375E-02  5.95199733E-02  9.51197155E-02  1.00178051E-01
  1.19684245E-01  1.22532712E-01  1.49700087E-01  1.52269063E-01  1.77336194E-01
  1.80307125E-01  1.90027568E-01  2.10904139E-01  2.16662868E-01  2.42419231E-01
  2.46359029E-01  2.69887956E-01  3.14246874E-01  3.18186230E-01  3.37865339E-01
  3.44446415E-01  3.47898995E-01  3.92502826E-01  4.51167888E-01  4.88698468E-01
  5.05739726E-01  5.17800035E-01  5.46271989E-01  5.59918952E-01  5.99066948E-01
  6.19387504E-01  6.37792187E-01  6.89956651E-01  7.16677822E-01  7.24642921E-01
  7.47686536E-01  7.62254055E-01  7.66950365E-01  7.95864002E-01  8.08397376E-01
  8.39334196E-01  8.43175084E-01  8.52542624E-01  8.85826222E-01  9.09015320E-01
  9.34553886E-01  9.46455830E-01  9.53675747E-01  1.01886895E+00  1.03293304E+00
  1.06679824E+00  1.07186858E+00  1.09766176E+00  1.14718672E+00  1.15716566E+00
  1.16708737E+00  1.22433328E+00  1.22795479E+00  1.24580587E+00  1.35645032E+00
  1.35645254E+00  1.37379714E+00  1.46715718E+00  1.48717636E+00  1.50277232E+00
  1.54355244E+00  1.59793462E+00  1.60375366E+00  1.60665991E+00  1.62958832E+00
  1.69606760E+00  1.74128671E+00  1.80062374E+00  1.83138054E+00  1.88929090E+00
  1.89429022E+00  1.93066536E+00  1.97814184E+00  1.99035990E+00  2.05468316E+00
  2.12761955E+00  2.13075191E+00  2.16731762E+00  2.18960135E+00  2.24556388E+00
  2.25942141E+00  2.29380192E+00  2.35263008E+00  2.37182749E+00  2.38541652E+00
  2.40340951E+00  2.43323256E+00  2.46907815E+00  2.47914097E+00  2.53266375E+00
  2.53927110E+00  2.55437122E+00  2.56080396E+00  2.62098144E+00  2.63185437E+00
  2.67669683E+00  2.67984809E+00  2.75344007E+00  2.81079730E+00  2.82488560E+00
  2.83816913E+00  2.91953076E+00  2.99703676E+00  3.04523731E+00  3.04762936E+00
  3.11266992E+00  3.12021139E+00  3.17808549E+00  3.21383296E+00  3.31200619E+00
  3.32984128E+00  3.36301990E+00  3.47358530E+00  3.67924771E+00  3.87030681E+00
  3.93753871E+00  4.18894740E+00  4.23072297E+00  4.23340079E+00  4.27141927E+00
  4.37494077E+00  4.49874585E+00  4.54842013E+00  4.55262596E+00  4.59870963E+00
  4.69613627E+00  4.81179409E+00  4.89256544E+00  4.91622172E+00  4.93814570E+00
  5.00296151E+00  5.00659105E+00  5.10579502E+00  5.13246702E+00  5.18378161E+00
  5.25353980E+00  5.26247682E+00  5.32107011E+00  5.34953803E+00  5.36823814E+00
  5.55244095E+00  5.64681723E+00  5.71230235E+00  5.89440825E+00  5.99194402E+00
  6.26576590E+00  6.29547344E+00  6.36343500E+00  6.37767079E+00  6.59785153E+00
  6.66105231E+00  6.67135544E+00  6.69710515E+00  6.72985366E+00  6.78404610E+00
  6.80174823E+00  6.86908494E+00  6.96603845E+00  7.02168622E+00  7.06634591E+00
  7.07998988E+00  7.13552751E+00  7.17443321E+00  7.19175712E+00  7.20457921E+00
  7.24779303E+00  7.25095915E+00  7.27345101E+00  7.35042870E+00  7.39151679E+00
  7.43425677E+00  7.44236031E+00  7.46479202E+00  7.56121906E+00  7.66351291E+00
  7.68657767E+00  7.79588503E+00  7.88431542E+00  7.95387012E+00  8.07830012E+00
  8.31079801E+00  8.49779864E+00  8.65268105E+00  1.36250169E+01  1.47636060E+01
  1.51121435E+01  1.58085841E+01
Alpha MO coefficients                      R   N=       42849
  6.28902906E-05  1.28649411E-05 -1.11473220E-03  1.65718351E-05 -5.08534293E-05
  4.17345873E-05  0.00000000E+00 -9.73479705E-05 -2.71968421E-04  0.00000000E+00
 -4.04108254E-06 -3.53679836E-04  0.00000000E+00  4.10755864E-05  0.00000000E+00
  0.00000000E+00 -2.50988341E-05  1.13974916E-05  2.32455630E-04  0.00000000E+00
  0.00000000E+00 -4.42386709E-05 -2.15757164E-04  3.10146608E-03 -9.58450117E-05
 -9.68432550E-05  3.49456875E-03  2.48022256E-03  1.01090052E-04 -5.44590584E-05
  0.00000000E+00 -7.20667464E-04  2.94470029E-04  0.00000000E+00 -1.94091387E-03
  1.13640763E-03  0.00000000E+00 -5.38900437E-04  3.89818015E-05  0.00000000E+00
  2.03866754E-05  0.00000000E+00  0.00000000E+00 -8.42982238E-06  4.41366407E-05
 -4.40842641E-04  0.00000000E+00  0.00000000E+00  4.19523853E-04 -6.68245536E-04
 -3.61705399E-04  0.00000000E+00  0.00000000E+00  5.31396472E-04 -7.53351130E-04
  0.00000000E+00  7.30009604E-05 -5.33015672E-05  0.00000000E+00  0.00000000E+00
 -2.58900218E-05  1.09148923E-04  0.00000000E+00  2.08179503E-04 -5.03198713E-05
  0.00000000E+00  0.00000000E+00 -1.63789636E-04  3.01885733E-04  9.76900455E-01
 -9.17697782E-03  4.34114894E-02  4.78971141E-04 -2.20472189E-03  4.27914101E-04
 -2.15122414E-03  0.00000000E+00 -2.99191348E-04  2.25649310E-03  0.00000000E+00
 -2.28881577E-03 -4.81213502E-04  0.00000000E+00 -2.21651891E-04  9.69285160E-05
  0.00000000E+00  6.40377836E-06  0.00000000E+00  0.00000000E+00 -5.50969011E-06
  3.81445989E-05  8.25856619E-04  0.00000000E+00  0.00000000E+00 -4.77122283E-04
 -1.63850959E-04 -1.46289757E-04  0.00000000E+00  0.00000000E+00 -5.55343737E-04
  3.53718126E-04  0.00000000E+00 -6.68924900E-06 -8.00619760E-05  0.00000000E+00
  0.00000000E+00 -8.48341902E-06  4.74429081E-05  0.00000000E+00  9.05611758E-05
  3.00861616E-06  0.00000000E+00  0.00000000E+00 -3.26267731E-04  3.86498785E-04
  1.04534821E-04  4.57171256E-04 -3.24519213E-04 -8.41084826E-04  3.40947298E-04
 -4.63484855E-05 -9.91701582E-05  0.00000000E+00  7.03880379E-04  1.10378509E-03
  0.00000000E+00 -7.15952294E-04 -5.66353163E-04  0.00000000E+00  2.00534744E-04
  2.16023505E-04  0.00000000E+00 -5.26563039E-05  0.00000000E+00  0.00000000E+00
  1.83108987E-05  9.41651653E-05 -4.16665095E-04  0.00000000E+00  0.00000000E+00
  6.24264158E-05  1.07125632E-03  2.62767533E-05  0.00000000E+00  0.00000000E+00
 -2.90160141E-04  3.53682381E-05  0.00000000E+00 -7.98123054E-05 -1.12053329E-04
  0.00000000E+00  0.00000000E+00 -9.51131917E-05  1.07133775E-04  0.00000000E+00
 -1.29441018E-04  4.25477830E-05  0.00000000E+00  0.00000000E+00  1.90792689E-05
  5.10844626E-04 -7.31544883E-04  6.67510945E-05 -6.77531073E-05  2.71181567E-04
 -1.80343585E-04 -2.72198317E-05 -3.92355041E-05  0.00000000E+00  1.59370875E-04
  2.55642064E-04  0.00000000E+00  4.69555406E-04  3.05227589E-04  0.00000000E+00
 -2.33343317E-04 -6.13479720E-05  0.00000000E+00 -1.41523595E-05  0.00000000E+00
  0.00000000E+00  1.69031431E-06  1.81625594E-05  5.83716893E-06  0.00000000E+00
  0.00000000E+00 -1.53610884E-04 -1.25015579E-05 -8.99021774E-06  0.00000000E+00
  0.00000000E+00 -1.64886346E-04 -7.66999484E-05  0.00000000E+00 -5.04368839E-06
 -6.68708623E-06  0.00000000E+00  0.00000000E+00 -1.95169947E-05  1.11095091E-05
  0.00000000E+00  3.92699716E-05  6.35144382E-05  0.00000000E+00  0.00000000E+00
  1.68854230E-04 -1.01280326E-04  3.65344694E-05  7.24187913E-05 -8.21884447E-05
 -2.93640953E-05  2.57673273E-05  1.71423859E-05  0.00000000E+00  2.19717352E-04
  3.36207316E-05  0.00000000E+00  1.09581272E-04  1.20902975E-05  0.00000000E+00
  9.01876739E-06  0.00000000E+00  0.00000000E+00 -5.66672007E-06  2.17657305E-05
  1.59188085E-05  0.00000000E+00  0.00000000E+00 -7.63640234E-05  7.56245629E-05
 -2.70065575E-04  3.78363731E-05 -1.46485088E-05 -5.35059467E-04  1.53080004E-04
  7.06447523E-06  1.33009398E-05  0.00000000E+00 -3.07404245E-06 -4.57842797E-05
  0.00000000E+00  1.79223030E-04  1.51247151E-04  0.00000000E+00 -4.11737858E-05
  5.30069162E-05  0.00000000E+00 -2.69869054E-06  0.00000000E+00  0.00000000E+00
 -7.79223676E-06 -1.00044506E-05  2.75619101E-05  0.00000000E+00  0.00000000E+00
  4.98293573E-05  1.06468747E-04  6.79218588E-05  0.00000000E+00  0.00000000E+00
 -3.09484978E-05 -8.35299414E-05  0.00000000E+00  7.38481506E-06  9.52968468E-06
  0.00000000E+00  0.00000000E+00 -5.41548535E-07 -2.74791955E-05  0.00000000E+00
 -1.62715116E-05 -4.09617862E-05  0.00000000E+00  0.00000000E+00 -1.11494164E-06
 -1.63669907E-05  7.62998477E-04  2.49145470E-05 -1.37645406E-05  2.81049198E-04
 -4.09834129E-04  1.52100573E-05  2.37045284E-05  0.00000000E+00 -6.08747517E-05
 -1.41028376E-04  0.00000000E+00  1.21934567E-04 -1.83617791E-04  0.00000000E+00
 -1.59524186E-04  1.41311322E-04  0.00000000E+00 -4.26671895E-06  0.00000000E+00
  0.00000000E+00 -3.17547948E-05 -8.58695557E-06 -4.63511062E-05  0.00000000E+00
  0.00000000E+00  9.68371433E-05  1.10875083E-04 -6.15667149E-05  0.00000000E+00
  0.00000000E+00  4.77386026E-05  3.30091108E-05  0.00000000E+00  1.82776382E-06
  5.42480018E-07  0.00000000E+00  0.00000000E+00 -1.00783652E-05 -4.28061518E-06
  0.00000000E+00  5.00664622E-06 -2.33952194E-05  0.00000000E+00  0.00000000E+00
  8.63200506E-05 -1.61410004E-04  2.36394880E-04  1.35025544E-03 -1.49544657E-04
 -7.20019064E-04  9.09902721E-04  6.24602252E-05 -7.23348781E-05  0.00000000E+00
  5.99776562E-04 -2.05705740E-03  0.00000000E+00  1.05780340E-04  4.82415900E-04
  0.00000000E+00  1.94724254E-04 -2.99116131E-04  0.00000000E+00 -1.27100836E-04
  0.00000000E+00  0.00000000E+00 -2.00781679E-04 -1.63909786E-04 -4.63290707E-04
  0.00000000E+00  0.00000000E+00 -5.67416616E-04 -9.23408475E-04 -4.32656678E-05
  0.00000000E+00  0.00000000E+00  6.58576674E-05  1.18358518E-04  0.00000000E+00
  7.19524007E-06  3.50566562E-05  0.00000000E+00  0.00000000E+00 -2.38266834E-05
 -4.73736036E-06  0.00000000E+00 -1.39753195E-04  1.60523645E-04  0.00000000E+00
  0.00000000E+00 -3.05558100E-04 -3.64394481E-05  9.76642420E-01 -9.88099639E-03
  4.35817794E-02  3.69277639E-03 -8.97747867E-04 -4.86976916E-04  2.11803374E-03
  0.00000000E+00  5.61149085E-04 -2.48661518E-03  0.00000000E+00 -1.01328645E-04
  8.35815175E-04  0.00000000E+00  9.97018642E-05 -6.42607433E-05  0.00000000E+00
 -1.94908383E-04  0.00000000E+00  0.00000000E+00 -7.27285619E-05 -4.33012955E-05
  4.07976606E-04  0.00000000E+00  0.00000000E+00  8.33917090E-04  5.10191791E-04
 -2.05570465E-04  0.00000000E+00  0.00000000E+00 -1.56107703E-04 -4.15494695E-05
  0.00000000E+00 -6.19045792E-06  7.00277746E-05  0.00000000E+00  0.00000000E+00
 -2.78237008E-05  9.49260864E-06  0.00000000E+00 -8.92342079E-05  8.98189402E-05
  0.00000000E+00  0.00000000E+00 -1.76752806E-04  1.92102710E-04  3.69874593E-04
  2.01839509E-03  1.42684013E-03 -1.50119961E-05  5.42636279E-05  2.67803097E-04
  0.00000000E+00  3.58272200E-04  1.02023092E-03  0.00000000E+00 -1.42023968E-04
  2.33840981E-04  0.00000000E+00 -2.49042058E-05  0.00000000E+00  0.00000000E+00
  3.42355513E-05 -3.08066722E-05 -2.19214845E-04  0.00000000E+00  0.00000000E+00
 -3.45914450E-04  4.12747422E-04  9.76833485E-01 -9.18801611E-03  4.34673357E-02
  1.08294934E-04 -1.91006754E-03 -2.04869187E-03 -8.16527737E-04  0.00000000E+00
  2.09087890E-03  7.54400434E-04  0.00000000E+00 -3.76324931E-04  6.37033562E-04
  0.00000000E+00  2.22881228E-04 -3.01991838E-04  0.00000000E+00  3.00711283E-05
  0.00000000E+00  0.00000000E+00 -7.49989368E-05  6.51437448E-05  7.66319455E-04
  0.00000000E+00  0.00000000E+00 -2.08237255E-04  3.53891636E-04 -2.40963563E-04
  0.00000000E+00  0.00000000E+00  3.25856861E-04 -6.33108492E-07  0.00000000E+00
 -8.11416456E-05  1.58380447E-06  0.00000000E+00  0.00000000E+00  1.48921932E-05