 Entering Gaussian System, Link 0=g16
 Input=hoono_r4_1p183662.gjf
 Output=hoono_r4_1p183662.log
 Initial command:
 /sw/contrib/gaussian/g16/B01/g16/l1.exe "/scr/Gau-26718.inp" -scrdir="/scr/"
 Entering Link 1 = /sw/contrib/gaussian/g16/B01/g16/l1.exe PID=     26719.
  
 Copyright (c) 1988-2017, Gaussian, Inc.  All Rights Reserved.
  
 This is part of the Gaussian(R) 16 program.  It is based on
 the Gaussian(R) 09 system (copyright 2009, Gaussian, Inc.),
 the Gaussian(R) 03 system (copyright 2003, Gaussian, Inc.),
 the Gaussian(R) 98 system (copyright 1998, Gaussian, Inc.),
 the Gaussian(R) 94 system (copyright 1995, Gaussian, Inc.),
 the Gaussian 92(TM) system (copyright 1992, Gaussian, Inc.),
 the Gaussian 90(TM) system (copyright 1990, Gaussian, Inc.),
 the Gaussian 88(TM) system (copyright 1988, Gaussian, Inc.),
 the Gaussian 86(TM) system (copyright 1986, Carnegie Mellon
 University), and the Gaussian 82(TM) system (copyright 1983,
 Carnegie Mellon University). Gaussian is a federally registered
 trademark of Gaussian, Inc.
  
 This software contains proprietary and confidential information,
 including trade secrets, belonging to Gaussian, Inc.
  
 This software is provided under written license and may be
 used, copied, transmitted, or stored only in accord with that
 written license.
  
 The following legend is applicable only to US Government
 contracts under FAR:
  
                    RESTRICTED RIGHTS LEGEND
  
 Use, reproduction and disclosure by the US Government is
 subject to restrictions as set forth in subparagraphs (a)
 and (c) of the Commercial Computer Software - Restricted
 Rights clause in FAR 52.227-19.
  
 Gaussian, Inc.
 340 Quinnipiac St., Bldg. 40, Wallingford CT 06492
  
  
 ---------------------------------------------------------------
 Warning -- This program may not be used in any manner that
 competes with the business of Gaussian, Inc. or will provide
 assistance to any competitor of Gaussian, Inc.  The licensee
 of this program is prohibited from giving any competitor of
 Gaussian, Inc. access to this program.  By using this program,
 the user acknowledges that Gaussian, Inc. is engaged in the
 business of creating and licensing software in the field of
 computational chemistry and represents and warrants to the
 licensee that it is not a competitor of Gaussian, Inc. and that
 it will not use this program in any manner prohibited above.
 ---------------------------------------------------------------
  

 Cite this work as:
 Gaussian 16, Revision B.01,
 M. J. Frisch, G. W. Trucks, H. B. Schlegel, G. E. Scuseria, 
 M. A. Robb, J. R. Cheeseman, G. Scalmani, V. Barone, 
 G. A. Petersson, H. Nakatsuji, X. Li, M. Caricato, A. V. Marenich, 
 J. Bloino, B. G. Janesko, R. Gomperts, B. Mennucci, H. P. Hratchian, 
 J. V. Ortiz, A. F. Izmaylov, J. L. Sonnenberg, D. Williams-Young, 
 F. Ding, F. Lipparini, F. Egidi, J. Goings, B. Peng, A. Petrone, 
 T. Henderson, D. Ranasinghe, V. G. Zakrzewski, J. Gao, N. Rega, 
 G. Zheng, W. Liang, M. Hada, M. Ehara, K. Toyota, R. Fukuda, 
 J. Hasegawa, M. Ishida, T. Nakajima, Y. Honda, O. Kitao, H. Nakai, 
 T. Vreven, K. Throssell, J. A. Montgomery, Jr., J. E. Peralta, 
 F. Ogliaro, M. J. Bearpark, J. J. Heyd, E. N. Brothers, K. N. Kudin, 
 V. N. Staroverov, T. A. Keith, R. Kobayashi, J. Normand, 
 K. Raghavachari, A. P. Rendell, J. C. Burant, S. S. Iyengar, 
 J. Tomasi, M. Cossi, J. M. Millam, M. Klene, C. Adamo, R. Cammi, 
 J. W. Ochterski, R. L. Martin, K. Morokuma, O. Farkas, 
 J. B. Foresman, and D. J. Fox, Gaussian, Inc., Wallingford CT, 2016.
 
 ******************************************
 Gaussian 16:  ES64L-G16RevB.01 20-Dec-2017
                 6-Mar-2022 
 ******************************************
 %nproc=28
 Will use up to   28 processors via shared memory.
 %mem=120GB
 %chk=hoono_r4_1p183662.chk
 ---------------------------------------
 #p freq mp2/aug-cc-pvtz density=current
 ---------------------------------------
 1/10=4,30=1,38=1/1,3;
 2/12=2,17=6,18=5,40=1/2;
 3/5=16,6=1,7=10,11=9,25=1,30=1,71=2,140=1/1,2,3;
 4//1;
 5/5=2,38=5,98=1/2;
 8/6=3,8=1,10=1,19=11,30=-1/1;
 9/15=3,16=-3/6;
 11/6=1,8=1,15=11,17=12,24=-1,27=1,28=-2,29=300,32=6,42=3/1,2,10;
 10/6=2,21=1/2;
 8/6=4,8=1,10=1,19=11,30=-1/11,4;
 10/5=1,20=4/2;
 11/12=2,14=11,16=1,17=2,28=-2,42=3,76=2/2,10,12;
 6/7=2,8=2,9=2,10=2,22=-1/1;
 7/8=1,10=1,12=2,25=1,44=2/1,2,3,16;
 1/10=4,30=1/3;
 99//99;
 Leave Link    1 at Sun Mar  6 19:17:28 2022, MaxMem= 16106127360 cpu:               2.5 elap:               0.1
 (Enter /sw/contrib/gaussian/g16/B01/g16/l101.exe)
 -----
 title
 -----
 Symbolic Z-matrix:
 Charge =  0 Multiplicity = 1
 H
 O                    1    r1
 O                    2    r2       1    a1
 N                    3    r3       2    a2       1    d1       0
 O                    4    r4       3    a3       2    d2       0
       Variables:
  r1                    0.98538                  
  r2                    1.42674                  
  r3                    1.38111                  
  r4                    1.18366                  
  a1                  100.63551                  
  a2                  113.13777                  
  a3                  114.33392                  
  d1                    0.                       
  d2                    0.                       
 
 ITRead=  0  0  0  0  0
 MicOpt= -1 -1 -1 -1 -1
 NAtoms=      5 NQM=        5 NQMF=       0 NMMI=      0 NMMIF=      0
                NMic=       0 NMicF=      0.
                    Isotopes and Nuclear Properties:
 (Nuclear quadrupole moments (NQMom) in fm**2, nuclear magnetic moments (NMagM)
  in nuclear magnetons)

  Atom         1           2           3           4           5
 IAtWgt=           1          16          16          14          16
 AtmWgt=   1.0078250  15.9949146  15.9949146  14.0030740  15.9949146
 NucSpn=           1           0           0           2           0
 AtZEff=  -0.0000000  -0.0000000  -0.0000000  -0.0000000  -0.0000000
 NQMom=    0.0000000   0.0000000   0.0000000   2.0440000   0.0000000
 NMagM=    2.7928460   0.0000000   0.0000000   0.4037610   0.0000000
 AtZNuc=   1.0000000   8.0000000   8.0000000   7.0000000   8.0000000
 Leave Link  101 at Sun Mar  6 19:17:28 2022, MaxMem= 16106127360 cpu:               2.3 elap:               0.1
 (Enter /sw/contrib/gaussian/g16/B01/g16/l103.exe)

 GradGradGradGradGradGradGradGradGradGradGradGradGradGradGradGradGradGrad
 Berny optimization.
 Initialization pass.
                       ----------------------------
                       !    Initial Parameters    !
                       ! (Angstroms and Degrees)  !
 ----------------------                            ----------------------
 !      Name          Value   Derivative information (Atomic Units)     !
 ------------------------------------------------------------------------
 !       r1          0.9854   calculate D2E/DX2 analytically            !
 !       r2          1.4267   calculate D2E/DX2 analytically            !
 !       r3          1.3811   calculate D2E/DX2 analytically            !
 !       r4          1.1837   calculate D2E/DX2 analytically            !
 !       a1        100.6355   calculate D2E/DX2 analytically            !
 !       a2        113.1378   calculate D2E/DX2 analytically            !
 !       a3        114.3339   calculate D2E/DX2 analytically            !
 !       d1          0.0      calculate D2E/DX2 analytically            !
 !       d2          0.0      calculate D2E/DX2 analytically            !
 ------------------------------------------------------------------------
 Trust Radius=3.00D-01 FncErr=1.00D-07 GrdErr=1.00D-07 EigMax=2.50D+02 EigMin=1.00D-04
 Number of steps in this run=      2 maximum allowed number of steps=      2.
 GradGradGradGradGradGradGradGradGradGradGradGradGradGradGradGradGradGrad

 Leave Link  103 at Sun Mar  6 19:17:28 2022, MaxMem= 16106127360 cpu:               0.5 elap:               0.0
 (Enter /sw/contrib/gaussian/g16/B01/g16/l202.exe)
                          Input orientation:                          
 ---------------------------------------------------------------------
 Center     Atomic      Atomic             Coordinates (Angstroms)
 Number     Number       Type             X           Y           Z
 ---------------------------------------------------------------------
      1          1           0        0.000000    0.000000    0.000000
      2          8           0        0.000000    0.000000    0.985377
      3          8           0        1.402227    0.000000    1.248696
      4          7           0        2.169996    0.000000    0.100659
      5          8           0        1.544629    0.000000   -0.904316
 ---------------------------------------------------------------------
                    Distance matrix (angstroms):
                    1          2          3          4          5
     1  H    0.000000
     2  O    0.985377   0.000000
     3  O    1.877627   1.426737   0.000000
     4  N    2.172329   2.343418   1.381108   0.000000
     5  O    1.789879   2.440659   2.157716   1.183663   0.000000
 Stoichiometry    HNO3
 Framework group  CS[SG(HNO3)]
 Deg. of freedom     7
 Full point group                 CS      NOp   2
 Largest Abelian subgroup         CS      NOp   2
 Largest concise Abelian subgroup C1      NOp   1
                         Standard orientation:                         
 ---------------------------------------------------------------------
 Center     Atomic      Atomic             Coordinates (Angstroms)
 Number     Number       Type             X           Y           Z
 ---------------------------------------------------------------------
      1          1           0        1.110752   -0.599468   -0.000000
      2          8           0        1.316397    0.364211    0.000000
      3          8           0        0.000000    0.914372    0.000000
      4          7           0       -0.990454   -0.048155   -0.000000
      5          8           0       -0.588593   -1.161513   -0.000000
 ---------------------------------------------------------------------
 Rotational constants (GHZ):          21.5342672           8.1232517           5.8982774
 Leave Link  202 at Sun Mar  6 19:17:28 2022, MaxMem= 16106127360 cpu:               3.0 elap:               0.2
 (Enter /sw/contrib/gaussian/g16/B01/g16/l301.exe)
 Standard basis: Aug-CC-pVTZ (5D, 7F)
 Ernie: Thresh=  0.10000D-02 Tol=  0.10000D-05 Strict=F.
 Ernie:  12 primitive shells out of 131 were deleted.
 There are   166 symmetry adapted cartesian basis functions of A'  symmetry.
 There are    79 symmetry adapted cartesian basis functions of A"  symmetry.
 There are   136 symmetry adapted basis functions of A'  symmetry.
 There are    71 symmetry adapted basis functions of A"  symmetry.
   207 basis functions,   315 primitive gaussians,   245 cartesian basis functions
    16 alpha electrons       16 beta electrons
       nuclear repulsion energy       123.0691695943 Hartrees.
 IExCor=    0 DFT=F Ex=HF Corr=None ExCW=0 ScaHFX=  1.000000
 ScaDFX=  1.000000  1.000000  1.000000  1.000000 ScalE2=  1.000000  1.000000
 IRadAn=      5 IRanWt=     -1 IRanGd=            0 ICorTp=0 IEmpDi=  4
 NAtoms=    5 NActive=    5 NUniq=    5 SFac= 1.00D+00 NAtFMM=   60 NAOKFM=F Big=F
 Integral buffers will be    131072 words long.
 Raffenetti 1 integral format.
 Two-electron integral symmetry is turned on.
 Leave Link  301 at Sun Mar  6 19:17:28 2022, MaxMem= 16106127360 cpu:               2.6 elap:               0.1
 (Enter /sw/contrib/gaussian/g16/B01/g16/l302.exe)
 NPDir=0 NMtPBC=     1 NCelOv=     1 NCel=       1 NClECP=     1 NCelD=      1
         NCelK=      1 NCelE2=     1 NClLst=     1 CellRange=     0.0.
 One-electron integrals computed using PRISM.
 One-electron integral symmetry used in STVInt
 NBasis=   207 RedAO= T EigKep=  1.29D-04  NBF=   136    71
 NBsUse=   207 1.00D-06 EigRej= -1.00D+00 NBFU=   136    71
 Leave Link  302 at Sun Mar  6 19:17:28 2022, MaxMem= 16106127360 cpu:               4.5 elap:               0.2
 (Enter /sw/contrib/gaussian/g16/B01/g16/l303.exe)
 DipDrv:  MaxL=1.
 Leave Link  303 at Sun Mar  6 19:17:29 2022, MaxMem= 16106127360 cpu:               1.5 elap:               0.1
 (Enter /sw/contrib/gaussian/g16/B01/g16/l401.exe)
 ExpMin= 2.53D-02 ExpMax= 1.53D+04 ExpMxC= 5.22D+02 IAcc=3 IRadAn=         5 AccDes= 0.00D+00
 Harris functional with IExCor=  205 and IRadAn=       5 diagonalized for initial guess.
 HarFok:  IExCor=  205 AccDes= 0.00D+00 IRadAn=         5 IDoV= 1 UseB2=F ITyADJ=14
 ICtDFT=  3500011 ScaDFX=  1.000000  1.000000  1.000000  1.000000
 FoFCou: FMM=F IPFlag=           0 FMFlag=      100000 FMFlg1=           0
         NFxFlg=           0 DoJE=T BraDBF=F KetDBF=T FulRan=T
         wScrn=  0.000000 ICntrl=       500 IOpCl=  0 I1Cent=   200000004 NGrid=           0
         NMat0=    1 NMatS0=      1 NMatT0=    0 NMatD0=    1 NMtDS0=    0 NMtDT0=    0
 Petite list used in FoFCou.
 Harris En= -279.644747945754    
 JPrj=0 DoOrth=F DoCkMO=F.
 Initial guess orbital symmetries:
       Occupied  (A') (A') (A') (A') (A') (A') (A') (A') (A') (A')
                 (A") (A') (A") (A') (A") (A')
       Virtual   (A") (A') (A') (A') (A') (A") (A') (A') (A') (A')
                 (A") (A') (A") (A') (A') (A") (A') (A') (A") (A')
                 (A') (A') (A') (A') (A") (A') (A') (A") (A') (A')
                 (A') (A") (A") (A') (A') (A") (A') (A") (A') (A")
                 (A') (A") (A') (A") (A') (A') (A') (A") (A') (A')
                 (A') (A") (A') (A") (A') (A") (A') (A') (A') (A")
                 (A') (A') (A") (A') (A') (A') (A") (A") (A') (A')
                 (A") (A') (A") (A") (A') (A') (A") (A') (A') (A')
                 (A") (A') (A') (A") (A') (A") (A') (A") (A') (A')
                 (A') (A") (A') (A") (A') (A') (A") (A') (A") (A')
                 (A") (A') (A') (A") (A") (A') (A') (A') (A") (A')
                 (A") (A') (A') (A') (A") (A') (A') (A') (A") (A')
                 (A") (A') (A') (A") (A") (A") (A") (A') (A') (A')
                 (A') (A') (A') (A") (A') (A") (A") (A') (A') (A')
                 (A") (A") (A') (A') (A') (A") (A') (A') (A') (A")
                 (A') (A') (A') (A") (A') (A") (A") (A') (A') (A")
                 (A') (A") (A") (A') (A") (A') (A') (A") (A") (A')
                 (A") (A") (A") (A') (A') (A") (A') (A') (A") (A')
                 (A') (A') (A') (A') (A') (A') (A') (A') (A') (A')
                 (A')
 The electronic state of the initial guess is 1-A'.
 Leave Link  401 at Sun Mar  6 19:17:29 2022, MaxMem= 16106127360 cpu:               6.8 elap:               0.3
 (Enter /sw/contrib/gaussian/g16/B01/g16/l502.exe)
 Keep R1 ints in memory in symmetry-blocked form, NReq=348887737.
 FoFCou: FMM=F IPFlag=           0 FMFlag=           0 FMFlg1=           0
         NFxFlg=           0 DoJE=F BraDBF=F KetDBF=F FulRan=T
         wScrn=  0.000000 ICntrl=       600 IOpCl=  0 I1Cent=           0 NGrid=           0
         NMat0=    1 NMatS0=  21528 NMatT0=    0 NMatD0=    1 NMtDS0=    0 NMtDT0=    0
 Petite list used in FoFCou.
 Closed shell SCF:
 Using DIIS extrapolation, IDIIS=  1040.
 NGot= 16106127360 LenX= 15988850015 LenY= 15988789549
 Requested convergence on RMS density matrix=1.00D-08 within 128 cycles.
 Requested convergence on MAX density matrix=1.00D-06.
 Requested convergence on             energy=1.00D-06.
 No special actions if energy rises.

 Cycle   1  Pass 1  IDiag  1:
 E= -279.367945504584    
 DIIS: error= 2.72D-02 at cycle   1 NSaved=   1.
 NSaved= 1 IEnMin= 1 EnMin= -279.367945504584     IErMin= 1 ErrMin= 2.72D-02
 ErrMax= 2.72D-02  0.00D+00 EMaxC= 1.00D-01 BMatC= 4.49D-01 BMatP= 4.49D-01
 IDIUse=3 WtCom= 7.28D-01 WtEn= 2.72D-01
 Coeff-Com:  0.100D+01
 Coeff-En:   0.100D+01
 Coeff:      0.100D+01
 Gap=     0.502 Goal=   None    Shift=    0.000
 GapD=    0.502 DampG=2.000 DampE=0.500 DampFc=1.0000 IDamp=-1.
 RMSDP=1.66D-03 MaxDP=8.74D-02              OVMax= 1.19D-01

 Cycle   2  Pass 1  IDiag  1:
 E= -279.451197940953     Delta-E=       -0.083252436369 Rises=F Damp=F
 DIIS: error= 1.86D-02 at cycle   2 NSaved=   2.
 NSaved= 2 IEnMin= 2 EnMin= -279.451197940953     IErMin= 2 ErrMin= 1.86D-02
 ErrMax= 1.86D-02  0.00D+00 EMaxC= 1.00D-01 BMatC= 8.15D-02 BMatP= 4.49D-01
 IDIUse=3 WtCom= 8.14D-01 WtEn= 1.86D-01
 Coeff-Com:  0.211D+00 0.789D+00
 Coeff-En:   0.459D-01 0.954D+00
 Coeff:      0.180D+00 0.820D+00
 Gap=     0.561 Goal=   None    Shift=    0.000
 RMSDP=9.52D-04 MaxDP=3.71D-02 DE=-8.33D-02 OVMax= 8.73D-02

 Cycle   3  Pass 1  IDiag  1:
 E= -279.486265819909     Delta-E=       -0.035067878957 Rises=F Damp=F
 DIIS: error= 1.09D-02 at cycle   3 NSaved=   3.
 NSaved= 3 IEnMin= 3 EnMin= -279.486265819909     IErMin= 3 ErrMin= 1.09D-02
 ErrMax= 1.09D-02  0.00D+00 EMaxC= 1.00D-01 BMatC= 3.04D-02 BMatP= 8.15D-02
 IDIUse=3 WtCom= 8.91D-01 WtEn= 1.09D-01
 Coeff-Com: -0.345D-01 0.369D+00 0.665D+00
 Coeff-En:   0.000D+00 0.224D+00 0.776D+00
 Coeff:     -0.307D-01 0.353D+00 0.677D+00
 Gap=     0.541 Goal=   None    Shift=    0.000
 RMSDP=4.05D-04 MaxDP=1.53D-02 DE=-3.51D-02 OVMax= 3.74D-02

 Cycle   4  Pass 1  IDiag  1:
 E= -279.506936673476     Delta-E=       -0.020670853566 Rises=F Damp=F
 DIIS: error= 1.63D-03 at cycle   4 NSaved=   4.
 NSaved= 4 IEnMin= 4 EnMin= -279.506936673476     IErMin= 4 ErrMin= 1.63D-03
 ErrMax= 1.63D-03  0.00D+00 EMaxC= 1.00D-01 BMatC= 5.75D-04 BMatP= 3.04D-02
 IDIUse=3 WtCom= 9.84D-01 WtEn= 1.63D-02
 Coeff-Com: -0.118D-01 0.480D-01 0.152D+00 0.812D+00
 Coeff-En:   0.000D+00 0.000D+00 0.000D+00 0.100D+01
 Coeff:     -0.116D-01 0.472D-01 0.150D+00 0.815D+00
 Gap=     0.527 Goal=   None    Shift=    0.000
 RMSDP=9.73D-05 MaxDP=2.31D-03 DE=-2.07D-02 OVMax= 1.15D-02

 Cycle   5  Pass 1  IDiag  1:
 E= -279.507716660967     Delta-E=       -0.000779987491 Rises=F Damp=F
 DIIS: error= 1.08D-03 at cycle   5 NSaved=   5.
 NSaved= 5 IEnMin= 5 EnMin= -279.507716660967     IErMin= 5 ErrMin= 1.08D-03
 ErrMax= 1.08D-03  0.00D+00 EMaxC= 1.00D-01 BMatC= 9.90D-05 BMatP= 5.75D-04
 IDIUse=3 WtCom= 9.89D-01 WtEn= 1.08D-02
 Coeff-Com:  0.527D-02-0.662D-01-0.109D+00 0.607D-01 0.111D+01
 Coeff-En:   0.000D+00 0.000D+00 0.000D+00 0.000D+00 0.100D+01
 Coeff:      0.522D-02-0.655D-01-0.108D+00 0.600D-01 0.111D+01
 Gap=     0.531 Goal=   None    Shift=    0.000
 RMSDP=7.83D-05 MaxDP=2.08D-03 DE=-7.80D-04 OVMax= 1.26D-02

 Cycle   6  Pass 1  IDiag  1:
 E= -279.508065203804     Delta-E=       -0.000348542837 Rises=F Damp=F
 DIIS: error= 3.31D-04 at cycle   6 NSaved=   6.
 NSaved= 6 IEnMin= 6 EnMin= -279.508065203804     IErMin= 6 ErrMin= 3.31D-04
 ErrMax= 3.31D-04  0.00D+00 EMaxC= 1.00D-01 BMatC= 2.32D-05 BMatP= 9.90D-05
 IDIUse=3 WtCom= 9.97D-01 WtEn= 3.31D-03
 Coeff-Com:  0.187D-02-0.744D-02-0.180D-01-0.183D+00 0.173D-01 0.119D+01
 Coeff-En:   0.000D+00 0.000D+00 0.000D+00 0.000D+00 0.000D+00 0.100D+01
 Coeff:      0.186D-02-0.742D-02-0.180D-01-0.182D+00 0.172D-01 0.119D+01
 Gap=     0.531 Goal=   None    Shift=    0.000
 RMSDP=4.58D-05 MaxDP=1.05D-03 DE=-3.49D-04 OVMax= 5.95D-03

 Cycle   7  Pass 1  IDiag  1:
 E= -279.508147642008     Delta-E=       -0.000082438204 Rises=F Damp=F
 DIIS: error= 1.29D-04 at cycle   7 NSaved=   7.
 NSaved= 7 IEnMin= 7 EnMin= -279.508147642008     IErMin= 7 ErrMin= 1.29D-04
 ErrMax= 1.29D-04  0.00D+00 EMaxC= 1.00D-01 BMatC= 3.42D-06 BMatP= 2.32D-05
 IDIUse=3 WtCom= 9.99D-01 WtEn= 1.29D-03
 Coeff-Com: -0.108D-02 0.116D-01 0.249D-01 0.186D-01-0.184D+00-0.161D+00
 Coeff-Com:  0.129D+01
 Coeff-En:   0.000D+00 0.000D+00 0.000D+00 0.000D+00 0.000D+00 0.000D+00
 Coeff-En:   0.100D+01
 Coeff:     -0.108D-02 0.116D-01 0.249D-01 0.186D-01-0.184D+00-0.160D+00
 Coeff:      0.129D+01
 Gap=     0.532 Goal=   None    Shift=    0.000
 RMSDP=1.73D-05 MaxDP=4.96D-04 DE=-8.24D-05 OVMax= 2.27D-03

 Cycle   8  Pass 1  IDiag  1:
 E= -279.508159087751     Delta-E=       -0.000011445743 Rises=F Damp=F
 DIIS: error= 4.42D-05 at cycle   8 NSaved=   8.
 NSaved= 8 IEnMin= 8 EnMin= -279.508159087751     IErMin= 8 ErrMin= 4.42D-05
 ErrMax= 4.42D-05  0.00D+00 EMaxC= 1.00D-01 BMatC= 5.35D-07 BMatP= 3.42D-06
 IDIUse=1 WtCom= 1.00D+00 WtEn= 0.00D+00
 Coeff-Com: -0.540D-03 0.407D-02 0.942D-02 0.246D-01-0.569D-01-0.186D+00
 Coeff-Com:  0.346D+00 0.859D+00
 Coeff:     -0.540D-03 0.407D-02 0.942D-02 0.246D-01-0.569D-01-0.186D+00
 Coeff:      0.346D+00 0.859D+00
 Gap=     0.532 Goal=   None    Shift=    0.000
 RMSDP=5.10D-06 MaxDP=1.42D-04 DE=-1.14D-05 OVMax= 5.98D-04

 Cycle   9  Pass 1  IDiag  1:
 E= -279.508160303885     Delta-E=       -0.000001216134 Rises=F Damp=F
 DIIS: error= 2.33D-05 at cycle   9 NSaved=   9.
 NSaved= 9 IEnMin= 9 EnMin= -279.508160303885     IErMin= 9 ErrMin= 2.33D-05
 ErrMax= 2.33D-05  0.00D+00 EMaxC= 1.00D-01 BMatC= 1.06D-07 BMatP= 5.35D-07
 IDIUse=1 WtCom= 1.00D+00 WtEn= 0.00D+00
 Coeff-Com:  0.229D-03-0.251D-02-0.515D-02-0.543D-02 0.456D-01 0.474D-01
 Coeff-Com: -0.332D+00 0.472D-01 0.120D+01
 Coeff:      0.229D-03-0.251D-02-0.515D-02-0.543D-02 0.456D-01 0.474D-01
 Coeff:     -0.332D+00 0.472D-01 0.120D+01
 Gap=     0.532 Goal=   None    Shift=    0.000
 RMSDP=2.28D-06 MaxDP=6.12D-05 DE=-1.22D-06 OVMax= 2.38D-04

 Cycle  10  Pass 1  IDiag  1:
 E= -279.508160531881     Delta-E=       -0.000000227996 Rises=F Damp=F
 DIIS: error= 5.27D-06 at cycle  10 NSaved=  10.
 NSaved=10 IEnMin=10 EnMin= -279.508160531881     IErMin=10 ErrMin= 5.27D-06
 ErrMax= 5.27D-06  0.00D+00 EMaxC= 1.00D-01 BMatC= 6.91D-09 BMatP= 1.06D-07
 IDIUse=1 WtCom= 1.00D+00 WtEn= 0.00D+00
 Coeff-Com: -0.339D-04 0.460D-03 0.110D-02-0.169D-02-0.102D-01 0.497D-02
 Coeff-Com:  0.684D-01-0.558D-01-0.418D+00 0.141D+01
 Coeff:     -0.339D-04 0.460D-03 0.110D-02-0.169D-02-0.102D-01 0.497D-02
 Coeff:      0.684D-01-0.558D-01-0.418D+00 0.141D+01
 Gap=     0.532 Goal=   None    Shift=    0.000
 RMSDP=6.38D-07 MaxDP=2.39D-05 DE=-2.28D-07 OVMax= 6.66D-05

 Cycle  11  Pass 1  IDiag  1:
 E= -279.508160552282     Delta-E=       -0.000000020401 Rises=F Damp=F
 DIIS: error= 2.11D-06 at cycle  11 NSaved=  11.
 NSaved=11 IEnMin=11 EnMin= -279.508160552282     IErMin=11 ErrMin= 2.11D-06
 ErrMax= 2.11D-06  0.00D+00 EMaxC= 1.00D-01 BMatC= 6.74D-10 BMatP= 6.91D-09
 IDIUse=1 WtCom= 1.00D+00 WtEn= 0.00D+00
 Coeff-Com: -0.141D-04 0.139D-03 0.271D-03 0.911D-03-0.156D-02-0.708D-02
 Coeff-Com:  0.148D-01 0.214D-01-0.264D-01-0.391D+00 0.139D+01
 Coeff:     -0.141D-04 0.139D-03 0.271D-03 0.911D-03-0.156D-02-0.708D-02
 Coeff:      0.148D-01 0.214D-01-0.264D-01-0.391D+00 0.139D+01
 Gap=     0.532 Goal=   None    Shift=    0.000
 RMSDP=2.21D-07 MaxDP=8.00D-06 DE=-2.04D-08 OVMax= 2.53D-05

 Cycle  12  Pass 1  IDiag  1:
 E= -279.508160554712     Delta-E=       -0.000000002430 Rises=F Damp=F
 DIIS: error= 5.48D-07 at cycle  12 NSaved=  12.
 NSaved=12 IEnMin=12 EnMin= -279.508160554712     IErMin=12 ErrMin= 5.48D-07
 ErrMax= 5.48D-07  0.00D+00 EMaxC= 1.00D-01 BMatC= 6.43D-11 BMatP= 6.74D-10
 IDIUse=1 WtCom= 1.00D+00 WtEn= 0.00D+00
 Coeff-Com:  0.336D-05-0.504D-04-0.103D-03 0.185D-04 0.109D-02-0.659D-05
 Coeff-Com: -0.757D-02 0.414D-02 0.364D-01-0.634D-01-0.283D+00 0.131D+01
 Coeff:      0.336D-05-0.504D-04-0.103D-03 0.185D-04 0.109D-02-0.659D-05
 Coeff:     -0.757D-02 0.414D-02 0.364D-01-0.634D-01-0.283D+00 0.131D+01
 Gap=     0.532 Goal=   None    Shift=    0.000
 RMSDP=7.46D-08 MaxDP=2.33D-06 DE=-2.43D-09 OVMax= 8.26D-06

 Cycle  13  Pass 1  IDiag  1:
 E= -279.508160554934     Delta-E=       -0.000000000222 Rises=F Damp=F
 DIIS: error= 1.27D-07 at cycle  13 NSaved=  13.
 NSaved=13 IEnMin=13 EnMin= -279.508160554934     IErMin=13 ErrMin= 1.27D-07
 ErrMax= 1.27D-07  0.00D+00 EMaxC= 1.00D-01 BMatC= 4.38D-12 BMatP= 6.43D-11
 IDIUse=1 WtCom= 1.00D+00 WtEn= 0.00D+00
 Coeff-Com:  0.667D-06-0.478D-05-0.313D-05-0.933D-04-0.833D-04 0.751D-03
 Coeff-Com: -0.314D-04-0.245D-02-0.548D-02 0.524D-01-0.876D-01-0.223D+00
 Coeff-Com:  0.127D+01
 Coeff:      0.667D-06-0.478D-05-0.313D-05-0.933D-04-0.833D-04 0.751D-03
 Coeff:     -0.314D-04-0.245D-02-0.548D-02 0.524D-01-0.876D-01-0.223D+00
 Coeff:      0.127D+01
 Gap=     0.532 Goal=   None    Shift=    0.000
 RMSDP=1.81D-08 MaxDP=5.04D-07 DE=-2.22D-10 OVMax= 1.65D-06

 Cycle  14  Pass 1  IDiag  1:
 E= -279.508160554949     Delta-E=       -0.000000000014 Rises=F Damp=F
 DIIS: error= 3.13D-08 at cycle  14 NSaved=  14.
 NSaved=14 IEnMin=14 EnMin= -279.508160554949     IErMin=14 ErrMin= 3.13D-08
 ErrMax= 3.13D-08  0.00D+00 EMaxC= 1.00D-01 BMatC= 3.06D-13 BMatP= 4.38D-12
 IDIUse=1 WtCom= 1.00D+00 WtEn= 0.00D+00
 Coeff-Com: -0.319D-06 0.429D-05 0.773D-05 0.601D-05-0.870D-04-0.229D-04
 Coeff-Com:  0.541D-03-0.726D-04-0.251D-02 0.252D-02 0.198D-01-0.643D-01
 Coeff-Com: -0.689D-01 0.111D+01
 Coeff:     -0.319D-06 0.429D-05 0.773D-05 0.601D-05-0.870D-04-0.229D-04
 Coeff:      0.541D-03-0.726D-04-0.251D-02 0.252D-02 0.198D-01-0.643D-01
 Coeff:     -0.689D-01 0.111D+01
 Gap=     0.532 Goal=   None    Shift=    0.000
 RMSDP=3.36D-09 MaxDP=8.86D-08 DE=-1.44D-11 OVMax= 3.65D-07

 SCF Done:  E(RHF) =  -279.508160555     A.U. after   14 cycles
            NFock= 14  Conv=0.34D-08     -V/T= 2.0021
 KE= 2.789357689266D+02 PE=-9.070440084726D+02 EE= 2.255309093967D+02
 Leave Link  502 at Sun Mar  6 19:17:33 2022, MaxMem= 16106127360 cpu:              56.4 elap:               3.6
 (Enter /sw/contrib/gaussian/g16/B01/g16/l801.exe)
 ExpMin= 2.53D-02 ExpMax= 1.53D+04 ExpMxC= 5.22D+02 IAcc=3 IRadAn=         5 AccDes= 0.00D+00
 HarFok:  IExCor=  205 AccDes= 0.00D+00 IRadAn=         5 IDoV=-2 UseB2=F ITyADJ=14
 ICtDFT= 12500011 ScaDFX=  1.000000  1.000000  1.000000  1.000000
 Largest valence mixing into a core orbital is  2.06D-04
 Largest core mixing into a valence orbital is  3.07D-05
 Range of M.O.s used for correlation:     5   207
 NBasis=   207 NAE=    16 NBE=    16 NFC=     4 NFV=     0
 NROrb=    203 NOA=    12 NOB=    12 NVA=   191 NVB=   191

 **** Warning!!: The largest alpha MO coefficient is  0.15769279D+02

 Leave Link  801 at Sun Mar  6 19:17:33 2022, MaxMem= 16106127360 cpu:               4.2 elap:               0.2
 (Enter /sw/contrib/gaussian/g16/B01/g16/l906.exe)
 Frozen-core derivative calculation, NFC=   4 NFV=   0.
 FulOut=F Deriv=T AODrv=T NAtomX=     5
   MMem=           0  MDisk=          12 MDiskD=          12
  W3Min=      811440 MinDsk=     2425030 NBas6D=         245
 NBas2D=       30762    NTT=       30135    LW2=     7400000
    MDV= 16105571518 MDiskM=      328644 NBas2p=       30759
 Disk-based method using ON**2 memory for 12 occupieds at a time.
 Permanent disk used for amplitudes=    11516536 words.
 Estimated scratch disk usage=   321863743 words.
 IMap=   1   2   3   4   5   6   7   8   9  10  11  12  13  14  15  16
 Actual    scratch disk usage=   310892607 words.
 JobTyp=1 Pass  1:  I=   5 to  16 NPSUse= 28 ParTrn=T ParDer=T DoDerP=T.
 (rs|ai) integrals will be sorted in core.
 Spin components of T(2) and E(2):
     alpha-alpha T2 =       0.3455893504D-01 E2=     -0.1242940824D+00
     alpha-beta  T2 =       0.1832627660D+00 E2=     -0.6983213103D+00
     beta-beta   T2 =       0.3455893504D-01 E2=     -0.1242940824D+00
 The integrals were generated   1 times.
 ANorm=    0.1119098135D+01
 E2 =    -0.9469094752D+00 EUMP2 =    -0.28045507003010D+03
 Leave Link  906 at Sun Mar  6 19:19:10 2022, MaxMem= 16106127360 cpu:            2722.1 elap:              97.3
 (Enter /sw/contrib/gaussian/g16/B01/g16/l1101.exe)
 Using compressed Sx but separate Hx and Fx, NAtomX=     5.
 Will process      6 centers per pass.
 Leave Link 1101 at Sun Mar  6 19:19:10 2022, MaxMem= 16106127360 cpu:               5.1 elap:               0.2
 (Enter /sw/contrib/gaussian/g16/B01/g16/l1102.exe)
 Leave Link 1102 at Sun Mar  6 19:19:10 2022, MaxMem= 16106127360 cpu:               0.5 elap:               0.0
 (Enter /sw/contrib/gaussian/g16/B01/g16/l1110.exe)
 Forming Gx(P) for the SCF density, NAtomX=     5.
 Integral derivatives from FoFJK, PRISM(SPDF).
 Do as many integral derivatives as possible in FoFJK.
 G2DrvN: MDV=   16106126844.
 G2DrvN: will do     6 centers at a time, making    1 passes.
 Calling FoFCou, ICntrl=  3107 FMM=F I1Cent=   0 AccDes= 0.00D+00.
 FoFJK:  IHMeth= 1 ICntrl=    3107 DoSepK=F KAlg= 0 I1Cent=           0 FoldK=F
 IRaf=         0 NMat=       1 IRICut=       1 DoRegI=T DoRafI=F ISym2E= 1 IDoP0=0 IntGTp=1.
 FoFCou: FMM=F IPFlag=           0 FMFlag=      100000 FMFlg1=           0
         NFxFlg=           0 DoJE=F BraDBF=F KetDBF=F FulRan=T
         wScrn=  0.000000 ICntrl=      3107 IOpCl=  0 I1Cent=           0 NGrid=           0
         NMat0=    1 NMatS0=      1 NMatT0=    0 NMatD0=    1 NMtDS0=    0 NMtDT0=    0
 Petite list used in FoFCou.
 End of G2Drv F.D. properties file   721 does not exist.
 End of G2Drv F.D. properties file   722 does not exist.
 End of G2Drv F.D. properties file   788 does not exist.
 Leave Link 1110 at Sun Mar  6 19:19:14 2022, MaxMem= 16106127360 cpu:              87.2 elap:               3.2
 (Enter /sw/contrib/gaussian/g16/B01/g16/l1002.exe)
 Minotr:  Closed shell wavefunction.
          IDoAtm=11111
          Frozen-core window.
          Direct CPHF calculation.
          Differentiating once with respect to electric field.
                with respect to dipole field.
          Differentiating once with respect to nuclear coordinates.
          Requested convergence is 1.0D-08 RMS, and 1.0D-07 maximum.
          Secondary convergence is 1.0D-12 RMS, and 1.0D-12 maximum.
          NewPWx=T KeepS1=T KeepF1=T KeepIn=T MapXYZ=F SortEE=F KeepMc=T.
 Keep R1 ints in memory in symmetry-blocked form, NReq=348888983.
 FoFCou: FMM=F IPFlag=           0 FMFlag=           0 FMFlg1=           0
         NFxFlg=           0 DoJE=F BraDBF=F KetDBF=F FulRan=T
         wScrn=  0.000000 ICntrl=       600 IOpCl=  0 I1Cent=           0 NGrid=           0
         NMat0=    1 NMatS0=  21528 NMatT0=    0 NMatD0=    1 NMtDS0=    0 NMtDT0=    0
 Petite list used in FoFCou.
          MDV=   16106127360 using IRadAn=       1.
          Solving linear equations simultaneously, MaxMat=       0.
          There are    18 degrees of freedom in the 1st order CPHF.  IDoFFX=6 NUNeed=    18.
     15 vectors produced by pass  0 Test12= 1.70D-14 5.56D-09 XBig12= 7.78D+00 1.19D+00.
 AX will form    15 AO Fock derivatives at one time.
     15 vectors produced by pass  1 Test12= 1.70D-14 5.56D-09 XBig12= 1.32D+00 2.19D-01.
     15 vectors produced by pass  2 Test12= 1.70D-14 5.56D-09 XBig12= 6.55D-02 5.67D-02.
     15 vectors produced by pass  3 Test12= 1.70D-14 5.56D-09 XBig12= 1.92D-03 1.09D-02.
     15 vectors produced by pass  4 Test12= 1.70D-14 5.56D-09 XBig12= 4.24D-05 1.20D-03.
     15 vectors produced by pass  5 Test12= 1.70D-14 5.56D-09 XBig12= 5.83D-07 1.23D-04.
     15 vectors produced by pass  6 Test12= 1.70D-14 5.56D-09 XBig12= 4.52D-09 1.32D-05.
     14 vectors produced by pass  7 Test12= 1.70D-14 5.56D-09 XBig12= 3.40D-11 7.88D-07.
      3 vectors produced by pass  8 Test12= 1.70D-14 5.56D-09 XBig12= 2.36D-13 6.07D-08.
      1 vectors produced by pass  9 Test12= 1.70D-14 5.56D-09 XBig12= 1.57D-15 7.36D-09.
 InvSVY:  IOpt=1 It=  1 EMax= 1.11D-15
 Solved reduced A of dimension   123 with    15 vectors.
 FullF1:  Do perturbations      1 to      18.
 Saving first derivative matrices.
 End of Minotr F.D. properties file   721 does not exist.
 End of Minotr F.D. properties file   722 does not exist.
 End of Minotr F.D. properties file   788 does not exist.
 Leave Link 1002 at Sun Mar  6 19:19:16 2022, MaxMem= 16106127360 cpu:              77.4 elap:               2.9
 (Enter /sw/contrib/gaussian/g16/B01/g16/l811.exe)
 MDV= 16106127360.
 Form MO integral derivatives with frozen-active canonical formalism.
 MOERI=1 MOERIx=1 NAtoms=     5 NAtomX=     5.
 Discarding MO integrals.
 MO basis two electron integral derivatives will not be stored on disk.
 IAlg= 3 DoFC=T DoPWx=T Debug=F.
 Frozen-core window:  NFC=   4 NFV=   0.
 Reordered first order wavefunction length =     18678272
 In DefCFB: NBatch=  1 ICI= 16 ICA=191 LFMax= 96
            Large arrays: LIAPS=   619940160 LIARS=   288257200 words.
 In StABat: MaxSiz= 55 MinSiz= 25 NAtomB=  5
 DoIAMN: NPSUse= 28.
 Leave Link  811 at Sun Mar  6 19:20:39 2022, MaxMem= 16106127360 cpu:            2292.5 elap:              82.0
 (Enter /sw/contrib/gaussian/g16/B01/g16/l804.exe)
 Frozen-core window:  NFC=   4 NFV=   0.
 Closed-shell transformation, MDV= 16106127360 ITran=4 ISComp=1.
 Semi-Direct transformation.
 ModeAB=           2 MOrb=            16 LenV=   16104919883
 LASXX=     67341636 LTotXX=    67341636 LenRXX=    67341636
 LTotAB=    68301760 MaxLAS=    99807120 LenRXY=    99807120
 NonZer=   134683272 LenScr=   202817536 LnRSAI=           0
 LnScr1=           0 LExtra=           0 Total=    369966292
 MaxDsk=          -1 SrtSym=           F ITran=            4
 DoSDTr:  NPSUse= 28
 JobTyp=0 Pass  1:  I=   1 to  16.
 (rs|ai) integrals will be sorted in core.
 Complete sort for first half transformation.
 First half transformation complete.
 Begin second half transformation for I=  10.
 Begin second half transformation for I=  10.
 Complete sort for second half transformation.
 Second half transformation complete.
 Spin components of T(2) and E(2):
     alpha-alpha T2 =       0.3455893504D-01 E2=     -0.1242940824D+00
     alpha-beta  T2 =       0.1832627660D+00 E2=     -0.6983213103D+00
     beta-beta   T2 =       0.3455893504D-01 E2=     -0.1242940824D+00
 ANorm=    0.1582643760D+01
 E2 =    -0.9469094752D+00 EUMP2 =    -0.28045507003010D+03
 Leave Link  804 at Sun Mar  6 19:20:54 2022, MaxMem= 16106127360 cpu:             442.9 elap:              15.9
 (Enter /sw/contrib/gaussian/g16/B01/g16/l1002.exe)
 Minotr:  Closed shell wavefunction.
          Computing MP2/KS-MP2 derivatives.
          Using Z-Vector for PSCF gradient.
          Skipping F1 and S1 gradient terms here.
          IDoAtm=11111
          Frozen-core window.
          Using MO integrals in the linear equations.
          Forming densities via direct SCF.
          Differentiating once with respect to electric field.
                with respect to dipole field.
          Differentiating once with respect to nuclear coordinates.
          Using symmetry in CPHF.
          Requested convergence is 1.0D-10 RMS, and 1.0D-09 maximum.
          NewPWx=F KeepS1=T KeepF1=T KeepIn=T MapXYZ=F SortEE=F KeepMc=T.
          MDV=   16106127360 using IRadAn=       5.
          Solving linear equations separately, MaxMat=       0.
          There are     1 degrees of freedom in the 1st order CPHF.  IDoFFX=0 NUNeed=     1.
 FoFJK:  IHMeth= 1 ICntrl=       0 DoSepK=F KAlg= 0 I1Cent=           0 FoldK=F
 IRaf=         0 NMat=       1 IRICut=       1 DoRegI=T DoRafI=F ISym2E= 0 IDoP0=0 IntGTp=1.
 FoFCou: FMM=F IPFlag=           0 FMFlag=      100000 FMFlg1=           0
         NFxFlg=           0 DoJE=F BraDBF=F KetDBF=F FulRan=T
         wScrn=  0.000000 ICntrl=         0 IOpCl=  0 I1Cent=           0 NGrid=           0
         NMat0=    1 NMatS0=      1 NMatT0=    0 NMatD0=    1 NMtDS0=    0 NMtDT0=    0
 Symmetry not used in FoFCou.
 LinEq1:  Iter=  0 NonCon=     1 RMS=6.52D-03 Max=1.71D-01 NDo=     1
 LinEq1:  Iter=  1 NonCon=     1 RMS=1.96D-03 Max=2.96D-02 NDo=     1
 LinEq1:  Iter=  2 NonCon=     1 RMS=8.63D-04 Max=1.38D-02 NDo=     1
 LinEq1:  Iter=  3 NonCon=     1 RMS=3.64D-04 Max=7.53D-03 NDo=     1
 LinEq1:  Iter=  4 NonCon=     1 RMS=1.31D-04 Max=1.61D-03 NDo=     1
 LinEq1:  Iter=  5 NonCon=     1 RMS=7.22D-05 Max=1.34D-03 NDo=     1
 LinEq1:  Iter=  6 NonCon=     1 RMS=2.35D-05 Max=3.45D-04 NDo=     1
 LinEq1:  Iter=  7 NonCon=     1 RMS=7.65D-06 Max=1.00D-04 NDo=     1
 LinEq1:  Iter=  8 NonCon=     1 RMS=3.76D-06 Max=5.62D-05 NDo=     1
 LinEq1:  Iter=  9 NonCon=     1 RMS=9.83D-07 Max=1.07D-05 NDo=     1
 LinEq1:  Iter= 10 NonCon=     1 RMS=2.18D-07 Max=2.71D-06 NDo=     1
 LinEq1:  Iter= 11 NonCon=     1 RMS=4.70D-08 Max=7.65D-07 NDo=     1
 LinEq1:  Iter= 12 NonCon=     1 RMS=1.11D-08 Max=1.65D-07 NDo=     1
 LinEq1:  Iter= 13 NonCon=     1 RMS=1.94D-09 Max=2.15D-08 NDo=     1
 LinEq1:  Iter= 14 NonCon=     1 RMS=4.06D-10 Max=5.36D-09 NDo=     1
 LinEq1:  Iter= 15 NonCon=     0 RMS=8.28D-11 Max=8.34D-10 NDo=     1
 Linear equations converged to 1.000D-10 1.000D-09 after    15 iterations.
 End of Minotr F.D. properties file   721 does not exist.
 End of Minotr F.D. properties file   722 does not exist.
 End of Minotr F.D. properties file   788 does not exist.
 Leave Link 1002 at Sun Mar  6 19:20:57 2022, MaxMem= 16106127360 cpu:              66.5 elap:               2.4
 (Enter /sw/contrib/gaussian/g16/B01/g16/l1102.exe)
 Use density number 2.
 Symmetrizing basis deriv contribution to polar:
 IMax=3 JMax=2 DiffMx= 0.00D+00
 Leave Link 1102 at Sun Mar  6 19:20:57 2022, MaxMem= 16106127360 cpu:               2.0 elap:               0.1
 (Enter /sw/contrib/gaussian/g16/B01/g16/l1110.exe)
 Forming Gx(P) for generalized density number  2 NAtomX=     5.
 Integral derivatives from FoFJK, PRISM(SPDF).
 Do as many integral derivatives as possible in FoFJK.
 G2DrvN: MDV=   16106126844.
 G2DrvN: will do     6 centers at a time, making    1 passes.
 Calling FoFCou, ICntrl=  3107 FMM=F I1Cent=   0 AccDes= 0.00D+00.
 FoFJK:  IHMeth= 1 ICntrl=    3107 DoSepK=F KAlg= 0 I1Cent=           0 FoldK=F
 IRaf=         0 NMat=       1 IRICut=       1 DoRegI=T DoRafI=F ISym2E= 1 IDoP0=0 IntGTp=1.
 FoFCou: FMM=F IPFlag=           0 FMFlag=      100000 FMFlg1=           0
         NFxFlg=           0 DoJE=F BraDBF=F KetDBF=F FulRan=T
         wScrn=  0.000000 ICntrl=      3107 IOpCl=  0 I1Cent=           0 NGrid=           0
         NMat0=    1 NMatS0=      1 NMatT0=    0 NMatD0=    1 NMtDS0=    0 NMtDT0=    0
 Petite list used in FoFCou.
 End of G2Drv F.D. properties file   721 does not exist.
 End of G2Drv F.D. properties file   722 does not exist.
 End of G2Drv F.D. properties file   788 does not exist.
 Leave Link 1110 at Sun Mar  6 19:21:00 2022, MaxMem= 16106127360 cpu:              86.6 elap:               3.1
 (Enter /sw/contrib/gaussian/g16/B01/g16/l1112.exe)
 MP22nd: MDV=   16106127360
 This link is doing NAtomX=     5 total of    18 degrees of freedom.
 Using ON3 I/O method in MakUI.
 Frozen-core window:  NFC=   4 NFV=   0.
 Using Ix for Sx.
 Use MO integrals over full window.
 Using OV2 memory method for fx*t*t/D, MaxI=    16 DoOO2=F NP=  28.
 R2 and R3 integrals will be kept in memory, NReq=   915591705.
 FoFCou: FMM=F IPFlag=           0 FMFlag=           0 FMFlg1=           0
         NFxFlg=           0 DoJE=F BraDBF=F KetDBF=F FulRan=T
         wScrn=  0.000000 ICntrl=       600 IOpCl=  0 I1Cent=           0 NGrid=           0
         NMat0=    1 NMatS0=      1 NMatT0=    0 NMatD0=    1 NMtDS0=    0 NMtDT0=    0
 Symmetry not used in FoFCou.
 DD1Dir will call FoFMem   1 times, MxPair=       272
 NAB=   136 NAA=     0 NBB=     0.
 Symmetry is being used.
 FoFJK:  IHMeth= 1 ICntrl=       0 DoSepK=F KAlg= 0 I1Cent=           0 FoldK=F
 IRaf=         0 NMat=      18 IRICut=      45 DoRegI=T DoRafI=T ISym2E= 2 IDoP0=3 IntGTp=3.
 Discarding MO integrals.
 Leave Link 1112 at Sun Mar  6 19:21:32 2022, MaxMem= 16106127360 cpu:             887.1 elap:              31.9
 (Enter /sw/contrib/gaussian/g16/B01/g16/l601.exe)
 Copying SCF densities to generalized density rwf, IOpCl= 0 IROHF=0.

 **********************************************************************

            Population analysis using the MP2 Density.

 **********************************************************************

 Orbital symmetries:
       Occupied  (A') (A') (A') (A') (A') (A') (A') (A') (A') (A')
                 (A") (A') (A") (A') (A') (A")
       Virtual   (A') (A") (A') (A') (A") (A') (A') (A') (A") (A')
                 (A") (A') (A') (A') (A") (A') (A') (A") (A') (A')
                 (A') (A') (A') (A') (A") (A') (A') (A") (A') (A')
                 (A') (A") (A") (A') (A') (A') (A") (A') (A") (A')
                 (A") (A") (A') (A') (A") (A') (A') (A") (A') (A')
                 (A') (A") (A') (A') (A") (A') (A") (A') (A") (A')
                 (A') (A') (A") (A') (A') (A') (A") (A") (A') (A')
                 (A") (A') (A") (A") (A') (A') (A") (A') (A') (A')
                 (A") (A') (A') (A") (A') (A") (A") (A') (A') (A')
                 (A') (A') (A") (A") (A') (A') (A") (A") (A') (A")
                 (A') (A') (A") (A') (A") (A') (A') (A') (A") (A")
                 (A') (A') (A') (A') (A") (A') (A') (A') (A") (A')
                 (A") (A") (A') (A') (A") (A") (A') (A") (A') (A')
                 (A') (A') (A") (A') (A') (A") (A") (A') (A') (A")
                 (A') (A") (A') (A') (A') (A") (A') (A') (A') (A")
                 (A') (A') (A') (A") (A") (A') (A") (A') (A') (A")
                 (A') (A") (A') (A") (A") (A') (A") (A') (A") (A')
                 (A") (A") (A") (A') (A') (A") (A') (A') (A") (A')
                 (A') (A') (A') (A') (A') (A') (A') (A') (A') (A')
                 (A')
 The electronic state is 1-A'.
 Alpha  occ. eigenvalues --  -20.71724 -20.68781 -20.66730 -15.82421  -1.65076
 Alpha  occ. eigenvalues --   -1.50762  -1.29266  -0.95869  -0.83710  -0.76136
 Alpha  occ. eigenvalues --   -0.74180  -0.63747  -0.62090  -0.61886  -0.50265
 Alpha  occ. eigenvalues --   -0.49677
 Alpha virt. eigenvalues --    0.03500   0.06372   0.09515   0.10048   0.11946
 Alpha virt. eigenvalues --    0.12271   0.14932   0.15207   0.17787   0.18025
 Alpha virt. eigenvalues --    0.18981   0.21101   0.21676   0.24361   0.24656
 Alpha virt. eigenvalues --    0.26932   0.31280   0.31664   0.33803   0.34470
 Alpha virt. eigenvalues --    0.34793   0.39308   0.44878   0.48926   0.50517
 Alpha virt. eigenvalues --    0.51913   0.54546   0.56062   0.60224   0.62220
 Alpha virt. eigenvalues --    0.64114   0.68783   0.71682   0.72463   0.74535
 Alpha virt. eigenvalues --    0.76321   0.76716   0.79606   0.80734   0.84113
 Alpha virt. eigenvalues --    0.84382   0.85194   0.88656   0.90847   0.93176
 Alpha virt. eigenvalues --    0.95031   0.95402   1.01877   1.03187   1.06271
 Alpha virt. eigenvalues --    1.06663   1.09557   1.14415   1.15664   1.17120
 Alpha virt. eigenvalues --    1.22382   1.22774   1.24676   1.35247   1.36083
 Alpha virt. eigenvalues --    1.37342   1.46882   1.48591   1.50506   1.54148
 Alpha virt. eigenvalues --    1.59666   1.59849   1.60718   1.63007   1.69808
 Alpha virt. eigenvalues --    1.74103   1.80292   1.82981   1.89168   1.89725
 Alpha virt. eigenvalues --    1.92719   1.98025   1.99027   2.04939   2.12653
 Alpha virt. eigenvalues --    2.13095   2.16629   2.18682   2.24398   2.25915
 Alpha virt. eigenvalues --    2.29505   2.35283   2.36762   2.38783   2.40595
 Alpha virt. eigenvalues --    2.43545   2.46837   2.48009   2.52886   2.53975
 Alpha virt. eigenvalues --    2.55263   2.56219   2.61997   2.63033   2.67627
 Alpha virt. eigenvalues --    2.67947   2.75876   2.81214   2.82068   2.84164
 Alpha virt. eigenvalues --    2.91977   2.98907   3.05217   3.05284   3.11691
 Alpha virt. eigenvalues --    3.11699   3.17605   3.21392   3.31101   3.33223
 Alpha virt. eigenvalues --    3.36276   3.47938   3.68724   3.87036   3.93034
 Alpha virt. eigenvalues --    4.18515   4.22481   4.22912   4.28755   4.37071
 Alpha virt. eigenvalues --    4.50367   4.52910   4.56774   4.60016   4.69734
 Alpha virt. eigenvalues --    4.81501   4.90052   4.91385   4.94584   4.99677
 Alpha virt. eigenvalues --    5.00474   5.10981   5.14041   5.18039   5.26017
 Alpha virt. eigenvalues --    5.26145   5.32119   5.34993   5.35646   5.53959
 Alpha virt. eigenvalues --    5.66180   5.71290   5.88665   6.00752   6.26644
 Alpha virt. eigenvalues --    6.29810   6.36339   6.37899   6.59970   6.66100
 Alpha virt. eigenvalues --    6.66121   6.69225   6.73105   6.79381   6.80527
 Alpha virt. eigenvalues --    6.85956   6.97161   7.02104   7.06760   7.08254
 Alpha virt. eigenvalues --    7.14435   7.17973   7.18335   7.20601   7.24962
 Alpha virt. eigenvalues --    7.25189   7.29030   7.35417   7.40237   7.43242
 Alpha virt. eigenvalues --    7.44612   7.47618   7.57861   7.66509   7.67269
 Alpha virt. eigenvalues --    7.79998   7.88730   7.95831   8.07906   8.30779
 Alpha virt. eigenvalues --    8.50153   8.65724  13.64078  14.82821  15.15517
 Alpha virt. eigenvalues --   16.04546
          Condensed to atoms (all electrons):
               1          2          3          4          5
     1  H    0.579991   0.124113   0.023945   0.000351  -0.005369
     2  O    0.124113   8.391249  -0.231323  -0.001235  -0.007822
     3  O    0.023945  -0.231323   8.380114  -0.170386  -0.037727
     4  N    0.000351  -0.001235  -0.170386   7.140131  -0.122453
     5  O   -0.005369  -0.007822  -0.037727  -0.122453   8.364327
 Mulliken charges:
               1
     1  H    0.276970
     2  O   -0.274982
     3  O    0.035376
     4  N    0.153592
     5  O   -0.190956
 Sum of Mulliken charges =  -0.00000
 Mulliken charges with hydrogens summed into heavy atoms:
               1
     2  O    0.001988
     3  O    0.035376
     4  N    0.153592
     5  O   -0.190956
 APT charges:
               1
     1  H    0.271156
     2  O   -0.303681
     3  O   -0.313502
     4  N    0.655169
     5  O   -0.309142
 Sum of APT charges =  -0.00000
 APT charges with hydrogens summed into heavy atoms:
               1
     2  O   -0.032525
     3  O   -0.313502
     4  N    0.655169
     5  O   -0.309142
 Electronic spatial extent (au):  <R**2>=            206.5927
 Charge=             -0.0000 electrons
 Dipole moment (field-independent basis, Debye):
    X=              0.0255    Y=             -1.1442    Z=             -0.0000  Tot=              1.1445
 Quadrupole moment (field-independent basis, Debye-Ang):
   XX=            -23.3584   YY=            -22.9266   ZZ=            -21.9112
   XY=             -1.9485   XZ=             -0.0000   YZ=             -0.0000
 Traceless Quadrupole moment (field-independent basis, Debye-Ang):
   XX=             -0.6263   YY=             -0.1945   ZZ=              0.8208
   XY=             -1.9485   XZ=             -0.0000   YZ=             -0.0000
 Octapole moment (field-independent basis, Debye-Ang**2):
  XXX=              2.4597  YYY=              0.1642  ZZZ=             -0.0000  XYY=              2.3302
  XXY=             -2.8694  XXZ=             -0.0000  XZZ=             -0.6221  YZZ=             -0.7420
  YYZ=              0.0000  XYZ=              0.0000
 Hexadecapole moment (field-independent basis, Debye-Ang**3):
 XXXX=           -127.0697 YYYY=            -94.0673 ZZZZ=            -18.0120 XXXY=            -21.4946
 XXXZ=             -0.0000 YYYX=            -19.7493 YYYZ=             -0.0000 ZZZX=             -0.0000
 ZZZY=             -0.0000 XXYY=            -35.4597 XXZZ=            -24.3335 YYZZ=            -18.4500
 XXYZ=             -0.0000 YYXZ=             -0.0000 ZZXY=             -5.8948
 N-N= 1.230691695943D+02 E-N=-9.077207432635D+02  KE= 2.802470456339D+02
 Symmetry A'   KE= 2.663888136249D+02
 Symmetry A"   KE= 1.385823200904D+01
  Exact polarizability:  30.836   4.070  29.621   0.000   0.000  17.589
 Approx polarizability:  24.493   0.541  27.373   0.000   0.000  15.464
 No NMR shielding tensors so no spin-rotation constants.
 Leave Link  601 at Sun Mar  6 19:21:32 2022, MaxMem= 16106127360 cpu:               5.3 elap:               0.2
 (Enter /sw/contrib/gaussian/g16/B01/g16/l701.exe)
 ... and contract with generalized density number  2.
 Compute integral second derivatives.
 Leave Link  701 at Sun Mar  6 19:21:33 2022, MaxMem= 16106127360 cpu:               6.4 elap:               0.3
 (Enter /sw/contrib/gaussian/g16/B01/g16/l702.exe)
 L702 exits ... SP integral derivatives will be done elsewhere.
 Leave Link  702 at Sun Mar  6 19:21:33 2022, MaxMem= 16106127360 cpu:               0.5 elap:               0.0
 (Enter /sw/contrib/gaussian/g16/B01/g16/l703.exe)
 Integral derivatives from FoFJK, PRISM(SPDF).
 Compute integral second derivatives, UseDBF=F ICtDFT=           0.
 Calling FoFJK, ICntrl=  10100127 FMM=F ISym2X=1 I1Cent= 0 IOpClX= 0 NMat=1 NMatS=1 NMatT=0.
 FoFJK:  IHMeth= 1 ICntrl=10100127 DoSepK=F KAlg= 0 I1Cent=           0 FoldK=F
 IRaf=         0 NMat=       1 IRICut=       1 DoRegI=T DoRafI=F ISym2E= 1 IDoP0=0 IntGTp=1.
 FoFCou: FMM=F IPFlag=           0 FMFlag=      100000 FMFlg1=         800
         NFxFlg=           0 DoJE=F BraDBF=F KetDBF=F FulRan=T
         wScrn=  0.000000 ICntrl=  10100127 IOpCl=  0 I1Cent=           0 NGrid=           0
         NMat0=    1 NMatS0=      1 NMatT0=    0 NMatD0=    1 NMtDS0=    0 NMtDT0=    0
 Petite list used in FoFCou.
 Leave Link  703 at Sun Mar  6 19:21:49 2022, MaxMem= 16106127360 cpu:             444.4 elap:              15.9
 (Enter /sw/contrib/gaussian/g16/B01/g16/l716.exe)
 Dipole        = 1.00260795D-02-4.50172729D-01-5.40155915D-33
 Polarizability= 3.08363144D+01 4.06979296D+00 2.96211064D+01
                 2.23658578D-32 2.64254906D-31 1.75886802D+01
 Full mass-weighted force constant matrix:
 Low frequencies --- -108.2472  -63.3762  -28.0281   -0.0004   -0.0000    0.0009
 Low frequencies ---  347.2809  395.7416  512.5460
 Diagonal vibrational polarizability:
        7.2996192      10.0523192      16.3259967
 Harmonic frequencies (cm**-1), IR intensities (KM/Mole), Raman scattering
 activities (A**4/AMU), depolarization ratios for plane and unpolarized
 incident light, reduced masses (AMU), force constants (mDyne/A),
 and normal coordinates:
                      1                      2                      3
                     A"                     A'                     A"
 Frequencies --    347.0823               395.6574               512.1822
 Red. masses --      1.6162                 7.1060                 2.7268
 Frc consts  --      0.1147                 0.6554                 0.4215
 IR Inten    --     60.2341                 7.3128                27.9783
  Atom  AN      X      Y      Z        X      Y      Z        X      Y      Z
     1   1    -0.00  -0.00   0.98    -0.73  -0.25  -0.00     0.00  -0.00   0.94
     2   8    -0.00  -0.00  -0.11    -0.32  -0.32   0.00    -0.00  -0.00   0.05
     3   8    -0.00   0.00   0.12    -0.06   0.09   0.00    -0.00  -0.00  -0.17
     4   7     0.00   0.00  -0.12     0.05   0.09  -0.00     0.00   0.00   0.26
     5   8     0.00   0.00   0.03     0.39   0.17   0.00     0.00   0.00  -0.16
                      4                      5                      6
                     A'                     A'                     A'
 Frequencies --    706.9541               836.5984               973.3968
 Red. masses --     13.5802                12.2684                 9.6585
 Frc consts  --      3.9989                 5.0591                 5.3919
 IR Inten    --    222.1815                26.3070                11.9553
  Atom  AN      X      Y      Z        X      Y      Z        X      Y      Z
     1   1    -0.33   0.00   0.00     0.45  -0.15  -0.00    -0.64  -0.01  -0.00
     2   8     0.01  -0.08   0.00     0.53  -0.20  -0.00     0.19  -0.17  -0.00
     3   8     0.38   0.58  -0.00    -0.39  -0.03   0.00    -0.35   0.41   0.00
     4   7    -0.43  -0.46   0.00    -0.43  -0.04  -0.00     0.38   0.03  -0.00
     5   8     0.02  -0.10  -0.00     0.20   0.28   0.00    -0.13  -0.27   0.00
                      7                      8                      9
                     A'                     A'                     A'
 Frequencies --   1439.0212              1631.3881              3488.9167
 Red. masses --      1.2350                 8.8816                 1.0637
 Frc consts  --      1.5068                13.9270                 7.6289
 IR Inten    --     81.8075               160.5437                42.4032
  Atom  AN      X      Y      Z        X      Y      Z        X      Y      Z
     1   1     0.97  -0.20   0.00    -0.64   0.15  -0.00     0.15   0.99  -0.00
     2   8    -0.06  -0.05   0.00     0.01   0.02   0.00    -0.01  -0.06   0.00
     3   8    -0.02   0.06  -0.00    -0.05  -0.06  -0.00     0.00  -0.00  -0.00
     4   7     0.05  -0.03   0.00     0.29  -0.49  -0.00    -0.00   0.00  -0.00
     5   8    -0.02   0.03  -0.00    -0.18   0.46   0.00     0.00  -0.00   0.00

 -------------------
 - Thermochemistry -
 -------------------
 Temperature   298.150 Kelvin.  Pressure   1.00000 Atm.
 Atom     1 has atomic number  1 and mass   1.00783
 Atom     2 has atomic number  8 and mass  15.99491
 Atom     3 has atomic number  8 and mass  15.99491
 Atom     4 has atomic number  7 and mass  14.00307
 Atom     5 has atomic number  8 and mass  15.99491
 Molecular mass:    62.99564 amu.
 Principal axes and moments of inertia in atomic units:
                           1         2         3
     Eigenvalues --    83.80788 222.16980 305.97768
           X            0.79926  -0.60098   0.00000
           Y            0.60098   0.79926   0.00000
           Z            0.00000  -0.00000   1.00000
 This molecule is an asymmetric top.
 Rotational symmetry number  1.
 Rotational temperatures (Kelvin)      1.03348     0.38985     0.28307
 Rotational constants (GHZ):          21.53427     8.12325     5.89828
 Zero-point vibrational energy      61794.3 (Joules/Mol)
                                   14.76919 (Kcal/Mol)
 Warning -- explicit consideration of   3 degrees of freedom as
           vibrations may cause significant error
 Vibrational temperatures:    499.37   569.26   736.92  1017.15  1203.68
          (Kelvin)           1400.50  2070.43  2347.20  5019.77
 
 Zero-point correction=                           0.023536 (Hartree/Particle)
 Thermal correction to Energy=                    0.027490
 Thermal correction to Enthalpy=                  0.028435
 Thermal correction to Gibbs Free Energy=        -0.002444
 Sum of electronic and zero-point Energies=           -280.431534
 Sum of electronic and thermal Energies=              -280.427580
 Sum of electronic and thermal Enthalpies=            -280.426635
 Sum of electronic and thermal Free Energies=         -280.457514
 
                     E (Thermal)             CV                S
                      KCal/Mol        Cal/Mol-Kelvin    Cal/Mol-Kelvin
 Total                   17.251             12.200             64.989
 Electronic               0.000              0.000              0.000
 Translational            0.889              2.981             38.341
 Rotational               0.889              2.981             23.259
 Vibrational             15.473              6.239              3.390
 Vibration     1          0.725              1.581              1.179
 Vibration     2          0.762              1.479              0.979
 Vibration     3          0.867              1.223              0.628
                       Q            Log10(Q)             Ln(Q)
 Total Bot       0.133083D+02          1.124123          2.588388
 Total V=0       0.891278D+12         11.950013         27.515922
 Vib (Bot)       0.250627D-10        -10.600972        -24.409641
 Vib (Bot)    1  0.532576D+00         -0.273619         -0.630030
 Vib (Bot)    2  0.451908D+00         -0.344950         -0.794276
 Vib (Bot)    3  0.317402D+00         -0.498391         -1.147587
 Vib (V=0)       0.167849D+01          0.224918          0.517893
 Vib (V=0)    1  0.123050D+01          0.090083          0.207424
 Vib (V=0)    2  0.117396D+01          0.069653          0.160382
 Vib (V=0)    3  0.109224D+01          0.038317          0.088227
 Electronic      0.100000D+01          0.000000          0.000000
 Translational   0.196526D+08          7.293420         16.793719
 Rotational      0.270194D+05          4.431675         10.204310
 
                                                                title
                                                             IR Spectrum
 
     3                                                                   1      1                                                    
     4                                                                   6      4                9    8    7      5   3 3            
     8                                                                   3      3                7    3    0      1   9 4            
     9                                                                   1      9                3    7    7      2   6 7            
 
     X                                                                   X      X                X    X    X      X   X X            
     X                                                                   X      X                     X    X      X     X            
     X                                                                   X      X                          X      X     X            
     X                                                                   X      X                          X            X            
                                                                         X      X                          X            X            
                                                                         X      X                          X                         
                                                                         X      X                          X                         
                                                                         X                                 X                         
                                                                         X                                 X                         
                                                                         X                                 X                         
                                                                         X                                 X                         
                                                                         X                                 X                         
                                                                         X                                 X                         
                                                                         X                                 X                         
                                                                                                           X                         
                                                                                                           X                         
                                                                                                           X                         
                                                                                                           X                         
                                                                                                           X                         
                                                                                                           X                         
 
 ***** Axes restored to original set *****
 -------------------------------------------------------------------
 Center     Atomic                   Forces (Hartrees/Bohr)
 Number     Number              X              Y              Z
 -------------------------------------------------------------------
      1        1          -0.000218350    0.000000000    0.000233276
      2        8          -0.000384192    0.000000000   -0.000324402
      3        8          -0.000444372    0.000000000    0.002952435
      4        7           0.008668933   -0.000000000    0.011371656
      5        8          -0.007622019    0.000000000   -0.014232965
 -------------------------------------------------------------------
 Cartesian Forces:  Max     0.014232965 RMS     0.005623799
 -----------------------------------------------------------------------------------------------
                       Internal Coordinate Forces (Hartree/Bohr or radian)
  Cent   Atom   N1       Length/X         N2         Alpha/Y        N3         Beta/Z          J
 -----------------------------------------------------------------------------------------------
      1  H 
      2  O        1  -0.000233(     1)
      3  O        2   0.000609(     2)      1   0.000406(     5)
      4  N        3   0.002960(     3)      2   0.000465(     6)      1   0.000000(     8)     0
      5  O        4   0.016111(     4)      3   0.002345(     7)      2   0.000000(     9)     0
 -----------------------------------------------------------------------------------------------
 Internal  Forces:  Max     0.016111283 RMS     0.005524117
 Force constants in Cartesian coordinates: 
                1             2             3             4             5 
      1  0.722502D-01
      2  0.000000D+00  0.600226D-02
      3  0.239572D-01  0.000000D+00  0.437050D+00
      4 -0.518878D-01  0.000000D+00 -0.485047D-02  0.281259D+00
      5  0.000000D+00 -0.240288D-02  0.000000D+00  0.000000D+00  0.120753D-01
      6  0.321702D-01  0.000000D+00 -0.420675D+00 -0.119516D-01  0.000000D+00
      7 -0.251745D-01  0.000000D+00 -0.159397D-01 -0.170970D+00  0.000000D+00
      8  0.000000D+00 -0.425341D-02  0.000000D+00  0.000000D+00 -0.188131D-01
      9 -0.439634D-01  0.000000D+00 -0.196872D-01  0.100803D-01  0.000000D+00
     10 -0.576717D-02  0.000000D+00  0.655124D-02 -0.844889D-01  0.000000D+00
     11  0.000000D+00  0.810666D-02  0.000000D+00  0.000000D+00  0.199318D-01
     12 -0.194332D-01  0.000000D+00  0.117841D-01  0.109877D-01  0.000000D+00
     13  0.105793D-01  0.000000D+00 -0.971824D-02  0.260877D-01  0.000000D+00
     14  0.000000D+00 -0.745263D-02  0.000000D+00  0.000000D+00 -0.107911D-01
     15  0.726916D-02  0.000000D+00 -0.847162D-02 -0.426590D-02  0.000000D+00
                6             7             8             9            10 
      6  0.522307D+00
      7 -0.914922D-01  0.303193D+00
      8  0.000000D+00  0.000000D+00  0.397650D-01
      9 -0.967794D-01  0.827361D-01  0.000000D+00  0.318312D+00
     10  0.404594D-01 -0.145136D+00  0.000000D+00 -0.358311D-01  0.572204D+00
     11  0.000000D+00  0.000000D+00 -0.475431D-01  0.000000D+00  0.000000D+00
     12 -0.102490D-01  0.135514D-01  0.000000D+00 -0.206595D-01  0.273801D+00
     13  0.308141D-01  0.380881D-01  0.000000D+00 -0.130220D-01 -0.336811D+00
     14  0.000000D+00  0.000000D+00  0.308446D-01  0.000000D+00  0.000000D+00
     15  0.539574D-02  0.111443D-01  0.000000D+00 -0.181186D+00 -0.284980D+00
               11            12            13            14            15 
     11  0.510933D-01
     12  0.000000D+00  0.483509D+00
     13  0.000000D+00 -0.278907D+00  0.262056D+00
     14 -0.315887D-01  0.000000D+00  0.000000D+00  0.189878D-01
     15  0.000000D+00 -0.464385D+00  0.270833D+00  0.000000D+00  0.648647D+00
 Force constants in internal coordinates: 
                1             2             3             4             5 
      1  0.437050D+00
      2  0.218006D-01  0.259513D+00
      3  0.451402D-02  0.176088D-01  0.207969D+00
      4 -0.123272D-01  0.231206D-01  0.155132D+00  0.783713D+00
      5  0.443920D-01  0.565547D-01 -0.238091D-01  0.219002D-01  0.250085D+00
      6  0.105094D-01  0.221506D-01  0.924825D-01  0.101948D-01 -0.799259D-02
      7  0.844465D-02 -0.730158D-01  0.124126D+00  0.119244D+00 -0.214163D-01
      8  0.000000D+00  0.000000D+00  0.000000D+00  0.000000D+00  0.000000D+00
      9  0.000000D+00  0.000000D+00  0.000000D+00  0.000000D+00  0.000000D+00
                6             7             8             9 
      6  0.522300D+00
      7  0.614933D-01  0.671403D+00
      8  0.000000D+00  0.000000D+00  0.196100D-01
      9  0.000000D+00  0.000000D+00  0.277978D-01  0.107909D+00
 Leave Link  716 at Sun Mar  6 19:21:49 2022, MaxMem= 16106127360 cpu:               2.3 elap:               0.1
 (Enter /sw/contrib/gaussian/g16/B01/g16/l103.exe)

 GradGradGradGradGradGradGradGradGradGradGradGradGradGradGradGradGradGrad
 Berny optimization.
 Search for a local minimum.
 Step number   1 out of a maximum of    2
 All quantities printed in internal units (Hartrees-Bohrs-Radians)
 Second derivative matrix not updated -- analytic derivatives used.
 The second derivative matrix:
                          r1        r2        r3        r4        a1
           r1           0.43705
           r2           0.02180   0.25951
           r3           0.00451   0.01761   0.20797
           r4          -0.01233   0.02312   0.15513   0.78371
           a1           0.04439   0.05655  -0.02381   0.02190   0.25008
           a2           0.01051   0.02215   0.09248   0.01019  -0.00799
           a3           0.00844  -0.07302   0.12413   0.11924  -0.02142
           d1          -0.00000  -0.00000  -0.00000   0.00000   0.00000
           d2          -0.00000   0.00000   0.00000   0.00000   0.00000
                          a2        a3        d1        d2
           a2           0.52230
           a3           0.06149   0.67140
           d1          -0.00000  -0.00000   0.01961
           d2           0.00000  -0.00000   0.02780   0.10791
 ITU=  0
     Eigenvalues ---    0.01159   0.11593   0.12408   0.20402   0.27729
     Eigenvalues ---    0.44982   0.51758   0.63315   0.92609
 Angle between quadratic step and forces=  17.61 degrees.
 Linear search not attempted -- first point.
 Variable       Old X    -DE/DX   Delta X   Delta X   Delta X     New X
                                 (Linear)    (Quad)   (Total)
    r1        1.86209  -0.00023   0.00000   0.00007   0.00007   1.86216
    r2        2.69614   0.00061   0.00000   0.00069   0.00069   2.69683
    r3        2.60992   0.00296   0.00000  -0.00188  -0.00188   2.60803
    r4        2.23680   0.01611   0.00000   0.02090   0.02090   2.25770
    a1        1.75642   0.00041   0.00000  -0.00052  -0.00052   1.75590
    a2        1.97463   0.00046   0.00000   0.00076   0.00076   1.97539
    a3        1.99550   0.00234   0.00000   0.00012   0.00012   1.99562
    d1        0.00000   0.00000   0.00000   0.00000   0.00000   0.00000
    d2        0.00000   0.00000   0.00000   0.00000   0.00000   0.00000
         Item               Value     Threshold  Converged?
 Maximum Force            0.016111     0.000450     NO 
 RMS     Force            0.005524     0.000300     NO 
 Maximum Displacement     0.020898     0.001800     NO 
 RMS     Displacement     0.007005     0.001200     NO 
 Predicted change in Energy=-1.659691D-04
                       ----------------------------
                       ! Non-Optimized Parameters !
                       ! (Angstroms and Degrees)  !
 ----------------------                            ----------------------
 !      Name          Value   Derivative information (Atomic Units)     !
 ------------------------------------------------------------------------
 !       r1          0.9854   -DE/DX =   -0.0002                        !
 !       r2          1.4271   -DE/DX =    0.0006                        !
 !       r3          1.3801   -DE/DX =    0.003                         !
 !       r4          1.1947   -DE/DX =    0.0161                        !
 !       a1        100.6058   -DE/DX =    0.0004                        !
 !       a2        113.1815   -DE/DX =    0.0005                        !
 !       a3        114.3406   -DE/DX =    0.0023                        !
 !       d1          0.0      -DE/DX =    0.0                           !
 !       d2          0.0      -DE/DX =    0.0                           !
 ------------------------------------------------------------------------
 GradGradGradGradGradGradGradGradGradGradGradGradGradGradGradGradGradGrad

 Leave Link  103 at Sun Mar  6 19:21:49 2022, MaxMem= 16106127360 cpu:               0.5 elap:               0.0
 (Enter /sw/contrib/gaussian/g16/B01/g16/l9999.exe)

 ----------------------------------------------------------------------

 Electric dipole moment (input orientation):
 (Debye = 10**-18 statcoulomb cm , SI units = C m)
                  (au)            (Debye)         (10**-30 SI)
   Tot        0.450284D+00      0.114451D+01      0.381767D+01
   x         -0.103755D+00     -0.263719D+00     -0.879671D+00
   y          0.000000D+00      0.000000D+00      0.000000D+00
   z         -0.438168D+00     -0.111371D+01     -0.371494D+01

 Dipole polarizability, Alpha (input orientation).
 (esu units = cm**3 , SI units = C**2 m**2 J**-1)
 Alpha(0;0):
               (au)            (10**-24 esu)      (10**-40 SI)
   iso        0.260154D+02      0.385508D+01      0.428935D+01
   aniso      0.145109D+02      0.215030D+01      0.239253D+01
   xx         0.291221D+02      0.431545D+01      0.480158D+01
   yx         0.000000D+00      0.000000D+00      0.000000D+00
   yy         0.175887D+02      0.260637D+01      0.289998D+01
   zx        -0.396330D+01     -0.587301D+00     -0.653461D+00
   zy         0.000000D+00      0.000000D+00      0.000000D+00
   zz         0.313353D+02      0.464342D+01      0.516650D+01

 ----------------------------------------------------------------------

 Dipole orientation:
     1          0.00000000         -0.00000000          0.00000000
     8         -0.42906472         -0.00000000         -1.81198510
     8          2.03479871         -0.00000000         -2.90677103
     7          3.94652232          0.00000000         -1.12998457
     8          3.23414932          0.00000000          0.99034381

 Electric dipole moment (dipole orientation):
 (Debye = 10**-18 statcoulomb cm , SI units = C m)
                  (au)            (Debye)         (10**-30 SI)
   Tot        0.450284D+00      0.114451D+01      0.381767D+01
   x          0.000000D+00      0.000000D+00      0.000000D+00
   y          0.000000D+00      0.000000D+00      0.000000D+00
   z          0.450284D+00      0.114451D+01      0.381767D+01

 Dipole polarizability, Alpha (dipole orientation).
 (esu units = cm**3 , SI units = C**2 m**2 J**-1)
 Alpha(0;0):
               (au)            (10**-24 esu)      (10**-40 SI)
   iso        0.260154D+02      0.385508D+01      0.428935D+01
   aniso      0.145109D+02      0.215030D+01      0.239253D+01
   xx         0.310169D+02      0.459623D+01      0.511400D+01
   yx         0.000000D+00      0.000000D+00      0.000000D+00
   yy         0.175887D+02      0.260637D+01      0.289998D+01
   zx         0.403871D+01      0.598475D+00      0.665893D+00
   zy         0.000000D+00      0.000000D+00      0.000000D+00
   zz         0.294405D+02      0.436263D+01      0.485409D+01

 ----------------------------------------------------------------------
 1\1\GINC-N2108\Freq\RMP2-FC\Aug-CC-pVTZ\H1N1O3\CGAVINH\06-Mar-2022\1\\
 #p freq mp2/aug-cc-pvtz density=current\\title\\0,1\H\O,1,r1\O,2,r2,1,
 a1\N,3,r3,2,a2,1,d1,0\O,4,r4,3,a3,2,d2,0\\r1=0.98537664\r2=1.42673666\
 r3=1.38110764\r4=1.18366282\a1=100.6355057\a2=113.13777052\a3=114.3339
 2022\d1=0.\d2=0.\\Version=ES64L-G16RevB.01\State=1-A'\HF=-279.5081606\
 MP2=-280.45507\RMSD=3.364e-09\RMSF=5.624e-03\ZeroPoint=0.0235362\Therm
 al=0.0274905\Dipole=-0.1037549,0.,-0.4381677\DipoleDeriv=0.3165968,0.,
 0.0376029,0.,0.2981054,0.,-0.0250025,0.,0.1987667,-0.5274939,0.,0.2777
 953,0.,-0.2554359,0.,-0.1032657,0.,-0.1281146,-0.0034652,0.,0.3437205,
 0.,-0.0152982,0.,0.441632,0.,-0.9217429,0.2028558,0.,-0.1278413,0.,0.0
 141124,0.,-0.6675482,0.,1.7485397,0.0115065,0.,-0.5312774,0.,-0.041483
 7,0.,0.3541844,0.,-0.8974489\Polar=29.1220867,0.,17.5886802,-3.9633043
 ,0.,31.3353341\Quadrupole=0.1396833,0.6102538,-0.7499371,0.,1.3879987,
 0.\PG=CS [SG(H1N1O3)]\NImag=0\\0.07225025,0.,0.00600226,0.02395718,0.,
 0.43704951,-0.05188780,0.,-0.00485047,0.28125894,0.,-0.00240288,0.,0.,
 0.01207532,0.03217024,0.,-0.42067479,-0.01195161,0.,0.52230742,-0.0251
 7453,0.,-0.01593972,-0.17096987,0.,-0.09149216,0.30319277,0.,-0.004253
 41,0.,0.,-0.01881315,0.,0.,0.03976503,-0.04396340,0.,-0.01968717,0.010
 08029,0.,-0.09677938,0.08273612,0.,0.31831210,-0.00576717,0.,0.0065512
 4,-0.08448894,0.,0.04045941,-0.14513644,0.,-0.03583105,0.57220387,0.,0
 .00810666,0.,0.,0.01993182,0.,0.,-0.04754309,0.,0.,0.05109327,-0.01943
 317,0.,0.01178407,0.01098768,0.,-0.01024899,0.01355144,0.,-0.02065950,
 0.27380085,0.,0.48350923,0.01057925,0.,-0.00971824,0.02608768,0.,0.030
 81412,0.03808807,0.,-0.01302195,-0.33681131,0.,-0.27890680,0.26205631,
 0.,-0.00745263,0.,0.,-0.01079111,0.,0.,0.03084462,0.,0.,-0.03158866,0.
 ,0.,0.01898778,0.00726916,0.,-0.00847162,-0.00426590,0.,0.00539574,0.0
 1114432,0.,-0.18118605,-0.28498045,0.,-0.46438481,0.27083287,0.,0.6486
 4674\\0.00021835,0.,-0.00023328,0.00038419,0.,0.00032440,0.00044437,0.
 ,-0.00295243,-0.00866893,0.,-0.01137166,0.00762202,0.,0.01423297\\\@


      TO SUSPECT YOUR OWN MORTALITY IS TO KNOW THE BEGINNING OF TERROR.
      TO LEARN IRREFUTABLY THAT YOU ARE MORTAL IS TO KNOW THE END
      OF TERROR.

                                                  -- JESSICA
                                                     CHILDREN OF DUNE
                                                     BY FRANK HERBERT
 Job cpu time:       0 days  2 hours  0 minutes 16.0 seconds.
 Elapsed time:       0 days  0 hours  4 minutes 20.9 seconds.
 File lengths (MBytes):  RWF=   7239 Int=      0 D2E=      0 Chk=      8 Scr=      1
 Normal termination of Gaussian 16 at Sun Mar  6 19:21:50 2022.
