 Entering Gaussian System, Link 0=g16
 Input=hoono_r4_1p190583.gjf
 Output=hoono_r4_1p190583.log
 Initial command:
 /sw/contrib/gaussian/g16/B01/g16/l1.exe "/scr/Gau-65687.inp" -scrdir="/scr/"
 Entering Link 1 = /sw/contrib/gaussian/g16/B01/g16/l1.exe PID=     65688.
  
 Copyright (c) 1988-2017, Gaussian, Inc.  All Rights Reserved.
  
 This is part of the Gaussian(R) 16 program.  It is based on
 the Gaussian(R) 09 system (copyright 2009, Gaussian, Inc.),
 the Gaussian(R) 03 system (copyright 2003, Gaussian, Inc.),
 the Gaussian(R) 98 system (copyright 1998, Gaussian, Inc.),
 the Gaussian(R) 94 system (copyright 1995, Gaussian, Inc.),
 the Gaussian 92(TM) system (copyright 1992, Gaussian, Inc.),
 the Gaussian 90(TM) system (copyright 1990, Gaussian, Inc.),
 the Gaussian 88(TM) system (copyright 1988, Gaussian, Inc.),
 the Gaussian 86(TM) system (copyright 1986, Carnegie Mellon
 University), and the Gaussian 82(TM) system (copyright 1983,
 Carnegie Mellon University). Gaussian is a federally registered
 trademark of Gaussian, Inc.
  
 This software contains proprietary and confidential information,
 including trade secrets, belonging to Gaussian, Inc.
  
 This software is provided under written license and may be
 used, copied, transmitted, or stored only in accord with that
 written license.
  
 The following legend is applicable only to US Government
 contracts under FAR:
  
                    RESTRICTED RIGHTS LEGEND
  
 Use, reproduction and disclosure by the US Government is
 subject to restrictions as set forth in subparagraphs (a)
 and (c) of the Commercial Computer Software - Restricted
 Rights clause in FAR 52.227-19.
  
 Gaussian, Inc.
 340 Quinnipiac St., Bldg. 40, Wallingford CT 06492
  
  
 ---------------------------------------------------------------
 Warning -- This program may not be used in any manner that
 competes with the business of Gaussian, Inc. or will provide
 assistance to any competitor of Gaussian, Inc.  The licensee
 of this program is prohibited from giving any competitor of
 Gaussian, Inc. access to this program.  By using this program,
 the user acknowledges that Gaussian, Inc. is engaged in the
 business of creating and licensing software in the field of
 computational chemistry and represents and warrants to the
 licensee that it is not a competitor of Gaussian, Inc. and that
 it will not use this program in any manner prohibited above.
 ---------------------------------------------------------------
  

 Cite this work as:
 Gaussian 16, Revision B.01,
 M. J. Frisch, G. W. Trucks, H. B. Schlegel, G. E. Scuseria, 
 M. A. Robb, J. R. Cheeseman, G. Scalmani, V. Barone, 
 G. A. Petersson, H. Nakatsuji, X. Li, M. Caricato, A. V. Marenich, 
 J. Bloino, B. G. Janesko, R. Gomperts, B. Mennucci, H. P. Hratchian, 
 J. V. Ortiz, A. F. Izmaylov, J. L. Sonnenberg, D. Williams-Young, 
 F. Ding, F. Lipparini, F. Egidi, J. Goings, B. Peng, A. Petrone, 
 T. Henderson, D. Ranasinghe, V. G. Zakrzewski, J. Gao, N. Rega, 
 G. Zheng, W. Liang, M. Hada, M. Ehara, K. Toyota, R. Fukuda, 
 J. Hasegawa, M. Ishida, T. Nakajima, Y. Honda, O. Kitao, H. Nakai, 
 T. Vreven, K. Throssell, J. A. Montgomery, Jr., J. E. Peralta, 
 F. Ogliaro, M. J. Bearpark, J. J. Heyd, E. N. Brothers, K. N. Kudin, 
 V. N. Staroverov, T. A. Keith, R. Kobayashi, J. Normand, 
 K. Raghavachari, A. P. Rendell, J. C. Burant, S. S. Iyengar, 
 J. Tomasi, M. Cossi, J. M. Millam, M. Klene, C. Adamo, R. Cammi, 
 J. W. Ochterski, R. L. Martin, K. Morokuma, O. Farkas, 
 J. B. Foresman, and D. J. Fox, Gaussian, Inc., Wallingford CT, 2016.
 
 ******************************************
 Gaussian 16:  ES64L-G16RevB.01 20-Dec-2017
                 6-Mar-2022 
 ******************************************
 %nproc=28
 Will use up to   28 processors via shared memory.
 %mem=120GB
 %chk=hoono_r4_1p190583.chk
 ---------------------------------------
 #p freq mp2/aug-cc-pvtz density=current
 ---------------------------------------
 1/10=4,30=1,38=1/1,3;
 2/12=2,17=6,18=5,40=1/2;
 3/5=16,6=1,7=10,11=9,25=1,30=1,71=2,140=1/1,2,3;
 4//1;
 5/5=2,38=5,98=1/2;
 8/6=3,8=1,10=1,19=11,30=-1/1;
 9/15=3,16=-3/6;
 11/6=1,8=1,15=11,17=12,24=-1,27=1,28=-2,29=300,32=6,42=3/1,2,10;
 10/6=2,21=1/2;
 8/6=4,8=1,10=1,19=11,30=-1/11,4;
 10/5=1,20=4/2;
 11/12=2,14=11,16=1,17=2,28=-2,42=3,76=2/2,10,12;
 6/7=2,8=2,9=2,10=2,22=-1/1;
 7/8=1,10=1,12=2,25=1,44=2/1,2,3,16;
 1/10=4,30=1/3;
 99//99;
 Leave Link    1 at Sun Mar  6 19:14:24 2022, MaxMem= 16106127360 cpu:               2.3 elap:               0.1
 (Enter /sw/contrib/gaussian/g16/B01/g16/l101.exe)
 -----
 title
 -----
 Symbolic Z-matrix:
 Charge =  0 Multiplicity = 1
 H
 O                    1    r1
 O                    2    r2       1    a1
 N                    3    r3       2    a2       1    d1       0
 O                    4    r4       3    a3       2    d2       0
       Variables:
  r1                    0.98538                  
  r2                    1.42674                  
  r3                    1.38111                  
  r4                    1.19058                  
  a1                  100.63551                  
  a2                  113.13777                  
  a3                  114.33392                  
  d1                    0.                       
  d2                    0.                       
 
 ITRead=  0  0  0  0  0
 MicOpt= -1 -1 -1 -1 -1
 NAtoms=      5 NQM=        5 NQMF=       0 NMMI=      0 NMMIF=      0
                NMic=       0 NMicF=      0.
                    Isotopes and Nuclear Properties:
 (Nuclear quadrupole moments (NQMom) in fm**2, nuclear magnetic moments (NMagM)
  in nuclear magnetons)

  Atom         1           2           3           4           5
 IAtWgt=           1          16          16          14          16
 AtmWgt=   1.0078250  15.9949146  15.9949146  14.0030740  15.9949146
 NucSpn=           1           0           0           2           0
 AtZEff=  -0.0000000  -0.0000000  -0.0000000  -0.0000000  -0.0000000
 NQMom=    0.0000000   0.0000000   0.0000000   2.0440000   0.0000000
 NMagM=    2.7928460   0.0000000   0.0000000   0.4037610   0.0000000
 AtZNuc=   1.0000000   8.0000000   8.0000000   7.0000000   8.0000000
 Leave Link  101 at Sun Mar  6 19:14:24 2022, MaxMem= 16106127360 cpu:               2.5 elap:               0.1
 (Enter /sw/contrib/gaussian/g16/B01/g16/l103.exe)

 GradGradGradGradGradGradGradGradGradGradGradGradGradGradGradGradGradGrad
 Berny optimization.
 Initialization pass.
                       ----------------------------
                       !    Initial Parameters    !
                       ! (Angstroms and Degrees)  !
 ----------------------                            ----------------------
 !      Name          Value   Derivative information (Atomic Units)     !
 ------------------------------------------------------------------------
 !       r1          0.9854   calculate D2E/DX2 analytically            !
 !       r2          1.4267   calculate D2E/DX2 analytically            !
 !       r3          1.3811   calculate D2E/DX2 analytically            !
 !       r4          1.1906   calculate D2E/DX2 analytically            !
 !       a1        100.6355   calculate D2E/DX2 analytically            !
 !       a2        113.1378   calculate D2E/DX2 analytically            !
 !       a3        114.3339   calculate D2E/DX2 analytically            !
 !       d1          0.0      calculate D2E/DX2 analytically            !
 !       d2          0.0      calculate D2E/DX2 analytically            !
 ------------------------------------------------------------------------
 Trust Radius=3.00D-01 FncErr=1.00D-07 GrdErr=1.00D-07 EigMax=2.50D+02 EigMin=1.00D-04
 Number of steps in this run=      2 maximum allowed number of steps=      2.
 GradGradGradGradGradGradGradGradGradGradGradGradGradGradGradGradGradGrad

 Leave Link  103 at Sun Mar  6 19:14:25 2022, MaxMem= 16106127360 cpu:               1.5 elap:               0.1
 (Enter /sw/contrib/gaussian/g16/B01/g16/l202.exe)
                          Input orientation:                          
 ---------------------------------------------------------------------
 Center     Atomic      Atomic             Coordinates (Angstroms)
 Number     Number       Type             X           Y           Z
 ---------------------------------------------------------------------
      1          1           0        0.000000    0.000000    0.000000
      2          8           0        0.000000    0.000000    0.985377
      3          8           0        1.402227    0.000000    1.248696
      4          7           0        2.169996    0.000000    0.100659
      5          8           0        1.540973    0.000000   -0.910192
 ---------------------------------------------------------------------
                    Distance matrix (angstroms):
                    1          2          3          4          5
     1  H    0.000000
     2  O    0.985377   0.000000
     3  O    1.877627   1.426737   0.000000
     4  N    2.172329   2.343418   1.381108   0.000000
     5  O    1.789706   2.442904   2.163342   1.190583   0.000000
 Stoichiometry    HNO3
 Framework group  CS[SG(HNO3)]
 Deg. of freedom     7
 Full point group                 CS      NOp   2
 Largest Abelian subgroup         CS      NOp   2
 Largest concise Abelian subgroup C1      NOp   1
                         Standard orientation:                         
 ---------------------------------------------------------------------
 Center     Atomic      Atomic             Coordinates (Angstroms)
 Number     Number       Type             X           Y           Z
 ---------------------------------------------------------------------
      1          1           0        1.109781   -0.598553    0.000000
      2          8           0        1.316044    0.364994    0.000000
      3          8           0        0.000000    0.915999    0.000000
      4          7           0       -0.991071   -0.045892    0.000000
      5          8           0       -0.587579   -1.166018    0.000000
 ---------------------------------------------------------------------
 Rotational constants (GHZ):          21.4197905           8.1133324           5.8844397
 Leave Link  202 at Sun Mar  6 19:14:25 2022, MaxMem= 16106127360 cpu:               0.3 elap:               0.0
 (Enter /sw/contrib/gaussian/g16/B01/g16/l301.exe)
 Standard basis: Aug-CC-pVTZ (5D, 7F)
 Ernie: Thresh=  0.10000D-02 Tol=  0.10000D-05 Strict=F.
 Ernie:  12 primitive shells out of 131 were deleted.
 There are   166 symmetry adapted cartesian basis functions of A'  symmetry.
 There are    79 symmetry adapted cartesian basis functions of A"  symmetry.
 There are   136 symmetry adapted basis functions of A'  symmetry.
 There are    71 symmetry adapted basis functions of A"  symmetry.
   207 basis functions,   315 primitive gaussians,   245 cartesian basis functions
    16 alpha electrons       16 beta electrons
       nuclear repulsion energy       122.8703099916 Hartrees.
 IExCor=    0 DFT=F Ex=HF Corr=None ExCW=0 ScaHFX=  1.000000
 ScaDFX=  1.000000  1.000000  1.000000  1.000000 ScalE2=  1.000000  1.000000
 IRadAn=      5 IRanWt=     -1 IRanGd=            0 ICorTp=0 IEmpDi=  4
 NAtoms=    5 NActive=    5 NUniq=    5 SFac= 1.00D+00 NAtFMM=   60 NAOKFM=F Big=F
 Integral buffers will be    131072 words long.
 Raffenetti 1 integral format.
 Two-electron integral symmetry is turned on.
 Leave Link  301 at Sun Mar  6 19:14:25 2022, MaxMem= 16106127360 cpu:               1.4 elap:               0.1
 (Enter /sw/contrib/gaussian/g16/B01/g16/l302.exe)
 NPDir=0 NMtPBC=     1 NCelOv=     1 NCel=       1 NClECP=     1 NCelD=      1
         NCelK=      1 NCelE2=     1 NClLst=     1 CellRange=     0.0.
 One-electron integrals computed using PRISM.
 One-electron integral symmetry used in STVInt
 NBasis=   207 RedAO= T EigKep=  1.30D-04  NBF=   136    71
 NBsUse=   207 1.00D-06 EigRej= -1.00D+00 NBFU=   136    71
 Leave Link  302 at Sun Mar  6 19:14:25 2022, MaxMem= 16106127360 cpu:               4.1 elap:               0.2
 (Enter /sw/contrib/gaussian/g16/B01/g16/l303.exe)
 DipDrv:  MaxL=1.
 Leave Link  303 at Sun Mar  6 19:14:25 2022, MaxMem= 16106127360 cpu:               5.2 elap:               0.2
 (Enter /sw/contrib/gaussian/g16/B01/g16/l401.exe)
 ExpMin= 2.53D-02 ExpMax= 1.53D+04 ExpMxC= 5.22D+02 IAcc=3 IRadAn=         5 AccDes= 0.00D+00
 Harris functional with IExCor=  205 and IRadAn=       5 diagonalized for initial guess.
 HarFok:  IExCor=  205 AccDes= 0.00D+00 IRadAn=         5 IDoV= 1 UseB2=F ITyADJ=14
 ICtDFT=  3500011 ScaDFX=  1.000000  1.000000  1.000000  1.000000
 FoFCou: FMM=F IPFlag=           0 FMFlag=      100000 FMFlg1=           0
         NFxFlg=           0 DoJE=T BraDBF=F KetDBF=T FulRan=T
         wScrn=  0.000000 ICntrl=       500 IOpCl=  0 I1Cent=   200000004 NGrid=           0
         NMat0=    1 NMatS0=      1 NMatT0=    0 NMatD0=    1 NMtDS0=    0 NMtDT0=    0
 Petite list used in FoFCou.
 Harris En= -279.644929909656    
 JPrj=0 DoOrth=F DoCkMO=F.
 Initial guess orbital symmetries:
       Occupied  (A') (A') (A') (A') (A') (A') (A') (A') (A') (A')
                 (A") (A') (A") (A') (A") (A')
       Virtual   (A") (A') (A') (A') (A') (A") (A') (A') (A') (A')
                 (A") (A') (A") (A') (A') (A") (A') (A') (A") (A')
                 (A') (A') (A') (A') (A") (A') (A') (A') (A") (A')
                 (A') (A") (A") (A') (A') (A") (A') (A") (A') (A")
                 (A') (A") (A') (A") (A') (A') (A') (A") (A') (A')
                 (A') (A") (A') (A") (A') (A") (A') (A') (A') (A")
                 (A') (A') (A") (A') (A') (A') (A") (A") (A') (A')
                 (A") (A') (A") (A") (A') (A') (A") (A') (A') (A')
                 (A") (A') (A') (A") (A') (A") (A') (A") (A') (A')
                 (A') (A") (A') (A") (A') (A') (A") (A') (A") (A')
                 (A") (A') (A') (A") (A") (A') (A') (A') (A") (A')
                 (A") (A') (A') (A') (A") (A') (A') (A') (A") (A')
                 (A") (A') (A') (A") (A") (A") (A") (A') (A') (A')
                 (A') (A') (A') (A") (A') (A") (A') (A") (A') (A')
                 (A") (A") (A') (A') (A') (A") (A') (A') (A') (A")
                 (A') (A') (A') (A") (A') (A") (A") (A') (A') (A")
                 (A') (A") (A") (A') (A") (A') (A') (A") (A") (A')
                 (A") (A") (A") (A') (A") (A') (A') (A') (A') (A")
                 (A') (A') (A') (A') (A') (A') (A') (A') (A') (A')
                 (A')
 The electronic state of the initial guess is 1-A'.
 Leave Link  401 at Sun Mar  6 19:14:25 2022, MaxMem= 16106127360 cpu:               6.4 elap:               0.3
 (Enter /sw/contrib/gaussian/g16/B01/g16/l502.exe)
 Keep R1 ints in memory in symmetry-blocked form, NReq=348887737.
 FoFCou: FMM=F IPFlag=           0 FMFlag=           0 FMFlg1=           0
         NFxFlg=           0 DoJE=F BraDBF=F KetDBF=F FulRan=T
         wScrn=  0.000000 ICntrl=       600 IOpCl=  0 I1Cent=           0 NGrid=           0
         NMat0=    1 NMatS0=  21528 NMatT0=    0 NMatD0=    1 NMtDS0=    0 NMtDT0=    0
 Petite list used in FoFCou.
 Closed shell SCF:
 Using DIIS extrapolation, IDIIS=  1040.
 NGot= 16106127360 LenX= 15988850015 LenY= 15988789549
 Requested convergence on RMS density matrix=1.00D-08 within 128 cycles.
 Requested convergence on MAX density matrix=1.00D-06.
 Requested convergence on             energy=1.00D-06.
 No special actions if energy rises.

 Cycle   1  Pass 1  IDiag  1:
 E= -279.365658007103    
 DIIS: error= 2.74D-02 at cycle   1 NSaved=   1.
 NSaved= 1 IEnMin= 1 EnMin= -279.365658007103     IErMin= 1 ErrMin= 2.74D-02
 ErrMax= 2.74D-02  0.00D+00 EMaxC= 1.00D-01 BMatC= 4.50D-01 BMatP= 4.50D-01
 IDIUse=3 WtCom= 7.26D-01 WtEn= 2.74D-01
 Coeff-Com:  0.100D+01
 Coeff-En:   0.100D+01
 Coeff:      0.100D+01
 Gap=     0.499 Goal=   None    Shift=    0.000
 GapD=    0.499 DampG=2.000 DampE=0.500 DampFc=1.0000 IDamp=-1.
 RMSDP=1.67D-03 MaxDP=8.77D-02              OVMax= 1.21D-01

 Cycle   2  Pass 1  IDiag  1:
 E= -279.448173380407     Delta-E=       -0.082515373304 Rises=F Damp=F
 DIIS: error= 1.91D-02 at cycle   2 NSaved=   2.
 NSaved= 2 IEnMin= 2 EnMin= -279.448173380407     IErMin= 2 ErrMin= 1.91D-02
 ErrMax= 1.91D-02  0.00D+00 EMaxC= 1.00D-01 BMatC= 8.43D-02 BMatP= 4.50D-01
 IDIUse=3 WtCom= 8.09D-01 WtEn= 1.91D-01
 Coeff-Com:  0.216D+00 0.784D+00
 Coeff-En:   0.654D-01 0.935D+00
 Coeff:      0.187D+00 0.813D+00
 Gap=     0.562 Goal=   None    Shift=    0.000
 RMSDP=9.61D-04 MaxDP=3.69D-02 DE=-8.25D-02 OVMax= 8.98D-02

 Cycle   3  Pass 1  IDiag  1:
 E= -279.484906899324     Delta-E=       -0.036733518918 Rises=F Damp=F
 DIIS: error= 1.11D-02 at cycle   3 NSaved=   3.
 NSaved= 3 IEnMin= 3 EnMin= -279.484906899324     IErMin= 3 ErrMin= 1.11D-02
 ErrMax= 1.11D-02  0.00D+00 EMaxC= 1.00D-01 BMatC= 3.07D-02 BMatP= 8.43D-02
 IDIUse=3 WtCom= 8.89D-01 WtEn= 1.11D-01
 Coeff-Com: -0.346D-01 0.366D+00 0.668D+00
 Coeff-En:   0.000D+00 0.220D+00 0.780D+00
 Coeff:     -0.308D-01 0.350D+00 0.681D+00
 Gap=     0.541 Goal=   None    Shift=    0.000
 RMSDP=4.08D-04 MaxDP=1.56D-02 DE=-3.67D-02 OVMax= 3.84D-02

 Cycle   4  Pass 1  IDiag  1:
 E= -279.505870527305     Delta-E=       -0.020963627981 Rises=F Damp=F
 DIIS: error= 1.64D-03 at cycle   4 NSaved=   4.
 NSaved= 4 IEnMin= 4 EnMin= -279.505870527305     IErMin= 4 ErrMin= 1.64D-03
 ErrMax= 1.64D-03  0.00D+00 EMaxC= 1.00D-01 BMatC= 5.90D-04 BMatP= 3.07D-02
 IDIUse=3 WtCom= 9.84D-01 WtEn= 1.64D-02
 Coeff-Com: -0.119D-01 0.473D-01 0.153D+00 0.812D+00
 Coeff-En:   0.000D+00 0.000D+00 0.000D+00 0.100D+01
 Coeff:     -0.117D-01 0.465D-01 0.151D+00 0.815D+00
 Gap=     0.528 Goal=   None    Shift=    0.000
 RMSDP=9.82D-05 MaxDP=2.30D-03 DE=-2.10D-02 OVMax= 1.17D-02

 Cycle   5  Pass 1  IDiag  1:
 E= -279.506669519229     Delta-E=       -0.000798991924 Rises=F Damp=F
 DIIS: error= 1.09D-03 at cycle   5 NSaved=   5.
 NSaved= 5 IEnMin= 5 EnMin= -279.506669519229     IErMin= 5 ErrMin= 1.09D-03
 ErrMax= 1.09D-03  0.00D+00 EMaxC= 1.00D-01 BMatC= 1.01D-04 BMatP= 5.90D-04
 IDIUse=3 WtCom= 9.89D-01 WtEn= 1.09D-02
 Coeff-Com:  0.534D-02-0.661D-01-0.110D+00 0.601D-01 0.111D+01
 Coeff-En:   0.000D+00 0.000D+00 0.000D+00 0.000D+00 0.100D+01
 Coeff:      0.529D-02-0.654D-01-0.109D+00 0.594D-01 0.111D+01
 Gap=     0.532 Goal=   None    Shift=    0.000
 RMSDP=7.92D-05 MaxDP=2.10D-03 DE=-7.99D-04 OVMax= 1.28D-02

 Cycle   6  Pass 1  IDiag  1:
 E= -279.507026453205     Delta-E=       -0.000356933976 Rises=F Damp=F
 DIIS: error= 3.30D-04 at cycle   6 NSaved=   6.
 NSaved= 6 IEnMin= 6 EnMin= -279.507026453205     IErMin= 6 ErrMin= 3.30D-04
 ErrMax= 3.30D-04  0.00D+00 EMaxC= 1.00D-01 BMatC= 2.37D-05 BMatP= 1.01D-04
 IDIUse=3 WtCom= 9.97D-01 WtEn= 3.30D-03
 Coeff-Com:  0.188D-02-0.720D-02-0.179D-01-0.183D+00 0.149D-01 0.119D+01
 Coeff-En:   0.000D+00 0.000D+00 0.000D+00 0.000D+00 0.000D+00 0.100D+01
 Coeff:      0.187D-02-0.718D-02-0.178D-01-0.182D+00 0.149D-01 0.119D+01
 Gap=     0.532 Goal=   None    Shift=    0.000
 RMSDP=4.63D-05 MaxDP=1.07D-03 DE=-3.57D-04 OVMax= 6.04D-03

 Cycle   7  Pass 1  IDiag  1:
 E= -279.507110910906     Delta-E=       -0.000084457701 Rises=F Damp=F
 DIIS: error= 1.29D-04 at cycle   7 NSaved=   7.
 NSaved= 7 IEnMin= 7 EnMin= -279.507110910906     IErMin= 7 ErrMin= 1.29D-04
 ErrMax= 1.29D-04  0.00D+00 EMaxC= 1.00D-01 BMatC= 3.51D-06 BMatP= 2.37D-05
 IDIUse=3 WtCom= 9.99D-01 WtEn= 1.29D-03
 Coeff-Com: -0.109D-02 0.115D-01 0.250D-01 0.173D-01-0.182D+00-0.155D+00
 Coeff-Com:  0.128D+01
 Coeff-En:   0.000D+00 0.000D+00 0.000D+00 0.000D+00 0.000D+00 0.000D+00
 Coeff-En:   0.100D+01
 Coeff:     -0.109D-02 0.115D-01 0.249D-01 0.173D-01-0.182D+00-0.155D+00
 Coeff:      0.128D+01
 Gap=     0.532 Goal=   None    Shift=    0.000
 RMSDP=1.74D-05 MaxDP=5.05D-04 DE=-8.45D-05 OVMax= 2.30D-03

 Cycle   8  Pass 1  IDiag  1:
 E= -279.507122675359     Delta-E=       -0.000011764453 Rises=F Damp=F
 DIIS: error= 4.60D-05 at cycle   8 NSaved=   8.
 NSaved= 8 IEnMin= 8 EnMin= -279.507122675359     IErMin= 8 ErrMin= 4.60D-05
 ErrMax= 4.60D-05  0.00D+00 EMaxC= 1.00D-01 BMatC= 5.73D-07 BMatP= 3.51D-06
 IDIUse=1 WtCom= 1.00D+00 WtEn= 0.00D+00
 Coeff-Com: -0.552D-03 0.408D-02 0.960D-02 0.248D-01-0.570D-01-0.190D+00
 Coeff-Com:  0.351D+00 0.858D+00
 Coeff:     -0.552D-03 0.408D-02 0.960D-02 0.248D-01-0.570D-01-0.190D+00
 Coeff:      0.351D+00 0.858D+00
 Gap=     0.532 Goal=   None    Shift=    0.000
 RMSDP=5.30D-06 MaxDP=1.49D-04 DE=-1.18D-05 OVMax= 6.28D-04

 Cycle   9  Pass 1  IDiag  1:
 E= -279.507123985702     Delta-E=       -0.000001310343 Rises=F Damp=F
 DIIS: error= 2.40D-05 at cycle   9 NSaved=   9.
 NSaved= 9 IEnMin= 9 EnMin= -279.507123985702     IErMin= 9 ErrMin= 2.40D-05
 ErrMax= 2.40D-05  0.00D+00 EMaxC= 1.00D-01 BMatC= 1.12D-07 BMatP= 5.73D-07
 IDIUse=1 WtCom= 1.00D+00 WtEn= 0.00D+00
 Coeff-Com:  0.236D-03-0.254D-02-0.526D-02-0.554D-02 0.464D-01 0.484D-01
 Coeff-Com: -0.337D+00 0.379D-01 0.122D+01
 Coeff:      0.236D-03-0.254D-02-0.526D-02-0.554D-02 0.464D-01 0.484D-01
 Coeff:     -0.337D+00 0.379D-01 0.122D+01
 Gap=     0.532 Goal=   None    Shift=    0.000
 RMSDP=2.39D-06 MaxDP=6.44D-05 DE=-1.31D-06 OVMax= 2.50D-04

 Cycle  10  Pass 1  IDiag  1:
 E= -279.507124234513     Delta-E=       -0.000000248811 Rises=F Damp=F
 DIIS: error= 5.53D-06 at cycle  10 NSaved=  10.
 NSaved=10 IEnMin=10 EnMin= -279.507124234513     IErMin=10 ErrMin= 5.53D-06
 ErrMax= 5.53D-06  0.00D+00 EMaxC= 1.00D-01 BMatC= 7.69D-09 BMatP= 1.12D-07
 IDIUse=1 WtCom= 1.00D+00 WtEn= 0.00D+00
 Coeff-Com: -0.367D-04 0.481D-03 0.116D-02-0.178D-02-0.107D-01 0.514D-02
 Coeff-Com:  0.711D-01-0.544D-01-0.430D+00 0.142D+01
 Coeff:     -0.367D-04 0.481D-03 0.116D-02-0.178D-02-0.107D-01 0.514D-02
 Coeff:      0.711D-01-0.544D-01-0.430D+00 0.142D+01
 Gap=     0.532 Goal=   None    Shift=    0.000
 RMSDP=6.77D-07 MaxDP=2.48D-05 DE=-2.49D-07 OVMax= 7.19D-05

 Cycle  11  Pass 1  IDiag  1:
 E= -279.507124257492     Delta-E=       -0.000000022979 Rises=F Damp=F
 DIIS: error= 2.16D-06 at cycle  11 NSaved=  11.
 NSaved=11 IEnMin=11 EnMin= -279.507124257492     IErMin=11 ErrMin= 2.16D-06
 ErrMax= 2.16D-06  0.00D+00 EMaxC= 1.00D-01 BMatC= 7.67D-10 BMatP= 7.69D-09
 IDIUse=1 WtCom= 1.00D+00 WtEn= 0.00D+00
 Coeff-Com: -0.151D-04 0.151D-03 0.308D-03 0.902D-03-0.187D-02-0.712D-02
 Coeff-Com:  0.169D-01 0.202D-01-0.385D-01-0.353D+00 0.136D+01
 Coeff:     -0.151D-04 0.151D-03 0.308D-03 0.902D-03-0.187D-02-0.712D-02
 Coeff:      0.169D-01 0.202D-01-0.385D-01-0.353D+00 0.136D+01
 Gap=     0.532 Goal=   None    Shift=    0.000
 RMSDP=2.34D-07 MaxDP=8.61D-06 DE=-2.30D-08 OVMax= 2.72D-05

 Cycle  12  Pass 1  IDiag  1:
 E= -279.507124260249     Delta-E=       -0.000000002757 Rises=F Damp=F
 DIIS: error= 6.54D-07 at cycle  12 NSaved=  12.
 NSaved=12 IEnMin=12 EnMin= -279.507124260249     IErMin=12 ErrMin= 6.54D-07
 ErrMax= 6.54D-07  0.00D+00 EMaxC= 1.00D-01 BMatC= 7.77D-11 BMatP= 7.67D-10
 IDIUse=1 WtCom= 1.00D+00 WtEn= 0.00D+00
 Coeff-Com:  0.276D-05-0.461D-04-0.978D-04 0.944D-04 0.110D-02-0.506D-03
 Coeff-Com: -0.728D-02 0.570D-02 0.391D-01-0.974D-01-0.211D+00 0.127D+01
 Coeff:      0.276D-05-0.461D-04-0.978D-04 0.944D-04 0.110D-02-0.506D-03
 Coeff:     -0.728D-02 0.570D-02 0.391D-01-0.974D-01-0.211D+00 0.127D+01
 Gap=     0.532 Goal=   None    Shift=    0.000
 RMSDP=8.03D-08 MaxDP=2.58D-06 DE=-2.76D-09 OVMax= 9.17D-06

 Cycle  13  Pass 1  IDiag  1:
 E= -279.507124260518     Delta-E=       -0.000000000269 Rises=F Damp=F
 DIIS: error= 1.50D-07 at cycle  13 NSaved=  13.
 NSaved=13 IEnMin=13 EnMin= -279.507124260518     IErMin=13 ErrMin= 1.50D-07
 ErrMax= 1.50D-07  0.00D+00 EMaxC= 1.00D-01 BMatC= 6.20D-12 BMatP= 7.77D-11
 IDIUse=1 WtCom= 1.00D+00 WtEn= 0.00D+00
 Coeff-Com:  0.116D-05-0.106D-04-0.144D-04-0.113D-03 0.193D-04 0.881D-03
 Coeff-Com: -0.829D-03-0.249D-02-0.276D-02 0.542D-01-0.121D+00-0.156D+00
 Coeff-Com:  0.123D+01
 Coeff:      0.116D-05-0.106D-04-0.144D-04-0.113D-03 0.193D-04 0.881D-03
 Coeff:     -0.829D-03-0.249D-02-0.276D-02 0.542D-01-0.121D+00-0.156D+00
 Coeff:      0.123D+01
 Gap=     0.532 Goal=   None    Shift=    0.000
 RMSDP=2.08D-08 MaxDP=6.02D-07 DE=-2.69D-10 OVMax= 1.88D-06

 Cycle  14  Pass 1  IDiag  1:
 E= -279.507124260536     Delta-E=       -0.000000000018 Rises=F Damp=F
 DIIS: error= 3.82D-08 at cycle  14 NSaved=  14.
 NSaved=14 IEnMin=14 EnMin= -279.507124260536     IErMin=14 ErrMin= 3.82D-08
 ErrMax= 3.82D-08  0.00D+00 EMaxC= 1.00D-01 BMatC= 4.38D-13 BMatP= 6.20D-12
 IDIUse=1 WtCom= 1.00D+00 WtEn= 0.00D+00
 Coeff-Com: -0.304D-06 0.445D-05 0.880D-05-0.261D-05-0.109D-03 0.483D-04
 Coeff-Com:  0.634D-03-0.305D-03-0.345D-02 0.753D-02 0.167D-01-0.905D-01
 Coeff-Com: -0.797D-02 0.108D+01
 Coeff:     -0.304D-06 0.445D-05 0.880D-05-0.261D-05-0.109D-03 0.483D-04
 Coeff:      0.634D-03-0.305D-03-0.345D-02 0.753D-02 0.167D-01-0.905D-01
 Coeff:     -0.797D-02 0.108D+01
 Gap=     0.532 Goal=   None    Shift=    0.000
 RMSDP=4.05D-09 MaxDP=1.02D-07 DE=-1.80D-11 OVMax= 4.25D-07

 SCF Done:  E(RHF) =  -279.507124261     A.U. after   14 cycles
            NFock= 14  Conv=0.40D-08     -V/T= 2.0022
 KE= 2.789039957306D+02 PE=-9.066223647149D+02 EE= 2.253409347322D+02
 Leave Link  502 at Sun Mar  6 19:14:29 2022, MaxMem= 16106127360 cpu:              49.5 elap:               3.2
 (Enter /sw/contrib/gaussian/g16/B01/g16/l801.exe)
 ExpMin= 2.53D-02 ExpMax= 1.53D+04 ExpMxC= 5.22D+02 IAcc=3 IRadAn=         5 AccDes= 0.00D+00
 HarFok:  IExCor=  205 AccDes= 0.00D+00 IRadAn=         5 IDoV=-2 UseB2=F ITyADJ=14
 ICtDFT= 12500011 ScaDFX=  1.000000  1.000000  1.000000  1.000000
 Largest valence mixing into a core orbital is  2.07D-04
 Largest core mixing into a valence orbital is  3.09D-05
 Range of M.O.s used for correlation:     5   207
 NBasis=   207 NAE=    16 NBE=    16 NFC=     4 NFV=     0
 NROrb=    203 NOA=    12 NOB=    12 NVA=   191 NVB=   191

 **** Warning!!: The largest alpha MO coefficient is  0.16131825D+02

 Leave Link  801 at Sun Mar  6 19:14:29 2022, MaxMem= 16106127360 cpu:               1.5 elap:               0.1
 (Enter /sw/contrib/gaussian/g16/B01/g16/l906.exe)
 Frozen-core derivative calculation, NFC=   4 NFV=   0.
 FulOut=F Deriv=T AODrv=T NAtomX=     5
   MMem=           0  MDisk=          12 MDiskD=          12
  W3Min=      811440 MinDsk=     2425030 NBas6D=         245
 NBas2D=       30762    NTT=       30135    LW2=     7400000
    MDV= 16105571518 MDiskM=      328644 NBas2p=       30759
 Disk-based method using ON**2 memory for 12 occupieds at a time.
 Permanent disk used for amplitudes=    11516536 words.
 Estimated scratch disk usage=   321863743 words.
 IMap=   1   2   3   4   5   6   7   8   9  10  11  12  13  14  15  16
 Actual    scratch disk usage=   310892607 words.
 JobTyp=1 Pass  1:  I=   5 to  16 NPSUse= 28 ParTrn=T ParDer=T DoDerP=T.
 (rs|ai) integrals will be sorted in core.
 Spin components of T(2) and E(2):
     alpha-alpha T2 =       0.3470808175D-01 E2=     -0.1244546205D+00
     alpha-beta  T2 =       0.1840327250D+00 E2=     -0.6991813417D+00
     beta-beta   T2 =       0.3470808175D-01 E2=     -0.1244546205D+00
 The integrals were generated   1 times.
 ANorm=    0.1119575316D+01
 E2 =    -0.9480905828D+00 EUMP2 =    -0.28045521484332D+03
 Leave Link  906 at Sun Mar  6 19:16:04 2022, MaxMem= 16106127360 cpu:            2647.1 elap:              94.8
 (Enter /sw/contrib/gaussian/g16/B01/g16/l1101.exe)
 Using compressed Sx but separate Hx and Fx, NAtomX=     5.
 Will process      6 centers per pass.
 Leave Link 1101 at Sun Mar  6 19:16:04 2022, MaxMem= 16106127360 cpu:               4.7 elap:               0.2
 (Enter /sw/contrib/gaussian/g16/B01/g16/l1102.exe)
 Leave Link 1102 at Sun Mar  6 19:16:04 2022, MaxMem= 16106127360 cpu:               1.2 elap:               0.1
 (Enter /sw/contrib/gaussian/g16/B01/g16/l1110.exe)
 Forming Gx(P) for the SCF density, NAtomX=     5.
 Integral derivatives from FoFJK, PRISM(SPDF).
 Do as many integral derivatives as possible in FoFJK.
 G2DrvN: MDV=   16106126844.
 G2DrvN: will do     6 centers at a time, making    1 passes.
 Calling FoFCou, ICntrl=  3107 FMM=F I1Cent=   0 AccDes= 0.00D+00.
 FoFJK:  IHMeth= 1 ICntrl=    3107 DoSepK=F KAlg= 0 I1Cent=           0 FoldK=F
 IRaf=         0 NMat=       1 IRICut=       1 DoRegI=T DoRafI=F ISym2E= 1 IDoP0=0 IntGTp=1.
 FoFCou: FMM=F IPFlag=           0 FMFlag=      100000 FMFlg1=           0
         NFxFlg=           0 DoJE=F BraDBF=F KetDBF=F FulRan=T
         wScrn=  0.000000 ICntrl=      3107 IOpCl=  0 I1Cent=           0 NGrid=           0
         NMat0=    1 NMatS0=      1 NMatT0=    0 NMatD0=    1 NMtDS0=    0 NMtDT0=    0
 Petite list used in FoFCou.
 End of G2Drv F.D. properties file   721 does not exist.
 End of G2Drv F.D. properties file   722 does not exist.
 End of G2Drv F.D. properties file   788 does not exist.
 Leave Link 1110 at Sun Mar  6 19:16:07 2022, MaxMem= 16106127360 cpu:              79.9 elap:               2.9
 (Enter /sw/contrib/gaussian/g16/B01/g16/l1002.exe)
 Minotr:  Closed shell wavefunction.
          IDoAtm=11111
          Frozen-core window.
          Direct CPHF calculation.
          Differentiating once with respect to electric field.
                with respect to dipole field.
          Differentiating once with respect to nuclear coordinates.
          Requested convergence is 1.0D-08 RMS, and 1.0D-07 maximum.
          Secondary convergence is 1.0D-12 RMS, and 1.0D-12 maximum.
          NewPWx=T KeepS1=T KeepF1=T KeepIn=T MapXYZ=F SortEE=F KeepMc=T.
 Keep R1 ints in memory in symmetry-blocked form, NReq=348888983.
 FoFCou: FMM=F IPFlag=           0 FMFlag=           0 FMFlg1=           0
         NFxFlg=           0 DoJE=F BraDBF=F KetDBF=F FulRan=T
         wScrn=  0.000000 ICntrl=       600 IOpCl=  0 I1Cent=           0 NGrid=           0
         NMat0=    1 NMatS0=  21528 NMatT0=    0 NMatD0=    1 NMtDS0=    0 NMtDT0=    0
 Petite list used in FoFCou.
          MDV=   16106127360 using IRadAn=       1.
          Solving linear equations simultaneously, MaxMat=       0.
          There are    18 degrees of freedom in the 1st order CPHF.  IDoFFX=6 NUNeed=    18.
     15 vectors produced by pass  0 Test12= 1.70D-14 5.56D-09 XBig12= 7.86D+00 1.21D+00.
 AX will form    15 AO Fock derivatives at one time.
     15 vectors produced by pass  1 Test12= 1.70D-14 5.56D-09 XBig12= 1.34D+00 2.23D-01.
     15 vectors produced by pass  2 Test12= 1.70D-14 5.56D-09 XBig12= 6.62D-02 5.73D-02.
     15 vectors produced by pass  3 Test12= 1.70D-14 5.56D-09 XBig12= 1.92D-03 1.07D-02.
     15 vectors produced by pass  4 Test12= 1.70D-14 5.56D-09 XBig12= 4.19D-05 1.22D-03.
     15 vectors produced by pass  5 Test12= 1.70D-14 5.56D-09 XBig12= 5.80D-07 1.20D-04.
     15 vectors produced by pass  6 Test12= 1.70D-14 5.56D-09 XBig12= 4.50D-09 1.24D-05.
     14 vectors produced by pass  7 Test12= 1.70D-14 5.56D-09 XBig12= 3.41D-11 7.69D-07.
      3 vectors produced by pass  8 Test12= 1.70D-14 5.56D-09 XBig12= 2.37D-13 6.09D-08.
      1 vectors produced by pass  9 Test12= 1.70D-14 5.56D-09 XBig12= 1.60D-15 7.04D-09.
 InvSVY:  IOpt=1 It=  1 EMax= 8.88D-16
 Solved reduced A of dimension   123 with    15 vectors.
 FullF1:  Do perturbations      1 to      18.
 Saving first derivative matrices.
 End of Minotr F.D. properties file   721 does not exist.
 End of Minotr F.D. properties file   722 does not exist.
 End of Minotr F.D. properties file   788 does not exist.
 Leave Link 1002 at Sun Mar  6 19:16:10 2022, MaxMem= 16106127360 cpu:              73.0 elap:               2.8
 (Enter /sw/contrib/gaussian/g16/B01/g16/l811.exe)
 MDV= 16106127360.
 Form MO integral derivatives with frozen-active canonical formalism.
 MOERI=1 MOERIx=1 NAtoms=     5 NAtomX=     5.
 Discarding MO integrals.
 MO basis two electron integral derivatives will not be stored on disk.
 IAlg= 3 DoFC=T DoPWx=T Debug=F.
 Frozen-core window:  NFC=   4 NFV=   0.
 Reordered first order wavefunction length =     18678272
 In DefCFB: NBatch=  1 ICI= 16 ICA=191 LFMax= 96
            Large arrays: LIAPS=   619940160 LIARS=   288257200 words.
 In StABat: MaxSiz= 55 MinSiz= 25 NAtomB=  5
 DoIAMN: NPSUse= 28.
 Leave Link  811 at Sun Mar  6 19:17:36 2022, MaxMem= 16106127360 cpu:            2420.3 elap:              86.7
 (Enter /sw/contrib/gaussian/g16/B01/g16/l804.exe)
 Frozen-core window:  NFC=   4 NFV=   0.
 Closed-shell transformation, MDV= 16106127360 ITran=4 ISComp=1.
 Semi-Direct transformation.
 ModeAB=           2 MOrb=            16 LenV=   16104919911
 LASXX=     67341636 LTotXX=    67341636 LenRXX=    67341636
 LTotAB=    68301760 MaxLAS=    99807120 LenRXY=    99807120
 NonZer=   134683272 LenScr=   202817536 LnRSAI=           0
 LnScr1=           0 LExtra=           0 Total=    369966292
 MaxDsk=          -1 SrtSym=           F ITran=            4
 DoSDTr:  NPSUse= 28
 JobTyp=0 Pass  1:  I=   1 to  16.
 (rs|ai) integrals will be sorted in core.
 Complete sort for first half transformation.
 First half transformation complete.
 Begin second half transformation for I=  10.
 Begin second half transformation for I=  10.
 Complete sort for second half transformation.
 Second half transformation complete.
 Spin components of T(2) and E(2):
     alpha-alpha T2 =       0.3470808175D-01 E2=     -0.1244546205D+00
     alpha-beta  T2 =       0.1840327250D+00 E2=     -0.6991813417D+00
     beta-beta   T2 =       0.3470808175D-01 E2=     -0.1244546205D+00
 ANorm=    0.1583318596D+01
 E2 =    -0.9480905828D+00 EUMP2 =    -0.28045521484332D+03
 Leave Link  804 at Sun Mar  6 19:17:52 2022, MaxMem= 16106127360 cpu:             438.1 elap:              15.7
 (Enter /sw/contrib/gaussian/g16/B01/g16/l1002.exe)
 Minotr:  Closed shell wavefunction.
          Computing MP2/KS-MP2 derivatives.
          Using Z-Vector for PSCF gradient.
          Skipping F1 and S1 gradient terms here.
          IDoAtm=11111
          Frozen-core window.
          Using MO integrals in the linear equations.
          Forming densities via direct SCF.
          Differentiating once with respect to electric field.
                with respect to dipole field.
          Differentiating once with respect to nuclear coordinates.
          Using symmetry in CPHF.
          Requested convergence is 1.0D-10 RMS, and 1.0D-09 maximum.
          NewPWx=F KeepS1=T KeepF1=T KeepIn=T MapXYZ=F SortEE=F KeepMc=T.
          MDV=   16106127360 using IRadAn=       5.
          Solving linear equations separately, MaxMat=       0.
          There are     1 degrees of freedom in the 1st order CPHF.  IDoFFX=0 NUNeed=     1.
 FoFJK:  IHMeth= 1 ICntrl=       0 DoSepK=F KAlg= 0 I1Cent=           0 FoldK=F
 IRaf=         0 NMat=       1 IRICut=       1 DoRegI=T DoRafI=F ISym2E= 0 IDoP0=0 IntGTp=1.
 FoFCou: FMM=F IPFlag=           0 FMFlag=      100000 FMFlg1=           0
         NFxFlg=           0 DoJE=F BraDBF=F KetDBF=F FulRan=T
         wScrn=  0.000000 ICntrl=         0 IOpCl=  0 I1Cent=           0 NGrid=           0
         NMat0=    1 NMatS0=      1 NMatT0=    0 NMatD0=    1 NMtDS0=    0 NMtDT0=    0
 Symmetry not used in FoFCou.
 LinEq1:  Iter=  0 NonCon=     1 RMS=6.57D-03 Max=1.71D-01 NDo=     1
 LinEq1:  Iter=  1 NonCon=     1 RMS=1.98D-03 Max=3.03D-02 NDo=     1
 LinEq1:  Iter=  2 NonCon=     1 RMS=8.78D-04 Max=1.41D-02 NDo=     1
 LinEq1:  Iter=  3 NonCon=     1 RMS=3.74D-04 Max=7.90D-03 NDo=     1
 LinEq1:  Iter=  4 NonCon=     1 RMS=1.35D-04 Max=1.65D-03 NDo=     1
 LinEq1:  Iter=  5 NonCon=     1 RMS=7.48D-05 Max=1.37D-03 NDo=     1
 LinEq1:  Iter=  6 NonCon=     1 RMS=2.40D-05 Max=3.28D-04 NDo=     1
 LinEq1:  Iter=  7 NonCon=     1 RMS=7.98D-06 Max=1.07D-04 NDo=     1
 LinEq1:  Iter=  8 NonCon=     1 RMS=3.90D-06 Max=5.96D-05 NDo=     1
 LinEq1:  Iter=  9 NonCon=     1 RMS=1.02D-06 Max=1.14D-05 NDo=     1
 LinEq1:  Iter= 10 NonCon=     1 RMS=2.26D-07 Max=2.79D-06 NDo=     1
 LinEq1:  Iter= 11 NonCon=     1 RMS=4.87D-08 Max=7.84D-07 NDo=     1
 LinEq1:  Iter= 12 NonCon=     1 RMS=1.15D-08 Max=1.68D-07 NDo=     1
 LinEq1:  Iter= 13 NonCon=     1 RMS=2.01D-09 Max=1.96D-08 NDo=     1
 LinEq1:  Iter= 14 NonCon=     1 RMS=4.19D-10 Max=5.56D-09 NDo=     1
 LinEq1:  Iter= 15 NonCon=     0 RMS=8.58D-11 Max=8.80D-10 NDo=     1
 Linear equations converged to 1.000D-10 1.000D-09 after    15 iterations.
 End of Minotr F.D. properties file   721 does not exist.
 End of Minotr F.D. properties file   722 does not exist.
 End of Minotr F.D. properties file   788 does not exist.
 Leave Link 1002 at Sun Mar  6 19:17:55 2022, MaxMem= 16106127360 cpu:              74.5 elap:               2.7
 (Enter /sw/contrib/gaussian/g16/B01/g16/l1102.exe)
 Use density number 2.
 Symmetrizing basis deriv contribution to polar:
 IMax=3 JMax=2 DiffMx= 0.00D+00
 Leave Link 1102 at Sun Mar  6 19:17:55 2022, MaxMem= 16106127360 cpu:               1.0 elap:               0.1
 (Enter /sw/contrib/gaussian/g16/B01/g16/l1110.exe)
 Forming Gx(P) for generalized density number  2 NAtomX=     5.
 Integral derivatives from FoFJK, PRISM(SPDF).
 Do as many integral derivatives as possible in FoFJK.
 G2DrvN: MDV=   16106126844.
 G2DrvN: will do     6 centers at a time, making    1 passes.
 Calling FoFCou, ICntrl=  3107 FMM=F I1Cent=   0 AccDes= 0.00D+00.
 FoFJK:  IHMeth= 1 ICntrl=    3107 DoSepK=F KAlg= 0 I1Cent=           0 FoldK=F
 IRaf=         0 NMat=       1 IRICut=       1 DoRegI=T DoRafI=F ISym2E= 1 IDoP0=0 IntGTp=1.
 FoFCou: FMM=F IPFlag=           0 FMFlag=      100000 FMFlg1=           0
         NFxFlg=           0 DoJE=F BraDBF=F KetDBF=F FulRan=T
         wScrn=  0.000000 ICntrl=      3107 IOpCl=  0 I1Cent=           0 NGrid=           0
         NMat0=    1 NMatS0=      1 NMatT0=    0 NMatD0=    1 NMtDS0=    0 NMtDT0=    0
 Petite list used in FoFCou.
 End of G2Drv F.D. properties file   721 does not exist.
 End of G2Drv F.D. properties file   722 does not exist.
 End of G2Drv F.D. properties file   788 does not exist.
 Leave Link 1110 at Sun Mar  6 19:17:58 2022, MaxMem= 16106127360 cpu:              82.3 elap:               3.0
 (Enter /sw/contrib/gaussian/g16/B01/g16/l1112.exe)
 MP22nd: MDV=   16106127360
 This link is doing NAtomX=     5 total of    18 degrees of freedom.
 Using ON3 I/O method in MakUI.
 Frozen-core window:  NFC=   4 NFV=   0.
 Using Ix for Sx.
 Use MO integrals over full window.
 Using OV2 memory method for fx*t*t/D, MaxI=    16 DoOO2=F NP=  28.
 R2 and R3 integrals will be kept in memory, NReq=   915591705.
 FoFCou: FMM=F IPFlag=           0 FMFlag=           0 FMFlg1=           0
         NFxFlg=           0 DoJE=F BraDBF=F KetDBF=F FulRan=T
         wScrn=  0.000000 ICntrl=       600 IOpCl=  0 I1Cent=           0 NGrid=           0
         NMat0=    1 NMatS0=      1 NMatT0=    0 NMatD0=    1 NMtDS0=    0 NMtDT0=    0
 Symmetry not used in FoFCou.
 DD1Dir will call FoFMem   1 times, MxPair=       272
 NAB=   136 NAA=     0 NBB=     0.
 Symmetry is being used.
 FoFJK:  IHMeth= 1 ICntrl=       0 DoSepK=F KAlg= 0 I1Cent=           0 FoldK=F
 IRaf=         0 NMat=      18 IRICut=      45 DoRegI=T DoRafI=T ISym2E= 2 IDoP0=3 IntGTp=3.
 Discarding MO integrals.
 Leave Link 1112 at Sun Mar  6 19:18:32 2022, MaxMem= 16106127360 cpu:             942.9 elap:              34.1
 (Enter /sw/contrib/gaussian/g16/B01/g16/l601.exe)
 Copying SCF densities to generalized density rwf, IOpCl= 0 IROHF=0.

 **********************************************************************

            Population analysis using the MP2 Density.

 **********************************************************************

 Orbital symmetries:
       Occupied  (A') (A') (A') (A') (A') (A') (A') (A') (A') (A')
                 (A") (A') (A") (A') (A') (A")
       Virtual   (A') (A") (A') (A') (A") (A') (A') (A') (A") (A')
                 (A") (A') (A') (A') (A") (A') (A') (A") (A') (A')
                 (A') (A') (A') (A') (A") (A') (A') (A") (A') (A')
                 (A') (A") (A") (A') (A') (A') (A") (A') (A") (A')
                 (A") (A") (A') (A') (A") (A') (A') (A") (A') (A')
                 (A') (A") (A') (A') (A") (A') (A") (A') (A") (A')
                 (A') (A') (A") (A') (A') (A') (A") (A") (A') (A')
                 (A") (A') (A") (A") (A') (A') (A") (A') (A') (A')
                 (A") (A') (A') (A") (A') (A") (A") (A') (A') (A')
                 (A') (A') (A") (A") (A') (A') (A") (A") (A') (A")
                 (A') (A') (A") (A') (A") (A') (A') (A') (A") (A")
                 (A') (A') (A') (A') (A") (A') (A') (A') (A") (A')
                 (A") (A") (A') (A') (A") (A") (A') (A") (A') (A')
                 (A') (A') (A") (A') (A') (A") (A") (A') (A') (A')
                 (A") (A") (A') (A') (A') (A") (A') (A') (A') (A")
                 (A') (A') (A') (A") (A') (A") (A") (A') (A') (A")
                 (A') (A") (A') (A") (A") (A') (A") (A') (A") (A')
                 (A") (A") (A") (A') (A') (A") (A') (A') (A") (A')
                 (A') (A') (A') (A') (A') (A') (A') (A') (A') (A')
                 (A')
 The electronic state is 1-A'.
 Alpha  occ. eigenvalues --  -20.71884 -20.68747 -20.66791 -15.82534  -1.64667
 Alpha  occ. eigenvalues --   -1.50613  -1.29336  -0.95972  -0.83561  -0.75983
 Alpha  occ. eigenvalues --   -0.74063  -0.63741  -0.61934  -0.61881  -0.50394
 Alpha  occ. eigenvalues --   -0.49724
 Alpha virt. eigenvalues --    0.03504   0.06156   0.09514   0.10041   0.11962
 Alpha virt. eigenvalues --    0.12264   0.14932   0.15205   0.17766   0.18031
 Alpha virt. eigenvalues --    0.18979   0.21101   0.21673   0.24294   0.24643
 Alpha virt. eigenvalues --    0.26914   0.31274   0.31672   0.33805   0.34422
 Alpha virt. eigenvalues --    0.34717   0.39278   0.44892   0.48891   0.50512
 Alpha virt. eigenvalues --    0.51871   0.54519   0.56094   0.60042   0.62098
 Alpha virt. eigenvalues --    0.63952   0.68893   0.71696   0.72437   0.74400
 Alpha virt. eigenvalues --    0.76351   0.76721   0.79585   0.80681   0.84028
 Alpha virt. eigenvalues --    0.84340   0.85177   0.88576   0.90806   0.93112
 Alpha virt. eigenvalues --    0.94877   0.95408   1.01852   1.03209   1.06298
 Alpha virt. eigenvalues --    1.06623   1.09538   1.14431   1.15638   1.17016
 Alpha virt. eigenvalues --    1.22301   1.22747   1.24623   1.35315   1.36090
 Alpha virt. eigenvalues --    1.37235   1.46862   1.48551   1.50491   1.54189
 Alpha virt. eigenvalues --    1.59674   1.59779   1.60622   1.62934   1.69663
 Alpha virt. eigenvalues --    1.74084   1.80175   1.82981   1.88956   1.89653
 Alpha virt. eigenvalues --    1.92852   1.97962   1.98995   2.05098   2.12496
 Alpha virt. eigenvalues --    2.13059   2.16590   2.18744   2.24376   2.25940
 Alpha virt. eigenvalues --    2.29455   2.35246   2.36691   2.38700   2.40370
 Alpha virt. eigenvalues --    2.43431   2.46899   2.47966   2.52925   2.53884
 Alpha virt. eigenvalues --    2.55079   2.55999   2.61752   2.63013   2.67418
 Alpha virt. eigenvalues --    2.67615   2.75631   2.81067   2.81866   2.84080
 Alpha virt. eigenvalues --    2.91917   2.98689   3.04915   3.05174   3.11606
 Alpha virt. eigenvalues --    3.11769   3.17466   3.21359   3.30955   3.33223
 Alpha virt. eigenvalues --    3.36167   3.47847   3.68177   3.86987   3.93060
 Alpha virt. eigenvalues --    4.18480   4.22408   4.22656   4.27549   4.37012
 Alpha virt. eigenvalues --    4.50152   4.52885   4.56033   4.59937   4.69528
 Alpha virt. eigenvalues --    4.81208   4.89933   4.91405   4.94288   4.99830
 Alpha virt. eigenvalues --    5.00527   5.10819   5.13601   5.17998   5.25461
 Alpha virt. eigenvalues --    5.25915   5.31940   5.34842   5.35621   5.54424
 Alpha virt. eigenvalues --    5.65120   5.70848   5.88805   6.00126   6.26544
 Alpha virt. eigenvalues --    6.29684   6.36207   6.37765   6.59877   6.66008
 Alpha virt. eigenvalues --    6.66023   6.69070   6.72818   6.79608   6.80479
 Alpha virt. eigenvalues --    6.85431   6.96940   7.02078   7.06679   7.08096
 Alpha virt. eigenvalues --    7.14087   7.17683   7.17894   7.20459   7.24830
 Alpha virt. eigenvalues --    7.24884   7.27784   7.35087   7.39732   7.43004
 Alpha virt. eigenvalues --    7.44370   7.46798   7.56667   7.66412   7.66971
 Alpha virt. eigenvalues --    7.79664   7.88502   7.95491   8.07069   8.30723
 Alpha virt. eigenvalues --    8.50092   8.65415  13.62773  14.78922  15.12357
 Alpha virt. eigenvalues --   15.86833
          Condensed to atoms (all electrons):
               1          2          3          4          5
     1  H    0.579111   0.124187   0.024070   0.000063  -0.004997
     2  O    0.124187   8.390635  -0.230849  -0.000938  -0.008543
     3  O    0.024070  -0.230849   8.374720  -0.169533  -0.035362
     4  N    0.000063  -0.000938  -0.169533   7.137365  -0.120860
     5  O   -0.004997  -0.008543  -0.035362  -0.120860   8.363696
 Mulliken charges:
               1
     1  H    0.277567
     2  O   -0.274492
     3  O    0.036955
     4  N    0.153904
     5  O   -0.193934
 Sum of Mulliken charges =  -0.00000
 Mulliken charges with hydrogens summed into heavy atoms:
               1
     2  O    0.003074
     3  O    0.036955
     4  N    0.153904
     5  O   -0.193934
 APT charges:
               1
     1  H    0.271460
     2  O   -0.303091
     3  O   -0.310685
     4  N    0.647641
     5  O   -0.305326
 Sum of APT charges =  -0.00000
 APT charges with hydrogens summed into heavy atoms:
               1
     2  O   -0.031631
     3  O   -0.310685
     4  N    0.647641
     5  O   -0.305326
 Electronic spatial extent (au):  <R**2>=            206.9736
 Charge=             -0.0000 electrons
 Dipole moment (field-independent basis, Debye):
    X=              0.0419    Y=             -1.1128    Z=              0.0000  Tot=              1.1136
 Quadrupole moment (field-independent basis, Debye-Ang):
   XX=            -23.3709   YY=            -22.9364   ZZ=            -21.9250
   XY=             -1.9646   XZ=              0.0000   YZ=              0.0000
 Traceless Quadrupole moment (field-independent basis, Debye-Ang):
   XX=             -0.6268   YY=             -0.1923   ZZ=              0.8191
   XY=             -1.9646   XZ=              0.0000   YZ=              0.0000
 Octapole moment (field-independent basis, Debye-Ang**2):
  XXX=              2.5227  YYY=              0.2354  ZZZ=              0.0000  XYY=              2.3508
  XXY=             -2.8354  XXZ=              0.0000  XZZ=             -0.6002  YZZ=             -0.7192
  YYZ=              0.0000  XYZ=              0.0000
 Hexadecapole moment (field-independent basis, Debye-Ang**3):
 XXXX=           -127.0588 YYYY=            -94.5188 ZZZZ=            -18.0314 XXXY=            -21.5553
 XXXZ=              0.0000 YYYX=            -19.7966 YYYZ=              0.0000 ZZZX=              0.0000
 ZZZY=              0.0000 XXYY=            -35.5680 XXZZ=            -24.3404 YYZZ=            -18.5312
 XXYZ=              0.0000 YYXZ=              0.0000 ZZXY=             -5.9118
 N-N= 1.228703099916D+02 E-N=-9.073061864399D+02  KE= 2.802190755882D+02
 Symmetry A'   KE= 2.663656091608D+02
 Symmetry A"   KE= 1.385346642733D+01
  Exact polarizability:  30.889   4.115  29.766   0.000   0.000  17.608
 Approx polarizability:  24.535   0.527  27.551  -0.000  -0.000  15.496
 No NMR shielding tensors so no spin-rotation constants.
 Leave Link  601 at Sun Mar  6 19:18:32 2022, MaxMem= 16106127360 cpu:               3.9 elap:               0.2
 (Enter /sw/contrib/gaussian/g16/B01/g16/l701.exe)
 ... and contract with generalized density number  2.
 Compute integral second derivatives.
 Leave Link  701 at Sun Mar  6 19:18:32 2022, MaxMem= 16106127360 cpu:               5.1 elap:               0.2
 (Enter /sw/contrib/gaussian/g16/B01/g16/l702.exe)
 L702 exits ... SP integral derivatives will be done elsewhere.
 Leave Link  702 at Sun Mar  6 19:18:32 2022, MaxMem= 16106127360 cpu:               1.1 elap:               0.1
 (Enter /sw/contrib/gaussian/g16/B01/g16/l703.exe)
 Integral derivatives from FoFJK, PRISM(SPDF).
 Compute integral second derivatives, UseDBF=F ICtDFT=           0.
 Calling FoFJK, ICntrl=  10100127 FMM=F ISym2X=1 I1Cent= 0 IOpClX= 0 NMat=1 NMatS=1 NMatT=0.
 FoFJK:  IHMeth= 1 ICntrl=10100127 DoSepK=F KAlg= 0 I1Cent=           0 FoldK=F
 IRaf=         0 NMat=       1 IRICut=       1 DoRegI=T DoRafI=F ISym2E= 1 IDoP0=0 IntGTp=1.
 FoFCou: FMM=F IPFlag=           0 FMFlag=      100000 FMFlg1=         800
         NFxFlg=           0 DoJE=F BraDBF=F KetDBF=F FulRan=T
         wScrn=  0.000000 ICntrl=  10100127 IOpCl=  0 I1Cent=           0 NGrid=           0
         NMat0=    1 NMatS0=      1 NMatT0=    0 NMatD0=    1 NMtDS0=    0 NMtDT0=    0
 Petite list used in FoFCou.
 Leave Link  703 at Sun Mar  6 19:18:47 2022, MaxMem= 16106127360 cpu:             415.9 elap:              14.9
 (Enter /sw/contrib/gaussian/g16/B01/g16/l716.exe)
 Dipole        = 1.64780665D-02-4.37804535D-01 0.00000000D+00
 Polarizability= 3.08890283D+01 4.11481194D+00 2.97659138D+01
                 0.00000000D+00 0.00000000D+00 1.76075154D+01
 Full mass-weighted force constant matrix:
 Low frequencies ---  -65.7304  -38.4791  -17.1806    0.0010    0.0014    0.0016
 Low frequencies ---  351.3499  396.6955  519.4342
 Diagonal vibrational polarizability:
        7.2512278      10.0082952      16.1290362
 Harmonic frequencies (cm**-1), IR intensities (KM/Mole), Raman scattering
 activities (A**4/AMU), depolarization ratios for plane and unpolarized
 incident light, reduced masses (AMU), force constants (mDyne/A),
 and normal coordinates:
                      1                      2                      3
                     A"                     A'                     A"
 Frequencies --    351.3220               396.6843               519.3796
 Red. masses --      1.5768                 7.0775                 2.8442
 Frc consts  --      0.1147                 0.6562                 0.4521
 IR Inten    --     61.9139                 7.5987                26.3604
  Atom  AN      X      Y      Z        X      Y      Z        X      Y      Z
     1   1     0.00   0.00   0.98    -0.73  -0.25   0.00     0.00   0.00   0.93
     2   8     0.00   0.00  -0.11    -0.33  -0.31  -0.00     0.00   0.00   0.05
     3   8     0.00  -0.00   0.12    -0.06   0.09   0.00     0.00  -0.00  -0.18
     4   7    -0.00  -0.00  -0.11     0.05   0.09  -0.00    -0.00  -0.00   0.27
     5   8    -0.00  -0.00   0.03     0.39   0.17  -0.00    -0.00  -0.00  -0.16
                      4                      5                      6
                     A'                     A'                     A'
 Frequencies --    709.7299               836.8139               971.9378
 Red. masses --     13.4285                12.3388                 9.7218
 Frc consts  --      3.9853                 5.0907                 5.4110
 IR Inten    --    219.1241                29.0639                12.4374
  Atom  AN      X      Y      Z        X      Y      Z        X      Y      Z
     1   1    -0.35   0.00  -0.00     0.44  -0.16   0.00    -0.63  -0.01   0.00
     2   8    -0.00  -0.08   0.00     0.53  -0.20  -0.00     0.20  -0.17   0.00
     3   8     0.38   0.58  -0.00    -0.39  -0.02   0.00    -0.36   0.41  -0.00
     4   7    -0.42  -0.46   0.00    -0.43  -0.05  -0.00     0.38   0.04   0.00
     5   8     0.02  -0.10  -0.00     0.21   0.28   0.00    -0.13  -0.28  -0.00
                      7                      8                      9
                     A'                     A'                     A'
 Frequencies --   1436.1774              1592.7523              3488.0662
 Red. masses --      1.2701                 7.4177                 1.0637
 Frc consts  --      1.5435                11.0870                 7.6253
 IR Inten    --     80.7090               154.0980                42.6227
  Atom  AN      X      Y      Z        X      Y      Z        X      Y      Z
     1   1     0.97  -0.20  -0.00    -0.71   0.16   0.00     0.15   0.99   0.00
     2   8    -0.07  -0.05  -0.00     0.02   0.02  -0.00    -0.01  -0.06  -0.00
     3   8    -0.03   0.06   0.00    -0.04  -0.06   0.00     0.00  -0.00   0.00
     4   7     0.06  -0.04  -0.00     0.27  -0.44   0.00    -0.00   0.00   0.00
     5   8    -0.02   0.04   0.00    -0.16   0.41  -0.00     0.00  -0.00  -0.00

 -------------------
 - Thermochemistry -
 -------------------
 Temperature   298.150 Kelvin.  Pressure   1.00000 Atm.
 Atom     1 has atomic number  1 and mass   1.00783
 Atom     2 has atomic number  8 and mass  15.99491
 Atom     3 has atomic number  8 and mass  15.99491
 Atom     4 has atomic number  7 and mass  14.00307
 Atom     5 has atomic number  8 and mass  15.99491
 Molecular mass:    62.99564 amu.
 Principal axes and moments of inertia in atomic units:
                           1         2         3
     Eigenvalues --    84.25578 222.44142 306.69721
           X            0.79743  -0.60340   0.00000
           Y            0.60340   0.79743   0.00000
           Z            0.00000   0.00000   1.00000
 This molecule is an asymmetric top.
 Rotational symmetry number  1.
 Rotational temperatures (Kelvin)      1.02799     0.38938     0.28241
 Rotational constants (GHZ):          21.41979     8.11333     5.88444
 Zero-point vibrational energy      61624.8 (Joules/Mol)
                                   14.72868 (Kcal/Mol)
 Warning -- explicit consideration of   3 degrees of freedom as
           vibrations may cause significant error
 Vibrational temperatures:    505.47   570.74   747.27  1021.14  1203.99
          (Kelvin)           1398.40  2066.34  2291.62  5018.55
 
 Zero-point correction=                           0.023472 (Hartree/Particle)
 Thermal correction to Energy=                    0.027415
 Thermal correction to Enthalpy=                  0.028359
 Thermal correction to Gibbs Free Energy=        -0.002504
 Sum of electronic and zero-point Energies=           -280.431743
 Sum of electronic and thermal Energies=              -280.427800
 Sum of electronic and thermal Enthalpies=            -280.426856
 Sum of electronic and thermal Free Energies=         -280.457719
 
                     E (Thermal)             CV                S
                      KCal/Mol        Cal/Mol-Kelvin    Cal/Mol-Kelvin
 Total                   17.203             12.178             64.957
 Electronic               0.000              0.000              0.000
 Translational            0.889              2.981             38.341
 Rotational               0.889              2.981             23.268
 Vibrational             15.426              6.216              3.349
 Vibration     1          0.728              1.573              1.160
 Vibration     2          0.763              1.477              0.975
 Vibration     3          0.874              1.207              0.611
                       Q            Log10(Q)             Ln(Q)
 Total Bot       0.141856D+02          1.151848          2.652227
 Total V=0       0.887253D+12         11.948048         27.511396
 Vib (Bot)       0.265962D-10        -10.575180        -24.350252
 Vib (Bot)    1  0.524706D+00         -0.280084         -0.644917
 Vib (Bot)    2  0.450402D+00         -0.346399         -0.797614
 Vib (Bot)    3  0.310958D+00         -0.507298         -1.168097
 Vib (V=0)       0.166349D+01          0.221020          0.508917
 Vib (V=0)    1  0.122479D+01          0.088061          0.202767
 Vib (V=0)    2  0.117295D+01          0.069280          0.159522
 Vib (V=0)    3  0.108881D+01          0.036951          0.085084
 Electronic      0.100000D+01          0.000000          0.000000
 Translational   0.196526D+08          7.293420         16.793719
 Rotational      0.271399D+05          4.433608         10.208760
 
                                                                title
                                                             IR Spectrum
 
     3                                                                     1    1                                                    
     4                                                                     5    4                9    8    7      5   3 3            
     8                                                                     9    3                7    3    1      1   9 5            
     8                                                                     3    6                2    7    0      9   7 1            
 
     X                                                                     X    X                X    X    X      X   X X            
     X                                                                     X    X                     X    X      X     X            
     X                                                                     X    X                     X    X            X            
     X                                                                     X    X                          X            X            
                                                                           X    X                          X            X            
                                                                           X    X                          X            X            
                                                                           X    X                          X                         
                                                                           X                               X                         
                                                                           X                               X                         
                                                                           X                               X                         
                                                                           X                               X                         
                                                                           X                               X                         
                                                                           X                               X                         
                                                                           X                               X                         
                                                                                                           X                         
                                                                                                           X                         
                                                                                                           X                         
                                                                                                           X                         
                                                                                                           X                         
                                                                                                           X                         
 
 ***** Axes restored to original set *****
 -------------------------------------------------------------------
 Center     Atomic                   Forces (Hartrees/Bohr)
 Number     Number              X              Y              Z
 -------------------------------------------------------------------
      1        1          -0.000065950   -0.000000000    0.000072152
      2        8          -0.000251705   -0.000000000   -0.000052351
      3        8          -0.000067836   -0.000000000    0.000873793
      4        7           0.003319938   -0.000000000    0.004489528
      5        8          -0.002934447   -0.000000000   -0.005383123
 -------------------------------------------------------------------
 Cartesian Forces:  Max     0.005383123 RMS     0.002154230
 -----------------------------------------------------------------------------------------------
                       Internal Coordinate Forces (Hartree/Bohr or radian)
  Cent   Atom   N1       Length/X         N2         Alpha/Y        N3         Beta/Z          J
 -----------------------------------------------------------------------------------------------
      1  H 
      2  O        1  -0.000072(     1)
      3  O        2   0.000309(     2)      1   0.000123(     5)
      4  N        3   0.000957(     3)      2   0.000333(     6)      1   0.000000(     8)     0
      5  O        4   0.006121(     4)      3   0.000793(     7)      2   0.000000(     9)     0
 -----------------------------------------------------------------------------------------------
 Internal  Forces:  Max     0.006120837 RMS     0.002087969
 Force constants in Cartesian coordinates: 
                1             2             3             4             5 
      1  0.721868D-01
      2  0.000000D+00  0.606138D-02
      3  0.241245D-01  0.000000D+00  0.436809D+00
      4 -0.519164D-01  0.000000D+00 -0.476528D-02  0.281007D+00
      5  0.000000D+00 -0.241073D-02  0.000000D+00  0.000000D+00  0.121708D-01
      6  0.321258D-01  0.000000D+00 -0.420516D+00 -0.123042D-01  0.000000D+00
      7 -0.251305D-01  0.000000D+00 -0.159240D-01 -0.170692D+00  0.000000D+00
      8  0.000000D+00 -0.423285D-02  0.000000D+00  0.000000D+00 -0.189903D-01
      9 -0.439512D-01  0.000000D+00 -0.198267D-01  0.104031D-01  0.000000D+00
     10 -0.573763D-02  0.000000D+00  0.646264D-02 -0.842709D-01  0.000000D+00
     11  0.000000D+00  0.806526D-02  0.000000D+00  0.000000D+00  0.199331D-01
     12 -0.193012D-01  0.000000D+00  0.118750D-01  0.108667D-01  0.000000D+00
     13  0.105978D-01  0.000000D+00 -0.989786D-02  0.258726D-01  0.000000D+00
     14  0.000000D+00 -0.748306D-02  0.000000D+00  0.000000D+00 -0.107028D-01
     15  0.700207D-02  0.000000D+00 -0.834062D-02 -0.420032D-02  0.000000D+00
                6             7             8             9            10 
      6  0.522404D+00
      7 -0.912400D-01  0.303442D+00
      8  0.000000D+00  0.000000D+00  0.406572D-01
      9 -0.966345D-01  0.819776D-01  0.000000D+00  0.317195D+00
     10  0.403721D-01 -0.144328D+00  0.000000D+00 -0.357000D-01  0.561054D+00
     11  0.000000D+00  0.000000D+00 -0.478673D-01  0.000000D+00  0.000000D+00
     12 -0.103610D-01  0.150559D-01  0.000000D+00 -0.235434D-01  0.254656D+00
     13  0.310462D-01  0.367086D-01  0.000000D+00 -0.127295D-01 -0.326718D+00
     14  0.000000D+00  0.000000D+00  0.304333D-01  0.000000D+00  0.000000D+00
     15  0.510749D-02  0.101304D-01  0.000000D+00 -0.177190D+00 -0.265791D+00
               11            12            13            14            15 
     11  0.552398D-01
     12  0.000000D+00  0.461452D+00
     13  0.000000D+00 -0.261278D+00  0.253539D+00
     14 -0.353708D-01  0.000000D+00  0.000000D+00  0.231234D-01
     15  0.000000D+00 -0.439423D+00  0.252859D+00  0.000000D+00  0.619846D+00
 Force constants in internal coordinates: 
                1             2             3             4             5 
      1  0.436809D+00
      2  0.220335D-01  0.259107D+00
      3  0.484763D-02  0.174106D-01  0.207762D+00
      4 -0.123109D-01  0.228309D-01  0.151234D+00  0.744449D+00
      5  0.448559D-01  0.564284D-01 -0.240680D-01  0.214962D-01  0.250164D+00
      6  0.113175D-01  0.220641D-01  0.923416D-01  0.993430D-02 -0.860445D-02
      7  0.899285D-02 -0.733622D-01  0.122477D+00  0.118036D+00 -0.221987D-01
      8  0.000000D+00  0.000000D+00  0.000000D+00  0.000000D+00  0.000000D+00
      9  0.000000D+00  0.000000D+00  0.000000D+00  0.000000D+00  0.000000D+00
                6             7             8             9 
      6  0.521689D+00
      7  0.620243D-01  0.666438D+00
      8  0.000000D+00  0.000000D+00  0.201492D-01
      9  0.000000D+00  0.000000D+00  0.280745D-01  0.108311D+00
 Leave Link  716 at Sun Mar  6 19:18:47 2022, MaxMem= 16106127360 cpu:               0.8 elap:               0.0
 (Enter /sw/contrib/gaussian/g16/B01/g16/l103.exe)

 GradGradGradGradGradGradGradGradGradGradGradGradGradGradGradGradGradGrad
 Berny optimization.
 Search for a local minimum.
 Step number   1 out of a maximum of    2
 All quantities printed in internal units (Hartrees-Bohrs-Radians)
 Second derivative matrix not updated -- analytic derivatives used.
 The second derivative matrix:
                          r1        r2        r3        r4        a1
           r1           0.43681
           r2           0.02203   0.25911
           r3           0.00485   0.01741   0.20776
           r4          -0.01231   0.02283   0.15123   0.74445
           a1           0.04486   0.05643  -0.02407   0.02150   0.25016
           a2           0.01132   0.02206   0.09234   0.00993  -0.00860
           a3           0.00899  -0.07336   0.12248   0.11804  -0.02220
           d1           0.00000   0.00000   0.00000   0.00000   0.00000
           d2           0.00000   0.00000   0.00000   0.00000   0.00000
                          a2        a3        d1        d2
           a2           0.52169
           a3           0.06202   0.66644
           d1           0.00000   0.00000   0.02015
           d2           0.00000   0.00000   0.02807   0.10831
 ITU=  0
     Eigenvalues ---    0.01197   0.11649   0.12425   0.20369   0.27592
     Eigenvalues ---    0.44958   0.51622   0.61778   0.89898
 Angle between quadratic step and forces=  24.70 degrees.
 Linear search not attempted -- first point.
 Variable       Old X    -DE/DX   Delta X   Delta X   Delta X     New X
                                 (Linear)    (Quad)   (Total)
    r1        1.86209  -0.00007   0.00000   0.00011   0.00011   1.86220
    r2        2.69614   0.00031   0.00000   0.00064   0.00064   2.69678
    r3        2.60992   0.00096   0.00000  -0.00220  -0.00220   2.60771
    r4        2.24988   0.00612   0.00000   0.00865   0.00865   2.25853
    a1        1.75642   0.00012   0.00000  -0.00060  -0.00060   1.75582
    a2        1.97463   0.00033   0.00000   0.00082   0.00082   1.97545
    a3        1.99550   0.00079   0.00000   0.00004   0.00004   1.99554
    d1        0.00000   0.00000   0.00000   0.00000   0.00000   0.00000
    d2        0.00000   0.00000   0.00000   0.00000   0.00000   0.00000
         Item               Value     Threshold  Converged?
 Maximum Force            0.006121     0.000450     NO 
 RMS     Force            0.002088     0.000300     NO 
 Maximum Displacement     0.008652     0.001800     NO 
 RMS     Displacement     0.003003     0.001200     NO 
 Predicted change in Energy=-2.563423D-05
                       ----------------------------
                       ! Non-Optimized Parameters !
                       ! (Angstroms and Degrees)  !
 ----------------------                            ----------------------
 !      Name          Value   Derivative information (Atomic Units)     !
 ------------------------------------------------------------------------
 !       r1          0.9854   -DE/DX =   -0.0001                        !
 !       r2          1.4271   -DE/DX =    0.0003                        !
 !       r3          1.3799   -DE/DX =    0.001                         !
 !       r4          1.1952   -DE/DX =    0.0061                        !
 !       a1        100.6013   -DE/DX =    0.0001                        !
 !       a2        113.1848   -DE/DX =    0.0003                        !
 !       a3        114.3359   -DE/DX =    0.0008                        !
 !       d1          0.0      -DE/DX =    0.0                           !
 !       d2          0.0      -DE/DX =    0.0                           !
 ------------------------------------------------------------------------
 GradGradGradGradGradGradGradGradGradGradGradGradGradGradGradGradGradGrad

 Leave Link  103 at Sun Mar  6 19:18:48 2022, MaxMem= 16106127360 cpu:               2.2 elap:               0.1
 (Enter /sw/contrib/gaussian/g16/B01/g16/l9999.exe)

 ----------------------------------------------------------------------

 Electric dipole moment (input orientation):
 (Debye = 10**-18 statcoulomb cm , SI units = C m)
                  (au)            (Debye)         (10**-30 SI)
   Tot        0.438115D+00      0.111358D+01      0.371449D+01
   x         -0.107756D+00     -0.273888D+00     -0.913593D+00
   y          0.000000D+00      0.000000D+00      0.000000D+00
   z         -0.424656D+00     -0.107937D+01     -0.360039D+01

 Dipole polarizability, Alpha (input orientation).
 (esu units = cm**3 , SI units = C**2 m**2 J**-1)
 Alpha(0;0):
               (au)            (10**-24 esu)      (10**-40 SI)
   iso        0.260875D+02      0.386577D+01      0.430125D+01
   aniso      0.146130D+02      0.216542D+01      0.240935D+01
   xx         0.291553D+02      0.432037D+01      0.480706D+01
   yx         0.000000D+00      0.000000D+00      0.000000D+00
   yy         0.176075D+02      0.260916D+01      0.290309D+01
   zx        -0.398411D+01     -0.590384D+00     -0.656890D+00
   zy         0.000000D+00      0.000000D+00      0.000000D+00
   zz         0.314996D+02      0.466776D+01      0.519359D+01

 ----------------------------------------------------------------------

 Dipole orientation:
     1          0.00000000         -0.00000000         -0.00000000
     8         -0.45798861         -0.00000000         -1.80489140
     8          1.98805099         -0.00000000         -2.93894145
     7          3.92794594         -0.00000000         -1.19295610
     8          3.24560783          0.00000000          0.95095596

 Electric dipole moment (dipole orientation):
 (Debye = 10**-18 statcoulomb cm , SI units = C m)
                  (au)            (Debye)         (10**-30 SI)
   Tot        0.438115D+00      0.111358D+01      0.371449D+01
   x          0.000000D+00      0.000000D+00      0.000000D+00
   y          0.000000D+00      0.000000D+00      0.000000D+00
   z          0.438115D+00      0.111358D+01      0.371449D+01

 Dipole polarizability, Alpha (dipole orientation).
 (esu units = cm**3 , SI units = C**2 m**2 J**-1)
 Alpha(0;0):
               (au)            (10**-24 esu)      (10**-40 SI)
   iso        0.260875D+02      0.386577D+01      0.430125D+01
   aniso      0.146130D+02      0.216542D+01      0.240935D+01
   xx         0.311967D+02      0.462288D+01      0.514365D+01
   yx         0.000000D+00      0.000000D+00      0.000000D+00
   yy         0.176075D+02      0.260916D+01      0.290309D+01
   zx         0.406096D+01      0.601772D+00      0.669562D+00
   zy         0.000000D+00      0.000000D+00      0.000000D+00
   zz         0.294582D+02      0.436525D+01      0.485700D+01

 ----------------------------------------------------------------------
 1\1\GINC-N2398\Freq\RMP2-FC\Aug-CC-pVTZ\H1N1O3\CGAVINH\06-Mar-2022\1\\
 #p freq mp2/aug-cc-pvtz density=current\\title\\0,1\H\O,1,r1\O,2,r2,1,
 a1\N,3,r3,2,a2,1,d1,0\O,4,r4,3,a3,2,d2,0\\r1=0.98537664\r2=1.42673666\
 r3=1.38110764\r4=1.19058336\a1=100.6355057\a2=113.13777052\a3=114.3339
 2022\d1=0.\d2=0.\\Version=ES64L-G16RevB.01\State=1-A'\HF=-279.5071243\
 MP2=-280.4552148\RMSD=4.048e-09\RMSF=2.154e-03\ZeroPoint=0.0234717\The
 rmal=0.0274148\Dipole=-0.1077559,0.,-0.4246563\DipoleDeriv=0.3167983,0
 .,0.0377626,0.,0.2980837,0.,-0.0246584,0.,0.1994981,-0.5279539,0.,0.28
 00455,0.,-0.2546746,0.,-0.1042319,0.,-0.1266434,0.0013709,0.,0.3388289
 ,0.,-0.0122341,0.,0.4416813,0.,-0.9211905,0.2006662,0.,-0.1349326,0.,0
 .0129925,0.,-0.6664922,0.,1.7292653,0.0091186,0.,-0.5217044,0.,-0.0441
 675,0.,0.3537013,0.,-0.8809295\Polar=29.1553242,0.,17.6075154,-3.98410
 54,0.,31.4996179\Quadrupole=0.1460946,0.6089788,-0.7550734,0.,1.398781
 6,0.\PG=CS [SG(H1N1O3)]\NImag=0\\0.07218676,0.,0.00606138,0.02412445,0
 .,0.43680859,-0.05191643,0.,-0.00476528,0.28100706,0.,-0.00241073,0.,0
 .,0.01217075,0.03212585,0.,-0.42051636,-0.01230419,0.,0.52240435,-0.02
 513052,0.,-0.01592395,-0.17069231,0.,-0.09124001,0.30344199,0.,-0.0042
 3285,0.,0.,-0.01899029,0.,0.,0.04065718,-0.04395120,0.,-0.01982665,0.0
 1040306,0.,-0.09663449,0.08197765,0.,0.31719459,-0.00573763,0.,0.00646
 264,-0.08427093,0.,0.04037211,-0.14432773,0.,-0.03570005,0.56105420,0.
 ,0.00806526,0.,0.,0.01993312,0.,0.,-0.04786734,0.,0.,0.05523976,-0.019
 30117,0.,0.01187504,0.01086673,0.,-0.01036100,0.01505590,0.,-0.0235433
 5,0.25465640,0.,0.46145203,0.01059781,0.,-0.00989786,0.02587261,0.,0.0
 3104624,0.03670856,0.,-0.01272947,-0.32671791,0.,-0.26127785,0.2535389
 3,0.,-0.00748306,0.,0.,-0.01070285,0.,0.,0.03043330,0.,0.,-0.03537080,
 0.,0.,0.02312341,0.00700207,0.,-0.00834062,-0.00420032,0.,0.00510749,0
 .01013041,0.,-0.17719010,-0.26579110,0.,-0.43942272,0.25285893,0.,0.61
 984594\\0.00006595,0.,-0.00007215,0.00025171,0.,0.00005235,0.00006784,
 0.,-0.00087379,-0.00331994,0.,-0.00448953,0.00293445,0.,0.00538312\\\@


 DO NOT LET SELFISH MEN OR GREEDY INTERESTS SKIN YOUR COUNTRY OF ITS
 BEAUTY, ITS RICHES, OR ITS ROMANCE. -- THEODORE ROOSEVELT
 Job cpu time:       0 days  2 hours  1 minutes 10.7 seconds.
 Elapsed time:       0 days  0 hours  4 minutes 23.0 seconds.
 File lengths (MBytes):  RWF=   7239 Int=      0 D2E=      0 Chk=      8 Scr=      1
 Normal termination of Gaussian 16 at Sun Mar  6 19:18:49 2022.
