title                                                                   
Freq      RMP2-FC                                                     Aug-CC-pVTZ         
Number of atoms                            I                5
Info1-9                                    I   N=           9
          33          24           0           0           0         100
           6           2           1
Full Title                                 C   N=           1
title       
Route                                      C   N=           4
#p freq mp2/aug-cc-pvtz density=current         
Charge                                     I                0
Multiplicity                               I                1
Number of electrons                        I               32
Number of alpha electrons                  I               16
Number of beta electrons                   I               16
Number of basis functions                  I              207
Number of independent functions            I              207
Number of point charges in /Mol/           I                0
Number of translation vectors              I                0
Atomic numbers                             I   N=           5
           1           8           8           7           8
Nuclear charges                            R   N=           5
  1.00000000E+00  8.00000000E+00  8.00000000E+00  7.00000000E+00  8.00000000E+00
Current cartesian coordinates              R   N=          15
  2.06971061E+00 -1.16437318E+00  0.00000000E+00  2.47688892E+00  6.52655259E-01
  0.00000000E+00  7.43740456E-17  1.71764374E+00  0.00000000E+00 -1.85623143E+00
 -4.97722712E-02  0.00000000E+00 -1.11140025E+00 -2.18120162E+00  0.00000000E+00
Number of symbols in /Mol/                 I                0
Force Field                                I                0
Atom Types                                 C   N=           5
                                                            
Int Atom Types                             I   N=           5
           0           0           0           0           0
MM charges                                 R   N=           5
  0.00000000E+00  0.00000000E+00  0.00000000E+00  0.00000000E+00  0.00000000E+00
Integer atomic weights                     I   N=           5
           1          16          16          14          16
Real atomic weights                        R   N=           5
  1.00782504E+00  1.59949146E+01  1.59949146E+01  1.40030740E+01  1.59949146E+01
Atom fragment info                         I   N=           5
           0           0           0           0           0
Atom residue num                           I   N=           5
           0           0           0           0           0
Nuclear spins                              I   N=           5
           1           0           0           2           0
Nuclear ZEff                               R   N=           5
 -1.00000000E+00 -5.60000000E+00 -5.60000000E+00 -4.55000000E+00 -5.60000000E+00
Nuclear ZNuc                               R   N=           5
  1.00000000E+00  8.00000000E+00  8.00000000E+00  7.00000000E+00  8.00000000E+00
Nuclear QMom                               R   N=           5
  0.00000000E+00  0.00000000E+00  0.00000000E+00  2.04400000E+00  0.00000000E+00
Nuclear GFac                               R   N=           5
  2.79284600E+00  0.00000000E+00  0.00000000E+00  4.03761000E-01  0.00000000E+00
MicOpt                                     I   N=           5
          -1          -1          -1          -1          -1
Number of residues                         I                0
Number of secondary structures             I                0
SymInf integers                            I   N=          26
           1           2           1           1           1           1
           1          -1           0           0           0           0
           0           0           0           0           0           0
           0           0           0           0           0           0
           0           0
RotTr to input orientation                 R   N=          12
 -9.75799511E-01  0.00000000E+00  2.18667132E-01  2.18667132E-01  0.00000000E+00
  9.75799511E-01  0.00000000E+00  1.00000000E+00  0.00000000E+00  2.27423274E+00
  0.00000000E+00  6.83617101E-01
Number of contracted shells                I               65
Number of primitive shells                 I              119
Pure/Cartesian d shells                    I                0
Pure/Cartesian f shells                    I                0
Highest angular momentum                   I                3
Largest degree of contraction              I                7
Shell types                                I   N=          65
           0           0           0           0           1           1
           1          -2          -2           0           0           0
           0           0           1           1           1           1
          -2          -2          -2          -3          -3           0
           0           0           0           0           1           1
           1           1          -2          -2          -2          -3
          -3           0           0           0           0           0
           1           1           1           1          -2          -2
          -2          -3          -3           0           0           0
           0           0           1           1           1           1
          -2          -2          -2          -3          -3
Number of primitives per shell             I   N=          65
           3           1           1           1           1           1
           1           1           1           7           6           1
           1           1           3           1           1           1
           1           1           1           1           1           7
           6           1           1           1           3           1
           1           1           1           1           1           1
           1           7           6           1           1           1
           3           1           1           1           1           1
           1           1           1           7           6           1
           1           1           3           1           1           1
           1           1           1           1           1
Shell to atom map                          I   N=          65
           1           1           1           1           1           1
           1           1           1           2           2           2
           2           2           2           2           2           2
           2           2           2           2           2           3
           3           3           3           3           3           3
           3           3           3           3           3           3
           3           4           4           4           4           4
           4           4           4           4           4           4
           4           4           4           5           5           5
           5           5           5           5           5           5
           5           5           5           5           5
Primitive exponents                        R   N=         119
  3.38700000E+01  5.09500000E+00  1.15900000E+00  3.25800000E-01  1.02700000E-01
  2.52600000E-02  1.40700000E+00  3.88000000E-01  1.02000000E-01  1.05700000E+00
  2.47000000E-01  1.53300000E+04  2.29900000E+03  5.22400000E+02  1.47300000E+02
  4.75500000E+01  1.67600000E+01  6.20700000E+00  5.22400000E+02  1.47300000E+02
  4.75500000E+01  1.67600000E+01  6.20700000E+00  6.88200000E-01  1.75200000E+00
  2.38400000E-01  7.37600000E-02  3.44600000E+01  7.74900000E+00  2.28000000E+00
  7.15600000E-01  2.14000000E-01  5.97400000E-02  2.31400000E+00  6.45000000E-01
  2.14000000E-01  1.42800000E+00  5.00000000E-01  1.53300000E+04  2.29900000E+03
  5.22400000E+02  1.47300000E+02  4.75500000E+01  1.67600000E+01  6.20700000E+00
  5.22400000E+02  1.47300000E+02  4.75500000E+01  1.67600000E+01  6.20700000E+00
  6.88200000E-01  1.75200000E+00  2.38400000E-01  7.37600000E-02  3.44600000E+01
  7.74900000E+00  2.28000000E+00  7.15600000E-01  2.14000000E-01  5.97400000E-02
  2.31400000E+00  6.45000000E-01  2.14000000E-01  1.42800000E+00  5.00000000E-01
  1.14200000E+04  1.71200000E+03  3.89300000E+02  1.10000000E+02  3.55700000E+01
  1.25400000E+01  4.64400000E+00  3.89300000E+02  1.10000000E+02  3.55700000E+01
  1.25400000E+01  4.64400000E+00  5.11800000E-01  1.29300000E+00  1.78700000E-01
  5.76000000E-02  2.66300000E+01  5.94800000E+00  1.74200000E+00  5.55000000E-01
  1.72500000E-01  4.91000000E-02  1.65400000E+00  4.69000000E-01  1.51000000E-01
  1.09300000E+00  3.64000000E-01  1.53300000E+04  2.29900000E+03  5.22400000E+02
  1.47300000E+02  4.75500000E+01  1.67600000E+01  6.20700000E+00  5.22400000E+02
  1.47300000E+02  4.75500000E+01  1.67600000E+01  6.20700000E+00  6.88200000E-01
  1.75200000E+00  2.38400000E-01  7.37600000E-02  3.44600000E+01  7.74900000E+00
  2.28000000E+00  7.15600000E-01  2.14000000E-01  5.97400000E-02  2.31400000E+00
  6.45000000E-01  2.14000000E-01  1.42800000E+00  5.00000000E-01
Contraction coefficients                   R   N=         119
  2.54948632E-02  1.90362766E-01  8.52162022E-01  1.00000000E+00  1.00000000E+00
  1.00000000E+00  1.00000000E+00  1.00000000E+00  1.00000000E+00  1.00000000E+00
  1.00000000E+00  5.19808943E-04  4.02025621E-03  2.07128267E-02  8.10105536E-02
  2.35962985E-01  4.42653446E-01  3.57064423E-01 -4.42115008E-05 -1.22591041E-03
 -1.05517725E-02 -6.74452633E-02 -1.71198607E-01  1.07329856E+00  1.00000000E+00
  1.00000000E+00  1.00000000E+00  4.11634896E-02  2.57762836E-01  8.02419274E-01
  1.00000000E+00  1.00000000E+00  1.00000000E+00  1.00000000E+00  1.00000000E+00
  1.00000000E+00  1.00000000E+00  1.00000000E+00  5.19808943E-04  4.02025621E-03
  2.07128267E-02  8.10105536E-02  2.35962985E-01  4.42653446E-01  3.57064423E-01
 -4.42115008E-05 -1.22591041E-03 -1.05517725E-02 -6.74452633E-02 -1.71198607E-01
  1.07329856E+00  1.00000000E+00  1.00000000E+00  1.00000000E+00  4.11634896E-02
  2.57762836E-01  8.02419274E-01  1.00000000E+00  1.00000000E+00  1.00000000E+00
  1.00000000E+00  1.00000000E+00  1.00000000E+00  1.00000000E+00  1.00000000E+00
  5.34563860E-04  4.13435660E-03  2.12335358E-02  8.25006224E-02  2.38138871E-01
  4.42551547E-01  3.53757422E-01 -4.89867350E-05 -1.19527323E-03 -1.03490714E-02
 -6.48680190E-02 -1.71552477E-01  1.07289568E+00  1.00000000E+00  1.00000000E+00
  1.00000000E+00  3.98072123E-02  2.49002660E-01  8.10479727E-01  1.00000000E+00
  1.00000000E+00  1.00000000E+00  1.00000000E+00  1.00000000E+00  1.00000000E+00
  1.00000000E+00  1.00000000E+00  5.19808943E-04  4.02025621E-03  2.07128267E-02
  8.10105536E-02  2.35962985E-01  4.42653446E-01  3.57064423E-01 -4.42115008E-05
 -1.22591041E-03 -1.05517725E-02 -6.74452633E-02 -1.71198607E-01  1.07329856E+00
  1.00000000E+00  1.00000000E+00  1.00000000E+00  4.11634896E-02  2.57762836E-01
  8.02419274E-01  1.00000000E+00  1.00000000E+00  1.00000000E+00  1.00000000E+00
  1.00000000E+00  1.00000000E+00  1.00000000E+00  1.00000000E+00
Coordinates of each shell                  R   N=         195
  2.06971061E+00 -1.16437318E+00  0.00000000E+00  2.06971061E+00 -1.16437318E+00
  0.00000000E+00  2.06971061E+00 -1.16437318E+00  0.00000000E+00  2.06971061E+00
 -1.16437318E+00  0.00000000E+00  2.06971061E+00 -1.16437318E+00  0.00000000E+00
  2.06971061E+00 -1.16437318E+00  0.00000000E+00  2.06971061E+00 -1.16437318E+00
  0.00000000E+00  2.06971061E+00 -1.16437318E+00  0.00000000E+00  2.06971061E+00
 -1.16437318E+00  0.00000000E+00  2.47688892E+00  6.52655259E-01  0.00000000E+00
  2.47688892E+00  6.52655259E-01  0.00000000E+00  2.47688892E+00  6.52655259E-01
  0.00000000E+00  2.47688892E+00  6.52655259E-01  0.00000000E+00  2.47688892E+00
  6.52655259E-01  0.00000000E+00  2.47688892E+00  6.52655259E-01  0.00000000E+00
  2.47688892E+00  6.52655259E-01  0.00000000E+00  2.47688892E+00  6.52655259E-01
  0.00000000E+00  2.47688892E+00  6.52655259E-01  0.00000000E+00  2.47688892E+00
  6.52655259E-01  0.00000000E+00  2.47688892E+00  6.52655259E-01  0.00000000E+00
  2.47688892E+00  6.52655259E-01  0.00000000E+00  2.47688892E+00  6.52655259E-01
  0.00000000E+00  2.47688892E+00  6.52655259E-01  0.00000000E+00  3.12633689E-17
  1.71764374E+00  0.00000000E+00  3.12633689E-17  1.71764374E+00  0.00000000E+00
  3.12633689E-17  1.71764374E+00  0.00000000E+00  3.12633689E-17  1.71764374E+00
  0.00000000E+00  3.12633689E-17  1.71764374E+00  0.00000000E+00  3.12633689E-17
  1.71764374E+00  0.00000000E+00  3.12633689E-17  1.71764374E+00  0.00000000E+00
  3.12633689E-17  1.71764374E+00  0.00000000E+00  3.12633689E-17  1.71764374E+00
  0.00000000E+00  3.12633689E-17  1.71764374E+00  0.00000000E+00  3.12633689E-17
  1.71764374E+00  0.00000000E+00  3.12633689E-17  1.71764374E+00  0.00000000E+00
  3.12633689E-17  1.71764374E+00  0.00000000E+00  3.12633689E-17  1.71764374E+00
  0.00000000E+00 -1.85623143E+00 -4.97722712E-02  0.00000000E+00 -1.85623143E+00
 -4.97722712E-02  0.00000000E+00 -1.85623143E+00 -4.97722712E-02  0.00000000E+00
 -1.85623143E+00 -4.97722712E-02  0.00000000E+00 -1.85623143E+00 -4.97722712E-02
  0.00000000E+00 -1.85623143E+00 -4.97722712E-02  0.00000000E+00 -1.85623143E+00
 -4.97722712E-02  0.00000000E+00 -1.85623143E+00 -4.97722712E-02  0.00000000E+00
 -1.85623143E+00 -4.97722712E-02  0.00000000E+00 -1.85623143E+00 -4.97722712E-02
  0.00000000E+00 -1.85623143E+00 -4.97722712E-02  0.00000000E+00 -1.85623143E+00
 -4.97722712E-02  0.00000000E+00 -1.85623143E+00 -4.97722712E-02  0.00000000E+00
 -1.85623143E+00 -4.97722712E-02  0.00000000E+00 -1.11140025E+00 -2.18120162E+00
  0.00000000E+00 -1.11140025E+00 -2.18120162E+00  0.00000000E+00 -1.11140025E+00
 -2.18120162E+00  0.00000000E+00 -1.11140025E+00 -2.18120162E+00  0.00000000E+00
 -1.11140025E+00 -2.18120162E+00  0.00000000E+00 -1.11140025E+00 -2.18120162E+00
  0.00000000E+00 -1.11140025E+00 -2.18120162E+00  0.00000000E+00 -1.11140025E+00
 -2.18120162E+00  0.00000000E+00 -1.11140025E+00 -2.18120162E+00  0.00000000E+00
 -1.11140025E+00 -2.18120162E+00  0.00000000E+00 -1.11140025E+00 -2.18120162E+00
  0.00000000E+00 -1.11140025E+00 -2.18120162E+00  0.00000000E+00 -1.11140025E+00
 -2.18120162E+00  0.00000000E+00 -1.11140025E+00 -2.18120162E+00  0.00000000E+00
Num ILSW                                   I              100
ILSW                                       I   N=         100
           0           0           0           0           2           0
           0           0           0           0           0          -1
           5           0           0           0           2           0
           0           0           0           0           1           0
           1           0           0           0           0           0
           0           0      100000           0          -1           0
           0           0           0           0           0           0
           0           0           0           1           1           0
           0 -2000000000           1           0           0           0
           0           0           4          52           0           0
           0           0           0           0           0           0
           0           0           0           5           4           1
           0           0           0           0           0           0
           0           0           0           0           0           0
           0           0           0           0           0           0
           0           0           0           0           0           0
           0           0           0           0
Num RLSW                                   I               52
RLSW                                       R   N=          52
  1.00000000E+00  1.00000000E+00  1.00000000E+00  1.00000000E+00  1.00000000E+00
  0.00000000E+00  0.00000000E+00  1.00000000E+00  0.00000000E+00  0.00000000E+00
  0.00000000E+00  0.00000000E+00  1.00000000E+00  0.00000000E+00  0.00000000E+00
  0.00000000E+00  0.00000000E+00  1.00000000E+00  0.00000000E+00  0.00000000E+00
  0.00000000E+00  0.00000000E+00  1.00000000E+00  0.00000000E+00  0.00000000E+00
  0.00000000E+00  0.00000000E+00  1.00000000E+00  0.00000000E+00  0.00000000E+00
  0.00000000E+00  0.00000000E+00  1.00000000E+00  0.00000000E+00  0.00000000E+00
  0.00000000E+00  0.00000000E+00  0.00000000E+00  1.00000000E+00  1.00000000E+00
  0.00000000E+00  1.00000000E+00  0.00000000E+00  0.00000000E+00  0.00000000E+00
  0.00000000E+00  0.00000000E+00  0.00000000E+00  0.00000000E+00  0.00000000E+00
  0.00000000E+00  0.00000000E+00
MxBond                                     I                2
NBond                                      I   N=           5
           1           2           2           2           1
IBond                                      I   N=          10
           2           0           1           3           2           4
           3           5           4           0
RBond                                      R   N=          10
  1.00000000E+00  0.00000000E+00  1.00000000E+00  1.00000000E+00  1.00000000E+00
  1.00000000E+00  1.00000000E+00  2.00000000E+00  2.00000000E+00  0.00000000E+00
Virial Ratio                               R      2.002035883606719E+00
SCF Energy                                 R     -2.795082680157740E+02
MP2 Energy                                 R     -2.804550061561790E+02
Total Energy                               R     -2.804550061561790E+02
Post-SCF wavefunction norm                 R      1.582319114708323E+00
RMS Force                                  R      3.553080935983352E-03
RMS Density                                R      3.742216632656312E-09
NImag                                      I                0
Job Status                                 I                1
Nuclear derivative order                   I                2
External E-field                           R   N=          35
  0.00000000E+00  0.00000000E+00  0.00000000E+00  0.00000000E+00  0.00000000E+00
  0.00000000E+00  0.00000000E+00  0.00000000E+00  0.00000000E+00  0.00000000E+00
  0.00000000E+00  0.00000000E+00  0.00000000E+00  0.00000000E+00  0.00000000E+00
  0.00000000E+00  0.00000000E+00  0.00000000E+00  0.00000000E+00  0.00000000E+00
  0.00000000E+00  0.00000000E+00  0.00000000E+00  0.00000000E+00  0.00000000E+00
  0.00000000E+00  0.00000000E+00  0.00000000E+00  0.00000000E+00  0.00000000E+00
  0.00000000E+00  0.00000000E+00  0.00000000E+00  0.00000000E+00  0.00000000E+00
IOpCl                                      I                0
IROHF                                      I                0
Alpha Orbital Energies                     R   N=         207
 -2.07239616E+01 -2.06814047E+01 -2.06696496E+01 -1.58229633E+01 -1.65098071E+00
 -1.50504042E+00 -1.30275741E+00 -9.59136685E-01 -8.37323595E-01 -7.62204136E-01
 -7.45833904E-01 -6.38412804E-01 -6.17788350E-01 -6.16044027E-01 -5.04769778E-01
 -4.99921490E-01  3.49558448E-02  6.40029655E-02  9.51393187E-02  1.00502691E-01
  1.19701935E-01  1.23103809E-01  1.48564047E-01  1.51558868E-01  1.77384139E-01
  1.80722614E-01  1.89600385E-01  2.11238226E-01  2.16607512E-01  2.42661664E-01
  2.46472006E-01  2.69668260E-01  3.14066569E-01  3.17690165E-01  3.38725106E-01
  3.44908757E-01  3.55191823E-01  4.00098210E-01  4.49773871E-01  4.89239360E-01
  5.05299276E-01  5.18948619E-01  5.46291601E-01  5.61819536E-01  6.00387510E-01
  6.20558096E-01  6.40599500E-01  6.90278074E-01  7.13905306E-01  7.24833646E-01
  7.44362692E-01  7.64658041E-01  7.68169142E-01  7.95724764E-01  8.08515669E-01
  8.39622012E-01  8.42371939E-01  8.51795544E-01  8.86878290E-01  9.08586785E-01
  9.33345600E-01  9.49672449E-01  9.51939976E-01  1.01936287E+00  1.03327006E+00
  1.06635750E+00  1.06772905E+00  1.09789518E+00  1.14557928E+00  1.15904558E+00
  1.17257426E+00  1.22364552E+00  1.22657922E+00  1.24686988E+00  1.35422214E+00
  1.35581325E+00  1.37372197E+00  1.46984500E+00  1.48610870E+00  1.50429877E+00
  1.54212486E+00  1.59730788E+00  1.60009074E+00  1.61179469E+00  1.63734547E+00
  1.69742865E+00  1.74030439E+00  1.80122789E+00  1.83369152E+00  1.88990135E+00
  1.89596077E+00  1.93795905E+00  1.98274121E+00  1.99363193E+00  2.05364408E+00
  2.13027079E+00  2.13383712E+00  2.16847398E+00  2.19219464E+00  2.24709597E+00
  2.25999741E+00  2.29298490E+00  2.35521962E+00  2.37110983E+00  2.38515929E+00
  2.40254214E+00  2.44266456E+00  2.47253300E+00  2.48309848E+00  2.52931927E+00
  2.54703568E+00  2.55405060E+00  2.56400967E+00  2.62305162E+00  2.63279644E+00
  2.68054872E+00  2.68300142E+00  2.76018826E+00  2.81566495E+00  2.82785563E+00
  2.84018091E+00  2.92656487E+00  2.99880407E+00  3.05465527E+00  3.05608486E+00
  3.11827238E+00  3.12154489E+00  3.17613739E+00  3.21407919E+00  3.31300774E+00
  3.33652502E+00  3.37700809E+00  3.47437275E+00  3.69948790E+00  3.88141229E+00
  3.93808856E+00  4.18845625E+00  4.22909386E+00  4.23367238E+00  4.28266912E+00
  4.37375996E+00  4.50493657E+00  4.54873899E+00  4.56090510E+00  4.60480274E+00
  4.69672581E+00  4.81313218E+00  4.91717836E+00  4.91821894E+00  4.94448170E+00
  5.00946346E+00  5.01554091E+00  5.11801357E+00  5.13724538E+00  5.18188159E+00
  5.25370135E+00  5.26064554E+00  5.33394390E+00  5.34429372E+00  5.37470763E+00
  5.54919104E+00  5.65111227E+00  5.71514202E+00  5.89255584E+00  5.99310467E+00
  6.26416845E+00  6.30408906E+00  6.37606520E+00  6.38385159E+00  6.60069858E+00
  6.66457658E+00  6.67163170E+00  6.70168630E+00  6.73295831E+00  6.78554525E+00
  6.80038662E+00  6.87091229E+00  6.99007821E+00  7.02059600E+00  7.06373168E+00
  7.08060823E+00  7.13539694E+00  7.18340523E+00  7.19773512E+00  7.20172741E+00
  7.25010365E+00  7.25110370E+00  7.27711727E+00  7.35808332E+00  7.41244225E+00
  7.44681064E+00  7.44733310E+00  7.46270518E+00  7.59012017E+00  7.67028932E+00
  7.68796082E+00  7.80256767E+00  7.89411360E+00  7.98754111E+00  8.09105445E+00
  8.31270973E+00  8.50878454E+00  8.67000698E+00  1.37841488E+01  1.48933604E+01
  1.52264994E+01  1.58341090E+01
Alpha MO coefficients                      R   N=       42849
  6.01223229E-05  8.27464160E-06 -1.03542823E-03  1.94380724E-05 -5.05437322E-05
  4.00347373E-05  0.00000000E+00 -8.62580949E-05 -2.69137719E-04  0.00000000E+00
 -7.66290857E-06 -3.31953728E-04  0.00000000E+00  4.07026350E-05  0.00000000E+00
  0.00000000E+00 -2.48144043E-05  1.08159978E-05  2.25785215E-04  0.00000000E+00
  0.00000000E+00 -3.72135905E-05 -2.12383374E-04  2.91394932E-03 -1.00633735E-04
 -1.03518948E-04  3.60559450E-03  2.46948129E-03  1.00554583E-04 -5.43081822E-05
  0.00000000E+00 -7.23980473E-04  2.98101731E-04  0.00000000E+00 -2.02473061E-03
  1.18533524E-03  0.00000000E+00 -5.36640717E-04  5.73168481E-05  0.00000000E+00
  2.00196029E-05  0.00000000E+00  0.00000000E+00 -6.82024314E-06  4.37541087E-05
 -4.39994781E-04  0.00000000E+00  0.00000000E+00  4.08171246E-04 -6.71315675E-04
 -3.65995826E-04  0.00000000E+00  0.00000000E+00  5.43321881E-04 -7.56145563E-04
  0.00000000E+00  7.24887716E-05 -5.26084581E-05  0.00000000E+00  0.00000000E+00
 -2.49525144E-05  1.09695712E-04  0.00000000E+00  2.04916621E-04 -5.19348199E-05
  0.00000000E+00  0.00000000E+00 -1.51761241E-04  2.98908414E-04  9.76881431E-01
 -9.20740460E-03  4.34457553E-02  4.16420299E-04 -2.21876108E-03  3.81675386E-04
 -2.18573988E-03  0.00000000E+00 -2.24332885E-04  2.31552095E-03  0.00000000E+00
 -2.44604499E-03 -3.97002601E-04  0.00000000E+00 -2.43372875E-04  9.59303153E-05
  0.00000000E+00 -2.27720511E-06  0.00000000E+00  0.00000000E+00 -7.01913649E-06
  4.71645565E-05  8.42301705E-04  0.00000000E+00  0.00000000E+00 -4.64825507E-04
 -2.08114390E-04 -1.15460975E-04  0.00000000E+00  0.00000000E+00 -5.43161671E-04
  3.81551415E-04  0.00000000E+00 -1.05710079E-05 -7.91860751E-05  0.00000000E+00
  0.00000000E+00 -6.70734191E-06  4.73523890E-05  0.00000000E+00  9.28156454E-05
 -1.08082227E-05  0.00000000E+00  0.00000000E+00 -3.49880979E-04  3.96156100E-04
  1.15492676E-04  5.44309416E-04 -3.18174061E-04 -1.03278244E-03  2.87295049E-04
 -3.93037879E-05 -9.41699399E-05  0.00000000E+00  8.05341555E-04  1.22860407E-03
  0.00000000E+00 -7.78996726E-04 -6.41907791E-04  0.00000000E+00  1.94924496E-04
  2.14017334E-04  0.00000000E+00 -6.44579900E-05  0.00000000E+00  0.00000000E+00
  1.73196340E-05  1.17235021E-04 -4.15813645E-04  0.00000000E+00  0.00000000E+00
  1.34125090E-04  1.10655131E-03  3.51264717E-05  0.00000000E+00  0.00000000E+00
 -2.82817779E-04  1.37212650E-05  0.00000000E+00 -7.71143974E-05 -1.11556571E-04
  0.00000000E+00  0.00000000E+00 -8.65844830E-05  1.00836736E-04  0.00000000E+00
 -1.28630132E-04  5.19469839E-05  0.00000000E+00  0.00000000E+00  4.89443245E-05
  5.17527010E-04 -5.52904215E-04  6.51222409E-05 -6.43612008E-05  3.22311635E-04
 -1.14131022E-04 -2.51391919E-05 -4.10820679E-05  0.00000000E+00  1.48696512E-04
  2.76329602E-04  0.00000000E+00  4.69584225E-04  3.67583159E-04  0.00000000E+00
 -2.29948734E-04 -4.67537428E-05  0.00000000E+00 -1.47093614E-05  0.00000000E+00
  0.00000000E+00  1.91548173E-06  1.75926785E-05 -2.31344810E-06  0.00000000E+00
  0.00000000E+00 -1.63446163E-04 -1.99638191E-05 -3.06305546E-05  0.00000000E+00
  0.00000000E+00 -1.78807525E-04 -6.31136550E-05  0.00000000E+00 -3.33814884E-06
 -7.13688425E-06  0.00000000E+00  0.00000000E+00 -1.54248928E-05  1.22626051E-05
  0.00000000E+00  3.83947737E-05  5.93040280E-05  0.00000000E+00  0.00000000E+00
  1.66130921E-04 -1.05461978E-04  3.82339592E-05  1.00276882E-04 -6.47912037E-05
 -2.82699557E-05  2.52330555E-05  1.63230672E-05  0.00000000E+00  2.29420481E-04
  4.84054914E-05  0.00000000E+00  1.08540343E-04  1.83619924E-05  0.00000000E+00
  1.01146178E-05  0.00000000E+00  0.00000000E+00 -8.16862405E-06  2.14289059E-05
  1.82483365E-05  0.00000000E+00  0.00000000E+00 -8.01051846E-05  7.34983351E-05
 -4.67815689E-04  3.68941816E-05 -2.31552771E-05 -5.61263514E-04  1.35188609E-04
  7.64475500E-06  1.36709325E-05  0.00000000E+00 -1.08146905E-06 -4.48985191E-05
  0.00000000E+00  1.83542186E-04  1.81579486E-04  0.00000000E+00 -3.62892891E-05
  5.68505132E-05  0.00000000E+00 -2.65152199E-06  0.00000000E+00  0.00000000E+00
 -8.46342332E-06 -1.04042293E-05  2.83198491E-05  0.00000000E+00  0.00000000E+00
  5.51876326E-05  1.08402405E-04  7.02971525E-05  0.00000000E+00  0.00000000E+00
 -2.59861878E-05 -9.31342729E-05  0.00000000E+00  7.68977146E-06  9.81806008E-06
  0.00000000E+00  0.00000000E+00 -1.67341788E-06 -2.75596566E-05  0.00000000E+00
 -1.60265057E-05 -4.11263721E-05  0.00000000E+00  0.00000000E+00 -3.42364492E-06
 -1.77499928E-05  5.85777784E-04  2.88050583E-05 -2.65933363E-05  3.67370799E-04
 -3.49594379E-04  1.78376681E-05  2.65465140E-05  0.00000000E+00 -8.07498560E-05
 -1.63235535E-04  0.00000000E+00  7.49548563E-05 -2.63975460E-04  0.00000000E+00
 -1.71257129E-04  1.37054110E-04  0.00000000E+00 -4.48458974E-06  0.00000000E+00
  0.00000000E+00 -3.20505937E-05 -9.56481852E-06 -5.47031098E-05  0.00000000E+00
  0.00000000E+00  9.80149327E-05  1.32963966E-04 -7.47971400E-05  0.00000000E+00
  0.00000000E+00  2.92336176E-05  5.31295487E-05  0.00000000E+00  3.17810252E-06
  1.01852106E-06  0.00000000E+00  0.00000000E+00 -1.00422946E-05 -6.53797213E-06
  0.00000000E+00  4.88585040E-06 -2.30525603E-05  0.00000000E+00  0.00000000E+00
  9.47854187E-05 -1.66321017E-04  2.33498994E-04  1.34192778E-03 -1.42425879E-04
 -8.36355395E-04  8.77681376E-04  6.28634215E-05 -6.92378763E-05  0.00000000E+00
  5.35329090E-04 -2.12467737E-03  0.00000000E+00  7.46900102E-05  5.08621181E-04
  0.00000000E+00  1.83392240E-04 -3.14618302E-04  0.00000000E+00 -1.27040136E-04
  0.00000000E+00  0.00000000E+00 -2.09442079E-04 -1.56231436E-04 -4.54036297E-04
  0.00000000E+00  0.00000000E+00 -6.01874934E-04 -9.32403644E-04 -3.38670676E-05
  0.00000000E+00  0.00000000E+00  6.95754270E-05  1.16443556E-04  0.00000000E+00
  8.84905244E-06  3.87734811E-05  0.00000000E+00  0.00000000E+00 -2.06081000E-05
 -4.24757689E-06  0.00000000E+00 -1.36437286E-04  1.55415866E-04  0.00000000E+00
  0.00000000E+00 -3.09233894E-04 -3.72535607E-05  9.76638687E-01 -9.87815442E-03
  4.35915805E-02  3.72050987E-03 -9.01846633E-04 -4.24394839E-04  2.14159430E-03
  0.00000000E+00  4.84955624E-04 -2.51504295E-03  0.00000000E+00 -8.89058052E-05
  8.18064397E-04  0.00000000E+00  1.00526592E-04 -6.61691057E-05  0.00000000E+00
 -1.92825957E-04  0.00000000E+00  0.00000000E+00 -7.57762997E-05 -3.95162337E-05
  4.14809402E-04  0.00000000E+00  0.00000000E+00  8.75761311E-04  4.66367108E-04
 -1.99881856E-04  0.00000000E+00  0.00000000E+00 -1.41797597E-04 -3.54652062E-05
  0.00000000E+00 -4.60408934E-06  7.05321135E-05  0.00000000E+00  0.00000000E+00
 -2.71943888E-05  1.13719195E-05  0.00000000E+00 -8.77431822E-05  9.53609265E-05
  0.00000000E+00  0.00000000E+00 -1.63679019E-04  2.12303186E-04  3.69837994E-04
  2.01004344E-03  1.48088009E-03 -1.82923468E-05  5.50371258E-05  2.66604472E-04
  0.00000000E+00  3.69562258E-04  1.01603978E-03  0.00000000E+00 -1.50853286E-04
  2.54266373E-04  0.00000000E+00 -2.47067235E-05  0.00000000E+00  0.00000000E+00
  3.47212665E-05 -3.09045718E-05 -2.21791433E-04  0.00000000E+00  0.00000000E+00
 -3.31518777E-04  4.11898879E-04  9.76832204E-01 -9.19158537E-03  4.34705471E-02
  1.74493188E-04 -1.95643835E-03 -2.05751976E-03 -8.08335120E-04  0.00000000E+00
  2.09784145E-03  7.43456341E-04  0.00000000E+00 -4.25839303E-04  6.66945031E-04
  0.00000000E+00  2.32636684E-04 -3.02284285E-04  0.00000000E+00  2.93423525E-05
  0.00000000E+00  0.00000000E+00 -7.40999202E-05  6.65323701E-05  7.67172736E-04
  0.00000000E+00  0.00000000E+00 -2.12752741E-04  3.57151254E-04 -2.40901809E-04
  0.00000000E+00  0.00000000E+00  3.38549063E-04 -8.66088478E-07  0.00000000E+00
 -8.14623939E-05  2.90642462E-06  0.00000000E+00  0.00000000E+00  1.47919981E-05