title                                                                   
Freq      RMP2-FC                                                     Aug-CC-pVTZ         
Number of atoms                            I                5
Info1-9                                    I   N=           9
          33          24           0           0           0         100
           6           2           1
Full Title                                 C   N=           1
title       
Route                                      C   N=           4
#p freq mp2/aug-cc-pvtz density=current         
Charge                                     I                0
Multiplicity                               I                1
Number of electrons                        I               32
Number of alpha electrons                  I               16
Number of beta electrons                   I               16
Number of basis functions                  I              207
Number of independent functions            I              207
Number of point charges in /Mol/           I                0
Number of translation vectors              I                0
Atomic numbers                             I   N=           5
           1           8           8           7           8
Nuclear charges                            R   N=           5
  1.00000000E+00  8.00000000E+00  8.00000000E+00  7.00000000E+00  8.00000000E+00
Current cartesian coordinates              R   N=          15
  2.10765207E+00 -1.11467996E+00  0.00000000E+00  2.49075960E+00  7.07575557E-01
  0.00000000E+00 -1.00431179E-16  1.73970725E+00  0.00000000E+00 -1.88116058E+00
 -9.94972639E-02  0.00000000E+00 -1.10820060E+00 -2.22088771E+00  0.00000000E+00
Number of symbols in /Mol/                 I                0
Force Field                                I                0
Atom Types                                 C   N=           5
                                                            
Int Atom Types                             I   N=           5
           0           0           0           0           0
MM charges                                 R   N=           5
  0.00000000E+00  0.00000000E+00  0.00000000E+00  0.00000000E+00  0.00000000E+00
Integer atomic weights                     I   N=           5
           1          16          16          14          16
Real atomic weights                        R   N=           5
  1.00782504E+00  1.59949146E+01  1.59949146E+01  1.40030740E+01  1.59949146E+01
Atom fragment info                         I   N=           5
           0           0           0           0           0
Atom residue num                           I   N=           5
           0           0           0           0           0
Nuclear spins                              I   N=           5
           1           0           0           2           0
Nuclear ZEff                               R   N=           5
 -1.00000000E+00 -5.60000000E+00 -5.60000000E+00 -4.55000000E+00 -5.60000000E+00
Nuclear ZNuc                               R   N=           5
  1.00000000E+00  8.00000000E+00  8.00000000E+00  7.00000000E+00  8.00000000E+00
Nuclear QMom                               R   N=           5
  0.00000000E+00  0.00000000E+00  0.00000000E+00  2.04400000E+00  0.00000000E+00
Nuclear GFac                               R   N=           5
  2.79284600E+00  0.00000000E+00  0.00000000E+00  4.03761000E-01  0.00000000E+00
MicOpt                                     I   N=           5
          -1          -1          -1          -1          -1
Number of residues                         I                0
Number of secondary structures             I                0
SymInf integers                            I   N=          26
           1           2           1           1           1           1
           1          -1           0           0           0           0
           0           0           0           0           0           0
           0           0           0           0           0           0
           0           0
RotTr to input orientation                 R   N=          12
 -9.78606608E-01  0.00000000E+00  2.05740389E-01  2.05740389E-01  0.00000000E+00
  9.78606608E-01  0.00000000E+00  1.00000000E+00  0.00000000E+00  2.29189693E+00
  0.00000000E+00  6.57204016E-01
Number of contracted shells                I               65
Number of primitive shells                 I              119
Pure/Cartesian d shells                    I                0
Pure/Cartesian f shells                    I                0
Highest angular momentum                   I                3
Largest degree of contraction              I                7
Shell types                                I   N=          65
           0           0           0           0           1           1
           1          -2          -2           0           0           0
           0           0           1           1           1           1
          -2          -2          -2          -3          -3           0
           0           0           0           0           1           1
           1           1          -2          -2          -2          -3
          -3           0           0           0           0           0
           1           1           1           1          -2          -2
          -2          -3          -3           0           0           0
           0           0           1           1           1           1
          -2          -2          -2          -3          -3
Number of primitives per shell             I   N=          65
           3           1           1           1           1           1
           1           1           1           7           6           1
           1           1           3           1           1           1
           1           1           1           1           1           7
           6           1           1           1           3           1
           1           1           1           1           1           1
           1           7           6           1           1           1
           3           1           1           1           1           1
           1           1           1           7           6           1
           1           1           3           1           1           1
           1           1           1           1           1
Shell to atom map                          I   N=          65
           1           1           1           1           1           1
           1           1           1           2           2           2
           2           2           2           2           2           2
           2           2           2           2           2           3
           3           3           3           3           3           3
           3           3           3           3           3           3
           3           4           4           4           4           4
           4           4           4           4           4           4
           4           4           4           5           5           5
           5           5           5           5           5           5
           5           5           5           5           5
Primitive exponents                        R   N=         119
  3.38700000E+01  5.09500000E+00  1.15900000E+00  3.25800000E-01  1.02700000E-01
  2.52600000E-02  1.40700000E+00  3.88000000E-01  1.02000000E-01  1.05700000E+00
  2.47000000E-01  1.53300000E+04  2.29900000E+03  5.22400000E+02  1.47300000E+02
  4.75500000E+01  1.67600000E+01  6.20700000E+00  5.22400000E+02  1.47300000E+02
  4.75500000E+01  1.67600000E+01  6.20700000E+00  6.88200000E-01  1.75200000E+00
  2.38400000E-01  7.37600000E-02  3.44600000E+01  7.74900000E+00  2.28000000E+00
  7.15600000E-01  2.14000000E-01  5.97400000E-02  2.31400000E+00  6.45000000E-01
  2.14000000E-01  1.42800000E+00  5.00000000E-01  1.53300000E+04  2.29900000E+03
  5.22400000E+02  1.47300000E+02  4.75500000E+01  1.67600000E+01  6.20700000E+00
  5.22400000E+02  1.47300000E+02  4.75500000E+01  1.67600000E+01  6.20700000E+00
  6.88200000E-01  1.75200000E+00  2.38400000E-01  7.37600000E-02  3.44600000E+01
  7.74900000E+00  2.28000000E+00  7.15600000E-01  2.14000000E-01  5.97400000E-02
  2.31400000E+00  6.45000000E-01  2.14000000E-01  1.42800000E+00  5.00000000E-01
  1.14200000E+04  1.71200000E+03  3.89300000E+02  1.10000000E+02  3.55700000E+01
  1.25400000E+01  4.64400000E+00  3.89300000E+02  1.10000000E+02  3.55700000E+01
  1.25400000E+01  4.64400000E+00  5.11800000E-01  1.29300000E+00  1.78700000E-01
  5.76000000E-02  2.66300000E+01  5.94800000E+00  1.74200000E+00  5.55000000E-01
  1.72500000E-01  4.91000000E-02  1.65400000E+00  4.69000000E-01  1.51000000E-01
  1.09300000E+00  3.64000000E-01  1.53300000E+04  2.29900000E+03  5.22400000E+02
  1.47300000E+02  4.75500000E+01  1.67600000E+01  6.20700000E+00  5.22400000E+02
  1.47300000E+02  4.75500000E+01  1.67600000E+01  6.20700000E+00  6.88200000E-01
  1.75200000E+00  2.38400000E-01  7.37600000E-02  3.44600000E+01  7.74900000E+00
  2.28000000E+00  7.15600000E-01  2.14000000E-01  5.97400000E-02  2.31400000E+00
  6.45000000E-01  2.14000000E-01  1.42800000E+00  5.00000000E-01
Contraction coefficients                   R   N=         119
  2.54948632E-02  1.90362766E-01  8.52162022E-01  1.00000000E+00  1.00000000E+00
  1.00000000E+00  1.00000000E+00  1.00000000E+00  1.00000000E+00  1.00000000E+00
  1.00000000E+00  5.19808943E-04  4.02025621E-03  2.07128267E-02  8.10105536E-02
  2.35962985E-01  4.42653446E-01  3.57064423E-01 -4.42115008E-05 -1.22591041E-03
 -1.05517725E-02 -6.74452633E-02 -1.71198607E-01  1.07329856E+00  1.00000000E+00
  1.00000000E+00  1.00000000E+00  4.11634896E-02  2.57762836E-01  8.02419274E-01
  1.00000000E+00  1.00000000E+00  1.00000000E+00  1.00000000E+00  1.00000000E+00
  1.00000000E+00  1.00000000E+00  1.00000000E+00  5.19808943E-04  4.02025621E-03
  2.07128267E-02  8.10105536E-02  2.35962985E-01  4.42653446E-01  3.57064423E-01
 -4.42115008E-05 -1.22591041E-03 -1.05517725E-02 -6.74452633E-02 -1.71198607E-01
  1.07329856E+00  1.00000000E+00  1.00000000E+00  1.00000000E+00  4.11634896E-02
  2.57762836E-01  8.02419274E-01  1.00000000E+00  1.00000000E+00  1.00000000E+00
  1.00000000E+00  1.00000000E+00  1.00000000E+00  1.00000000E+00  1.00000000E+00
  5.34563860E-04  4.13435660E-03  2.12335358E-02  8.25006224E-02  2.38138871E-01
  4.42551547E-01  3.53757422E-01 -4.89867350E-05 -1.19527323E-03 -1.03490714E-02
 -6.48680190E-02 -1.71552477E-01  1.07289568E+00  1.00000000E+00  1.00000000E+00
  1.00000000E+00  3.98072123E-02  2.49002660E-01  8.10479727E-01  1.00000000E+00
  1.00000000E+00  1.00000000E+00  1.00000000E+00  1.00000000E+00  1.00000000E+00
  1.00000000E+00  1.00000000E+00  5.19808943E-04  4.02025621E-03  2.07128267E-02
  8.10105536E-02  2.35962985E-01  4.42653446E-01  3.57064423E-01 -4.42115008E-05
 -1.22591041E-03 -1.05517725E-02 -6.74452633E-02 -1.71198607E-01  1.07329856E+00
  1.00000000E+00  1.00000000E+00  1.00000000E+00  4.11634896E-02  2.57762836E-01
  8.02419274E-01  1.00000000E+00  1.00000000E+00  1.00000000E+00  1.00000000E+00
  1.00000000E+00  1.00000000E+00  1.00000000E+00  1.00000000E+00
Coordinates of each shell                  R   N=         195
  2.10765207E+00 -1.11467996E+00  0.00000000E+00  2.10765207E+00 -1.11467996E+00
  0.00000000E+00  2.10765207E+00 -1.11467996E+00  0.00000000E+00  2.10765207E+00
 -1.11467996E+00  0.00000000E+00  2.10765207E+00 -1.11467996E+00  0.00000000E+00
  2.10765207E+00 -1.11467996E+00  0.00000000E+00  2.10765207E+00 -1.11467996E+00
  0.00000000E+00  2.10765207E+00 -1.11467996E+00  0.00000000E+00  2.10765207E+00
 -1.11467996E+00  0.00000000E+00  2.49075960E+00  7.07575557E-01  0.00000000E+00
  2.49075960E+00  7.07575557E-01  0.00000000E+00  2.49075960E+00  7.07575557E-01
  0.00000000E+00  2.49075960E+00  7.07575557E-01  0.00000000E+00  2.49075960E+00
  7.07575557E-01  0.00000000E+00  2.49075960E+00  7.07575557E-01  0.00000000E+00
  2.49075960E+00  7.07575557E-01  0.00000000E+00  2.49075960E+00  7.07575557E-01
  0.00000000E+00  2.49075960E+00  7.07575557E-01  0.00000000E+00  2.49075960E+00
  7.07575557E-01  0.00000000E+00  2.49075960E+00  7.07575557E-01  0.00000000E+00
  2.49075960E+00  7.07575557E-01  0.00000000E+00  2.49075960E+00  7.07575557E-01
  0.00000000E+00  2.49075960E+00  7.07575557E-01  0.00000000E+00  3.02263505E-18
  1.73970725E+00  0.00000000E+00  3.02263505E-18  1.73970725E+00  0.00000000E+00
  3.02263505E-18  1.73970725E+00  0.00000000E+00  3.02263505E-18  1.73970725E+00
  0.00000000E+00  3.02263505E-18  1.73970725E+00  0.00000000E+00  3.02263505E-18
  1.73970725E+00  0.00000000E+00  3.02263505E-18  1.73970725E+00  0.00000000E+00
  3.02263505E-18  1.73970725E+00  0.00000000E+00  3.02263505E-18  1.73970725E+00
  0.00000000E+00  3.02263505E-18  1.73970725E+00  0.00000000E+00  3.02263505E-18
  1.73970725E+00  0.00000000E+00  3.02263505E-18  1.73970725E+00  0.00000000E+00
  3.02263505E-18  1.73970725E+00  0.00000000E+00  3.02263505E-18  1.73970725E+00
  0.00000000E+00 -1.88116058E+00 -9.94972639E-02  0.00000000E+00 -1.88116058E+00
 -9.94972639E-02  0.00000000E+00 -1.88116058E+00 -9.94972639E-02  0.00000000E+00
 -1.88116058E+00 -9.94972639E-02  0.00000000E+00 -1.88116058E+00 -9.94972639E-02
  0.00000000E+00 -1.88116058E+00 -9.94972639E-02  0.00000000E+00 -1.88116058E+00
 -9.94972639E-02  0.00000000E+00 -1.88116058E+00 -9.94972639E-02  0.00000000E+00
 -1.88116058E+00 -9.94972639E-02  0.00000000E+00 -1.88116058E+00 -9.94972639E-02
  0.00000000E+00 -1.88116058E+00 -9.94972639E-02  0.00000000E+00 -1.88116058E+00
 -9.94972639E-02  0.00000000E+00 -1.88116058E+00 -9.94972639E-02  0.00000000E+00
 -1.88116058E+00 -9.94972639E-02  0.00000000E+00 -1.10820060E+00 -2.22088771E+00
  0.00000000E+00 -1.10820060E+00 -2.22088771E+00  0.00000000E+00 -1.10820060E+00
 -2.22088771E+00  0.00000000E+00 -1.10820060E+00 -2.22088771E+00  0.00000000E+00
 -1.10820060E+00 -2.22088771E+00  0.00000000E+00 -1.10820060E+00 -2.22088771E+00
  0.00000000E+00 -1.10820060E+00 -2.22088771E+00  0.00000000E+00 -1.10820060E+00
 -2.22088771E+00  0.00000000E+00 -1.10820060E+00 -2.22088771E+00  0.00000000E+00
 -1.10820060E+00 -2.22088771E+00  0.00000000E+00 -1.10820060E+00 -2.22088771E+00
  0.00000000E+00 -1.10820060E+00 -2.22088771E+00  0.00000000E+00 -1.10820060E+00
 -2.22088771E+00  0.00000000E+00 -1.10820060E+00 -2.22088771E+00  0.00000000E+00
Num ILSW                                   I              100
ILSW                                       I   N=         100
           0           0           0           0           2           0
           0           0           0           0           0          -1
           5           0           0           0           2           0
           0           0           0           0           1           0
           1           0           0           0           0           0
           0           0      100000           0          -1           0
           0           0           0           0           0           0
           0           0           0           1           1           0
           0 -2000000000           1           0           0           0
           0           0           4          52           0           0
           0           0           0           0           0           0
           0           0           0           5           4           1
           0           0           0           0           0           0
           0           0           0           0           0           0
           0           0           0           0           0           0
           0           0           0           0           0           0
           0           0           0           0
Num RLSW                                   I               52
RLSW                                       R   N=          52
  1.00000000E+00  1.00000000E+00  1.00000000E+00  1.00000000E+00  1.00000000E+00
  0.00000000E+00  0.00000000E+00  1.00000000E+00  0.00000000E+00  0.00000000E+00
  0.00000000E+00  0.00000000E+00  1.00000000E+00  0.00000000E+00  0.00000000E+00
  0.00000000E+00  0.00000000E+00  1.00000000E+00  0.00000000E+00  0.00000000E+00
  0.00000000E+00  0.00000000E+00  1.00000000E+00  0.00000000E+00  0.00000000E+00
  0.00000000E+00  0.00000000E+00  1.00000000E+00  0.00000000E+00  0.00000000E+00
  0.00000000E+00  0.00000000E+00  1.00000000E+00  0.00000000E+00  0.00000000E+00
  0.00000000E+00  0.00000000E+00  0.00000000E+00  1.00000000E+00  1.00000000E+00
  0.00000000E+00  1.00000000E+00  0.00000000E+00  0.00000000E+00  0.00000000E+00
  0.00000000E+00  0.00000000E+00  0.00000000E+00  0.00000000E+00  0.00000000E+00
  0.00000000E+00  0.00000000E+00
MxBond                                     I                2
NBond                                      I   N=           5
           1           2           2           2           1
IBond                                      I   N=          10
           2           0           1           3           2           4
           3           5           4           0
RBond                                      R   N=          10
  1.00000000E+00  0.00000000E+00  1.00000000E+00  1.00000000E+00  1.00000000E+00
  1.00000000E+00  1.00000000E+00  2.00000000E+00  2.00000000E+00  0.00000000E+00
Virial Ratio                               R      2.002306749596451E+00
SCF Energy                                 R     -2.795054354069171E+02
MP2 Energy                                 R     -2.804551911737036E+02
Total Energy                               R     -2.804551911737036E+02
Post-SCF wavefunction norm                 R      1.584373232973080E+00
RMS Force                                  R      1.436334634565714E-03
RMS Density                                R      4.684389867699088E-09
NImag                                      I                0
Job Status                                 I                1
Nuclear derivative order                   I                2
External E-field                           R   N=          35
  0.00000000E+00  0.00000000E+00  0.00000000E+00  0.00000000E+00  0.00000000E+00
  0.00000000E+00  0.00000000E+00  0.00000000E+00  0.00000000E+00  0.00000000E+00
  0.00000000E+00  0.00000000E+00  0.00000000E+00  0.00000000E+00  0.00000000E+00
  0.00000000E+00  0.00000000E+00  0.00000000E+00  0.00000000E+00  0.00000000E+00
  0.00000000E+00  0.00000000E+00  0.00000000E+00  0.00000000E+00  0.00000000E+00
  0.00000000E+00  0.00000000E+00  0.00000000E+00  0.00000000E+00  0.00000000E+00
  0.00000000E+00  0.00000000E+00  0.00000000E+00  0.00000000E+00  0.00000000E+00
IOpCl                                      I                0
IROHF                                      I                0
Alpha Orbital Energies                     R   N=         207
 -2.07179662E+01 -2.06898222E+01 -2.06676439E+01 -1.58273825E+01 -1.64169692E+00
 -1.50504769E+00 -1.28981436E+00 -9.60980733E-01 -8.33490143E-01 -7.57616938E-01
 -7.37500490E-01 -6.37070340E-01 -6.19402328E-01 -6.19009265E-01 -5.04484265E-01
 -4.96417671E-01  3.51198517E-02  5.86301376E-02  9.50685316E-02  1.00348016E-01
  1.19721041E-01  1.22360403E-01  1.49592430E-01  1.52314332E-01  1.77596017E-01
  1.80156044E-01  1.89852905E-01  2.10906097E-01  2.16745428E-01  2.42257307E-01
  2.46306546E-01  2.68655379E-01  3.12079274E-01  3.16374468E-01  3.37651713E-01
  3.40101443E-01  3.45474527E-01  3.90633572E-01  4.48613906E-01  4.88558412E-01
  5.04990713E-01  5.18210893E-01  5.44450912E-01  5.60815352E-01  5.98586079E-01
  6.20038461E-01  6.38031233E-01  6.89190279E-01  7.18398473E-01  7.23887021E-01
  7.42854278E-01  7.63275782E-01  7.66846927E-01  7.95741925E-01  8.05565761E-01
  8.39859044E-01  8.43558653E-01  8.51623135E-01  8.84554040E-01  9.07463370E-01
  9.29617465E-01  9.46943245E-01  9.55213938E-01  1.01794325E+00  1.03169200E+00
  1.06141537E+00  1.06558444E+00  1.09411492E+00  1.14360068E+00  1.15538210E+00
  1.16818636E+00  1.22177922E+00  1.22766068E+00  1.24573919E+00  1.35246898E+00
  1.36263855E+00  1.37207449E+00  1.46785414E+00  1.48496268E+00  1.50514328E+00
  1.54214547E+00  1.59603750E+00  1.59627956E+00  1.60298766E+00  1.62545766E+00
  1.69503139E+00  1.74078961E+00  1.80089175E+00  1.82813655E+00  1.88755712E+00
  1.89577784E+00  1.92535535E+00  1.97772290E+00  1.98824968E+00  2.05140095E+00
  2.12115315E+00  2.12886869E+00  2.16225864E+00  2.18733583E+00  2.24208037E+00
  2.25933174E+00  2.29482874E+00  2.35099459E+00  2.36441219E+00  2.38646662E+00
  2.40255561E+00  2.42988859E+00  2.46821622E+00  2.47751448E+00  2.52962728E+00
  2.53364325E+00  2.54877313E+00  2.55629898E+00  2.61323171E+00  2.62866904E+00
  2.66962620E+00  2.67040652E+00  2.75232612E+00  2.80722759E+00  2.81293743E+00
  2.84033327E+00  2.91488146E+00  2.97915782E+00  3.04303424E+00  3.04840523E+00
  3.11448494E+00  3.11688387E+00  3.17341852E+00  3.21326919E+00  3.30687539E+00
  3.33024351E+00  3.35425260E+00  3.47957020E+00  3.66942763E+00  3.86401476E+00
  3.92770400E+00  4.18314724E+00  4.21926155E+00  4.22252016E+00  4.26318759E+00
  4.36810350E+00  4.49843930E+00  4.52002159E+00  4.55393886E+00  4.59616227E+00
  4.69287359E+00  4.80874071E+00  4.89068585E+00  4.91227656E+00  4.93963847E+00
  4.99233694E+00  5.00378473E+00  5.10228573E+00  5.13129453E+00  5.17900912E+00
  5.24918423E+00  5.25749847E+00  5.31205096E+00  5.34279552E+00  5.35380302E+00
  5.54577962E+00  5.64224210E+00  5.70148746E+00  5.88725115E+00  5.99957326E+00
  6.26515922E+00  6.29046001E+00  6.35370414E+00  6.37635612E+00  6.59735095E+00
  6.65458623E+00  6.65754159E+00  6.68464216E+00  6.72361329E+00  6.80243635E+00
  6.80648012E+00  6.84325593E+00  6.95872142E+00  7.02056304E+00  7.06745064E+00
  7.07980142E+00  7.13962915E+00  7.16740168E+00  7.17158940E+00  7.20440153E+00
  7.24418470E+00  7.24546168E+00  7.26879312E+00  7.34528887E+00  7.38378528E+00
  7.42252920E+00  7.44017690E+00  7.46367578E+00  7.54666083E+00  7.65925269E+00
  7.66054951E+00  7.79131005E+00  7.87891668E+00  7.93675047E+00  8.05560387E+00
  8.30451842E+00  8.49620759E+00  8.64438486E+00  1.35588436E+01  1.46880211E+01
  1.50725720E+01  1.57371252E+01
Alpha MO coefficients                      R   N=       42849
  6.63531380E-05 -3.58256602E-05 -1.15179882E-03  1.02376618E-05 -5.19032844E-05
  4.29090884E-05  0.00000000E+00 -9.08914987E-05 -2.96676105E-04  0.00000000E+00
  3.06525706E-06 -3.58535574E-04  0.00000000E+00  4.29907141E-05  0.00000000E+00
  0.00000000E+00 -2.52448047E-05  1.29332415E-05  2.29993449E-04  0.00000000E+00
  0.00000000E+00 -4.17842589E-05 -2.08713422E-04  3.14330230E-03 -9.34046217E-05
 -9.74193170E-05  3.51455845E-03  2.48895757E-03  1.03534047E-04 -5.28088668E-05
  0.00000000E+00 -7.31408490E-04  2.80314092E-04  0.00000000E+00 -1.95527022E-03
  1.07718537E-03  0.00000000E+00 -5.39290892E-04  3.04840197E-05  0.00000000E+00
  2.06863960E-05  0.00000000E+00  0.00000000E+00 -9.88385546E-06  4.42321998E-05
 -4.44774418E-04  0.00000000E+00  0.00000000E+00  4.37278008E-04 -6.57569054E-04
 -3.63329063E-04  0.00000000E+00  0.00000000E+00  5.43834759E-04 -7.35995820E-04
  0.00000000E+00  7.47559244E-05 -5.23680374E-05  0.00000000E+00  0.00000000E+00
 -2.87147628E-05  1.07461141E-04  0.00000000E+00  2.09096360E-04 -4.99332636E-05
  0.00000000E+00  0.00000000E+00 -1.78482535E-04  3.00367143E-04  9.76913266E-01
 -9.15958627E-03  4.33899926E-02  5.42095763E-04 -2.20085778E-03  4.79326636E-04
 -2.13037802E-03  0.00000000E+00 -3.63235918E-04  2.22470670E-03  0.00000000E+00
 -2.26126737E-03 -5.23440674E-04  0.00000000E+00 -2.15572568E-04  9.79534729E-05
  0.00000000E+00  1.11596722E-05  0.00000000E+00  0.00000000E+00 -3.99129242E-06
  3.38919941E-05  8.19717443E-04  0.00000000E+00  0.00000000E+00 -4.78814129E-04
 -1.53940273E-04 -1.49133978E-04  0.00000000E+00  0.00000000E+00 -5.52922355E-04
  3.42313032E-04  0.00000000E+00 -4.36226786E-06 -7.92069869E-05  0.00000000E+00
  0.00000000E+00 -9.91957333E-06  4.81323360E-05  0.00000000E+00  9.17623101E-05
  5.70980641E-06  0.00000000E+00  0.00000000E+00 -3.30334431E-04  3.73197648E-04
  9.97389911E-05  4.22112539E-04 -3.23341312E-04 -7.53155088E-04  3.74490442E-04
 -4.54249036E-05 -1.01560570E-04  0.00000000E+00  6.51541789E-04  1.05794912E-03
  0.00000000E+00 -7.64462224E-04 -6.67827910E-04  0.00000000E+00  1.93910768E-04
  2.10995228E-04  0.00000000E+00 -4.71963927E-05  0.00000000E+00  0.00000000E+00
  2.02539574E-05  8.27471393E-05 -4.13788518E-04  0.00000000E+00  0.00000000E+00
  1.71938807E-06  1.06494465E-03  2.48905137E-05  0.00000000E+00  0.00000000E+00
 -3.31584204E-04  3.23196049E-05  0.00000000E+00 -7.87599936E-05 -1.13859901E-04
  0.00000000E+00  0.00000000E+00 -1.00032710E-04  1.07462176E-04  0.00000000E+00
 -1.22047774E-04  4.45394280E-05  0.00000000E+00  0.00000000E+00  4.57354985E-07
  5.20239500E-04 -8.07375714E-04  3.73027000E-05 -7.43495040E-05  1.69043952E-04
 -2.02586886E-04 -3.04667348E-05 -4.16714908E-05  0.00000000E+00  1.76746792E-04
  2.43759053E-04  0.00000000E+00  5.57335714E-04  3.08043171E-04  0.00000000E+00
 -2.13222389E-04 -6.87226863E-05  0.00000000E+00 -1.21752366E-05  0.00000000E+00
  0.00000000E+00  3.90798134E-06  1.41565580E-05 -2.22433819E-06  0.00000000E+00
  0.00000000E+00 -1.64228097E-04  2.27638075E-05 -1.88538753E-05  0.00000000E+00
  0.00000000E+00 -1.66129193E-04 -3.27387132E-05  0.00000000E+00 -6.98077363E-06
 -9.92596060E-06  0.00000000E+00  0.00000000E+00 -2.39509514E-05  8.13999862E-06
  0.00000000E+00  4.08036625E-05  6.14810559E-05  0.00000000E+00  0.00000000E+00
  1.53211782E-04 -1.02598127E-04  4.04388354E-05  4.87665051E-05 -1.33319575E-04
 -3.05998099E-05  1.61799531E-05  8.97069781E-06  0.00000000E+00  2.42125476E-04
  6.42817032E-05  0.00000000E+00  1.31619310E-04  2.60281148E-05  0.00000000E+00
  1.43944454E-05  0.00000000E+00  0.00000000E+00 -1.35680265E-05  1.45738978E-05
  2.29209747E-05  0.00000000E+00  0.00000000E+00 -1.02208628E-04  6.01444605E-05
 -2.10532661E-04  2.21974566E-05 -1.35229701E-05 -5.50358054E-04  1.67357544E-04
  7.32035657E-06  1.36104410E-05  0.00000000E+00 -3.39446454E-07 -4.06463934E-05
  0.00000000E+00  1.84857720E-04  1.10604228E-04  0.00000000E+00 -4.97316805E-05
  4.57949641E-05  0.00000000E+00 -9.78897764E-07  0.00000000E+00  0.00000000E+00
 -8.28826303E-06 -1.22263005E-05  1.84959102E-05  0.00000000E+00  0.00000000E+00
  4.77858445E-05  1.08954556E-04  5.82641011E-05  0.00000000E+00  0.00000000E+00
 -3.09831227E-05 -7.11430201E-05  0.00000000E+00  7.74433443E-06  1.03817703E-05
  0.00000000E+00  0.00000000E+00 -7.69572604E-07 -2.37430536E-05  0.00000000E+00
 -1.31010103E-05 -3.38403304E-05  0.00000000E+00  0.00000000E+00 -2.12583448E-06
 -2.03911604E-05  8.33311274E-04  1.98570541E-05 -1.40132893E-05  2.72614505E-04
 -4.11022167E-04  1.59936768E-05  2.74267327E-05  0.00000000E+00 -6.01904919E-05
 -1.49014693E-04  0.00000000E+00  1.87439021E-04 -1.80782353E-04  0.00000000E+00
 -1.50354457E-04  1.44586825E-04  0.00000000E+00 -3.84442151E-06  0.00000000E+00
  0.00000000E+00 -2.83734876E-05 -9.96562843E-06 -5.01272574E-05  0.00000000E+00
  0.00000000E+00  7.24746687E-05  1.17207262E-04 -6.08502808E-05  0.00000000E+00
  0.00000000E+00  4.61387199E-05  1.62474123E-05  0.00000000E+00  2.92110851E-06
  4.29032716E-06  0.00000000E+00  0.00000000E+00 -7.00240317E-06 -5.60963425E-07
  0.00000000E+00  3.32818155E-06 -2.58029695E-05  0.00000000E+00  0.00000000E+00
  9.63359995E-05 -1.49462903E-04  2.38604427E-04  1.36402376E-03 -1.49297542E-04
 -6.38462262E-04  9.17279162E-04  6.32744318E-05 -7.18168288E-05  0.00000000E+00
  5.87185840E-04 -2.06599359E-03  0.00000000E+00  1.24914611E-04  4.97744877E-04
  0.00000000E+00  1.86934350E-04 -3.03601549E-04  0.00000000E+00 -1.28100893E-04
  0.00000000E+00  0.00000000E+00 -2.01624517E-04 -1.59439494E-04 -4.63036379E-04
  0.00000000E+00  0.00000000E+00 -6.02741982E-04 -9.15637040E-04 -4.54802757E-05
  0.00000000E+00  0.00000000E+00  5.46223834E-05  1.18530462E-04  0.00000000E+00
  8.17449862E-06  3.61039336E-05  0.00000000E+00  0.00000000E+00 -2.59664229E-05
 -4.12046207E-06  0.00000000E+00 -1.34911859E-04  1.59143174E-04  0.00000000E+00
  0.00000000E+00 -3.18261416E-04 -3.28808524E-05  9.76649150E-01 -9.88940599E-03
  4.35684344E-02  3.67774340E-03 -8.92966674E-04 -4.58194911E-04  2.12724797E-03
  0.00000000E+00  5.25019436E-04 -2.50198039E-03  0.00000000E+00 -6.60362312E-05
  8.17615987E-04  0.00000000E+00  1.06408114E-04 -6.41706311E-05  0.00000000E+00
 -1.94328125E-04  0.00000000E+00  0.00000000E+00 -7.37298809E-05 -4.52474942E-05
  4.06577473E-04  0.00000000E+00  0.00000000E+00  8.51742079E-04  4.91241606E-04
 -2.08118819E-04  0.00000000E+00  0.00000000E+00 -1.40930199E-04 -3.74913587E-05
  0.00000000E+00 -4.94186261E-06  7.02571421E-05  0.00000000E+00  0.00000000E+00
 -2.97048652E-05  1.01809599E-05  0.00000000E+00 -8.94986315E-05  9.01009728E-05
  0.00000000E+00  0.00000000E+00 -1.67487998E-04  2.02090502E-04  3.77165231E-04
  1.98998044E-03  1.33174977E-03 -1.87434932E-05  4.90959188E-05  2.69275219E-04
  0.00000000E+00  3.85487779E-04  1.03303965E-03  0.00000000E+00 -1.15882910E-04
  2.30829110E-04  0.00000000E+00 -2.32833307E-05  0.00000000E+00  0.00000000E+00
  3.17765143E-05 -2.81863467E-05 -2.14530349E-04  0.00000000E+00  0.00000000E+00
 -3.55205629E-04  4.02784655E-04  9.76835298E-01 -9.18507135E-03  4.34632898E-02
  1.17161313E-04 -1.89080716E-03 -2.03802565E-03 -8.46748482E-04  0.00000000E+00
  2.07511200E-03  7.83520633E-04  0.00000000E+00 -3.91538013E-04  6.38948141E-04
  0.00000000E+00  2.21456557E-04 -2.97560147E-04  0.00000000E+00  3.12845978E-05
  0.00000000E+00  0.00000000E+00 -7.46332449E-05  6.18033062E-05  7.65523061E-04
  0.00000000E+00  0.00000000E+00 -2.07342152E-04  3.50977886E-04 -2.36651539E-04
  0.00000000E+00  0.00000000E+00  3.33467621E-04  3.03045981E-06  0.00000000E+00
 -8.02705283E-05  1.07195461E-06  0.00000000E+00  0.00000000E+00  1.64475053E-05