title                                                                   
Freq      RMP2-FC                                                     Aug-CC-pVTZ         
Number of atoms                            I                5
Info1-9                                    I   N=           9
          33          24           0           0           0         100
           6           2           1
Full Title                                 C   N=           1
title       
Route                                      C   N=           4
#p freq mp2/aug-cc-pvtz density=current         
Charge                                     I                0
Multiplicity                               I                1
Number of electrons                        I               32
Number of alpha electrons                  I               16
Number of beta electrons                   I               16
Number of basis functions                  I              207
Number of independent functions            I              207
Number of point charges in /Mol/           I                0
Number of translation vectors              I                0
Atomic numbers                             I   N=           5
           1           8           8           7           8
Nuclear charges                            R   N=           5
  1.00000000E+00  8.00000000E+00  8.00000000E+00  7.00000000E+00  8.00000000E+00
Current cartesian coordinates              R   N=          15
  2.05580955E+00 -1.11915036E+00  0.00000000E+00  2.48735440E+00  6.92245676E-01
  0.00000000E+00 -2.10604802E-16  1.73255682E+00  0.00000000E+00 -1.87216810E+00
 -8.58611447E-02  0.00000000E+00 -1.10618351E+00 -2.20978020E+00  0.00000000E+00
Number of symbols in /Mol/                 I                0
Force Field                                I                0
Atom Types                                 C   N=           5
                                                            
Int Atom Types                             I   N=           5
           0           0           0           0           0
MM charges                                 R   N=           5
  0.00000000E+00  0.00000000E+00  0.00000000E+00  0.00000000E+00  0.00000000E+00
Integer atomic weights                     I   N=           5
           1          16          16          14          16
Real atomic weights                        R   N=           5
  1.00782504E+00  1.59949146E+01  1.59949146E+01  1.40030740E+01  1.59949146E+01
Atom fragment info                         I   N=           5
           0           0           0           0           0
Atom residue num                           I   N=           5
           0           0           0           0           0
Nuclear spins                              I   N=           5
           1           0           0           2           0
Nuclear ZEff                               R   N=           5
 -1.00000000E+00 -5.60000000E+00 -5.60000000E+00 -4.55000000E+00 -5.60000000E+00
Nuclear ZNuc                               R   N=           5
  1.00000000E+00  8.00000000E+00  8.00000000E+00  7.00000000E+00  8.00000000E+00
Nuclear QMom                               R   N=           5
  0.00000000E+00  0.00000000E+00  0.00000000E+00  2.04400000E+00  0.00000000E+00
Nuclear GFac                               R   N=           5
  2.79284600E+00  0.00000000E+00  0.00000000E+00  4.03761000E-01  0.00000000E+00
MicOpt                                     I   N=           5
          -1          -1          -1          -1          -1
Number of residues                         I                0
Number of secondary structures             I                0
SymInf integers                            I   N=          26
           1           2           1           1           1           1
           1          -1           0           0           0           0
           0           0           0           0           0           0
           0           0           0           0           0           0
           0           0
RotTr to input orientation                 R   N=          12
 -9.72774735E-01  0.00000000E+00  2.31752703E-01  2.31752703E-01  0.00000000E+00
  9.72774735E-01  0.00000000E+00  1.00000000E+00  0.00000000E+00  2.25920571E+00
  0.00000000E+00  6.12241770E-01
Number of contracted shells                I               65
Number of primitive shells                 I              119
Pure/Cartesian d shells                    I                0
Pure/Cartesian f shells                    I                0
Highest angular momentum                   I                3
Largest degree of contraction              I                7
Shell types                                I   N=          65
           0           0           0           0           1           1
           1          -2          -2           0           0           0
           0           0           1           1           1           1
          -2          -2          -2          -3          -3           0
           0           0           0           0           1           1
           1           1          -2          -2          -2          -3
          -3           0           0           0           0           0
           1           1           1           1          -2          -2
          -2          -3          -3           0           0           0
           0           0           1           1           1           1
          -2          -2          -2          -3          -3
Number of primitives per shell             I   N=          65
           3           1           1           1           1           1
           1           1           1           7           6           1
           1           1           3           1           1           1
           1           1           1           1           1           7
           6           1           1           1           3           1
           1           1           1           1           1           1
           1           7           6           1           1           1
           3           1           1           1           1           1
           1           1           1           7           6           1
           1           1           3           1           1           1
           1           1           1           1           1
Shell to atom map                          I   N=          65
           1           1           1           1           1           1
           1           1           1           2           2           2
           2           2           2           2           2           2
           2           2           2           2           2           3
           3           3           3           3           3           3
           3           3           3           3           3           3
           3           4           4           4           4           4
           4           4           4           4           4           4
           4           4           4           5           5           5
           5           5           5           5           5           5
           5           5           5           5           5
Primitive exponents                        R   N=         119
  3.38700000E+01  5.09500000E+00  1.15900000E+00  3.25800000E-01  1.02700000E-01
  2.52600000E-02  1.40700000E+00  3.88000000E-01  1.02000000E-01  1.05700000E+00
  2.47000000E-01  1.53300000E+04  2.29900000E+03  5.22400000E+02  1.47300000E+02
  4.75500000E+01  1.67600000E+01  6.20700000E+00  5.22400000E+02  1.47300000E+02
  4.75500000E+01  1.67600000E+01  6.20700000E+00  6.88200000E-01  1.75200000E+00
  2.38400000E-01  7.37600000E-02  3.44600000E+01  7.74900000E+00  2.28000000E+00
  7.15600000E-01  2.14000000E-01  5.97400000E-02  2.31400000E+00  6.45000000E-01
  2.14000000E-01  1.42800000E+00  5.00000000E-01  1.53300000E+04  2.29900000E+03
  5.22400000E+02  1.47300000E+02  4.75500000E+01  1.67600000E+01  6.20700000E+00
  5.22400000E+02  1.47300000E+02  4.75500000E+01  1.67600000E+01  6.20700000E+00
  6.88200000E-01  1.75200000E+00  2.38400000E-01  7.37600000E-02  3.44600000E+01
  7.74900000E+00  2.28000000E+00  7.15600000E-01  2.14000000E-01  5.97400000E-02
  2.31400000E+00  6.45000000E-01  2.14000000E-01  1.42800000E+00  5.00000000E-01
  1.14200000E+04  1.71200000E+03  3.89300000E+02  1.10000000E+02  3.55700000E+01
  1.25400000E+01  4.64400000E+00  3.89300000E+02  1.10000000E+02  3.55700000E+01
  1.25400000E+01  4.64400000E+00  5.11800000E-01  1.29300000E+00  1.78700000E-01
  5.76000000E-02  2.66300000E+01  5.94800000E+00  1.74200000E+00  5.55000000E-01
  1.72500000E-01  4.91000000E-02  1.65400000E+00  4.69000000E-01  1.51000000E-01
  1.09300000E+00  3.64000000E-01  1.53300000E+04  2.29900000E+03  5.22400000E+02
  1.47300000E+02  4.75500000E+01  1.67600000E+01  6.20700000E+00  5.22400000E+02
  1.47300000E+02  4.75500000E+01  1.67600000E+01  6.20700000E+00  6.88200000E-01
  1.75200000E+00  2.38400000E-01  7.37600000E-02  3.44600000E+01  7.74900000E+00
  2.28000000E+00  7.15600000E-01  2.14000000E-01  5.97400000E-02  2.31400000E+00
  6.45000000E-01  2.14000000E-01  1.42800000E+00  5.00000000E-01
Contraction coefficients                   R   N=         119
  2.54948632E-02  1.90362766E-01  8.52162022E-01  1.00000000E+00  1.00000000E+00
  1.00000000E+00  1.00000000E+00  1.00000000E+00  1.00000000E+00  1.00000000E+00
  1.00000000E+00  5.19808943E-04  4.02025621E-03  2.07128267E-02  8.10105536E-02
  2.35962985E-01  4.42653446E-01  3.57064423E-01 -4.42115008E-05 -1.22591041E-03
 -1.05517725E-02 -6.74452633E-02 -1.71198607E-01  1.07329856E+00  1.00000000E+00
  1.00000000E+00  1.00000000E+00  4.11634896E-02  2.57762836E-01  8.02419274E-01
  1.00000000E+00  1.00000000E+00  1.00000000E+00  1.00000000E+00  1.00000000E+00
  1.00000000E+00  1.00000000E+00  1.00000000E+00  5.19808943E-04  4.02025621E-03
  2.07128267E-02  8.10105536E-02  2.35962985E-01  4.42653446E-01  3.57064423E-01
 -4.42115008E-05 -1.22591041E-03 -1.05517725E-02 -6.74452633E-02 -1.71198607E-01
  1.07329856E+00  1.00000000E+00  1.00000000E+00  1.00000000E+00  4.11634896E-02
  2.57762836E-01  8.02419274E-01  1.00000000E+00  1.00000000E+00  1.00000000E+00
  1.00000000E+00  1.00000000E+00  1.00000000E+00  1.00000000E+00  1.00000000E+00
  5.34563860E-04  4.13435660E-03  2.12335358E-02  8.25006224E-02  2.38138871E-01
  4.42551547E-01  3.53757422E-01 -4.89867350E-05 -1.19527323E-03 -1.03490714E-02
 -6.48680190E-02 -1.71552477E-01  1.07289568E+00  1.00000000E+00  1.00000000E+00
  1.00000000E+00  3.98072123E-02  2.49002660E-01  8.10479727E-01  1.00000000E+00
  1.00000000E+00  1.00000000E+00  1.00000000E+00  1.00000000E+00  1.00000000E+00
  1.00000000E+00  1.00000000E+00  5.19808943E-04  4.02025621E-03  2.07128267E-02
  8.10105536E-02  2.35962985E-01  4.42653446E-01  3.57064423E-01 -4.42115008E-05
 -1.22591041E-03 -1.05517725E-02 -6.74452633E-02 -1.71198607E-01  1.07329856E+00
  1.00000000E+00  1.00000000E+00  1.00000000E+00  4.11634896E-02  2.57762836E-01
  8.02419274E-01  1.00000000E+00  1.00000000E+00  1.00000000E+00  1.00000000E+00
  1.00000000E+00  1.00000000E+00  1.00000000E+00  1.00000000E+00
Coordinates of each shell                  R   N=         195
  2.05580955E+00 -1.11915036E+00  0.00000000E+00  2.05580955E+00 -1.11915036E+00
  0.00000000E+00  2.05580955E+00 -1.11915036E+00  0.00000000E+00  2.05580955E+00
 -1.11915036E+00  0.00000000E+00  2.05580955E+00 -1.11915036E+00  0.00000000E+00
  2.05580955E+00 -1.11915036E+00  0.00000000E+00  2.05580955E+00 -1.11915036E+00
  0.00000000E+00  2.05580955E+00 -1.11915036E+00  0.00000000E+00  2.05580955E+00
 -1.11915036E+00  0.00000000E+00  2.48735440E+00  6.92245676E-01  0.00000000E+00
  2.48735440E+00  6.92245676E-01  0.00000000E+00  2.48735440E+00  6.92245676E-01
  0.00000000E+00  2.48735440E+00  6.92245676E-01  0.00000000E+00  2.48735440E+00
  6.92245676E-01  0.00000000E+00  2.48735440E+00  6.92245676E-01  0.00000000E+00
  2.48735440E+00  6.92245676E-01  0.00000000E+00  2.48735440E+00  6.92245676E-01
  0.00000000E+00  2.48735440E+00  6.92245676E-01  0.00000000E+00  2.48735440E+00
  6.92245676E-01  0.00000000E+00  2.48735440E+00  6.92245676E-01  0.00000000E+00
  2.48735440E+00  6.92245676E-01  0.00000000E+00  2.48735440E+00  6.92245676E-01
  0.00000000E+00  2.48735440E+00  6.92245676E-01  0.00000000E+00  2.50437367E-18
  1.73255682E+00  0.00000000E+00  2.50437367E-18  1.73255682E+00  0.00000000E+00
  2.50437367E-18  1.73255682E+00  0.00000000E+00  2.50437367E-18  1.73255682E+00
  0.00000000E+00  2.50437367E-18  1.73255682E+00  0.00000000E+00  2.50437367E-18
  1.73255682E+00  0.00000000E+00  2.50437367E-18  1.73255682E+00  0.00000000E+00
  2.50437367E-18  1.73255682E+00  0.00000000E+00  2.50437367E-18  1.73255682E+00
  0.00000000E+00  2.50437367E-18  1.73255682E+00  0.00000000E+00  2.50437367E-18
  1.73255682E+00  0.00000000E+00  2.50437367E-18  1.73255682E+00  0.00000000E+00
  2.50437367E-18  1.73255682E+00  0.00000000E+00  2.50437367E-18  1.73255682E+00
  0.00000000E+00 -1.87216810E+00 -8.58611447E-02  0.00000000E+00 -1.87216810E+00
 -8.58611447E-02  0.00000000E+00 -1.87216810E+00 -8.58611447E-02  0.00000000E+00
 -1.87216810E+00 -8.58611447E-02  0.00000000E+00 -1.87216810E+00 -8.58611447E-02
  0.00000000E+00 -1.87216810E+00 -8.58611447E-02  0.00000000E+00 -1.87216810E+00
 -8.58611447E-02  0.00000000E+00 -1.87216810E+00 -8.58611447E-02  0.00000000E+00
 -1.87216810E+00 -8.58611447E-02  0.00000000E+00 -1.87216810E+00 -8.58611447E-02
  0.00000000E+00 -1.87216810E+00 -8.58611447E-02  0.00000000E+00 -1.87216810E+00
 -8.58611447E-02  0.00000000E+00 -1.87216810E+00 -8.58611447E-02  0.00000000E+00
 -1.87216810E+00 -8.58611447E-02  0.00000000E+00 -1.10618351E+00 -2.20978020E+00
  0.00000000E+00 -1.10618351E+00 -2.20978020E+00  0.00000000E+00 -1.10618351E+00
 -2.20978020E+00  0.00000000E+00 -1.10618351E+00 -2.20978020E+00  0.00000000E+00
 -1.10618351E+00 -2.20978020E+00  0.00000000E+00 -1.10618351E+00 -2.20978020E+00
  0.00000000E+00 -1.10618351E+00 -2.20978020E+00  0.00000000E+00 -1.10618351E+00
 -2.20978020E+00  0.00000000E+00 -1.10618351E+00 -2.20978020E+00  0.00000000E+00
 -1.10618351E+00 -2.20978020E+00  0.00000000E+00 -1.10618351E+00 -2.20978020E+00
  0.00000000E+00 -1.10618351E+00 -2.20978020E+00  0.00000000E+00 -1.10618351E+00
 -2.20978020E+00  0.00000000E+00 -1.10618351E+00 -2.20978020E+00  0.00000000E+00
Num ILSW                                   I              100
ILSW                                       I   N=         100
           0           0           0           0           2           0
           0           0           0           0           0          -1
           5           0           0           0           2           0
           0           0           0           0           1           0
           1           0           0           0           0           0
           0           0      100000           0          -1           0
           0           0           0           0           0           0
           0           0           0           1           1           0
           0 -2000000000           1           0           0           0
           0           0           4          52           0           0
           0           0           0           0           0           0
           0           0           0           5           4           1
           0           0           0           0           0           0
           0           0           0           0           0           0
           0           0           0           0           0           0
           0           0           0           0           0           0
           0           0           0           0
Num RLSW                                   I               52
RLSW                                       R   N=          52
  1.00000000E+00  1.00000000E+00  1.00000000E+00  1.00000000E+00  1.00000000E+00
  0.00000000E+00  0.00000000E+00  1.00000000E+00  0.00000000E+00  0.00000000E+00
  0.00000000E+00  0.00000000E+00  1.00000000E+00  0.00000000E+00  0.00000000E+00
  0.00000000E+00  0.00000000E+00  1.00000000E+00  0.00000000E+00  0.00000000E+00
  0.00000000E+00  0.00000000E+00  1.00000000E+00  0.00000000E+00  0.00000000E+00
  0.00000000E+00  0.00000000E+00  1.00000000E+00  0.00000000E+00  0.00000000E+00
  0.00000000E+00  0.00000000E+00  1.00000000E+00  0.00000000E+00  0.00000000E+00
  0.00000000E+00  0.00000000E+00  0.00000000E+00  1.00000000E+00  1.00000000E+00
  0.00000000E+00  1.00000000E+00  0.00000000E+00  0.00000000E+00  0.00000000E+00
  0.00000000E+00  0.00000000E+00  0.00000000E+00  0.00000000E+00  0.00000000E+00
  0.00000000E+00  0.00000000E+00
MxBond                                     I                2
NBond                                      I   N=           5
           1           2           2           2           1
IBond                                      I   N=          10
           2           0           1           3           2           4
           3           5           4           0
RBond                                      R   N=          10
  1.00000000E+00  0.00000000E+00  1.00000000E+00  1.00000000E+00  1.00000000E+00
  1.00000000E+00  1.00000000E+00  2.00000000E+00  2.00000000E+00  0.00000000E+00
Virial Ratio                               R      2.002205348071333E+00
SCF Energy                                 R     -2.795060707626193E+02
MP2 Energy                                 R     -2.804551719916766E+02
Total Energy                               R     -2.804551719916766E+02
Post-SCF wavefunction norm                 R      1.583790700761787E+00
RMS Force                                  R      1.264527805950229E-03
RMS Density                                R      4.473663674137924E-09
NImag                                      I                0
Job Status                                 I                1
Nuclear derivative order                   I                2
External E-field                           R   N=          35
  0.00000000E+00  0.00000000E+00  0.00000000E+00  0.00000000E+00  0.00000000E+00
  0.00000000E+00  0.00000000E+00  0.00000000E+00  0.00000000E+00  0.00000000E+00
  0.00000000E+00  0.00000000E+00  0.00000000E+00  0.00000000E+00  0.00000000E+00
  0.00000000E+00  0.00000000E+00  0.00000000E+00  0.00000000E+00  0.00000000E+00
  0.00000000E+00  0.00000000E+00  0.00000000E+00  0.00000000E+00  0.00000000E+00
  0.00000000E+00  0.00000000E+00  0.00000000E+00  0.00000000E+00  0.00000000E+00
  0.00000000E+00  0.00000000E+00  0.00000000E+00  0.00000000E+00  0.00000000E+00
IOpCl                                      I                0
IROHF                                      I                0
Alpha Orbital Energies                     R   N=         207
 -2.07196591E+01 -2.06880791E+01 -2.06685716E+01 -1.58266904E+01 -1.64537664E+00
 -1.50592545E+00 -1.29386711E+00 -9.60333905E-01 -8.35889850E-01 -7.59450467E-01
 -7.40490062E-01 -6.37869117E-01 -6.18954349E-01 -6.18840658E-01 -5.05578385E-01
 -4.97651226E-01  3.53161780E-02  5.96779497E-02  9.50391332E-02  1.00321859E-01
  1.19458170E-01  1.22607904E-01  1.49319566E-01  1.52732170E-01  1.77405677E-01
  1.79908135E-01  1.89660941E-01  2.10857171E-01  2.16901873E-01  2.42340243E-01
  2.46319808E-01  2.68665995E-01  3.13348478E-01  3.17615684E-01  3.37790435E-01
  3.43972108E-01  3.47788686E-01  3.92749377E-01  4.49777595E-01  4.90787874E-01
  5.05512160E-01  5.18155984E-01  5.43419005E-01  5.60661845E-01  5.97684898E-01
  6.20577875E-01  6.38624383E-01  6.90802551E-01  7.16350146E-01  7.23984460E-01
  7.42322112E-01  7.64595281E-01  7.67097990E-01  7.95590912E-01  8.06403675E-01
  8.38190784E-01  8.43194780E-01  8.52663913E-01  8.85024807E-01  9.08193592E-01
  9.29520518E-01  9.48899650E-01  9.53395763E-01  1.01921953E+00  1.03478611E+00
  1.06698095E+00  1.06774490E+00  1.09654194E+00  1.14571957E+00  1.15620689E+00
  1.16964992E+00  1.22182806E+00  1.22796503E+00  1.24792126E+00  1.35253649E+00
  1.35849125E+00  1.37048123E+00  1.46839416E+00  1.48455434E+00  1.50303631E+00
  1.54512974E+00  1.59728621E+00  1.59755743E+00  1.60401388E+00  1.62930423E+00
  1.69465036E+00  1.74627888E+00  1.80061221E+00  1.82912954E+00  1.88781136E+00
  1.90589925E+00  1.93231129E+00  1.97899746E+00  1.98874960E+00  2.05265240E+00
  2.12503847E+00  2.13299010E+00  2.16834089E+00  2.19018491E+00  2.24270928E+00
  2.26036157E+00  2.29672710E+00  2.35520657E+00  2.36772425E+00  2.38867693E+00
  2.40348706E+00  2.43536698E+00  2.46951400E+00  2.48020062E+00  2.53070503E+00
  2.54064400E+00  2.54829848E+00  2.56019385E+00  2.61665516E+00  2.63148013E+00
  2.67236282E+00  2.67502479E+00  2.75296866E+00  2.80497846E+00  2.81386922E+00
  2.84846183E+00  2.91777945E+00  2.98609328E+00  3.04778689E+00  3.05059051E+00
  3.11704854E+00  3.12254845E+00  3.17780327E+00  3.22060236E+00  3.31169656E+00
  3.33175803E+00  3.35847867E+00  3.48183949E+00  3.67762121E+00  3.87058514E+00
  3.94014738E+00  4.18796556E+00  4.22242879E+00  4.22591365E+00  4.26867816E+00
  4.36847030E+00  4.49820832E+00  4.53166045E+00  4.55524601E+00  4.60801668E+00
  4.69114026E+00  4.81187510E+00  4.89805715E+00  4.91491853E+00  4.93837462E+00
  4.99835642E+00  5.00502261E+00  5.10798843E+00  5.13321343E+00  5.17754282E+00
  5.25290693E+00  5.25546876E+00  5.31819644E+00  5.34662050E+00  5.37071284E+00
  5.54628360E+00  5.64452407E+00  5.70884351E+00  5.89439443E+00  5.99636159E+00
  6.26495491E+00  6.29893656E+00  6.35708935E+00  6.37448822E+00  6.60140728E+00
  6.65542587E+00  6.66305486E+00  6.69146065E+00  6.72509537E+00  6.79511818E+00
  6.80707742E+00  6.85035260E+00  6.96869859E+00  7.03189406E+00  7.06633972E+00
  7.07623545E+00  7.13051867E+00  7.17510746E+00  7.17922813E+00  7.20601204E+00
  7.24682978E+00  7.24968307E+00  7.27267401E+00  7.35078295E+00  7.40006709E+00
  7.43440416E+00  7.44158462E+00  7.46449308E+00  7.55939660E+00  7.66322868E+00
  7.67474987E+00  7.79648918E+00  7.88846316E+00  7.95268859E+00  8.07733431E+00
  8.31747180E+00  8.49685786E+00  8.65212699E+00  1.36220234E+01  1.47796148E+01
  1.51168690E+01  1.57973019E+01
Alpha MO coefficients                      R   N=       42849
  6.91245325E-05 -1.12366791E-05 -1.09078356E-03  1.30987760E-05 -4.35174835E-05
  4.07521361E-05  0.00000000E+00 -6.71480518E-05 -2.66471024E-04  0.00000000E+00
  8.08069383E-06 -3.31701523E-04  0.00000000E+00  4.21435896E-05  0.00000000E+00
  0.00000000E+00 -2.75433447E-05  2.39013600E-05  2.24237242E-04  0.00000000E+00
  0.00000000E+00 -5.35653168E-05 -2.10473080E-04  3.09704359E-03 -9.97647187E-05
 -9.67064158E-05  3.47050046E-03  2.42874040E-03  1.03350590E-04 -5.39889756E-05
  0.00000000E+00 -7.29916761E-04  3.00015226E-04  0.00000000E+00 -1.96025654E-03
  1.10181061E-03  0.00000000E+00 -5.35245008E-04  4.07262348E-05  0.00000000E+00
  2.06591126E-05  0.00000000E+00  0.00000000E+00 -8.89178484E-06  4.21841293E-05
 -4.39900630E-04  0.00000000E+00  0.00000000E+00  4.34690628E-04 -6.52137245E-04
 -3.59731036E-04  0.00000000E+00  0.00000000E+00  5.30864768E-04 -7.27058005E-04
  0.00000000E+00  7.37801452E-05 -5.29467016E-05  0.00000000E+00  0.00000000E+00
 -2.75711000E-05  1.06434821E-04  0.00000000E+00  2.10552129E-04 -4.96706909E-05
  0.00000000E+00  0.00000000E+00 -1.64309704E-04  2.96133633E-04  9.76901984E-01
 -9.17650218E-03  4.34086400E-02  5.33262197E-04 -2.19354927E-03  4.50866043E-04
 -2.14862663E-03  0.00000000E+00 -3.19971040E-04  2.25222654E-03  0.00000000E+00
 -2.27952358E-03 -5.02357892E-04  0.00000000E+00 -2.14662967E-04  9.50988292E-05
  0.00000000E+00  6.47102074E-06  0.00000000E+00  0.00000000E+00 -5.47350876E-06
  3.63763711E-05  8.24791123E-04  0.00000000E+00  0.00000000E+00 -4.70833600E-04
 -1.74150800E-04 -1.41391850E-04  0.00000000E+00  0.00000000E+00 -5.52420656E-04
  3.46147993E-04  0.00000000E+00 -6.53558205E-06 -7.97129890E-05  0.00000000E+00
  0.00000000E+00 -8.66108161E-06  4.79899705E-05  0.00000000E+00  9.20789092E-05
  1.69892108E-06  0.00000000E+00  0.00000000E+00 -3.36415332E-04  3.77831513E-04
  1.04217033E-04  4.56999740E-04 -3.22723023E-04 -8.44250541E-04  3.64571269E-04
 -4.39731219E-05 -1.00254445E-04  0.00000000E+00  6.95105250E-04  1.11151760E-03
  0.00000000E+00 -7.76940646E-04 -6.34845720E-04  0.00000000E+00  1.94298962E-04
  2.13224940E-04  0.00000000E+00 -5.24860498E-05  0.00000000E+00  0.00000000E+00
  1.88785867E-05  9.34192232E-05 -4.14263152E-04  0.00000000E+00  0.00000000E+00
  3.95686484E-05  1.08012580E-03  2.61584804E-05  0.00000000E+00  0.00000000E+00
 -3.21679301E-04  3.81291097E-05  0.00000000E+00 -7.82707253E-05 -1.13734343E-04
  0.00000000E+00  0.00000000E+00 -9.66406512E-05  1.06364547E-04  0.00000000E+00
 -1.25102573E-04  4.65500094E-05  0.00000000E+00  0.00000000E+00  1.38644468E-05
  5.18693663E-04 -7.28946048E-04  4.36696443E-05 -7.17178605E-05  2.52280605E-04
 -1.70958934E-04 -2.94636321E-05 -4.15503688E-05  0.00000000E+00  1.70514499E-04
  2.53775512E-04  0.00000000E+00  5.35856553E-04  3.42925811E-04  0.00000000E+00
 -2.11217346E-04 -6.22390377E-05  0.00000000E+00 -1.26732890E-05  0.00000000E+00
  0.00000000E+00  2.97743249E-06  1.51147765E-05 -3.84127538E-06  0.00000000E+00
  0.00000000E+00 -1.62091051E-04  9.95346600E-06 -1.96785291E-05  0.00000000E+00
  0.00000000E+00 -1.77730793E-04 -3.83246433E-05  0.00000000E+00 -6.27777979E-06
 -9.04600991E-06  0.00000000E+00  0.00000000E+00 -2.05291300E-05  9.37272708E-06
  0.00000000E+00  4.07421108E-05  6.05634498E-05  0.00000000E+00  0.00000000E+00
  1.54869819E-04 -1.02948386E-04  3.60620816E-05  2.58885844E-05 -6.59797438E-05
 -3.01198913E-05  2.35178133E-05  1.17385005E-05  0.00000000E+00  2.45649840E-04
  4.98925803E-05  0.00000000E+00  1.25455606E-04  3.24766410E-05  0.00000000E+00
  1.10197111E-05  0.00000000E+00  0.00000000E+00 -7.70184489E-06  1.90155804E-05
  9.75262678E-06  0.00000000E+00  0.00000000E+00 -9.21922912E-05  7.90576157E-05
 -2.58198723E-04  2.43972377E-05 -1.46946692E-05 -5.73064379E-04  1.23688112E-04
  7.60086080E-06  1.32555889E-05  0.00000000E+00 -7.79541306E-07 -3.94932677E-05
  0.00000000E+00  1.86471581E-04  9.91634800E-05  0.00000000E+00 -4.01206035E-05
  5.35431657E-05  0.00000000E+00 -1.46032551E-06  0.00000000E+00  0.00000000E+00
 -8.40298248E-06 -1.23203201E-05  2.17239154E-05  0.00000000E+00  0.00000000E+00
  5.10382218E-05  1.12401449E-04  6.09500271E-05  0.00000000E+00  0.00000000E+00
 -3.95903953E-05 -5.84584259E-05  0.00000000E+00  7.57815526E-06  9.80369758E-06
  0.00000000E+00  0.00000000E+00 -1.13846426E-06 -2.55673178E-05  0.00000000E+00
 -1.29515700E-05 -3.53309053E-05  0.00000000E+00  0.00000000E+00 -5.44286263E-07
 -2.17264726E-05  7.56301175E-04  2.06755581E-05 -1.83228930E-05  3.22849539E-04
 -3.81168548E-04  1.64981295E-05  2.75247962E-05  0.00000000E+00 -6.61715994E-05
 -1.55159556E-04  0.00000000E+00  1.83272652E-04 -2.11554473E-04  0.00000000E+00
 -1.55412244E-04  1.40156500E-04  0.00000000E+00 -3.98469793E-06  0.00000000E+00
  0.00000000E+00 -2.96293487E-05 -9.95471057E-06 -5.23816833E-05  0.00000000E+00
  0.00000000E+00  8.05306064E-05  1.22492703E-04 -6.72982634E-05  0.00000000E+00
  0.00000000E+00  4.24388513E-05  2.56205990E-05  0.00000000E+00  3.00559449E-06
  3.19598837E-06  0.00000000E+00  0.00000000E+00 -7.93117996E-06 -2.58402284E-06
  0.00000000E+00  3.47979950E-06 -2.45695699E-05  0.00000000E+00  0.00000000E+00
  9.82906824E-05 -1.54244769E-04  2.36892152E-04  1.35677712E-03 -1.46339771E-04
 -7.18963622E-04  9.08377056E-04  6.32259793E-05 -7.11817718E-05  0.00000000E+00
  5.72148220E-04 -2.08276254E-03  0.00000000E+00  1.00958948E-04  5.23122396E-04
  0.00000000E+00  1.86122068E-04 -3.06564307E-04  0.00000000E+00 -1.27822281E-04
  0.00000000E+00  0.00000000E+00 -2.03968775E-04 -1.58378014E-04 -4.58983293E-04
  0.00000000E+00  0.00000000E+00 -6.01120784E-04 -9.24269420E-04 -4.26376389E-05
  0.00000000E+00  0.00000000E+00  5.62941407E-05  1.26060796E-04  0.00000000E+00
  8.54126491E-06  3.68820529E-05  0.00000000E+00  0.00000000E+00 -2.45052835E-05
 -4.37933956E-06  0.00000000E+00 -1.36071152E-04  1.57393948E-04  0.00000000E+00
  0.00000000E+00 -3.16948063E-04 -3.75235341E-05  9.76645659E-01 -9.88555256E-03
  4.35756340E-02  3.70561034E-03 -8.95145905E-04 -4.44300759E-04  2.13333262E-03
  0.00000000E+00  5.12547758E-04 -2.50757777E-03  0.00000000E+00 -8.90461065E-05
  8.33063377E-04  0.00000000E+00  1.05735366E-04 -6.46400862E-05  0.00000000E+00
 -1.93309810E-04  0.00000000E+00  0.00000000E+00 -7.46849132E-05 -4.35617262E-05
  4.08758689E-04  0.00000000E+00  0.00000000E+00  8.59288662E-04  4.84297489E-04
 -2.02869727E-04  0.00000000E+00  0.00000000E+00 -1.51748229E-04 -3.68232864E-05
  0.00000000E+00 -5.36242922E-06  7.03335183E-05  0.00000000E+00  0.00000000E+00
 -2.78607439E-05  1.07465033E-05  0.00000000E+00 -8.78097338E-05  9.10887273E-05
  0.00000000E+00  0.00000000E+00 -1.69746197E-04  2.05677544E-04  3.69898798E-04
  1.89591630E-03  1.50182970E-03 -1.86233730E-05  5.16460112E-05  2.67049223E-04
  0.00000000E+00  4.12113437E-04  1.00030178E-03  0.00000000E+00 -1.44046009E-04
  2.27904509E-04  0.00000000E+00 -2.37156045E-05  0.00000000E+00  0.00000000E+00
  2.94601908E-05 -3.39485542E-05 -2.43348425E-04  0.00000000E+00  0.00000000E+00
 -3.33104461E-04  4.53665209E-04  9.76834566E-01 -9.19673955E-03  4.34613983E-02
  1.43314932E-04 -1.94062257E-03 -2.05154813E-03 -8.13652828E-04  0.00000000E+00
  2.09234554E-03  7.55861100E-04  0.00000000E+00 -3.93388953E-04  5.73314602E-04
  0.00000000E+00  2.34050241E-04 -2.86930880E-04  0.00000000E+00  3.20243724E-05
  0.00000000E+00  0.00000000E+00 -7.10024393E-05  6.78202096E-05  7.60780049E-04
  0.00000000E+00  0.00000000E+00 -2.23369155E-04  3.38268589E-04 -2.40873009E-04
  0.00000000E+00  0.00000000E+00  3.15960410E-04  3.08520716E-05  0.00000000E+00
 -8.10098593E-05  1.84427748E-06  0.00000000E+00  0.00000000E+00  1.50952647E-05