 Entering Gaussian System, Link 0=g16
 Input=hoono_a1_95p24535.gjf
 Output=hoono_a1_95p24535.log
 Initial command:
 /sw/contrib/gaussian/g16/B01/g16/l1.exe "/scr/Gau-18683.inp" -scrdir="/scr/"
 Entering Link 1 = /sw/contrib/gaussian/g16/B01/g16/l1.exe PID=     18684.
  
 Copyright (c) 1988-2017, Gaussian, Inc.  All Rights Reserved.
  
 This is part of the Gaussian(R) 16 program.  It is based on
 the Gaussian(R) 09 system (copyright 2009, Gaussian, Inc.),
 the Gaussian(R) 03 system (copyright 2003, Gaussian, Inc.),
 the Gaussian(R) 98 system (copyright 1998, Gaussian, Inc.),
 the Gaussian(R) 94 system (copyright 1995, Gaussian, Inc.),
 the Gaussian 92(TM) system (copyright 1992, Gaussian, Inc.),
 the Gaussian 90(TM) system (copyright 1990, Gaussian, Inc.),
 the Gaussian 88(TM) system (copyright 1988, Gaussian, Inc.),
 the Gaussian 86(TM) system (copyright 1986, Carnegie Mellon
 University), and the Gaussian 82(TM) system (copyright 1983,
 Carnegie Mellon University). Gaussian is a federally registered
 trademark of Gaussian, Inc.
  
 This software contains proprietary and confidential information,
 including trade secrets, belonging to Gaussian, Inc.
  
 This software is provided under written license and may be
 used, copied, transmitted, or stored only in accord with that
 written license.
  
 The following legend is applicable only to US Government
 contracts under FAR:
  
                    RESTRICTED RIGHTS LEGEND
  
 Use, reproduction and disclosure by the US Government is
 subject to restrictions as set forth in subparagraphs (a)
 and (c) of the Commercial Computer Software - Restricted
 Rights clause in FAR 52.227-19.
  
 Gaussian, Inc.
 340 Quinnipiac St., Bldg. 40, Wallingford CT 06492
  
  
 ---------------------------------------------------------------
 Warning -- This program may not be used in any manner that
 competes with the business of Gaussian, Inc. or will provide
 assistance to any competitor of Gaussian, Inc.  The licensee
 of this program is prohibited from giving any competitor of
 Gaussian, Inc. access to this program.  By using this program,
 the user acknowledges that Gaussian, Inc. is engaged in the
 business of creating and licensing software in the field of
 computational chemistry and represents and warrants to the
 licensee that it is not a competitor of Gaussian, Inc. and that
 it will not use this program in any manner prohibited above.
 ---------------------------------------------------------------
  

 Cite this work as:
 Gaussian 16, Revision B.01,
 M. J. Frisch, G. W. Trucks, H. B. Schlegel, G. E. Scuseria, 
 M. A. Robb, J. R. Cheeseman, G. Scalmani, V. Barone, 
 G. A. Petersson, H. Nakatsuji, X. Li, M. Caricato, A. V. Marenich, 
 J. Bloino, B. G. Janesko, R. Gomperts, B. Mennucci, H. P. Hratchian, 
 J. V. Ortiz, A. F. Izmaylov, J. L. Sonnenberg, D. Williams-Young, 
 F. Ding, F. Lipparini, F. Egidi, J. Goings, B. Peng, A. Petrone, 
 T. Henderson, D. Ranasinghe, V. G. Zakrzewski, J. Gao, N. Rega, 
 G. Zheng, W. Liang, M. Hada, M. Ehara, K. Toyota, R. Fukuda, 
 J. Hasegawa, M. Ishida, T. Nakajima, Y. Honda, O. Kitao, H. Nakai, 
 T. Vreven, K. Throssell, J. A. Montgomery, Jr., J. E. Peralta, 
 F. Ogliaro, M. J. Bearpark, J. J. Heyd, E. N. Brothers, K. N. Kudin, 
 V. N. Staroverov, T. A. Keith, R. Kobayashi, J. Normand, 
 K. Raghavachari, A. P. Rendell, J. C. Burant, S. S. Iyengar, 
 J. Tomasi, M. Cossi, J. M. Millam, M. Klene, C. Adamo, R. Cammi, 
 J. W. Ochterski, R. L. Martin, K. Morokuma, O. Farkas, 
 J. B. Foresman, and D. J. Fox, Gaussian, Inc., Wallingford CT, 2016.
 
 ******************************************
 Gaussian 16:  ES64L-G16RevB.01 20-Dec-2017
                21-Feb-2022 
 ******************************************
 %nproc=28
 Will use up to   28 processors via shared memory.
 %mem=120GB
 %chk=hoono_a1_95p24535.chk
 ---------------------------------------
 #p freq mp2/aug-cc-pvtz density=current
 ---------------------------------------
 1/10=4,30=1,38=1/1,3;
 2/12=2,17=6,18=5,40=1/2;
 3/5=16,6=1,7=10,11=9,25=1,30=1,71=2,140=1/1,2,3;
 4//1;
 5/5=2,38=5,98=1/2;
 8/6=3,8=1,10=1,19=11,30=-1/1;
 9/15=3,16=-3/6;
 11/6=1,8=1,15=11,17=12,24=-1,27=1,28=-2,29=300,32=6,42=3/1,2,10;
 10/6=2,21=1/2;
 8/6=4,8=1,10=1,19=11,30=-1/11,4;
 10/5=1,20=4/2;
 11/12=2,14=11,16=1,17=2,28=-2,42=3,76=2/2,10,12;
 6/7=2,8=2,9=2,10=2,22=-1/1;
 7/8=1,10=1,12=2,25=1,44=2/1,2,3,16;
 1/10=4,30=1/3;
 99//99;
 Leave Link    1 at Mon Feb 21 20:38:07 2022, MaxMem= 16106127360 cpu:               3.1 elap:               0.1
 (Enter /sw/contrib/gaussian/g16/B01/g16/l101.exe)
 -----
 title
 -----
 Symbolic Z-matrix:
 Charge =  0 Multiplicity = 1
 H
 O                    1    r1
 O                    2    r2       1    a1
 N                    3    r3       2    a2       1    d1       0
 O                    4    r4       3    a3       2    d2       0
       Variables:
  r1                    0.96898                  
  r2                    1.45492                  
  r3                    1.45878                  
  r4                    1.17073                  
  a1                   95.24535                  
  a2                  102.29752                  
  a3                  109.06955                  
  d1                  180.                       
  d2                  180.                       
 
 ITRead=  0  0  0  0  0
 MicOpt= -1 -1 -1 -1 -1
 NAtoms=      5 NQM=        5 NQMF=       0 NMMI=      0 NMMIF=      0
                NMic=       0 NMicF=      0.
                    Isotopes and Nuclear Properties:
 (Nuclear quadrupole moments (NQMom) in fm**2, nuclear magnetic moments (NMagM)
  in nuclear magnetons)

  Atom         1           2           3           4           5
 IAtWgt=           1          16          16          14          16
 AtmWgt=   1.0078250  15.9949146  15.9949146  14.0030740  15.9949146
 NucSpn=           1           0           0           2           0
 AtZEff=  -0.0000000  -0.0000000  -0.0000000  -0.0000000  -0.0000000
 NQMom=    0.0000000   0.0000000   0.0000000   2.0440000   0.0000000
 NMagM=    2.7928460   0.0000000   0.0000000   0.4037610   0.0000000
 AtZNuc=   1.0000000   8.0000000   8.0000000   7.0000000   8.0000000
 Leave Link  101 at Mon Feb 21 20:38:07 2022, MaxMem= 16106127360 cpu:               2.3 elap:               0.1
 (Enter /sw/contrib/gaussian/g16/B01/g16/l103.exe)

 GradGradGradGradGradGradGradGradGradGradGradGradGradGradGradGradGradGrad
 Berny optimization.
 Initialization pass.
                       ----------------------------
                       !    Initial Parameters    !
                       ! (Angstroms and Degrees)  !
 ----------------------                            ----------------------
 !      Name          Value   Derivative information (Atomic Units)     !
 ------------------------------------------------------------------------
 !       r1          0.969    calculate D2E/DX2 analytically            !
 !       r2          1.4549   calculate D2E/DX2 analytically            !
 !       r3          1.4588   calculate D2E/DX2 analytically            !
 !       r4          1.1707   calculate D2E/DX2 analytically            !
 !       a1         95.2454   calculate D2E/DX2 analytically            !
 !       a2        102.2975   calculate D2E/DX2 analytically            !
 !       a3        109.0696   calculate D2E/DX2 analytically            !
 !       d1        180.0      calculate D2E/DX2 analytically            !
 !       d2        180.0      calculate D2E/DX2 analytically            !
 ------------------------------------------------------------------------
 Trust Radius=3.00D-01 FncErr=1.00D-07 GrdErr=1.00D-07 EigMax=2.50D+02 EigMin=1.00D-04
 Number of steps in this run=      2 maximum allowed number of steps=      2.
 GradGradGradGradGradGradGradGradGradGradGradGradGradGradGradGradGradGrad

 Leave Link  103 at Mon Feb 21 20:38:07 2022, MaxMem= 16106127360 cpu:               1.7 elap:               0.1
 (Enter /sw/contrib/gaussian/g16/B01/g16/l202.exe)
                          Input orientation:                          
 ---------------------------------------------------------------------
 Center     Atomic      Atomic             Coordinates (Angstroms)
 Number     Number       Type             X           Y           Z
 ---------------------------------------------------------------------
      1          1           0        0.000000    0.000000    0.000000
      2          8           0        0.000000    0.000000    0.968976
      3          8           0        1.448827    0.000000    1.101986
      4          7           0        1.627926    0.000000    2.549734
      5          8           0        2.772998    0.000000    2.793489
 ---------------------------------------------------------------------
                    Distance matrix (angstroms):
                    1          2          3          4          5
     1  H    0.000000
     2  O    0.968976   0.000000
     3  O    1.820294   1.454919   0.000000
     4  N    3.025109   2.269127   1.458784   0.000000
     5  O    3.936127   3.319392   2.148165   1.170729   0.000000
 Stoichiometry    HNO3
 Framework group  CS[SG(HNO3)]
 Deg. of freedom     7
 Full point group                 CS      NOp   2
 Largest Abelian subgroup         CS      NOp   2
 Largest concise Abelian subgroup C1      NOp   1
                         Standard orientation:                         
 ---------------------------------------------------------------------
 Center     Atomic      Atomic             Coordinates (Angstroms)
 Number     Number       Type             X           Y           Z
 ---------------------------------------------------------------------
      1          1           0        1.507625    1.692982   -0.000000
      2          8           0        1.453969    0.725493   -0.000000
      3          8           0        0.000000    0.672914    0.000000
      4          7           0       -0.258992   -0.762696   -0.000000
      5          8           0       -1.415804   -0.942670    0.000000
 ---------------------------------------------------------------------
 Rotational constants (GHZ):          54.8072273           5.0180063           4.5971072
 Leave Link  202 at Mon Feb 21 20:38:07 2022, MaxMem= 16106127360 cpu:               0.2 elap:               0.0
 (Enter /sw/contrib/gaussian/g16/B01/g16/l301.exe)
 Standard basis: Aug-CC-pVTZ (5D, 7F)
 Ernie: Thresh=  0.10000D-02 Tol=  0.10000D-05 Strict=F.
 Ernie:  12 primitive shells out of 131 were deleted.
 There are   166 symmetry adapted cartesian basis functions of A'  symmetry.
 There are    79 symmetry adapted cartesian basis functions of A"  symmetry.
 There are   136 symmetry adapted basis functions of A'  symmetry.
 There are    71 symmetry adapted basis functions of A"  symmetry.
   207 basis functions,   315 primitive gaussians,   245 cartesian basis functions
    16 alpha electrons       16 beta electrons
       nuclear repulsion energy       116.9271719984 Hartrees.
 IExCor=    0 DFT=F Ex=HF Corr=None ExCW=0 ScaHFX=  1.000000
 ScaDFX=  1.000000  1.000000  1.000000  1.000000 ScalE2=  1.000000  1.000000
 IRadAn=      5 IRanWt=     -1 IRanGd=            0 ICorTp=0 IEmpDi=  4
 NAtoms=    5 NActive=    5 NUniq=    5 SFac= 1.00D+00 NAtFMM=   60 NAOKFM=F Big=F
 Integral buffers will be    131072 words long.
 Raffenetti 1 integral format.
 Two-electron integral symmetry is turned on.
 Leave Link  301 at Mon Feb 21 20:38:07 2022, MaxMem= 16106127360 cpu:               2.3 elap:               0.1
 (Enter /sw/contrib/gaussian/g16/B01/g16/l302.exe)
 NPDir=0 NMtPBC=     1 NCelOv=     1 NCel=       1 NClECP=     1 NCelD=      1
         NCelK=      1 NCelE2=     1 NClLst=     1 CellRange=     0.0.
 One-electron integrals computed using PRISM.
 One-electron integral symmetry used in STVInt
 NBasis=   207 RedAO= T EigKep=  1.81D-04  NBF=   136    71
 NBsUse=   207 1.00D-06 EigRej= -1.00D+00 NBFU=   136    71
 Leave Link  302 at Mon Feb 21 20:38:08 2022, MaxMem= 16106127360 cpu:               5.6 elap:               0.2
 (Enter /sw/contrib/gaussian/g16/B01/g16/l303.exe)
 DipDrv:  MaxL=1.
 Leave Link  303 at Mon Feb 21 20:38:08 2022, MaxMem= 16106127360 cpu:               0.8 elap:               0.1
 (Enter /sw/contrib/gaussian/g16/B01/g16/l401.exe)
 ExpMin= 2.53D-02 ExpMax= 1.53D+04 ExpMxC= 5.22D+02 IAcc=3 IRadAn=         5 AccDes= 0.00D+00
 Harris functional with IExCor=  205 and IRadAn=       5 diagonalized for initial guess.
 HarFok:  IExCor=  205 AccDes= 0.00D+00 IRadAn=         5 IDoV= 1 UseB2=F ITyADJ=14
 ICtDFT=  3500011 ScaDFX=  1.000000  1.000000  1.000000  1.000000
 FoFCou: FMM=F IPFlag=           0 FMFlag=      100000 FMFlg1=           0
         NFxFlg=           0 DoJE=T BraDBF=F KetDBF=T FulRan=T
         wScrn=  0.000000 ICntrl=       500 IOpCl=  0 I1Cent=   200000004 NGrid=           0
         NMat0=    1 NMatS0=      1 NMatT0=    0 NMatD0=    1 NMtDS0=    0 NMtDT0=    0
 Petite list used in FoFCou.
 Harris En= -279.628035205806    
 JPrj=0 DoOrth=F DoCkMO=F.
 Initial guess orbital symmetries:
       Occupied  (A') (A') (A') (A') (A') (A') (A') (A') (A') (A')
                 (A") (A') (A') (A") (A") (A')
       Virtual   (A") (A') (A') (A') (A') (A') (A") (A') (A') (A')
                 (A") (A') (A") (A') (A') (A") (A') (A") (A') (A')
                 (A') (A') (A') (A') (A') (A") (A') (A") (A') (A')
                 (A") (A') (A") (A') (A') (A") (A') (A") (A') (A')
                 (A") (A') (A") (A') (A") (A') (A') (A') (A") (A")
                 (A') (A') (A') (A') (A") (A') (A") (A') (A") (A')
                 (A') (A') (A") (A') (A') (A") (A') (A") (A') (A')
                 (A") (A') (A') (A") (A") (A') (A') (A") (A') (A')
                 (A') (A") (A') (A") (A') (A") (A') (A") (A') (A')
                 (A') (A") (A') (A") (A') (A") (A") (A') (A') (A")
                 (A') (A') (A") (A') (A') (A') (A") (A') (A") (A')
                 (A") (A') (A') (A') (A") (A') (A') (A') (A") (A')
                 (A") (A') (A') (A") (A") (A') (A") (A') (A") (A')
                 (A') (A') (A') (A") (A") (A') (A") (A') (A') (A')
                 (A') (A") (A") (A') (A') (A") (A') (A') (A') (A')
                 (A') (A") (A') (A") (A') (A") (A') (A") (A") (A')
                 (A') (A") (A') (A") (A') (A") (A") (A") (A') (A')
                 (A") (A') (A") (A') (A") (A') (A") (A") (A') (A')
                 (A') (A') (A') (A') (A') (A') (A') (A') (A') (A')
                 (A')
 The electronic state of the initial guess is 1-A'.
 Leave Link  401 at Mon Feb 21 20:38:08 2022, MaxMem= 16106127360 cpu:               6.9 elap:               0.3
 (Enter /sw/contrib/gaussian/g16/B01/g16/l502.exe)
 Keep R1 ints in memory in symmetry-blocked form, NReq=348887737.
 FoFCou: FMM=F IPFlag=           0 FMFlag=           0 FMFlg1=           0
         NFxFlg=           0 DoJE=F BraDBF=F KetDBF=F FulRan=T
         wScrn=  0.000000 ICntrl=       600 IOpCl=  0 I1Cent=           0 NGrid=           0
         NMat0=    1 NMatS0=  21528 NMatT0=    0 NMatD0=    1 NMtDS0=    0 NMtDT0=    0
 Petite list used in FoFCou.
 Closed shell SCF:
 Using DIIS extrapolation, IDIIS=  1040.
 NGot= 16106127360 LenX= 15988850015 LenY= 15988789549
 Requested convergence on RMS density matrix=1.00D-08 within 128 cycles.
 Requested convergence on MAX density matrix=1.00D-06.
 Requested convergence on             energy=1.00D-06.
 No special actions if energy rises.

 Cycle   1  Pass 1  IDiag  1:
 E= -279.369950266163    
 DIIS: error= 2.81D-02 at cycle   1 NSaved=   1.
 NSaved= 1 IEnMin= 1 EnMin= -279.369950266163     IErMin= 1 ErrMin= 2.81D-02
 ErrMax= 2.81D-02  0.00D+00 EMaxC= 1.00D-01 BMatC= 4.38D-01 BMatP= 4.38D-01
 IDIUse=3 WtCom= 7.19D-01 WtEn= 2.81D-01
 Coeff-Com:  0.100D+01
 Coeff-En:   0.100D+01
 Coeff:      0.100D+01
 Gap=     0.513 Goal=   None    Shift=    0.000
 GapD=    0.513 DampG=2.000 DampE=0.500 DampFc=1.0000 IDamp=-1.
 RMSDP=1.63D-03 MaxDP=9.95D-02              OVMax= 1.13D-01

 Cycle   2  Pass 1  IDiag  1:
 E= -279.451777258561     Delta-E=       -0.081826992398 Rises=F Damp=F
 DIIS: error= 1.79D-02 at cycle   2 NSaved=   2.
 NSaved= 2 IEnMin= 2 EnMin= -279.451777258561     IErMin= 2 ErrMin= 1.79D-02
 ErrMax= 1.79D-02  0.00D+00 EMaxC= 1.00D-01 BMatC= 7.19D-02 BMatP= 4.38D-01
 IDIUse=3 WtCom= 8.21D-01 WtEn= 1.79D-01
 Coeff-Com:  0.195D+00 0.805D+00
 Coeff-En:   0.000D+00 0.100D+01
 Coeff:      0.160D+00 0.840D+00
 Gap=     0.530 Goal=   None    Shift=    0.000
 RMSDP=9.01D-04 MaxDP=3.74D-02 DE=-8.18D-02 OVMax= 6.92D-02

 Cycle   3  Pass 1  IDiag  1:
 E= -279.480935170428     Delta-E=       -0.029157911867 Rises=F Damp=F
 DIIS: error= 1.04D-02 at cycle   3 NSaved=   3.
 NSaved= 3 IEnMin= 3 EnMin= -279.480935170428     IErMin= 3 ErrMin= 1.04D-02
 ErrMax= 1.04D-02  0.00D+00 EMaxC= 1.00D-01 BMatC= 2.88D-02 BMatP= 7.19D-02
 IDIUse=3 WtCom= 8.96D-01 WtEn= 1.04D-01
 Coeff-Com: -0.331D-01 0.378D+00 0.655D+00
 Coeff-En:   0.000D+00 0.241D+00 0.759D+00
 Coeff:     -0.296D-01 0.364D+00 0.665D+00
 Gap=     0.511 Goal=   None    Shift=    0.000
 RMSDP=3.77D-04 MaxDP=1.55D-02 DE=-2.92D-02 OVMax= 3.82D-02

 Cycle   4  Pass 1  IDiag  1:
 E= -279.500081584693     Delta-E=       -0.019146414265 Rises=F Damp=F
 DIIS: error= 1.28D-03 at cycle   4 NSaved=   4.
 NSaved= 4 IEnMin= 4 EnMin= -279.500081584693     IErMin= 4 ErrMin= 1.28D-03
 ErrMax= 1.28D-03  0.00D+00 EMaxC= 1.00D-01 BMatC= 4.94D-04 BMatP= 2.88D-02
 IDIUse=3 WtCom= 9.87D-01 WtEn= 1.28D-02
 Coeff-Com: -0.117D-01 0.573D-01 0.158D+00 0.796D+00
 Coeff-En:   0.000D+00 0.000D+00 0.000D+00 0.100D+01
 Coeff:     -0.115D-01 0.566D-01 0.156D+00 0.799D+00
 Gap=     0.502 Goal=   None    Shift=    0.000
 RMSDP=9.06D-05 MaxDP=2.79D-03 DE=-1.91D-02 OVMax= 1.12D-02

 Cycle   5  Pass 1  IDiag  1:
 E= -279.500759913598     Delta-E=       -0.000678328905 Rises=F Damp=F
 DIIS: error= 7.17D-04 at cycle   5 NSaved=   5.
 NSaved= 5 IEnMin= 5 EnMin= -279.500759913598     IErMin= 5 ErrMin= 7.17D-04
 ErrMax= 7.17D-04  0.00D+00 EMaxC= 1.00D-01 BMatC= 8.76D-05 BMatP= 4.94D-04
 IDIUse=3 WtCom= 9.93D-01 WtEn= 7.17D-03
 Coeff-Com:  0.615D-02-0.725D-01-0.118D+00 0.213D-01 0.116D+01
 Coeff-En:   0.000D+00 0.000D+00 0.000D+00 0.000D+00 0.100D+01
 Coeff:      0.610D-02-0.720D-01-0.117D+00 0.211D-01 0.116D+01
 Gap=     0.502 Goal=   None    Shift=    0.000
 RMSDP=7.64D-05 MaxDP=2.10D-03 DE=-6.78D-04 OVMax= 1.11D-02

 Cycle   6  Pass 1  IDiag  1:
 E= -279.501076125753     Delta-E=       -0.000316212155 Rises=F Damp=F
 DIIS: error= 2.94D-04 at cycle   6 NSaved=   6.
 NSaved= 6 IEnMin= 6 EnMin= -279.501076125753     IErMin= 6 ErrMin= 2.94D-04
 ErrMax= 2.94D-04  0.00D+00 EMaxC= 1.00D-01 BMatC= 1.68D-05 BMatP= 8.76D-05
 IDIUse=3 WtCom= 9.97D-01 WtEn= 2.94D-03
 Coeff-Com:  0.657D-03 0.813D-03 0.316D-02-0.129D+00-0.219D+00 0.134D+01
 Coeff-En:   0.000D+00 0.000D+00 0.000D+00 0.000D+00 0.000D+00 0.100D+01
 Coeff:      0.656D-03 0.810D-03 0.315D-02-0.129D+00-0.218D+00 0.134D+01
 Gap=     0.503 Goal=   None    Shift=    0.000
 RMSDP=4.52D-05 MaxDP=1.25D-03 DE=-3.16D-04 OVMax= 5.53D-03

 Cycle   7  Pass 1  IDiag  1:
 E= -279.501148869478     Delta-E=       -0.000072743724 Rises=F Damp=F
 DIIS: error= 1.27D-04 at cycle   7 NSaved=   7.
 NSaved= 7 IEnMin= 7 EnMin= -279.501148869478     IErMin= 7 ErrMin= 1.27D-04
 ErrMax= 1.27D-04  0.00D+00 EMaxC= 1.00D-01 BMatC= 4.77D-06 BMatP= 1.68D-05
 IDIUse=3 WtCom= 9.99D-01 WtEn= 1.27D-03
 Coeff-Com: -0.944D-03 0.137D-01 0.267D-01-0.265D-01-0.294D+00 0.414D+00
 Coeff-Com:  0.867D+00
 Coeff-En:   0.000D+00 0.000D+00 0.000D+00 0.000D+00 0.000D+00 0.000D+00
 Coeff-En:   0.100D+01
 Coeff:     -0.942D-03 0.137D-01 0.267D-01-0.264D-01-0.293D+00 0.413D+00
 Coeff:      0.867D+00
 Gap=     0.503 Goal=   None    Shift=    0.000
 RMSDP=1.34D-05 MaxDP=3.79D-04 DE=-7.27D-05 OVMax= 1.56D-03

 Cycle   8  Pass 1  IDiag  1:
 E= -279.501158063569     Delta-E=       -0.000009194091 Rises=F Damp=F
 DIIS: error= 5.66D-05 at cycle   8 NSaved=   8.
 NSaved= 8 IEnMin= 8 EnMin= -279.501158063569     IErMin= 8 ErrMin= 5.66D-05
 ErrMax= 5.66D-05  0.00D+00 EMaxC= 1.00D-01 BMatC= 6.07D-07 BMatP= 4.77D-06
 IDIUse=1 WtCom= 1.00D+00 WtEn= 0.00D+00
 Coeff-Com: -0.451D-03 0.347D-02 0.763D-02 0.275D-01-0.414D-01-0.195D+00
 Coeff-Com:  0.148D+00 0.105D+01
 Coeff:     -0.451D-03 0.347D-02 0.763D-02 0.275D-01-0.414D-01-0.195D+00
 Coeff:      0.148D+00 0.105D+01
 Gap=     0.502 Goal=   None    Shift=    0.000
 RMSDP=7.06D-06 MaxDP=2.06D-04 DE=-9.19D-06 OVMax= 7.60D-04

 Cycle   9  Pass 1  IDiag  1:
 E= -279.501159890823     Delta-E=       -0.000001827254 Rises=F Damp=F
 DIIS: error= 1.52D-05 at cycle   9 NSaved=   9.
 NSaved= 9 IEnMin= 9 EnMin= -279.501159890823     IErMin= 9 ErrMin= 1.52D-05
 ErrMax= 1.52D-05  0.00D+00 EMaxC= 1.00D-01 BMatC= 6.85D-08 BMatP= 6.07D-07
 IDIUse=1 WtCom= 1.00D+00 WtEn= 0.00D+00
 Coeff-Com:  0.123D-03-0.173D-02-0.307D-02-0.203D-02 0.343D-01-0.423D-03
 Coeff-Com: -0.159D+00-0.114D+00 0.125D+01
 Coeff:      0.123D-03-0.173D-02-0.307D-02-0.203D-02 0.343D-01-0.423D-03
 Coeff:     -0.159D+00-0.114D+00 0.125D+01
 Gap=     0.502 Goal=   None    Shift=    0.000
 RMSDP=1.94D-06 MaxDP=6.63D-05 DE=-1.83D-06 OVMax= 1.76D-04

 Cycle  10  Pass 1  IDiag  1:
 E= -279.501160050954     Delta-E=       -0.000000160131 Rises=F Damp=F
 DIIS: error= 4.42D-06 at cycle  10 NSaved=  10.
 NSaved=10 IEnMin=10 EnMin= -279.501160050954     IErMin=10 ErrMin= 4.42D-06
 ErrMax= 4.42D-06  0.00D+00 EMaxC= 1.00D-01 BMatC= 5.58D-09 BMatP= 6.85D-08
 IDIUse=1 WtCom= 1.00D+00 WtEn= 0.00D+00
 Coeff-Com:  0.308D-04-0.241D-03-0.319D-03-0.270D-02 0.160D-02 0.195D-01
 Coeff-Com: -0.112D-01-0.756D-01-0.811D-01 0.115D+01
 Coeff:      0.308D-04-0.241D-03-0.319D-03-0.270D-02 0.160D-02 0.195D-01
 Coeff:     -0.112D-01-0.756D-01-0.811D-01 0.115D+01
 Gap=     0.502 Goal=   None    Shift=    0.000
 RMSDP=5.05D-07 MaxDP=2.11D-05 DE=-1.60D-07 OVMax= 4.20D-05

 Cycle  11  Pass 1  IDiag  1:
 E= -279.501160063537     Delta-E=       -0.000000012584 Rises=F Damp=F
 DIIS: error= 2.05D-06 at cycle  11 NSaved=  11.
 NSaved=11 IEnMin=11 EnMin= -279.501160063537     IErMin=11 ErrMin= 2.05D-06
 ErrMax= 2.05D-06  0.00D+00 EMaxC= 1.00D-01 BMatC= 6.63D-10 BMatP= 5.58D-09
 IDIUse=1 WtCom= 1.00D+00 WtEn= 0.00D+00
 Coeff-Com: -0.213D-04 0.245D-03 0.488D-03 0.526D-03-0.431D-02-0.342D-02
 Coeff-Com:  0.197D-01 0.326D-01-0.139D+00-0.179D+00 0.127D+01
 Coeff:     -0.213D-04 0.245D-03 0.488D-03 0.526D-03-0.431D-02-0.342D-02
 Coeff:      0.197D-01 0.326D-01-0.139D+00-0.179D+00 0.127D+01
 Gap=     0.502 Goal=   None    Shift=    0.000
 RMSDP=1.79D-07 MaxDP=6.56D-06 DE=-1.26D-08 OVMax= 1.74D-05

 Cycle  12  Pass 1  IDiag  1:
 E= -279.501160065353     Delta-E=       -0.000000001815 Rises=F Damp=F
 DIIS: error= 5.91D-07 at cycle  12 NSaved=  12.
 NSaved=12 IEnMin=12 EnMin= -279.501160065353     IErMin=12 ErrMin= 5.91D-07
 ErrMax= 5.91D-07  0.00D+00 EMaxC= 1.00D-01 BMatC= 7.16D-11 BMatP= 6.63D-10
 IDIUse=1 WtCom= 1.00D+00 WtEn= 0.00D+00
 Coeff-Com:  0.125D-05-0.292D-04-0.631D-04 0.185D-03 0.108D-02-0.229D-02
 Coeff-Com: -0.408D-02 0.533D-02 0.417D-01-0.114D+00-0.278D+00 0.135D+01
 Coeff:      0.125D-05-0.292D-04-0.631D-04 0.185D-03 0.108D-02-0.229D-02
 Coeff:     -0.408D-02 0.533D-02 0.417D-01-0.114D+00-0.278D+00 0.135D+01
 Gap=     0.502 Goal=   None    Shift=    0.000
 RMSDP=7.17D-08 MaxDP=2.84D-06 DE=-1.82D-09 OVMax= 6.68D-06

 Cycle  13  Pass 1  IDiag  1:
 E= -279.501160065582     Delta-E=       -0.000000000229 Rises=F Damp=F
 DIIS: error= 1.66D-07 at cycle  13 NSaved=  13.
 NSaved=13 IEnMin=13 EnMin= -279.501160065582     IErMin=13 ErrMin= 1.66D-07
 ErrMax= 1.66D-07  0.00D+00 EMaxC= 1.00D-01 BMatC= 4.00D-12 BMatP= 7.16D-11
 IDIUse=1 WtCom= 1.00D+00 WtEn= 0.00D+00
 Coeff-Com:  0.127D-05-0.139D-04-0.223D-04-0.884D-04 0.122D-03 0.744D-03
 Coeff-Com: -0.739D-03-0.333D-02 0.504D-03 0.411D-01-0.354D-01-0.326D+00
 Coeff-Com:  0.132D+01
 Coeff:      0.127D-05-0.139D-04-0.223D-04-0.884D-04 0.122D-03 0.744D-03
 Coeff:     -0.739D-03-0.333D-02 0.504D-03 0.411D-01-0.354D-01-0.326D+00
 Coeff:      0.132D+01
 Gap=     0.502 Goal=   None    Shift=    0.000
 RMSDP=1.91D-08 MaxDP=5.60D-07 DE=-2.29D-10 OVMax= 1.55D-06

 Cycle  14  Pass 1  IDiag  1:
 E= -279.501160065595     Delta-E=       -0.000000000014 Rises=F Damp=F
 DIIS: error= 2.43D-08 at cycle  14 NSaved=  14.
 NSaved=14 IEnMin=14 EnMin= -279.501160065595     IErMin=14 ErrMin= 2.43D-08
 ErrMax= 2.43D-08  0.00D+00 EMaxC= 1.00D-01 BMatC= 1.94D-13 BMatP= 4.00D-12
 IDIUse=1 WtCom= 1.00D+00 WtEn= 0.00D+00
 Coeff-Com: -0.187D-06 0.308D-05 0.551D-05 0.441D-05-0.819D-04 0.465D-04
 Coeff-Com:  0.266D-03 0.236D-03-0.242D-02 0.145D-02 0.169D-01-0.257D-01
 Coeff-Com: -0.198D+00 0.121D+01
 Coeff:     -0.187D-06 0.308D-05 0.551D-05 0.441D-05-0.819D-04 0.465D-04
 Coeff:      0.266D-03 0.236D-03-0.242D-02 0.145D-02 0.169D-01-0.257D-01
 Coeff:     -0.198D+00 0.121D+01
 Gap=     0.502 Goal=   None    Shift=    0.000
 RMSDP=3.77D-09 MaxDP=9.09D-08 DE=-1.35D-11 OVMax= 3.38D-07

 SCF Done:  E(RHF) =  -279.501160066     A.U. after   14 cycles
            NFock= 14  Conv=0.38D-08     -V/T= 2.0023
 KE= 2.788542283814D+02 PE=-8.951806038856D+02 EE= 2.198980434403D+02
 Leave Link  502 at Mon Feb 21 20:38:12 2022, MaxMem= 16106127360 cpu:              56.0 elap:               3.6
 (Enter /sw/contrib/gaussian/g16/B01/g16/l801.exe)
 ExpMin= 2.53D-02 ExpMax= 1.53D+04 ExpMxC= 5.22D+02 IAcc=3 IRadAn=         5 AccDes= 0.00D+00
 HarFok:  IExCor=  205 AccDes= 0.00D+00 IRadAn=         5 IDoV=-2 UseB2=F ITyADJ=14
 ICtDFT= 12500011 ScaDFX=  1.000000  1.000000  1.000000  1.000000
 Largest valence mixing into a core orbital is  2.08D-04
 Largest core mixing into a valence orbital is  3.63D-05
 Range of M.O.s used for correlation:     5   207
 NBasis=   207 NAE=    16 NBE=    16 NFC=     4 NFV=     0
 NROrb=    203 NOA=    12 NOB=    12 NVA=   191 NVB=   191

 **** Warning!!: The largest alpha MO coefficient is  0.17166903D+02

 Leave Link  801 at Mon Feb 21 20:38:12 2022, MaxMem= 16106127360 cpu:               5.7 elap:               0.3
 (Enter /sw/contrib/gaussian/g16/B01/g16/l906.exe)
 Frozen-core derivative calculation, NFC=   4 NFV=   0.
 FulOut=F Deriv=T AODrv=T NAtomX=     5
   MMem=           0  MDisk=          12 MDiskD=          12
  W3Min=      811440 MinDsk=     2425030 NBas6D=         245
 NBas2D=       30762    NTT=       30135    LW2=     7400000
    MDV= 16105574269 MDiskM=      328644 NBas2p=       30702
 Disk-based method using ON**2 memory for 12 occupieds at a time.
 Permanent disk used for amplitudes=    11516536 words.
 Estimated scratch disk usage=   321251614 words.
 IMap=   1   2   3   4   5   6   7   8   9  10  11  12  13  14  15  16
 Actual    scratch disk usage=   310331678 words.
 JobTyp=1 Pass  1:  I=   5 to  16 NPSUse= 28 ParTrn=T ParDer=T DoDerP=T.
 (rs|ai) integrals will be sorted in core.
 Spin components of T(2) and E(2):
     alpha-alpha T2 =       0.3405042120D-01 E2=     -0.1224691373D+00
     alpha-beta  T2 =       0.1869557663D+00 E2=     -0.7004572795D+00
     beta-beta   T2 =       0.3405042120D-01 E2=     -0.1224691373D+00
 The integrals were generated   1 times.
 ANorm=    0.1120293091D+01
 E2 =    -0.9453955541D+00 EUMP2 =    -0.28044655561972D+03
 Leave Link  906 at Mon Feb 21 20:39:49 2022, MaxMem= 16106127360 cpu:            2712.5 elap:              97.0
 (Enter /sw/contrib/gaussian/g16/B01/g16/l1101.exe)
 Using compressed Sx but separate Hx and Fx, NAtomX=     5.
 Will process      6 centers per pass.
 Leave Link 1101 at Mon Feb 21 20:39:49 2022, MaxMem= 16106127360 cpu:               5.2 elap:               0.2
 (Enter /sw/contrib/gaussian/g16/B01/g16/l1102.exe)
 Leave Link 1102 at Mon Feb 21 20:39:49 2022, MaxMem= 16106127360 cpu:               0.5 elap:               0.0
 (Enter /sw/contrib/gaussian/g16/B01/g16/l1110.exe)
 Forming Gx(P) for the SCF density, NAtomX=     5.
 Integral derivatives from FoFJK, PRISM(SPDF).
 Do as many integral derivatives as possible in FoFJK.
 G2DrvN: MDV=   16106126844.
 G2DrvN: will do     6 centers at a time, making    1 passes.
 Calling FoFCou, ICntrl=  3107 FMM=F I1Cent=   0 AccDes= 0.00D+00.
 FoFJK:  IHMeth= 1 ICntrl=    3107 DoSepK=F KAlg= 0 I1Cent=           0 FoldK=F
 IRaf=         0 NMat=       1 IRICut=       1 DoRegI=T DoRafI=F ISym2E= 1 IDoP0=0 IntGTp=1.
 FoFCou: FMM=F IPFlag=           0 FMFlag=      100000 FMFlg1=           0
         NFxFlg=           0 DoJE=F BraDBF=F KetDBF=F FulRan=T
         wScrn=  0.000000 ICntrl=      3107 IOpCl=  0 I1Cent=           0 NGrid=           0
         NMat0=    1 NMatS0=      1 NMatT0=    0 NMatD0=    1 NMtDS0=    0 NMtDT0=    0
 Petite list used in FoFCou.
 End of G2Drv F.D. properties file   721 does not exist.
 End of G2Drv F.D. properties file   722 does not exist.
 End of G2Drv F.D. properties file   788 does not exist.
 Leave Link 1110 at Mon Feb 21 20:39:52 2022, MaxMem= 16106127360 cpu:              83.8 elap:               3.0
 (Enter /sw/contrib/gaussian/g16/B01/g16/l1002.exe)
 Minotr:  Closed shell wavefunction.
          IDoAtm=11111
          Frozen-core window.
          Direct CPHF calculation.
          Differentiating once with respect to electric field.
                with respect to dipole field.
          Differentiating once with respect to nuclear coordinates.
          Requested convergence is 1.0D-08 RMS, and 1.0D-07 maximum.
          Secondary convergence is 1.0D-12 RMS, and 1.0D-12 maximum.
          NewPWx=T KeepS1=T KeepF1=T KeepIn=T MapXYZ=F SortEE=F KeepMc=T.
 Keep R1 ints in memory in symmetry-blocked form, NReq=348888983.
 FoFCou: FMM=F IPFlag=           0 FMFlag=           0 FMFlg1=           0
         NFxFlg=           0 DoJE=F BraDBF=F KetDBF=F FulRan=T
         wScrn=  0.000000 ICntrl=       600 IOpCl=  0 I1Cent=           0 NGrid=           0
         NMat0=    1 NMatS0=  21528 NMatT0=    0 NMatD0=    1 NMtDS0=    0 NMtDT0=    0
 Petite list used in FoFCou.
          MDV=   16106127360 using IRadAn=       1.
          Solving linear equations simultaneously, MaxMat=       0.
          There are    18 degrees of freedom in the 1st order CPHF.  IDoFFX=6 NUNeed=    18.
     15 vectors produced by pass  0 Test12= 1.70D-14 5.56D-09 XBig12= 8.28D+00 1.07D+00.
 AX will form    15 AO Fock derivatives at one time.
     15 vectors produced by pass  1 Test12= 1.70D-14 5.56D-09 XBig12= 1.34D+00 2.67D-01.
     15 vectors produced by pass  2 Test12= 1.70D-14 5.56D-09 XBig12= 1.40D-01 9.67D-02.
     15 vectors produced by pass  3 Test12= 1.70D-14 5.56D-09 XBig12= 4.90D-03 1.10D-02.
     15 vectors produced by pass  4 Test12= 1.70D-14 5.56D-09 XBig12= 9.95D-05 1.95D-03.
     15 vectors produced by pass  5 Test12= 1.70D-14 5.56D-09 XBig12= 1.43D-06 1.88D-04.
     15 vectors produced by pass  6 Test12= 1.70D-14 5.56D-09 XBig12= 1.13D-08 1.44D-05.
     12 vectors produced by pass  7 Test12= 1.70D-14 5.56D-09 XBig12= 8.26D-11 1.32D-06.
      3 vectors produced by pass  8 Test12= 1.70D-14 5.56D-09 XBig12= 5.68D-13 1.21D-07.
      2 vectors produced by pass  9 Test12= 1.70D-14 5.56D-09 XBig12= 3.70D-15 1.07D-08.
 InvSVY:  IOpt=1 It=  1 EMax= 8.88D-16
 Solved reduced A of dimension   122 with    15 vectors.
 FullF1:  Do perturbations      1 to      18.
 Saving first derivative matrices.
 End of Minotr F.D. properties file   721 does not exist.
 End of Minotr F.D. properties file   722 does not exist.
 End of Minotr F.D. properties file   788 does not exist.
 Leave Link 1002 at Mon Feb 21 20:39:55 2022, MaxMem= 16106127360 cpu:              80.3 elap:               2.9
 (Enter /sw/contrib/gaussian/g16/B01/g16/l811.exe)
 MDV= 16106127360.
 Form MO integral derivatives with frozen-active canonical formalism.
 MOERI=1 MOERIx=1 NAtoms=     5 NAtomX=     5.
 Discarding MO integrals.
 MO basis two electron integral derivatives will not be stored on disk.
 IAlg= 3 DoFC=T DoPWx=T Debug=F.
 Frozen-core window:  NFC=   4 NFV=   0.
 Reordered first order wavefunction length =     18678272
 In DefCFB: NBatch=  1 ICI= 16 ICA=191 LFMax= 96
            Large arrays: LIAPS=   619940160 LIARS=   288257200 words.
 In StABat: MaxSiz= 55 MinSiz= 25 NAtomB=  5
 DoIAMN: NPSUse= 28.
 Leave Link  811 at Mon Feb 21 20:41:17 2022, MaxMem= 16106127360 cpu:            2282.2 elap:              81.7
 (Enter /sw/contrib/gaussian/g16/B01/g16/l804.exe)
 Frozen-core window:  NFC=   4 NFV=   0.
 Closed-shell transformation, MDV= 16106127360 ITran=4 ISComp=1.
 Semi-Direct transformation.
 ModeAB=           2 MOrb=            16 LenV=   16104923023
 LASXX=     67341636 LTotXX=    67341636 LenRXX=    67341636
 LTotAB=    68301760 MaxLAS=    99807120 LenRXY=    99807120
 NonZer=   134683272 LenScr=   202817536 LnRSAI=           0
 LnScr1=           0 LExtra=           0 Total=    369966292
 MaxDsk=          -1 SrtSym=           F ITran=            4
 DoSDTr:  NPSUse= 28
 JobTyp=0 Pass  1:  I=   1 to  16.
 (rs|ai) integrals will be sorted in core.
 Complete sort for first half transformation.
 First half transformation complete.
 Begin second half transformation for I=  10.
 Begin second half transformation for I=  10.
 Complete sort for second half transformation.
 Second half transformation complete.
 Spin components of T(2) and E(2):
     alpha-alpha T2 =       0.3405042120D-01 E2=     -0.1224691373D+00
     alpha-beta  T2 =       0.1869557663D+00 E2=     -0.7004572795D+00
     beta-beta   T2 =       0.3405042120D-01 E2=     -0.1224691373D+00
 ANorm=    0.1584333682D+01
 E2 =    -0.9453955541D+00 EUMP2 =    -0.28044655561972D+03
 Leave Link  804 at Mon Feb 21 20:41:33 2022, MaxMem= 16106127360 cpu:             434.1 elap:              15.6
 (Enter /sw/contrib/gaussian/g16/B01/g16/l1002.exe)
 Minotr:  Closed shell wavefunction.
          Computing MP2/KS-MP2 derivatives.
          Using Z-Vector for PSCF gradient.
          Skipping F1 and S1 gradient terms here.
          IDoAtm=11111
          Frozen-core window.
          Using MO integrals in the linear equations.
          Forming densities via direct SCF.
          Differentiating once with respect to electric field.
                with respect to dipole field.
          Differentiating once with respect to nuclear coordinates.
          Using symmetry in CPHF.
          Requested convergence is 1.0D-10 RMS, and 1.0D-09 maximum.
          NewPWx=F KeepS1=T KeepF1=T KeepIn=T MapXYZ=F SortEE=F KeepMc=T.
          MDV=   16106127360 using IRadAn=       5.
          Solving linear equations separately, MaxMat=       0.
          There are     1 degrees of freedom in the 1st order CPHF.  IDoFFX=0 NUNeed=     1.
 FoFJK:  IHMeth= 1 ICntrl=       0 DoSepK=F KAlg= 0 I1Cent=           0 FoldK=F
 IRaf=         0 NMat=       1 IRICut=       1 DoRegI=T DoRafI=F ISym2E= 0 IDoP0=0 IntGTp=1.
 FoFCou: FMM=F IPFlag=           0 FMFlag=      100000 FMFlg1=           0
         NFxFlg=           0 DoJE=F BraDBF=F KetDBF=F FulRan=T
         wScrn=  0.000000 ICntrl=         0 IOpCl=  0 I1Cent=           0 NGrid=           0
         NMat0=    1 NMatS0=      1 NMatT0=    0 NMatD0=    1 NMtDS0=    0 NMtDT0=    0
 Symmetry not used in FoFCou.
 LinEq1:  Iter=  0 NonCon=     1 RMS=5.96D-03 Max=1.32D-01 NDo=     1
 LinEq1:  Iter=  1 NonCon=     1 RMS=1.90D-03 Max=3.82D-02 NDo=     1
 LinEq1:  Iter=  2 NonCon=     1 RMS=8.68D-04 Max=1.44D-02 NDo=     1
 LinEq1:  Iter=  3 NonCon=     1 RMS=3.86D-04 Max=7.75D-03 NDo=     1
 LinEq1:  Iter=  4 NonCon=     1 RMS=1.19D-04 Max=1.92D-03 NDo=     1
 LinEq1:  Iter=  5 NonCon=     1 RMS=4.47D-05 Max=7.15D-04 NDo=     1
 LinEq1:  Iter=  6 NonCon=     1 RMS=2.01D-05 Max=2.34D-04 NDo=     1
 LinEq1:  Iter=  7 NonCon=     1 RMS=8.10D-06 Max=1.59D-04 NDo=     1
 LinEq1:  Iter=  8 NonCon=     1 RMS=3.47D-06 Max=3.38D-05 NDo=     1
 LinEq1:  Iter=  9 NonCon=     1 RMS=9.46D-07 Max=1.31D-05 NDo=     1
 LinEq1:  Iter= 10 NonCon=     1 RMS=1.86D-07 Max=2.04D-06 NDo=     1
 LinEq1:  Iter= 11 NonCon=     1 RMS=3.48D-08 Max=3.52D-07 NDo=     1
 LinEq1:  Iter= 12 NonCon=     1 RMS=8.37D-09 Max=1.28D-07 NDo=     1
 LinEq1:  Iter= 13 NonCon=     1 RMS=1.50D-09 Max=2.52D-08 NDo=     1
 LinEq1:  Iter= 14 NonCon=     1 RMS=2.72D-10 Max=3.83D-09 NDo=     1
 LinEq1:  Iter= 15 NonCon=     0 RMS=4.94D-11 Max=5.55D-10 NDo=     1
 Linear equations converged to 1.000D-10 1.000D-09 after    15 iterations.
 End of Minotr F.D. properties file   721 does not exist.
 End of Minotr F.D. properties file   722 does not exist.
 End of Minotr F.D. properties file   788 does not exist.
 Leave Link 1002 at Mon Feb 21 20:41:35 2022, MaxMem= 16106127360 cpu:              70.9 elap:               2.6
 (Enter /sw/contrib/gaussian/g16/B01/g16/l1102.exe)
 Use density number 2.
 Symmetrizing basis deriv contribution to polar:
 IMax=3 JMax=2 DiffMx= 0.00D+00
 Leave Link 1102 at Mon Feb 21 20:41:35 2022, MaxMem= 16106127360 cpu:               2.1 elap:               0.1
 (Enter /sw/contrib/gaussian/g16/B01/g16/l1110.exe)
 Forming Gx(P) for generalized density number  2 NAtomX=     5.
 Integral derivatives from FoFJK, PRISM(SPDF).
 Do as many integral derivatives as possible in FoFJK.
 G2DrvN: MDV=   16106126844.
 G2DrvN: will do     6 centers at a time, making    1 passes.
 Calling FoFCou, ICntrl=  3107 FMM=F I1Cent=   0 AccDes= 0.00D+00.
 FoFJK:  IHMeth= 1 ICntrl=    3107 DoSepK=F KAlg= 0 I1Cent=           0 FoldK=F
 IRaf=         0 NMat=       1 IRICut=       1 DoRegI=T DoRafI=F ISym2E= 1 IDoP0=0 IntGTp=1.
 FoFCou: FMM=F IPFlag=           0 FMFlag=      100000 FMFlg1=           0
         NFxFlg=           0 DoJE=F BraDBF=F KetDBF=F FulRan=T
         wScrn=  0.000000 ICntrl=      3107 IOpCl=  0 I1Cent=           0 NGrid=           0
         NMat0=    1 NMatS0=      1 NMatT0=    0 NMatD0=    1 NMtDS0=    0 NMtDT0=    0
 Petite list used in FoFCou.
 End of G2Drv F.D. properties file   721 does not exist.
 End of G2Drv F.D. properties file   722 does not exist.
 End of G2Drv F.D. properties file   788 does not exist.
 Leave Link 1110 at Mon Feb 21 20:41:38 2022, MaxMem= 16106127360 cpu:              83.5 elap:               3.0
 (Enter /sw/contrib/gaussian/g16/B01/g16/l1112.exe)
 MP22nd: MDV=   16106127360
 This link is doing NAtomX=     5 total of    18 degrees of freedom.
 Using ON3 I/O method in MakUI.
 Frozen-core window:  NFC=   4 NFV=   0.
 Using Ix for Sx.
 Use MO integrals over full window.
 Using OV2 memory method for fx*t*t/D, MaxI=    16 DoOO2=F NP=  28.
 R2 and R3 integrals will be kept in memory, NReq=   915591705.
 FoFCou: FMM=F IPFlag=           0 FMFlag=           0 FMFlg1=           0
         NFxFlg=           0 DoJE=F BraDBF=F KetDBF=F FulRan=T
         wScrn=  0.000000 ICntrl=       600 IOpCl=  0 I1Cent=           0 NGrid=           0
         NMat0=    1 NMatS0=      1 NMatT0=    0 NMatD0=    1 NMtDS0=    0 NMtDT0=    0
 Symmetry not used in FoFCou.
 DD1Dir will call FoFMem   1 times, MxPair=       272
 NAB=   136 NAA=     0 NBB=     0.
 Symmetry is being used.
 FoFJK:  IHMeth= 1 ICntrl=       0 DoSepK=F KAlg= 0 I1Cent=           0 FoldK=F
 IRaf=         0 NMat=      18 IRICut=      45 DoRegI=T DoRafI=T ISym2E= 2 IDoP0=3 IntGTp=3.
 Discarding MO integrals.
 Leave Link 1112 at Mon Feb 21 20:42:14 2022, MaxMem= 16106127360 cpu:             989.6 elap:              35.8
 (Enter /sw/contrib/gaussian/g16/B01/g16/l601.exe)
 Copying SCF densities to generalized density rwf, IOpCl= 0 IROHF=0.

 **********************************************************************

            Population analysis using the MP2 Density.

 **********************************************************************

 Orbital symmetries:
       Occupied  (A') (A') (A') (A') (A') (A') (A') (A') (A') (A')
                 (A") (A') (A") (A') (A") (A')
       Virtual   (A') (A") (A') (A') (A") (A') (A') (A') (A") (A')
                 (A") (A') (A') (A') (A") (A') (A') (A") (A') (A')
                 (A') (A') (A') (A') (A") (A') (A') (A") (A') (A')
                 (A") (A') (A") (A') (A") (A') (A') (A') (A") (A')
                 (A") (A') (A") (A') (A') (A") (A') (A') (A") (A')
                 (A") (A') (A') (A') (A") (A') (A") (A') (A") (A')
                 (A') (A') (A") (A') (A') (A") (A') (A") (A') (A')
                 (A") (A') (A') (A") (A") (A') (A') (A") (A') (A')
                 (A') (A") (A') (A") (A') (A") (A') (A") (A') (A')
                 (A") (A') (A') (A") (A') (A") (A') (A") (A') (A')
                 (A") (A') (A") (A') (A') (A") (A') (A') (A") (A')
                 (A") (A') (A') (A') (A") (A') (A') (A') (A") (A')
                 (A") (A') (A") (A') (A') (A") (A") (A') (A") (A')
                 (A') (A') (A') (A") (A") (A") (A') (A') (A') (A')
                 (A") (A') (A") (A') (A') (A") (A') (A') (A') (A')
                 (A") (A') (A') (A") (A') (A") (A') (A") (A") (A')
                 (A') (A") (A') (A') (A") (A") (A") (A') (A") (A')
                 (A") (A') (A") (A') (A") (A') (A") (A") (A') (A')
                 (A') (A') (A') (A') (A') (A') (A') (A') (A') (A')
                 (A')
 The electronic state is 1-A'.
 Alpha  occ. eigenvalues --  -20.69064 -20.68427 -20.66087 -15.81279  -1.62415
 Alpha  occ. eigenvalues --   -1.49723  -1.25405  -0.94821  -0.77401  -0.75766
 Alpha  occ. eigenvalues --   -0.71207  -0.67869  -0.62088  -0.59159  -0.48552
 Alpha  occ. eigenvalues --   -0.47254
 Alpha virt. eigenvalues --    0.02990   0.07157   0.08592   0.10163   0.13383
 Alpha virt. eigenvalues --    0.13409   0.14413   0.15466   0.17818   0.19393
 Alpha virt. eigenvalues --    0.19960   0.20641   0.22068   0.23531   0.23735
 Alpha virt. eigenvalues --    0.26503   0.29344   0.30369   0.31116   0.34322
 Alpha virt. eigenvalues --    0.35009   0.38731   0.42386   0.43097   0.52772
 Alpha virt. eigenvalues --    0.52943   0.55800   0.58103   0.62614   0.63807
 Alpha virt. eigenvalues --    0.67467   0.68490   0.70652   0.70967   0.72826
 Alpha virt. eigenvalues --    0.72879   0.74438   0.79376   0.79497   0.81206
 Alpha virt. eigenvalues --    0.81207   0.82912   0.86761   0.90861   0.92071
 Alpha virt. eigenvalues --    0.92771   0.95433   0.97618   0.98639   1.01765
 Alpha virt. eigenvalues --    1.05146   1.05438   1.08272   1.11729   1.14440
 Alpha virt. eigenvalues --    1.19036   1.22098   1.23613   1.33964   1.35191
 Alpha virt. eigenvalues --    1.38564   1.45776   1.48696   1.50548   1.53711
 Alpha virt. eigenvalues --    1.56643   1.57950   1.60989   1.66197   1.67100
 Alpha virt. eigenvalues --    1.70310   1.79841   1.83052   1.83634   1.87715
 Alpha virt. eigenvalues --    1.91139   1.95460   1.99446   2.00346   2.07938
 Alpha virt. eigenvalues --    2.12764   2.13209   2.14965   2.22704   2.26213
 Alpha virt. eigenvalues --    2.26403   2.29128   2.31364   2.34217   2.38667
 Alpha virt. eigenvalues --    2.42832   2.43481   2.45308   2.46237   2.48048
 Alpha virt. eigenvalues --    2.49904   2.59097   2.59955   2.61916   2.62681
 Alpha virt. eigenvalues --    2.63527   2.66502   2.75801   2.82745   2.84438
 Alpha virt. eigenvalues --    2.87827   2.89170   2.92890   2.95300   3.02408
 Alpha virt. eigenvalues --    3.06934   3.11990   3.20953   3.22317   3.31373
 Alpha virt. eigenvalues --    3.34308   3.51900   3.63748   3.83683   3.84018
 Alpha virt. eigenvalues --    4.14574   4.17358   4.18335   4.25879   4.34403
 Alpha virt. eigenvalues --    4.39688   4.46128   4.52926   4.65826   4.73583
 Alpha virt. eigenvalues --    4.80202   4.82364   4.82838   4.89554   5.02515
 Alpha virt. eigenvalues --    5.07686   5.10156   5.13507   5.17270   5.25242
 Alpha virt. eigenvalues --    5.26971   5.30629   5.32839   5.35861   5.60108
 Alpha virt. eigenvalues --    5.67348   5.76396   5.84477   5.95824   6.17604
 Alpha virt. eigenvalues --    6.31197   6.33087   6.39349   6.49385   6.50518
 Alpha virt. eigenvalues --    6.61533   6.66783   6.70350   6.76058   6.76221
 Alpha virt. eigenvalues --    6.83513   6.89934   7.02709   7.04778   7.05677
 Alpha virt. eigenvalues --    7.08892   7.12548   7.14055   7.18237   7.22735
 Alpha virt. eigenvalues --    7.24150   7.30164   7.32425   7.35097   7.39982
 Alpha virt. eigenvalues --    7.45280   7.48485   7.60692   7.62130   7.62634
 Alpha virt. eigenvalues --    7.66736   7.79843   7.88713   8.09436   8.31953
 Alpha virt. eigenvalues --    8.39136   8.54234  13.38928  14.38774  15.18974
 Alpha virt. eigenvalues --   16.15445
          Condensed to atoms (all electrons):
               1          2          3          4          5
     1  H    0.585722   0.130051   0.019078   0.011997  -0.000514
     2  O    0.130051   8.322849  -0.177280  -0.089037   0.015363
     3  O    0.019078  -0.177280   8.477370  -0.131679  -0.038425
     4  N    0.011997  -0.089037  -0.131679   6.973246  -0.055324
     5  O   -0.000514   0.015363  -0.038425  -0.055324   8.272355
 Mulliken charges:
               1
     1  H    0.253667
     2  O   -0.201945
     3  O   -0.149063
     4  N    0.290797
     5  O   -0.193455
 Sum of Mulliken charges =  -0.00000
 Mulliken charges with hydrogens summed into heavy atoms:
               1
     2  O    0.051721
     3  O   -0.149063
     4  N    0.290797
     5  O   -0.193455
 APT charges:
               1
     1  H    0.300017
     2  O   -0.285717
     3  O   -0.497290
     4  N    0.875028
     5  O   -0.392037
 Sum of APT charges =  -0.00000
 APT charges with hydrogens summed into heavy atoms:
               1
     2  O    0.014299
     3  O   -0.497290
     4  N    0.875028
     5  O   -0.392037
 Electronic spatial extent (au):  <R**2>=            252.6253
 Charge=             -0.0000 electrons
 Dipole moment (field-independent basis, Debye):
    X=              0.4534    Y=              1.3556    Z=             -0.0000  Tot=              1.4294
 Quadrupole moment (field-independent basis, Debye-Ang):
   XX=            -22.6635   YY=            -18.5943   ZZ=            -22.0063
   XY=              3.1146   XZ=              0.0000   YZ=              0.0000
 Traceless Quadrupole moment (field-independent basis, Debye-Ang):
   XX=             -1.5755   YY=              2.4937   ZZ=             -0.9183
   XY=              3.1146   XZ=              0.0000   YZ=              0.0000
 Octapole moment (field-independent basis, Debye-Ang**2):
  XXX=              2.3647  YYY=             11.3943  ZZZ=              0.0000  XYY=              7.6966
  XXY=              6.1618  XXZ=              0.0000  XZZ=             -1.5744  YZZ=             -0.8555
  YYZ=             -0.0000  XYZ=             -0.0000
 Hexadecapole moment (field-independent basis, Debye-Ang**3):
 XXXX=           -158.7500 YYYY=            -89.8521 ZZZZ=            -18.2299 XXXY=            -37.6461
 XXXZ=              0.0000 YYYX=            -31.0306 YYYZ=              0.0000 ZZZX=              0.0000
 ZZZY=              0.0000 XXYY=            -34.6293 XXZZ=            -30.7386 YYZZ=            -20.7247
 XXYZ=              0.0000 YYXZ=              0.0000 ZZXY=            -15.0460
 N-N= 1.169271719984D+02 E-N=-8.959646550608D+02  KE= 2.802064376985D+02
 Symmetry A'   KE= 2.662336479320D+02
 Symmetry A"   KE= 1.397278976651D+01
  Exact polarizability:  33.872   9.396  30.250  -0.000  -0.000  17.906
 Approx polarizability:  28.994   5.045  23.544  -0.000   0.000  15.510
 No NMR shielding tensors so no spin-rotation constants.
 Leave Link  601 at Mon Feb 21 20:42:14 2022, MaxMem= 16106127360 cpu:               4.6 elap:               0.2
 (Enter /sw/contrib/gaussian/g16/B01/g16/l701.exe)
 ... and contract with generalized density number  2.
 Compute integral second derivatives.
 Leave Link  701 at Mon Feb 21 20:42:15 2022, MaxMem= 16106127360 cpu:               6.1 elap:               0.2
 (Enter /sw/contrib/gaussian/g16/B01/g16/l702.exe)
 L702 exits ... SP integral derivatives will be done elsewhere.
 Leave Link  702 at Mon Feb 21 20:42:15 2022, MaxMem= 16106127360 cpu:               0.5 elap:               0.0
 (Enter /sw/contrib/gaussian/g16/B01/g16/l703.exe)
 Integral derivatives from FoFJK, PRISM(SPDF).
 Compute integral second derivatives, UseDBF=F ICtDFT=           0.
 Calling FoFJK, ICntrl=  10100127 FMM=F ISym2X=1 I1Cent= 0 IOpClX= 0 NMat=1 NMatS=1 NMatT=0.
 FoFJK:  IHMeth= 1 ICntrl=10100127 DoSepK=F KAlg= 0 I1Cent=           0 FoldK=F
 IRaf=         0 NMat=       1 IRICut=       1 DoRegI=T DoRafI=F ISym2E= 1 IDoP0=0 IntGTp=1.
 FoFCou: FMM=F IPFlag=           0 FMFlag=      100000 FMFlg1=         800
         NFxFlg=           0 DoJE=F BraDBF=F KetDBF=F FulRan=T
         wScrn=  0.000000 ICntrl=  10100127 IOpCl=  0 I1Cent=           0 NGrid=           0
         NMat0=    1 NMatS0=      1 NMatT0=    0 NMatD0=    1 NMtDS0=    0 NMtDT0=    0
 Petite list used in FoFCou.
 Leave Link  703 at Mon Feb 21 20:42:30 2022, MaxMem= 16106127360 cpu:             422.3 elap:              15.1
 (Enter /sw/contrib/gaussian/g16/B01/g16/l716.exe)
 Dipole        = 1.78399965D-01 5.33338687D-01-3.43241364D-34
 Polarizability= 3.38719737D+01 9.39592876D+00 3.02502158D+01
                -4.09185174D-31-1.66043246D-31 1.79063457D+01
 Full mass-weighted force constant matrix:
 Low frequencies --- -259.3532  -29.4164  -25.2147   -0.0013   -0.0006    0.0008
 Low frequencies ---   89.9303  225.4902  337.3126
 ******    1 imaginary frequencies (negative Signs) ****** 
 Diagonal vibrational polarizability:
       13.9318915      25.0621815      51.2663967
 Harmonic frequencies (cm**-1), IR intensities (KM/Mole), Raman scattering
 activities (A**4/AMU), depolarization ratios for plane and unpolarized
 incident light, reduced masses (AMU), force constants (mDyne/A),
 and normal coordinates:
                      1                      2                      3
                     A"                     A"                     A'
 Frequencies --   -254.4103               225.3676               337.3009
 Red. masses --      1.1130                13.5984                 8.7348
 Frc consts  --      0.0424                 0.4069                 0.5855
 IR Inten    --    123.2759                 0.0202                 5.6176
  Atom  AN      X      Y      Z        X      Y      Z        X      Y      Z
     1   1    -0.00   0.00   1.00     0.00  -0.00  -0.33     0.55  -0.42   0.00
     2   8    -0.00   0.00  -0.05    -0.00  -0.00  -0.37    -0.09  -0.38   0.00
     3   8     0.00  -0.00  -0.05    -0.00   0.00   0.36    -0.15   0.44  -0.00
     4   7    -0.00  -0.00   0.04     0.00   0.00   0.61     0.04   0.25  -0.00
     5   8    -0.00   0.00   0.01     0.00  -0.00  -0.50     0.16  -0.26   0.00
                      4                      5                      6
                     A'                     A'                     A'
 Frequencies --    453.2137               787.4448               970.3666
 Red. masses --     12.5375                12.9152                15.8107
 Frc consts  --      1.5173                 4.7184                 8.7715
 IR Inten    --    197.6175               169.1707                24.3148
  Atom  AN      X      Y      Z        X      Y      Z        X      Y      Z
     1   1     0.38   0.21  -0.00    -0.35   0.16  -0.00    -0.04  -0.03   0.00
     2   8     0.33   0.21  -0.00     0.42   0.08   0.00    -0.53   0.03   0.00
     3   8     0.18   0.43   0.00    -0.05  -0.27  -0.00     0.76  -0.02  -0.00
     4   7    -0.35  -0.41   0.00    -0.14   0.62  -0.00    -0.12   0.24  -0.00
     5   8    -0.22  -0.30  -0.00    -0.21  -0.37   0.00    -0.12  -0.22   0.00
                      7                      8                      9
                     A'                     A'                     A'
 Frequencies --   1385.5563              1677.8711              3777.8737
 Red. masses --      1.1292                12.9121                 1.0669
 Frc consts  --      1.2772                21.4172                 8.9715
 IR Inten    --    162.5917               136.7770                79.7883
  Atom  AN      X      Y      Z        X      Y      Z        X      Y      Z
     1   1     1.00  -0.02  -0.00    -0.38  -0.00   0.00     0.07   1.00   0.00
     2   8    -0.03   0.05  -0.00    -0.00  -0.04   0.00    -0.01  -0.06  -0.00
     3   8    -0.03  -0.05   0.00     0.00   0.15  -0.00     0.00   0.00  -0.00
     4   7     0.02   0.01   0.00     0.70  -0.05  -0.00    -0.00  -0.00   0.00
     5   8    -0.03  -0.01  -0.00    -0.59  -0.07   0.00     0.00   0.00   0.00

 -------------------
 - Thermochemistry -
 -------------------
 Temperature   298.150 Kelvin.  Pressure   1.00000 Atm.
 Atom     1 has atomic number  1 and mass   1.00783
 Atom     2 has atomic number  8 and mass  15.99491
 Atom     3 has atomic number  8 and mass  15.99491
 Atom     4 has atomic number  7 and mass  14.00307
 Atom     5 has atomic number  8 and mass  15.99491
 Molecular mass:    62.99564 amu.
 Principal axes and moments of inertia in atomic units:
                           1         2         3
     Eigenvalues --    32.92889 359.65304 392.58193
           X            0.80879  -0.58810   0.00000
           Y            0.58810   0.80879   0.00000
           Z           -0.00000   0.00000   1.00000
 This molecule is an asymmetric top.
 Rotational symmetry number  1.
 Rotational temperatures (Kelvin)      2.63033     0.24083     0.22063
 Rotational constants (GHZ):          54.80723     5.01801     4.59711
    1 imaginary frequencies ignored.
 Zero-point vibrational energy      57510.4 (Joules/Mol)
                                   13.74532 (Kcal/Mol)
 Warning -- explicit consideration of   3 degrees of freedom as
           vibrations may cause significant error
 Vibrational temperatures:    324.25   485.30   652.07  1132.96  1396.14
          (Kelvin)           1993.51  2414.08  5435.52
 
 Zero-point correction=                           0.021905 (Hartree/Particle)
 Thermal correction to Energy=                    0.026029
 Thermal correction to Enthalpy=                  0.026974
 Thermal correction to Gibbs Free Energy=        -0.004229
 Sum of electronic and zero-point Energies=           -280.424651
 Sum of electronic and thermal Energies=              -280.420526
 Sum of electronic and thermal Enthalpies=            -280.419582
 Sum of electronic and thermal Free Energies=         -280.450785
 
                     E (Thermal)             CV                S
                      KCal/Mol        Cal/Mol-Kelvin    Cal/Mol-Kelvin
 Total                   16.334             11.952             65.672
 Electronic               0.000              0.000              0.000
 Translational            0.889              2.981             38.341
 Rotational               0.889              2.981             23.057
 Vibrational             14.556              5.990              4.274
 Vibration     1          0.650              1.802              1.916
 Vibration     2          0.718              1.601              1.225
 Vibration     3          0.812              1.354              0.786
                       Q            Log10(Q)             Ln(Q)
 Total Bot       0.881607D+02          1.945275          4.479161
 Total V=0       0.104874D+13         12.020669         27.678612
 Vib (Bot)       0.183787D-09         -9.735686        -22.417245
 Vib (Bot)    1  0.875697D+00         -0.057646         -0.132735
 Vib (Bot)    2  0.551438D+00         -0.258503         -0.595225
 Vib (Bot)    3  0.377392D+00         -0.423208         -0.974472
 Vib (V=0)       0.218629D+01          0.339708          0.782206
 Vib (V=0)    1  0.150839D+01          0.178513          0.411041
 Vib (V=0)    2  0.124437D+01          0.094949          0.218628
 Vib (V=0)    3  0.112644D+01          0.051707          0.119060
 Electronic      0.100000D+01          0.000000          0.000000
 Translational   0.196526D+08          7.293420         16.793719
 Rotational      0.244085D+05          4.387541         10.102687
 
                                                                title
                                                             IR Spectrum
 
     3                                                                      1         1                                              
     7                                                                      6         3             9     7          4   3   2       
     7                                                                      7         8             7     8          5   3   2       
     8                                                                      8         6             0     7          3   7   5       
 
     X                                                                      X         X             X     X          X   X           
     X                                                                      X         X             X     X          X               
     X                                                                      X         X                   X          X               
     X                                                                      X         X                   X          X               
     X                                                                      X         X                   X          X               
     X                                                                      X         X                   X          X               
     X                                                                      X         X                   X          X               
     X                                                                      X         X                   X          X               
                                                                            X         X                   X          X               
                                                                            X         X                   X          X               
                                                                            X         X                   X          X               
                                                                            X         X                   X          X               
                                                                            X         X                   X          X               
                                                                            X         X                   X          X               
                                                                                      X                   X          X               
                                                                                      X                   X          X               
                                                                                                          X          X               
                                                                                                                     X               
                                                                                                                     X               
                                                                                                                     X               
 
 ***** Axes restored to original set *****
 -------------------------------------------------------------------
 Center     Atomic                   Forces (Hartrees/Bohr)
 Number     Number              X              Y              Z
 -------------------------------------------------------------------
      1        1          -0.004864795   -0.000000000   -0.000442849
      2        8           0.002636537   -0.000000000   -0.003469463
      3        8           0.001479938    0.000000000    0.003970268
      4        7           0.000272646   -0.000000000   -0.000539757
      5        8           0.000475673    0.000000000    0.000481801
 -------------------------------------------------------------------
 Cartesian Forces:  Max     0.004864795 RMS     0.002026954
 -----------------------------------------------------------------------------------------------
                       Internal Coordinate Forces (Hartree/Bohr or radian)
  Cent   Atom   N1       Length/X         N2         Alpha/Y        N3         Beta/Z          J
 -----------------------------------------------------------------------------------------------
      1  H 
      2  O        1   0.000443(     1)
      3  O        2   0.002577(     2)      1   0.008908(     5)
      4  N        3   0.000034(     3)      2   0.001243(     6)      1  -0.000000(     8)     0
      5  O        4   0.000566(     4)      3   0.000823(     7)      2   0.000000(     9)     0
 -----------------------------------------------------------------------------------------------
 Internal  Forces:  Max     0.008907928 RMS     0.003139912
 Force constants in Cartesian coordinates: 
                1             2             3             4             5 
      1  0.664829D-01
      2  0.000000D+00 -0.214863D-02
      3  0.918350D-02  0.000000D+00  0.512262D+00
      4 -0.317418D-01  0.000000D+00 -0.189830D-01  0.272919D+00
      5  0.000000D+00  0.903051D-03  0.000000D+00  0.000000D+00  0.533060D-02
      6  0.450206D-01  0.000000D+00 -0.506909D+00  0.324973D-01  0.000000D+00
      7 -0.240125D-01  0.000000D+00  0.116751D-01 -0.222125D+00  0.000000D+00
      8  0.000000D+00  0.279004D-02  0.000000D+00  0.000000D+00 -0.759193D-02
      9 -0.534420D-01  0.000000D+00 -0.196108D-02 -0.172026D-01  0.000000D+00
     10 -0.959904D-02  0.000000D+00 -0.521795D-02 -0.181818D-01  0.000000D+00
     11  0.000000D+00 -0.245836D-02  0.000000D+00  0.000000D+00 -0.509812D-02
     12  0.483962D-02  0.000000D+00 -0.465108D-02  0.141976D-01  0.000000D+00
     13 -0.112961D-02  0.000000D+00  0.334236D-02 -0.870602D-03  0.000000D+00
     14  0.000000D+00  0.913894D-03  0.000000D+00  0.000000D+00  0.645640D-02
     15 -0.560175D-02  0.000000D+00  0.125906D-02 -0.105093D-01  0.000000D+00
                6             7             8             9            10 
      6  0.586868D+00
      7 -0.177475D-01  0.348970D+00
      8  0.000000D+00  0.000000D+00  0.365887D-02
      9 -0.739512D-01  0.344521D-01  0.000000D+00  0.177913D+00
     10 -0.512238D-01 -0.689817D-01  0.000000D+00  0.174146D+00  0.826356D+00
     11  0.000000D+00  0.000000D+00  0.808142D-02  0.000000D+00  0.000000D+00
     12  0.175903D-01  0.613404D-01  0.000000D+00 -0.910433D-01 -0.428294D-01
     13 -0.854669D-02 -0.338514D-01  0.000000D+00 -0.137953D+00 -0.729593D+00
     14  0.000000D+00  0.000000D+00 -0.693840D-02  0.000000D+00  0.000000D+00
     15 -0.235986D-01 -0.897200D-01  0.000000D+00 -0.109577D-01 -0.748750D-01
               11            12            13            14            15 
     11  0.907993D-02
     12  0.000000D+00  0.189998D+00
     13  0.000000D+00 -0.375482D-01  0.765445D+00
     14 -0.960487D-02  0.000000D+00  0.000000D+00  0.917297D-02
     15  0.000000D+00 -0.111894D+00  0.180706D+00  0.000000D+00  0.145191D+00
 Force constants in internal coordinates: 
                1             2             3             4             5 
      1  0.512262D+00
      2 -0.926907D-02  0.286655D+00
      3  0.359663D-02  0.229393D-02  0.117924D+00
      4 -0.353126D-02  0.617917D-02  0.152852D+00  0.812156D+00
      5  0.119511D-01  0.724218D-01  0.379702D-02  0.415873D-02  0.223724D+00
      6  0.516815D-02  0.592502D-01  0.422778D-01  0.211776D-01  0.320302D-01
      7 -0.118485D-02  0.379988D-01  0.321499D-01  0.853053D-01  0.212442D-01
      8  0.000000D+00  0.000000D+00  0.000000D+00  0.000000D+00  0.000000D+00
      9  0.000000D+00  0.000000D+00  0.000000D+00  0.000000D+00  0.000000D+00
                6             7             8             9 
      6  0.283032D+00
      7  0.960102D-01  0.483264D+00
      8  0.000000D+00  0.000000D+00 -0.715013D-02
      9  0.000000D+00  0.000000D+00 -0.348360D-02  0.409682D-01
 Leave Link  716 at Mon Feb 21 20:42:30 2022, MaxMem= 16106127360 cpu:               0.8 elap:               0.1
 (Enter /sw/contrib/gaussian/g16/B01/g16/l103.exe)

 GradGradGradGradGradGradGradGradGradGradGradGradGradGradGradGradGradGrad
 Berny optimization.
 Search for a local minimum.
 Step number   1 out of a maximum of    2
 All quantities printed in internal units (Hartrees-Bohrs-Radians)
 Second derivative matrix not updated -- analytic derivatives used.
 The second derivative matrix:
                          r1        r2        r3        r4        a1
           r1           0.51226
           r2          -0.00927   0.28666
           r3           0.00360   0.00229   0.11792
           r4          -0.00353   0.00618   0.15285   0.81216
           a1           0.01195   0.07242   0.00380   0.00416   0.22372
           a2           0.00517   0.05925   0.04228   0.02118   0.03203
           a3          -0.00118   0.03800   0.03215   0.08531   0.02124
           d1           0.00000  -0.00000  -0.00000  -0.00000  -0.00000
           d2          -0.00000   0.00000   0.00000   0.00000   0.00000
                          a2        a3        d1        d2
           a2           0.28303
           a3           0.09601   0.48326
           d1          -0.00000  -0.00000  -0.00715
           d2          -0.00000  -0.00000  -0.00348   0.04097
 ITU=  0
     Eigenvalues ---   -0.00740   0.04122   0.07849   0.17527   0.22809
     Eigenvalues ---    0.33375   0.51272   0.51941   0.87130
 Eigenvalue     1 is  -7.40D-03 should be greater than     0.000000 Eigenvector:
                          d1        d2        a3        a2        r3
   1                    0.99742   0.07183   0.00000   0.00000  -0.00000
                          r4        a1        r2        r1
   1                    0.00000  -0.00000   0.00000  -0.00000
 Angle between quadratic step and forces=  20.42 degrees.
 Linear search not attempted -- first point.
 Variable       Old X    -DE/DX   Delta X   Delta X   Delta X     New X
                                 (Linear)    (Quad)   (Total)
    r1        1.83110   0.00044   0.00000  -0.00008  -0.00008   1.83102
    r2        2.74940   0.00258   0.00000  -0.00125  -0.00125   2.74815
    r3        2.75670   0.00003   0.00000  -0.00231  -0.00231   2.75439
    r4        2.21236   0.00057   0.00000   0.00093   0.00093   2.21329
    a1        1.66235   0.00891   0.00000   0.04019   0.04019   1.70254
    a2        1.78543   0.00124   0.00000   0.00040   0.00040   1.78583
    a3        1.90362   0.00082   0.00000  -0.00006  -0.00006   1.90357
    d1        3.14159  -0.00000   0.00000  -0.00000   0.00000   3.14159
    d2        3.14159   0.00000   0.00000  -0.00000   0.00000   3.14159
         Item               Value     Threshold  Converged?
 Maximum Force            0.008908     0.000450     NO 
 RMS     Force            0.003140     0.000300     NO 
 Maximum Displacement     0.040194     0.001800     NO 
 RMS     Displacement     0.013431     0.001200     NO 
 Predicted change in Energy=-1.778495D-04
                       ----------------------------
                       ! Non-Optimized Parameters !
                       ! (Angstroms and Degrees)  !
 ----------------------                            ----------------------
 !      Name          Value   Derivative information (Atomic Units)     !
 ------------------------------------------------------------------------
 !       r1          0.9689   -DE/DX =    0.0004                        !
 !       r2          1.4543   -DE/DX =    0.0026                        !
 !       r3          1.4576   -DE/DX =    0.0                           !
 !       r4          1.1712   -DE/DX =    0.0006                        !
 !       a1         97.5483   -DE/DX =    0.0089                        !
 !       a2        102.3205   -DE/DX =    0.0012                        !
 !       a3        109.0664   -DE/DX =    0.0008                        !
 !       d1        180.0      -DE/DX =    0.0                           !
 !       d2        180.0      -DE/DX =    0.0                           !
 ------------------------------------------------------------------------
 GradGradGradGradGradGradGradGradGradGradGradGradGradGradGradGradGradGrad

 Leave Link  103 at Mon Feb 21 20:42:30 2022, MaxMem= 16106127360 cpu:               0.6 elap:               0.0
 (Enter /sw/contrib/gaussian/g16/B01/g16/l9999.exe)

 ----------------------------------------------------------------------

 Electric dipole moment (input orientation):
 (Debye = 10**-18 statcoulomb cm , SI units = C m)
                  (au)            (Debye)         (10**-30 SI)
   Tot        0.562385D+00      0.142944D+01      0.476810D+01
   x         -0.148593D+00     -0.377686D+00     -0.125983D+01
   y          0.000000D+00      0.000000D+00      0.000000D+00
   z         -0.542399D+00     -0.137864D+01     -0.459865D+01

 Dipole polarizability, Alpha (input orientation).
 (esu units = cm**3 , SI units = C**2 m**2 J**-1)
 Alpha(0;0):
               (au)            (10**-24 esu)      (10**-40 SI)
   iso        0.273428D+02      0.405179D+01      0.450823D+01
   aniso      0.217955D+02      0.322976D+01      0.359360D+01
   xx         0.328219D+02      0.486370D+01      0.541160D+01
   yx         0.000000D+00      0.000000D+00      0.000000D+00
   yy         0.179063D+02      0.265345D+01      0.295236D+01
   zx         0.953855D+01      0.141347D+01      0.157269D+01
   zy         0.000000D+00      0.000000D+00      0.000000D+00
   zz         0.313003D+02      0.463823D+01      0.516072D+01

 ----------------------------------------------------------------------

 Dipole orientation:
     1          0.00000000          0.00000000         -0.00000000
     8         -0.48381277          0.00000000         -1.76602567
     8          2.09036262          0.00000000         -2.73184971
     7          1.69391824          0.00000000         -5.45989658
     8          3.65918348          0.00000000         -6.47589636

 Electric dipole moment (dipole orientation):
 (Debye = 10**-18 statcoulomb cm , SI units = C m)
                  (au)            (Debye)         (10**-30 SI)
   Tot        0.562385D+00      0.142944D+01      0.476810D+01
   x          0.000000D+00      0.000000D+00      0.000000D+00
   y          0.000000D+00      0.000000D+00      0.000000D+00
   z          0.562385D+00      0.142944D+01      0.476810D+01

 Dipole polarizability, Alpha (dipole orientation).
 (esu units = cm**3 , SI units = C**2 m**2 J**-1)
 Alpha(0;0):
               (au)            (10**-24 esu)      (10**-40 SI)
   iso        0.273428D+02      0.405179D+01      0.450823D+01
   aniso      0.217955D+02      0.322976D+01      0.359360D+01
   xx         0.278542D+02      0.412757D+01      0.459254D+01
   yx         0.000000D+00      0.000000D+00      0.000000D+00
   yy         0.179063D+02      0.265345D+01      0.295236D+01
   zx        -0.859448D+01     -0.127357D+01     -0.141704D+01
   zy         0.000000D+00      0.000000D+00      0.000000D+00
   zz         0.362679D+02      0.537436D+01      0.597978D+01

 ----------------------------------------------------------------------
 1\1\GINC-N2126\Freq\RMP2-FC\Aug-CC-pVTZ\H1N1O3\CGAVINH\21-Feb-2022\1\\
 #p freq mp2/aug-cc-pvtz density=current\\title\\0,1\H\O,1,r1\O,2,r2,1,
 a1\N,3,r3,2,a2,1,d1,0\O,4,r4,3,a3,2,d2,0\\r1=0.96897556\r2=1.45491931\
 r3=1.45878406\r4=1.17072885\a1=95.2453546\a2=102.29752444\a3=109.06955
 123\d1=180.\d2=180.\\Version=ES64L-G16RevB.01\State=1-A'\HF=-279.50116
 01\MP2=-280.4465556\RMSD=3.768e-09\RMSF=2.027e-03\ZeroPoint=0.0219046\
 Thermal=0.0260294\Dipole=-0.1485933,0.,-0.5423991\DipoleDeriv=0.275771
 6,0.,0.0567886,0.,0.3527636,0.,0.0776797,0.,0.2715153,-0.3445501,0.,-0
 .208848,0.,-0.3093734,0.,-0.0932066,0.,-0.2032286,-0.0722385,0.,0.0959
 215,0.,-0.0887369,0.,-0.8099695,0.,-1.3308954,0.9698872,0.,0.9355891,0
 .,0.066209,0.,0.9471203,0.,1.5889882,-0.8288701,0.,-0.8794512,0.,-0.02
 08623,0.,-0.1216239,0.,-0.3263796\Polar=32.8218902,0.,17.9063457,9.538
 5507,0.,31.3002994\Quadrupole=-1.4181115,-0.6827127,2.1008242,0.,2.134
 1924,0.\PG=CS [SG(H1N1O3)]\NImag=1\\0.06648290,0.,-0.00214863,0.009183
 50,0.,0.51226196,-0.03174178,0.,-0.01898300,0.27291881,0.,0.00090305,0
 .,0.,0.00533060,0.04502064,0.,-0.50690886,0.03249728,0.,0.58686834,-0.
 02401247,0.,0.01167508,-0.22212465,0.,-0.01774748,0.34897022,0.,0.0027
 9004,0.,0.,-0.00759193,0.,0.,0.00365887,-0.05344202,0.,-0.00196108,-0.
 01720257,0.,-0.07395116,0.03445206,0.,0.17791327,-0.00959904,0.,-0.005
 21795,-0.01818178,0.,-0.05122375,-0.06898172,0.,0.17414602,0.82635560,
 0.,-0.00245836,0.,0.,-0.00509812,0.,0.,0.00808142,0.,0.,0.00907993,0.0
 0483962,0.,-0.00465108,0.01419756,0.,0.01759025,0.06134036,0.,-0.09104
 330,-0.04282937,0.,0.18999836,-0.00112961,0.,0.00334236,-0.00087060,0.
 ,-0.00854669,-0.03385137,0.,-0.13795348,-0.72959307,0.,-0.03754817,0.7
 6544465,0.,0.00091389,0.,0.,0.00645640,0.,0.,-0.00693840,0.,0.,-0.0096
 0487,0.,0.,0.00917297,-0.00560175,0.,0.00125906,-0.01050927,0.,-0.0235
 9857,-0.08972001,0.,-0.01095773,-0.07487495,0.,-0.11189423,0.18070598,
 0.,0.14519148\\0.00486479,0.,0.00044285,-0.00263654,0.,0.00346946,-0.0
 0147994,0.,-0.00397027,-0.00027265,0.,0.00053976,-0.00047567,0.,-0.000
 48180\\\@


 THE MORE ACCURATE THE CALCULATIONS BECOME, THE MORE THE CONCEPTS
 TEND TO VANISH INTO THIN AIR.
     -- R.S. MULLIKEN, J.C.P. 43,S2(1965)
 Job cpu time:       0 days  2 hours  1 minutes  6.0 seconds.
 Elapsed time:       0 days  0 hours  4 minutes 22.7 seconds.
 File lengths (MBytes):  RWF=   7239 Int=      0 D2E=      0 Chk=      8 Scr=      1
 Normal termination of Gaussian 16 at Mon Feb 21 20:42:31 2022.
