 Entering Gaussian System, Link 0=g16
 Input=hoono_r2_1p405674.gjf
 Output=hoono_r2_1p405674.log
 Initial command:
 /sw/contrib/gaussian/g16/B01/g16/l1.exe "/scr/Gau-19357.inp" -scrdir="/scr/"
 Entering Link 1 = /sw/contrib/gaussian/g16/B01/g16/l1.exe PID=     19358.
  
 Copyright (c) 1988-2017, Gaussian, Inc.  All Rights Reserved.
  
 This is part of the Gaussian(R) 16 program.  It is based on
 the Gaussian(R) 09 system (copyright 2009, Gaussian, Inc.),
 the Gaussian(R) 03 system (copyright 2003, Gaussian, Inc.),
 the Gaussian(R) 98 system (copyright 1998, Gaussian, Inc.),
 the Gaussian(R) 94 system (copyright 1995, Gaussian, Inc.),
 the Gaussian 92(TM) system (copyright 1992, Gaussian, Inc.),
 the Gaussian 90(TM) system (copyright 1990, Gaussian, Inc.),
 the Gaussian 88(TM) system (copyright 1988, Gaussian, Inc.),
 the Gaussian 86(TM) system (copyright 1986, Carnegie Mellon
 University), and the Gaussian 82(TM) system (copyright 1983,
 Carnegie Mellon University). Gaussian is a federally registered
 trademark of Gaussian, Inc.
  
 This software contains proprietary and confidential information,
 including trade secrets, belonging to Gaussian, Inc.
  
 This software is provided under written license and may be
 used, copied, transmitted, or stored only in accord with that
 written license.
  
 The following legend is applicable only to US Government
 contracts under FAR:
  
                    RESTRICTED RIGHTS LEGEND
  
 Use, reproduction and disclosure by the US Government is
 subject to restrictions as set forth in subparagraphs (a)
 and (c) of the Commercial Computer Software - Restricted
 Rights clause in FAR 52.227-19.
  
 Gaussian, Inc.
 340 Quinnipiac St., Bldg. 40, Wallingford CT 06492
  
  
 ---------------------------------------------------------------
 Warning -- This program may not be used in any manner that
 competes with the business of Gaussian, Inc. or will provide
 assistance to any competitor of Gaussian, Inc.  The licensee
 of this program is prohibited from giving any competitor of
 Gaussian, Inc. access to this program.  By using this program,
 the user acknowledges that Gaussian, Inc. is engaged in the
 business of creating and licensing software in the field of
 computational chemistry and represents and warrants to the
 licensee that it is not a competitor of Gaussian, Inc. and that
 it will not use this program in any manner prohibited above.
 ---------------------------------------------------------------
  

 Cite this work as:
 Gaussian 16, Revision B.01,
 M. J. Frisch, G. W. Trucks, H. B. Schlegel, G. E. Scuseria, 
 M. A. Robb, J. R. Cheeseman, G. Scalmani, V. Barone, 
 G. A. Petersson, H. Nakatsuji, X. Li, M. Caricato, A. V. Marenich, 
 J. Bloino, B. G. Janesko, R. Gomperts, B. Mennucci, H. P. Hratchian, 
 J. V. Ortiz, A. F. Izmaylov, J. L. Sonnenberg, D. Williams-Young, 
 F. Ding, F. Lipparini, F. Egidi, J. Goings, B. Peng, A. Petrone, 
 T. Henderson, D. Ranasinghe, V. G. Zakrzewski, J. Gao, N. Rega, 
 G. Zheng, W. Liang, M. Hada, M. Ehara, K. Toyota, R. Fukuda, 
 J. Hasegawa, M. Ishida, T. Nakajima, Y. Honda, O. Kitao, H. Nakai, 
 T. Vreven, K. Throssell, J. A. Montgomery, Jr., J. E. Peralta, 
 F. Ogliaro, M. J. Bearpark, J. J. Heyd, E. N. Brothers, K. N. Kudin, 
 V. N. Staroverov, T. A. Keith, R. Kobayashi, J. Normand, 
 K. Raghavachari, A. P. Rendell, J. C. Burant, S. S. Iyengar, 
 J. Tomasi, M. Cossi, J. M. Millam, M. Klene, C. Adamo, R. Cammi, 
 J. W. Ochterski, R. L. Martin, K. Morokuma, O. Farkas, 
 J. B. Foresman, and D. J. Fox, Gaussian, Inc., Wallingford CT, 2016.
 
 ******************************************
 Gaussian 16:  ES64L-G16RevB.01 20-Dec-2017
                 6-Mar-2022 
 ******************************************
 %nproc=28
 Will use up to   28 processors via shared memory.
 %mem=120GB
 %chk=hoono_r2_1p405674.chk
 ---------------------------------------
 #p freq mp2/aug-cc-pvtz density=current
 ---------------------------------------
 1/10=4,30=1,38=1/1,3;
 2/12=2,17=6,18=5,40=1/2;
 3/5=16,6=1,7=10,11=9,25=1,30=1,71=2,140=1/1,2,3;
 4//1;
 5/5=2,38=5,98=1/2;
 8/6=3,8=1,10=1,19=11,30=-1/1;
 9/15=3,16=-3/6;
 11/6=1,8=1,15=11,17=12,24=-1,27=1,28=-2,29=300,32=6,42=3/1,2,10;
 10/6=2,21=1/2;
 8/6=4,8=1,10=1,19=11,30=-1/11,4;
 10/5=1,20=4/2;
 11/12=2,14=11,16=1,17=2,28=-2,42=3,76=2/2,10,12;
 6/7=2,8=2,9=2,10=2,22=-1/1;
 7/8=1,10=1,12=2,25=1,44=2/1,2,3,16;
 1/10=4,30=1/3;
 99//99;
 Leave Link    1 at Sun Mar  6 18:59:53 2022, MaxMem= 16106127360 cpu:               3.4 elap:               0.1
 (Enter /sw/contrib/gaussian/g16/B01/g16/l101.exe)
 -----
 title
 -----
 Symbolic Z-matrix:
 Charge =  0 Multiplicity = 1
 H
 O                    1    r1
 O                    2    r2       1    a1
 N                    3    r3       2    a2       1    d1       0
 O                    4    r4       3    a3       2    d2       0
       Variables:
  r1                    0.98538                  
  r2                    1.40567                  
  r3                    1.38111                  
  r4                    1.19479                  
  a1                  100.63551                  
  a2                  113.13777                  
  a3                  114.33392                  
  d1                    0.                       
  d2                    0.                       
 
 ITRead=  0  0  0  0  0
 MicOpt= -1 -1 -1 -1 -1
 NAtoms=      5 NQM=        5 NQMF=       0 NMMI=      0 NMMIF=      0
                NMic=       0 NMicF=      0.
                    Isotopes and Nuclear Properties:
 (Nuclear quadrupole moments (NQMom) in fm**2, nuclear magnetic moments (NMagM)
  in nuclear magnetons)

  Atom         1           2           3           4           5
 IAtWgt=           1          16          16          14          16
 AtmWgt=   1.0078250  15.9949146  15.9949146  14.0030740  15.9949146
 NucSpn=           1           0           0           2           0
 AtZEff=  -0.0000000  -0.0000000  -0.0000000  -0.0000000  -0.0000000
 NQMom=    0.0000000   0.0000000   0.0000000   2.0440000   0.0000000
 NMagM=    2.7928460   0.0000000   0.0000000   0.4037610   0.0000000
 AtZNuc=   1.0000000   8.0000000   8.0000000   7.0000000   8.0000000
 Leave Link  101 at Sun Mar  6 18:59:53 2022, MaxMem= 16106127360 cpu:               2.2 elap:               0.1
 (Enter /sw/contrib/gaussian/g16/B01/g16/l103.exe)

 GradGradGradGradGradGradGradGradGradGradGradGradGradGradGradGradGradGrad
 Berny optimization.
 Initialization pass.
                       ----------------------------
                       !    Initial Parameters    !
                       ! (Angstroms and Degrees)  !
 ----------------------                            ----------------------
 !      Name          Value   Derivative information (Atomic Units)     !
 ------------------------------------------------------------------------
 !       r1          0.9854   calculate D2E/DX2 analytically            !
 !       r2          1.4057   calculate D2E/DX2 analytically            !
 !       r3          1.3811   calculate D2E/DX2 analytically            !
 !       r4          1.1948   calculate D2E/DX2 analytically            !
 !       a1        100.6355   calculate D2E/DX2 analytically            !
 !       a2        113.1378   calculate D2E/DX2 analytically            !
 !       a3        114.3339   calculate D2E/DX2 analytically            !
 !       d1          0.0      calculate D2E/DX2 analytically            !
 !       d2          0.0      calculate D2E/DX2 analytically            !
 ------------------------------------------------------------------------
 Trust Radius=3.00D-01 FncErr=1.00D-07 GrdErr=1.00D-07 EigMax=2.50D+02 EigMin=1.00D-04
 Number of steps in this run=      2 maximum allowed number of steps=      2.
 GradGradGradGradGradGradGradGradGradGradGradGradGradGradGradGradGradGrad

 Leave Link  103 at Sun Mar  6 18:59:53 2022, MaxMem= 16106127360 cpu:               0.5 elap:               0.0
 (Enter /sw/contrib/gaussian/g16/B01/g16/l202.exe)
                          Input orientation:                          
 ---------------------------------------------------------------------
 Center     Atomic      Atomic             Coordinates (Angstroms)
 Number     Number       Type             X           Y           Z
 ---------------------------------------------------------------------
      1          1           0        0.000000    0.000000    0.000000
      2          8           0        0.000000    0.000000    0.985377
      3          8           0        1.381527    0.000000    1.244809
      4          7           0        2.149296    0.000000    0.096771
      5          8           0        1.518051    0.000000   -0.917650
 ---------------------------------------------------------------------
                    Distance matrix (angstroms):
                    1          2          3          4          5
     1  H    0.000000
     2  O    0.985377   0.000000
     3  O    1.859614   1.405675   0.000000
     4  N    2.151473   2.325745   1.381108   0.000000
     5  O    1.773854   2.434335   2.166763   1.194788   0.000000
 Stoichiometry    HNO3
 Framework group  CS[SG(HNO3)]
 Deg. of freedom     7
 Full point group                 CS      NOp   2
 Largest Abelian subgroup         CS      NOp   2
 Largest concise Abelian subgroup C1      NOp   1
                         Standard orientation:                         
 ---------------------------------------------------------------------
 Center     Atomic      Atomic             Coordinates (Angstroms)
 Number     Number       Type             X           Y           Z
 ---------------------------------------------------------------------
      1          1           0        1.098748   -0.585591    0.000000
      2          8           0        1.299627    0.379093    0.000000
      3          8           0       -0.000000    0.914715   -0.000000
      4          7           0       -0.985685   -0.052696   -0.000000
      5          8           0       -0.574496   -1.174500   -0.000000
 ---------------------------------------------------------------------
 Rotational constants (GHZ):          21.6710250           8.1641724           5.9301094
 Leave Link  202 at Sun Mar  6 18:59:53 2022, MaxMem= 16106127360 cpu:               0.4 elap:               0.0
 (Enter /sw/contrib/gaussian/g16/B01/g16/l301.exe)
 Standard basis: Aug-CC-pVTZ (5D, 7F)
 Ernie: Thresh=  0.10000D-02 Tol=  0.10000D-05 Strict=F.
 Ernie:  12 primitive shells out of 131 were deleted.
 There are   166 symmetry adapted cartesian basis functions of A'  symmetry.
 There are    79 symmetry adapted cartesian basis functions of A"  symmetry.
 There are   136 symmetry adapted basis functions of A'  symmetry.
 There are    71 symmetry adapted basis functions of A"  symmetry.
   207 basis functions,   315 primitive gaussians,   245 cartesian basis functions
    16 alpha electrons       16 beta electrons
       nuclear repulsion energy       123.3180511083 Hartrees.
 IExCor=    0 DFT=F Ex=HF Corr=None ExCW=0 ScaHFX=  1.000000
 ScaDFX=  1.000000  1.000000  1.000000  1.000000 ScalE2=  1.000000  1.000000
 IRadAn=      5 IRanWt=     -1 IRanGd=            0 ICorTp=0 IEmpDi=  4
 NAtoms=    5 NActive=    5 NUniq=    5 SFac= 1.00D+00 NAtFMM=   60 NAOKFM=F Big=F
 Integral buffers will be    131072 words long.
 Raffenetti 1 integral format.
 Two-electron integral symmetry is turned on.
 Leave Link  301 at Sun Mar  6 18:59:53 2022, MaxMem= 16106127360 cpu:               1.6 elap:               0.1
 (Enter /sw/contrib/gaussian/g16/B01/g16/l302.exe)
 NPDir=0 NMtPBC=     1 NCelOv=     1 NCel=       1 NClECP=     1 NCelD=      1
         NCelK=      1 NCelE2=     1 NClLst=     1 CellRange=     0.0.
 One-electron integrals computed using PRISM.
 One-electron integral symmetry used in STVInt
 NBasis=   207 RedAO= T EigKep=  1.30D-04  NBF=   136    71
 NBsUse=   207 1.00D-06 EigRej= -1.00D+00 NBFU=   136    71
 Leave Link  302 at Sun Mar  6 18:59:54 2022, MaxMem= 16106127360 cpu:               5.1 elap:               0.2
 (Enter /sw/contrib/gaussian/g16/B01/g16/l303.exe)
 DipDrv:  MaxL=1.
 Leave Link  303 at Sun Mar  6 18:59:54 2022, MaxMem= 16106127360 cpu:               3.8 elap:               0.2
 (Enter /sw/contrib/gaussian/g16/B01/g16/l401.exe)
 ExpMin= 2.53D-02 ExpMax= 1.53D+04 ExpMxC= 5.22D+02 IAcc=3 IRadAn=         5 AccDes= 0.00D+00
 Harris functional with IExCor=  205 and IRadAn=       5 diagonalized for initial guess.
 HarFok:  IExCor=  205 AccDes= 0.00D+00 IRadAn=         5 IDoV= 1 UseB2=F ITyADJ=14
 ICtDFT=  3500011 ScaDFX=  1.000000  1.000000  1.000000  1.000000
 FoFCou: FMM=F IPFlag=           0 FMFlag=      100000 FMFlg1=           0
         NFxFlg=           0 DoJE=T BraDBF=F KetDBF=T FulRan=T
         wScrn=  0.000000 ICntrl=       500 IOpCl=  0 I1Cent=   200000004 NGrid=           0
         NMat0=    1 NMatS0=      1 NMatT0=    0 NMatD0=    1 NMtDS0=    0 NMtDT0=    0
 Petite list used in FoFCou.
 Harris En= -279.645349918192    
 JPrj=0 DoOrth=F DoCkMO=F.
 Initial guess orbital symmetries:
       Occupied  (A') (A') (A') (A') (A') (A') (A') (A') (A') (A')
                 (A") (A') (A") (A') (A") (A')
       Virtual   (A") (A') (A') (A') (A') (A") (A') (A') (A') (A')
                 (A") (A') (A") (A') (A') (A") (A') (A') (A") (A')
                 (A') (A') (A') (A') (A") (A') (A') (A') (A") (A')
                 (A') (A") (A") (A') (A') (A") (A') (A") (A') (A")
                 (A') (A") (A') (A") (A') (A') (A') (A") (A') (A')
                 (A') (A") (A') (A") (A') (A") (A') (A') (A') (A")
                 (A') (A') (A") (A') (A') (A') (A") (A") (A') (A')
                 (A") (A') (A") (A") (A') (A') (A") (A') (A') (A')
                 (A") (A') (A') (A") (A') (A") (A') (A") (A') (A')
                 (A') (A") (A') (A") (A') (A') (A") (A') (A") (A')
                 (A") (A') (A') (A") (A") (A') (A') (A') (A") (A')
                 (A") (A') (A') (A') (A") (A') (A') (A') (A") (A')
                 (A") (A') (A') (A") (A") (A") (A") (A') (A') (A')
                 (A') (A') (A') (A") (A') (A") (A') (A") (A') (A')
                 (A") (A") (A') (A') (A') (A") (A') (A') (A') (A")
                 (A') (A') (A') (A") (A') (A") (A") (A') (A') (A")
                 (A') (A") (A") (A') (A") (A') (A') (A") (A") (A')
                 (A") (A") (A") (A') (A") (A') (A') (A') (A') (A")
                 (A') (A') (A') (A') (A') (A') (A') (A') (A') (A')
                 (A')
 The electronic state of the initial guess is 1-A'.
 Leave Link  401 at Sun Mar  6 18:59:54 2022, MaxMem= 16106127360 cpu:               7.0 elap:               0.3
 (Enter /sw/contrib/gaussian/g16/B01/g16/l502.exe)
 Keep R1 ints in memory in symmetry-blocked form, NReq=348887737.
 FoFCou: FMM=F IPFlag=           0 FMFlag=           0 FMFlg1=           0
         NFxFlg=           0 DoJE=F BraDBF=F KetDBF=F FulRan=T
         wScrn=  0.000000 ICntrl=       600 IOpCl=  0 I1Cent=           0 NGrid=           0
         NMat0=    1 NMatS0=  21528 NMatT0=    0 NMatD0=    1 NMtDS0=    0 NMtDT0=    0
 Petite list used in FoFCou.
 Closed shell SCF:
 Using DIIS extrapolation, IDIIS=  1040.
 NGot= 16106127360 LenX= 15988850015 LenY= 15988789549
 Requested convergence on RMS density matrix=1.00D-08 within 128 cycles.
 Requested convergence on MAX density matrix=1.00D-06.
 Requested convergence on             energy=1.00D-06.
 No special actions if energy rises.

 Cycle   1  Pass 1  IDiag  1:
 E= -279.367170873373    
 DIIS: error= 2.73D-02 at cycle   1 NSaved=   1.
 NSaved= 1 IEnMin= 1 EnMin= -279.367170873373     IErMin= 1 ErrMin= 2.73D-02
 ErrMax= 2.73D-02  0.00D+00 EMaxC= 1.00D-01 BMatC= 4.49D-01 BMatP= 4.49D-01
 IDIUse=3 WtCom= 7.27D-01 WtEn= 2.73D-01
 Coeff-Com:  0.100D+01
 Coeff-En:   0.100D+01
 Coeff:      0.100D+01
 Gap=     0.497 Goal=   None    Shift=    0.000
 GapD=    0.497 DampG=2.000 DampE=0.500 DampFc=1.0000 IDamp=-1.
 RMSDP=1.66D-03 MaxDP=8.79D-02              OVMax= 1.20D-01

 Cycle   2  Pass 1  IDiag  1:
 E= -279.450027583668     Delta-E=       -0.082856710295 Rises=F Damp=F
 DIIS: error= 1.91D-02 at cycle   2 NSaved=   2.
 NSaved= 2 IEnMin= 2 EnMin= -279.450027583668     IErMin= 2 ErrMin= 1.91D-02
 ErrMax= 1.91D-02  0.00D+00 EMaxC= 1.00D-01 BMatC= 8.20D-02 BMatP= 4.49D-01
 IDIUse=3 WtCom= 8.09D-01 WtEn= 1.91D-01
 Coeff-Com:  0.212D+00 0.788D+00
 Coeff-En:   0.511D-01 0.949D+00
 Coeff:      0.181D+00 0.819D+00
 Gap=     0.555 Goal=   None    Shift=    0.000
 RMSDP=9.56D-04 MaxDP=3.69D-02 DE=-8.29D-02 OVMax= 9.13D-02

 Cycle   3  Pass 1  IDiag  1:
 E= -279.485254993714     Delta-E=       -0.035227410046 Rises=F Damp=F
 DIIS: error= 1.09D-02 at cycle   3 NSaved=   3.
 NSaved= 3 IEnMin= 3 EnMin= -279.485254993714     IErMin= 3 ErrMin= 1.09D-02
 ErrMax= 1.09D-02  0.00D+00 EMaxC= 1.00D-01 BMatC= 3.08D-02 BMatP= 8.20D-02
 IDIUse=3 WtCom= 8.91D-01 WtEn= 1.09D-01
 Coeff-Com: -0.342D-01 0.370D+00 0.664D+00
 Coeff-En:   0.000D+00 0.226D+00 0.774D+00
 Coeff:     -0.305D-01 0.354D+00 0.676D+00
 Gap=     0.537 Goal=   None    Shift=    0.000
 RMSDP=4.08D-04 MaxDP=1.60D-02 DE=-3.52D-02 OVMax= 3.85D-02

 Cycle   4  Pass 1  IDiag  1:
 E= -279.506178490953     Delta-E=       -0.020923497239 Rises=F Damp=F
 DIIS: error= 1.67D-03 at cycle   4 NSaved=   4.
 NSaved= 4 IEnMin= 4 EnMin= -279.506178490953     IErMin= 4 ErrMin= 1.67D-03
 ErrMax= 1.67D-03  0.00D+00 EMaxC= 1.00D-01 BMatC= 5.65D-04 BMatP= 3.08D-02
 IDIUse=3 WtCom= 9.83D-01 WtEn= 1.67D-02
 Coeff-Com: -0.115D-01 0.457D-01 0.146D+00 0.819D+00
 Coeff-En:   0.000D+00 0.000D+00 0.000D+00 0.100D+01
 Coeff:     -0.113D-01 0.450D-01 0.144D+00 0.822D+00
 Gap=     0.525 Goal=   None    Shift=    0.000
 RMSDP=9.85D-05 MaxDP=2.20D-03 DE=-2.09D-02 OVMax= 1.15D-02

 Cycle   5  Pass 1  IDiag  1:
 E= -279.506973574376     Delta-E=       -0.000795083424 Rises=F Damp=F
 DIIS: error= 1.12D-03 at cycle   5 NSaved=   5.
 NSaved= 5 IEnMin= 5 EnMin= -279.506973574376     IErMin= 5 ErrMin= 1.12D-03
 ErrMax= 1.12D-03  0.00D+00 EMaxC= 1.00D-01 BMatC= 1.01D-04 BMatP= 5.65D-04
 IDIUse=3 WtCom= 9.89D-01 WtEn= 1.12D-02
 Coeff-Com:  0.529D-02-0.660D-01-0.109D+00 0.580D-01 0.111D+01
 Coeff-En:   0.000D+00 0.000D+00 0.000D+00 0.000D+00 0.100D+01
 Coeff:      0.523D-02-0.653D-01-0.108D+00 0.573D-01 0.111D+01
 Gap=     0.528 Goal=   None    Shift=    0.000
 RMSDP=7.98D-05 MaxDP=2.12D-03 DE=-7.95D-04 OVMax= 1.31D-02

 Cycle   6  Pass 1  IDiag  1:
 E= -279.507334939529     Delta-E=       -0.000361365152 Rises=F Damp=F
 DIIS: error= 3.47D-04 at cycle   6 NSaved=   6.
 NSaved= 6 IEnMin= 6 EnMin= -279.507334939529     IErMin= 6 ErrMin= 3.47D-04
 ErrMax= 3.47D-04  0.00D+00 EMaxC= 1.00D-01 BMatC= 2.45D-05 BMatP= 1.01D-04
 IDIUse=3 WtCom= 9.97D-01 WtEn= 3.47D-03
 Coeff-Com:  0.192D-02-0.747D-02-0.184D-01-0.192D+00 0.246D-01 0.119D+01
 Coeff-En:   0.000D+00 0.000D+00 0.000D+00 0.000D+00 0.000D+00 0.100D+01
 Coeff:      0.192D-02-0.745D-02-0.183D-01-0.192D+00 0.245D-01 0.119D+01
 Gap=     0.529 Goal=   None    Shift=    0.000
 RMSDP=4.75D-05 MaxDP=1.10D-03 DE=-3.61D-04 OVMax= 6.31D-03

 Cycle   7  Pass 1  IDiag  1:
 E= -279.507423037356     Delta-E=       -0.000088097827 Rises=F Damp=F
 DIIS: error= 1.29D-04 at cycle   7 NSaved=   7.
 NSaved= 7 IEnMin= 7 EnMin= -279.507423037356     IErMin= 7 ErrMin= 1.29D-04
 ErrMax= 1.29D-04  0.00D+00 EMaxC= 1.00D-01 BMatC= 3.53D-06 BMatP= 2.45D-05
 IDIUse=3 WtCom= 9.99D-01 WtEn= 1.29D-03
 Coeff-Com: -0.113D-02 0.118D-01 0.256D-01 0.216D-01-0.183D+00-0.180D+00
 Coeff-Com:  0.131D+01
 Coeff-En:   0.000D+00 0.000D+00 0.000D+00 0.000D+00 0.000D+00 0.000D+00
 Coeff-En:   0.100D+01
 Coeff:     -0.113D-02 0.118D-01 0.255D-01 0.216D-01-0.183D+00-0.180D+00
 Coeff:      0.131D+01
 Gap=     0.529 Goal=   None    Shift=    0.000
 RMSDP=1.79D-05 MaxDP=5.38D-04 DE=-8.81D-05 OVMax= 2.44D-03

 Cycle   8  Pass 1  IDiag  1:
 E= -279.507435251610     Delta-E=       -0.000012214254 Rises=F Damp=F
 DIIS: error= 4.63D-05 at cycle   8 NSaved=   8.
 NSaved= 8 IEnMin= 8 EnMin= -279.507435251610     IErMin= 8 ErrMin= 4.63D-05
 ErrMax= 4.63D-05  0.00D+00 EMaxC= 1.00D-01 BMatC= 5.68D-07 BMatP= 3.53D-06
 IDIUse=1 WtCom= 1.00D+00 WtEn= 0.00D+00
 Coeff-Com: -0.547D-03 0.406D-02 0.950D-02 0.252D-01-0.558D-01-0.189D+00
 Coeff-Com:  0.348D+00 0.859D+00
 Coeff:     -0.547D-03 0.406D-02 0.950D-02 0.252D-01-0.558D-01-0.189D+00
 Coeff:      0.348D+00 0.859D+00
 Gap=     0.529 Goal=   None    Shift=    0.000
 RMSDP=5.27D-06 MaxDP=1.49D-04 DE=-1.22D-05 OVMax= 6.24D-04

 Cycle   9  Pass 1  IDiag  1:
 E= -279.507436561020     Delta-E=       -0.000001309410 Rises=F Damp=F
 DIIS: error= 2.40D-05 at cycle   9 NSaved=   9.
 NSaved= 9 IEnMin= 9 EnMin= -279.507436561020     IErMin= 9 ErrMin= 2.40D-05
 ErrMax= 2.40D-05  0.00D+00 EMaxC= 1.00D-01 BMatC= 1.19D-07 BMatP= 5.68D-07
 IDIUse=1 WtCom= 1.00D+00 WtEn= 0.00D+00
 Coeff-Com:  0.243D-03-0.262D-02-0.539D-02-0.630D-02 0.480D-01 0.500D-01
 Coeff-Com: -0.346D+00 0.538D-01 0.121D+01
 Coeff:      0.243D-03-0.262D-02-0.539D-02-0.630D-02 0.480D-01 0.500D-01
 Coeff:     -0.346D+00 0.538D-01 0.121D+01
 Gap=     0.529 Goal=   None    Shift=    0.000
 RMSDP=2.48D-06 MaxDP=6.80D-05 DE=-1.31D-06 OVMax= 2.62D-04

 Cycle  10  Pass 1  IDiag  1:
 E= -279.507436826019     Delta-E=       -0.000000264999 Rises=F Damp=F
 DIIS: error= 5.65D-06 at cycle  10 NSaved=  10.
 NSaved=10 IEnMin=10 EnMin= -279.507436826019     IErMin=10 ErrMin= 5.65D-06
 ErrMax= 5.65D-06  0.00D+00 EMaxC= 1.00D-01 BMatC= 8.23D-09 BMatP= 1.19D-07
 IDIUse=1 WtCom= 1.00D+00 WtEn= 0.00D+00
 Coeff-Com: -0.336D-04 0.454D-03 0.111D-02-0.189D-02-0.101D-01 0.586D-02
 Coeff-Com:  0.682D-01-0.623D-01-0.402D+00 0.140D+01
 Coeff:     -0.336D-04 0.454D-03 0.111D-02-0.189D-02-0.101D-01 0.586D-02
 Coeff:      0.682D-01-0.623D-01-0.402D+00 0.140D+01
 Gap=     0.529 Goal=   None    Shift=    0.000
 RMSDP=6.93D-07 MaxDP=2.55D-05 DE=-2.65D-07 OVMax= 7.53D-05

 Cycle  11  Pass 1  IDiag  1:
 E= -279.507436850231     Delta-E=       -0.000000024212 Rises=F Damp=F
 DIIS: error= 2.25D-06 at cycle  11 NSaved=  11.
 NSaved=11 IEnMin=11 EnMin= -279.507436850231     IErMin=11 ErrMin= 2.25D-06
 ErrMax= 2.25D-06  0.00D+00 EMaxC= 1.00D-01 BMatC= 8.37D-10 BMatP= 8.23D-09
 IDIUse=1 WtCom= 1.00D+00 WtEn= 0.00D+00
 Coeff-Com: -0.173D-04 0.178D-03 0.371D-03 0.958D-03-0.246D-02-0.732D-02
 Coeff-Com:  0.210D-01 0.177D-01-0.554D-01-0.315D+00 0.134D+01
 Coeff:     -0.173D-04 0.178D-03 0.371D-03 0.958D-03-0.246D-02-0.732D-02
 Coeff:      0.210D-01 0.177D-01-0.554D-01-0.315D+00 0.134D+01
 Gap=     0.529 Goal=   None    Shift=    0.000
 RMSDP=2.41D-07 MaxDP=9.03D-06 DE=-2.42D-08 OVMax= 2.86D-05

 Cycle  12  Pass 1  IDiag  1:
 E= -279.507436853190     Delta-E=       -0.000000002959 Rises=F Damp=F
 DIIS: error= 7.15D-07 at cycle  12 NSaved=  12.
 NSaved=12 IEnMin=12 EnMin= -279.507436853190     IErMin=12 ErrMin= 7.15D-07
 ErrMax= 7.15D-07  0.00D+00 EMaxC= 1.00D-01 BMatC= 8.70D-11 BMatP= 8.37D-10
 IDIUse=1 WtCom= 1.00D+00 WtEn= 0.00D+00
 Coeff-Com:  0.271D-05-0.470D-04-0.100D-03 0.120D-03 0.115D-02-0.688D-03
 Coeff-Com: -0.750D-02 0.699D-02 0.400D-01-0.108D+00-0.201D+00 0.127D+01
 Coeff:      0.271D-05-0.470D-04-0.100D-03 0.120D-03 0.115D-02-0.688D-03
 Coeff:     -0.750D-02 0.699D-02 0.400D-01-0.108D+00-0.201D+00 0.127D+01
 Gap=     0.529 Goal=   None    Shift=    0.000
 RMSDP=8.43D-08 MaxDP=2.81D-06 DE=-2.96D-09 OVMax= 9.96D-06

 Cycle  13  Pass 1  IDiag  1:
 E= -279.507436853493     Delta-E=       -0.000000000303 Rises=F Damp=F
 DIIS: error= 1.69D-07 at cycle  13 NSaved=  13.
 NSaved=13 IEnMin=13 EnMin= -279.507436853493     IErMin=13 ErrMin= 1.69D-07
 ErrMax= 1.69D-07  0.00D+00 EMaxC= 1.00D-01 BMatC= 6.97D-12 BMatP= 8.70D-11
 IDIUse=1 WtCom= 1.00D+00 WtEn= 0.00D+00
 Coeff-Com:  0.135D-05-0.131D-04-0.194D-04-0.121D-03 0.762D-04 0.903D-03
 Coeff-Com: -0.122D-02-0.232D-02-0.101D-02 0.504D-01-0.120D+00-0.148D+00
 Coeff-Com:  0.122D+01
 Coeff:      0.135D-05-0.131D-04-0.194D-04-0.121D-03 0.762D-04 0.903D-03
 Coeff:     -0.122D-02-0.232D-02-0.101D-02 0.504D-01-0.120D+00-0.148D+00
 Coeff:      0.122D+01
 Gap=     0.529 Goal=   None    Shift=    0.000
 RMSDP=2.15D-08 MaxDP=6.41D-07 DE=-3.03D-10 OVMax= 2.02D-06

 Cycle  14  Pass 1  IDiag  1:
 E= -279.507436853513     Delta-E=       -0.000000000020 Rises=F Damp=F
 DIIS: error= 4.10D-08 at cycle  14 NSaved=  14.
 NSaved=14 IEnMin=14 EnMin= -279.507436853513     IErMin=14 ErrMin= 4.10D-08
 ErrMax= 4.10D-08  0.00D+00 EMaxC= 1.00D-01 BMatC= 4.42D-13 BMatP= 6.97D-12
 IDIUse=1 WtCom= 1.00D+00 WtEn= 0.00D+00
 Coeff-Com: -0.281D-06 0.426D-05 0.873D-05-0.570D-05-0.111D-03 0.745D-04
 Coeff-Com:  0.629D-03-0.420D-03-0.348D-02 0.873D-02 0.148D-01-0.917D-01
 Coeff-Com:  0.542D-02 0.107D+01
 Coeff:     -0.281D-06 0.426D-05 0.873D-05-0.570D-05-0.111D-03 0.745D-04
 Coeff:      0.629D-03-0.420D-03-0.348D-02 0.873D-02 0.148D-01-0.917D-01
 Coeff:      0.542D-02 0.107D+01
 Gap=     0.529 Goal=   None    Shift=    0.000
 RMSDP=4.06D-09 MaxDP=9.62D-08 DE=-1.96D-11 OVMax= 4.28D-07

 SCF Done:  E(RHF) =  -279.507436854     A.U. after   14 cycles
            NFock= 14  Conv=0.41D-08     -V/T= 2.0021
 KE= 2.789248086167D+02 PE=-9.075108110754D+02 EE= 2.257605144968D+02
 Leave Link  502 at Sun Mar  6 18:59:58 2022, MaxMem= 16106127360 cpu:              54.7 elap:               3.5
 (Enter /sw/contrib/gaussian/g16/B01/g16/l801.exe)
 ExpMin= 2.53D-02 ExpMax= 1.53D+04 ExpMxC= 5.22D+02 IAcc=3 IRadAn=         5 AccDes= 0.00D+00
 HarFok:  IExCor=  205 AccDes= 0.00D+00 IRadAn=         5 IDoV=-2 UseB2=F ITyADJ=14
 ICtDFT= 12500011 ScaDFX=  1.000000  1.000000  1.000000  1.000000
 Largest valence mixing into a core orbital is  2.07D-04
 Largest core mixing into a valence orbital is  3.04D-05
 Range of M.O.s used for correlation:     5   207
 NBasis=   207 NAE=    16 NBE=    16 NFC=     4 NFV=     0
 NROrb=    203 NOA=    12 NOB=    12 NVA=   191 NVB=   191

 **** Warning!!: The largest alpha MO coefficient is  0.16730838D+02

 Leave Link  801 at Sun Mar  6 18:59:58 2022, MaxMem= 16106127360 cpu:               2.7 elap:               0.1
 (Enter /sw/contrib/gaussian/g16/B01/g16/l906.exe)
 Frozen-core derivative calculation, NFC=   4 NFV=   0.
 FulOut=F Deriv=T AODrv=T NAtomX=     5
   MMem=           0  MDisk=          12 MDiskD=          12
  W3Min=      811440 MinDsk=     2425030 NBas6D=         245
 NBas2D=       30762    NTT=       30135    LW2=     7400000
    MDV= 16105571476 MDiskM=      328644 NBas2p=       30759
 Disk-based method using ON**2 memory for 12 occupieds at a time.
 Permanent disk used for amplitudes=    11516536 words.
 Estimated scratch disk usage=   321863743 words.
 IMap=   1   2   3   4   5   6   7   8   9  10  11  12  13  14  15  16
 Actual    scratch disk usage=   310892607 words.
 JobTyp=1 Pass  1:  I=   5 to  16 NPSUse= 28 ParTrn=T ParDer=T DoDerP=T.
 (rs|ai) integrals will be sorted in core.
 Spin components of T(2) and E(2):
     alpha-alpha T2 =       0.3465031661D-01 E2=     -0.1245263504D+00
     alpha-beta  T2 =       0.1832002485D+00 E2=     -0.6985314936D+00
     beta-beta   T2 =       0.3465031661D-01 E2=     -0.1245263504D+00
 The integrals were generated   1 times.
 ANorm=    0.1119151858D+01
 E2 =    -0.9475841944D+00 EUMP2 =    -0.28045502104796D+03
 Leave Link  906 at Sun Mar  6 19:01:35 2022, MaxMem= 16106127360 cpu:            2718.3 elap:              97.2
 (Enter /sw/contrib/gaussian/g16/B01/g16/l1101.exe)
 Using compressed Sx but separate Hx and Fx, NAtomX=     5.
 Will process      6 centers per pass.
 Leave Link 1101 at Sun Mar  6 19:01:35 2022, MaxMem= 16106127360 cpu:               5.3 elap:               0.2
 (Enter /sw/contrib/gaussian/g16/B01/g16/l1102.exe)
 Leave Link 1102 at Sun Mar  6 19:01:35 2022, MaxMem= 16106127360 cpu:               0.6 elap:               0.0
 (Enter /sw/contrib/gaussian/g16/B01/g16/l1110.exe)
 Forming Gx(P) for the SCF density, NAtomX=     5.
 Integral derivatives from FoFJK, PRISM(SPDF).
 Do as many integral derivatives as possible in FoFJK.
 G2DrvN: MDV=   16106126844.
 G2DrvN: will do     6 centers at a time, making    1 passes.
 Calling FoFCou, ICntrl=  3107 FMM=F I1Cent=   0 AccDes= 0.00D+00.
 FoFJK:  IHMeth= 1 ICntrl=    3107 DoSepK=F KAlg= 0 I1Cent=           0 FoldK=F
 IRaf=         0 NMat=       1 IRICut=       1 DoRegI=T DoRafI=F ISym2E= 1 IDoP0=0 IntGTp=1.
 FoFCou: FMM=F IPFlag=           0 FMFlag=      100000 FMFlg1=           0
         NFxFlg=           0 DoJE=F BraDBF=F KetDBF=F FulRan=T
         wScrn=  0.000000 ICntrl=      3107 IOpCl=  0 I1Cent=           0 NGrid=           0
         NMat0=    1 NMatS0=      1 NMatT0=    0 NMatD0=    1 NMtDS0=    0 NMtDT0=    0
 Petite list used in FoFCou.
 End of G2Drv F.D. properties file   721 does not exist.
 End of G2Drv F.D. properties file   722 does not exist.
 End of G2Drv F.D. properties file   788 does not exist.
 Leave Link 1110 at Sun Mar  6 19:01:38 2022, MaxMem= 16106127360 cpu:              87.2 elap:               3.1
 (Enter /sw/contrib/gaussian/g16/B01/g16/l1002.exe)
 Minotr:  Closed shell wavefunction.
          IDoAtm=11111
          Frozen-core window.
          Direct CPHF calculation.
          Differentiating once with respect to electric field.
                with respect to dipole field.
          Differentiating once with respect to nuclear coordinates.
          Requested convergence is 1.0D-08 RMS, and 1.0D-07 maximum.
          Secondary convergence is 1.0D-12 RMS, and 1.0D-12 maximum.
          NewPWx=T KeepS1=T KeepF1=T KeepIn=T MapXYZ=F SortEE=F KeepMc=T.
 Keep R1 ints in memory in symmetry-blocked form, NReq=348888983.
 FoFCou: FMM=F IPFlag=           0 FMFlag=           0 FMFlg1=           0
         NFxFlg=           0 DoJE=F BraDBF=F KetDBF=F FulRan=T
         wScrn=  0.000000 ICntrl=       600 IOpCl=  0 I1Cent=           0 NGrid=           0
         NMat0=    1 NMatS0=  21528 NMatT0=    0 NMatD0=    1 NMtDS0=    0 NMtDT0=    0
 Petite list used in FoFCou.
          MDV=   16106127360 using IRadAn=       1.
          Solving linear equations simultaneously, MaxMat=       0.
          There are    18 degrees of freedom in the 1st order CPHF.  IDoFFX=6 NUNeed=    18.
     15 vectors produced by pass  0 Test12= 1.70D-14 5.56D-09 XBig12= 7.88D+00 1.23D+00.
 AX will form    15 AO Fock derivatives at one time.
     15 vectors produced by pass  1 Test12= 1.70D-14 5.56D-09 XBig12= 1.35D+00 2.04D-01.
     15 vectors produced by pass  2 Test12= 1.70D-14 5.56D-09 XBig12= 6.38D-02 5.89D-02.
     15 vectors produced by pass  3 Test12= 1.70D-14 5.56D-09 XBig12= 1.89D-03 9.69D-03.
     15 vectors produced by pass  4 Test12= 1.70D-14 5.56D-09 XBig12= 3.74D-05 1.22D-03.
     15 vectors produced by pass  5 Test12= 1.70D-14 5.56D-09 XBig12= 5.29D-07 1.15D-04.
     15 vectors produced by pass  6 Test12= 1.70D-14 5.56D-09 XBig12= 4.21D-09 1.23D-05.
     14 vectors produced by pass  7 Test12= 1.70D-14 5.56D-09 XBig12= 3.29D-11 7.16D-07.
      3 vectors produced by pass  8 Test12= 1.70D-14 5.56D-09 XBig12= 2.39D-13 6.03D-08.
      1 vectors produced by pass  9 Test12= 1.70D-14 5.56D-09 XBig12= 1.64D-15 6.73D-09.
 InvSVY:  IOpt=1 It=  1 EMax= 1.11D-15
 Solved reduced A of dimension   123 with    15 vectors.
 FullF1:  Do perturbations      1 to      18.
 Saving first derivative matrices.
 End of Minotr F.D. properties file   721 does not exist.
 End of Minotr F.D. properties file   722 does not exist.
 End of Minotr F.D. properties file   788 does not exist.
 Leave Link 1002 at Sun Mar  6 19:01:41 2022, MaxMem= 16106127360 cpu:              77.8 elap:               2.9
 (Enter /sw/contrib/gaussian/g16/B01/g16/l811.exe)
 MDV= 16106127360.
 Form MO integral derivatives with frozen-active canonical formalism.
 MOERI=1 MOERIx=1 NAtoms=     5 NAtomX=     5.
 Discarding MO integrals.
 MO basis two electron integral derivatives will not be stored on disk.
 IAlg= 3 DoFC=T DoPWx=T Debug=F.
 Frozen-core window:  NFC=   4 NFV=   0.
 Reordered first order wavefunction length =     18678272
 In DefCFB: NBatch=  1 ICI= 16 ICA=191 LFMax= 96
            Large arrays: LIAPS=   619940160 LIARS=   288257200 words.
 In StABat: MaxSiz= 55 MinSiz= 25 NAtomB=  5
 DoIAMN: NPSUse= 28.
 Leave Link  811 at Sun Mar  6 19:03:01 2022, MaxMem= 16106127360 cpu:            2234.7 elap:              79.9
 (Enter /sw/contrib/gaussian/g16/B01/g16/l804.exe)
 Frozen-core window:  NFC=   4 NFV=   0.
 Closed-shell transformation, MDV= 16106127360 ITran=4 ISComp=1.
 Semi-Direct transformation.
 ModeAB=           2 MOrb=            16 LenV=   16104919827
 LASXX=     67341636 LTotXX=    67341636 LenRXX=    67341636
 LTotAB=    68301760 MaxLAS=    99807120 LenRXY=    99807120
 NonZer=   134683272 LenScr=   202817536 LnRSAI=           0
 LnScr1=           0 LExtra=           0 Total=    369966292
 MaxDsk=          -1 SrtSym=           F ITran=            4
 DoSDTr:  NPSUse= 28
 JobTyp=0 Pass  1:  I=   1 to  16.
 (rs|ai) integrals will be sorted in core.
 Complete sort for first half transformation.
 First half transformation complete.
 Begin second half transformation for I=  10.
 Begin second half transformation for I=  10.
 Complete sort for second half transformation.
 Second half transformation complete.
 Spin components of T(2) and E(2):
     alpha-alpha T2 =       0.3465031661D-01 E2=     -0.1245263504D+00
     alpha-beta  T2 =       0.1832002485D+00 E2=     -0.6985314936D+00
     beta-beta   T2 =       0.3465031661D-01 E2=     -0.1245263504D+00
 ANorm=    0.1582719736D+01
 E2 =    -0.9475841944D+00 EUMP2 =    -0.28045502104796D+03
 Leave Link  804 at Sun Mar  6 19:03:17 2022, MaxMem= 16106127360 cpu:             437.2 elap:              15.7
 (Enter /sw/contrib/gaussian/g16/B01/g16/l1002.exe)
 Minotr:  Closed shell wavefunction.
          Computing MP2/KS-MP2 derivatives.
          Using Z-Vector for PSCF gradient.
          Skipping F1 and S1 gradient terms here.
          IDoAtm=11111
          Frozen-core window.
          Using MO integrals in the linear equations.
          Forming densities via direct SCF.
          Differentiating once with respect to electric field.
                with respect to dipole field.
          Differentiating once with respect to nuclear coordinates.
          Using symmetry in CPHF.
          Requested convergence is 1.0D-10 RMS, and 1.0D-09 maximum.
          NewPWx=F KeepS1=T KeepF1=T KeepIn=T MapXYZ=F SortEE=F KeepMc=T.
          MDV=   16106127360 using IRadAn=       5.
          Solving linear equations separately, MaxMat=       0.
          There are     1 degrees of freedom in the 1st order CPHF.  IDoFFX=0 NUNeed=     1.
 FoFJK:  IHMeth= 1 ICntrl=       0 DoSepK=F KAlg= 0 I1Cent=           0 FoldK=F
 IRaf=         0 NMat=       1 IRICut=       1 DoRegI=T DoRafI=F ISym2E= 0 IDoP0=0 IntGTp=1.
 FoFCou: FMM=F IPFlag=           0 FMFlag=      100000 FMFlg1=           0
         NFxFlg=           0 DoJE=F BraDBF=F KetDBF=F FulRan=T
         wScrn=  0.000000 ICntrl=         0 IOpCl=  0 I1Cent=           0 NGrid=           0
         NMat0=    1 NMatS0=      1 NMatT0=    0 NMatD0=    1 NMtDS0=    0 NMtDT0=    0
 Symmetry not used in FoFCou.
 LinEq1:  Iter=  0 NonCon=     1 RMS=6.59D-03 Max=1.74D-01 NDo=     1
 LinEq1:  Iter=  1 NonCon=     1 RMS=2.02D-03 Max=3.08D-02 NDo=     1
 LinEq1:  Iter=  2 NonCon=     1 RMS=8.93D-04 Max=1.38D-02 NDo=     1
 LinEq1:  Iter=  3 NonCon=     1 RMS=3.83D-04 Max=8.28D-03 NDo=     1
 LinEq1:  Iter=  4 NonCon=     1 RMS=1.38D-04 Max=1.67D-03 NDo=     1
 LinEq1:  Iter=  5 NonCon=     1 RMS=7.67D-05 Max=1.42D-03 NDo=     1
 LinEq1:  Iter=  6 NonCon=     1 RMS=2.44D-05 Max=3.66D-04 NDo=     1
 LinEq1:  Iter=  7 NonCon=     1 RMS=8.04D-06 Max=1.12D-04 NDo=     1
 LinEq1:  Iter=  8 NonCon=     1 RMS=3.92D-06 Max=5.65D-05 NDo=     1
 LinEq1:  Iter=  9 NonCon=     1 RMS=1.04D-06 Max=1.21D-05 NDo=     1
 LinEq1:  Iter= 10 NonCon=     1 RMS=2.28D-07 Max=2.88D-06 NDo=     1
 LinEq1:  Iter= 11 NonCon=     1 RMS=4.77D-08 Max=7.70D-07 NDo=     1
 LinEq1:  Iter= 12 NonCon=     1 RMS=1.10D-08 Max=1.79D-07 NDo=     1
 LinEq1:  Iter= 13 NonCon=     1 RMS=1.94D-09 Max=2.12D-08 NDo=     1
 LinEq1:  Iter= 14 NonCon=     1 RMS=4.16D-10 Max=5.69D-09 NDo=     1
 LinEq1:  Iter= 15 NonCon=     0 RMS=8.47D-11 Max=9.24D-10 NDo=     1
 Linear equations converged to 1.000D-10 1.000D-09 after    15 iterations.
 End of Minotr F.D. properties file   721 does not exist.
 End of Minotr F.D. properties file   722 does not exist.
 End of Minotr F.D. properties file   788 does not exist.
 Leave Link 1002 at Sun Mar  6 19:03:19 2022, MaxMem= 16106127360 cpu:              65.4 elap:               2.4
 (Enter /sw/contrib/gaussian/g16/B01/g16/l1102.exe)
 Use density number 2.
 Symmetrizing basis deriv contribution to polar:
 IMax=3 JMax=2 DiffMx= 0.00D+00
 Leave Link 1102 at Sun Mar  6 19:03:20 2022, MaxMem= 16106127360 cpu:               3.3 elap:               0.2
 (Enter /sw/contrib/gaussian/g16/B01/g16/l1110.exe)
 Forming Gx(P) for generalized density number  2 NAtomX=     5.
 Integral derivatives from FoFJK, PRISM(SPDF).
 Do as many integral derivatives as possible in FoFJK.
 G2DrvN: MDV=   16106126844.
 G2DrvN: will do     6 centers at a time, making    1 passes.
 Calling FoFCou, ICntrl=  3107 FMM=F I1Cent=   0 AccDes= 0.00D+00.
 FoFJK:  IHMeth= 1 ICntrl=    3107 DoSepK=F KAlg= 0 I1Cent=           0 FoldK=F
 IRaf=         0 NMat=       1 IRICut=       1 DoRegI=T DoRafI=F ISym2E= 1 IDoP0=0 IntGTp=1.
 FoFCou: FMM=F IPFlag=           0 FMFlag=      100000 FMFlg1=           0
         NFxFlg=           0 DoJE=F BraDBF=F KetDBF=F FulRan=T
         wScrn=  0.000000 ICntrl=      3107 IOpCl=  0 I1Cent=           0 NGrid=           0
         NMat0=    1 NMatS0=      1 NMatT0=    0 NMatD0=    1 NMtDS0=    0 NMtDT0=    0
 Petite list used in FoFCou.
 End of G2Drv F.D. properties file   721 does not exist.
 End of G2Drv F.D. properties file   722 does not exist.
 End of G2Drv F.D. properties file   788 does not exist.
 Leave Link 1110 at Sun Mar  6 19:03:23 2022, MaxMem= 16106127360 cpu:              89.9 elap:               3.3
 (Enter /sw/contrib/gaussian/g16/B01/g16/l1112.exe)
 MP22nd: MDV=   16106127360
 This link is doing NAtomX=     5 total of    18 degrees of freedom.
 Using ON3 I/O method in MakUI.
 Frozen-core window:  NFC=   4 NFV=   0.
 Using Ix for Sx.
 Use MO integrals over full window.
 Using OV2 memory method for fx*t*t/D, MaxI=    16 DoOO2=F NP=  28.
 R2 and R3 integrals will be kept in memory, NReq=   915591705.
 FoFCou: FMM=F IPFlag=           0 FMFlag=           0 FMFlg1=           0
         NFxFlg=           0 DoJE=F BraDBF=F KetDBF=F FulRan=T
         wScrn=  0.000000 ICntrl=       600 IOpCl=  0 I1Cent=           0 NGrid=           0
         NMat0=    1 NMatS0=      1 NMatT0=    0 NMatD0=    1 NMtDS0=    0 NMtDT0=    0
 Symmetry not used in FoFCou.
 DD1Dir will call FoFMem   1 times, MxPair=       272
 NAB=   136 NAA=     0 NBB=     0.
 Symmetry is being used.
 FoFJK:  IHMeth= 1 ICntrl=       0 DoSepK=F KAlg= 0 I1Cent=           0 FoldK=F
 IRaf=         0 NMat=      18 IRICut=      45 DoRegI=T DoRafI=T ISym2E= 2 IDoP0=3 IntGTp=3.
 Discarding MO integrals.
 Leave Link 1112 at Sun Mar  6 19:04:06 2022, MaxMem= 16106127360 cpu:            1183.9 elap:              42.9
 (Enter /sw/contrib/gaussian/g16/B01/g16/l601.exe)
 Copying SCF densities to generalized density rwf, IOpCl= 0 IROHF=0.

 **********************************************************************

            Population analysis using the MP2 Density.

 **********************************************************************

 Orbital symmetries:
       Occupied  (A') (A') (A') (A') (A') (A') (A') (A') (A') (A')
                 (A") (A') (A') (A") (A') (A")
       Virtual   (A') (A") (A') (A') (A") (A') (A') (A') (A") (A')
                 (A") (A') (A') (A") (A') (A') (A') (A") (A') (A')
                 (A') (A') (A') (A') (A") (A') (A') (A") (A') (A')
                 (A') (A") (A") (A') (A') (A') (A") (A') (A") (A')
                 (A") (A") (A') (A') (A") (A') (A') (A") (A') (A')
                 (A') (A") (A') (A') (A") (A') (A") (A') (A") (A')
                 (A') (A') (A") (A') (A') (A") (A') (A") (A') (A')
                 (A") (A') (A") (A") (A') (A') (A") (A') (A') (A')
                 (A") (A') (A') (A") (A') (A") (A") (A') (A') (A')
                 (A') (A') (A") (A") (A') (A') (A") (A") (A') (A")
                 (A') (A') (A") (A') (A") (A') (A') (A') (A") (A")
                 (A') (A') (A') (A') (A") (A') (A') (A') (A") (A')
                 (A") (A') (A") (A') (A") (A") (A') (A") (A') (A')
                 (A') (A') (A") (A') (A') (A") (A") (A') (A') (A')
                 (A") (A") (A') (A') (A') (A") (A') (A') (A') (A")
                 (A') (A') (A') (A") (A') (A") (A") (A') (A') (A")
                 (A') (A") (A') (A") (A") (A') (A") (A') (A") (A")
                 (A') (A") (A") (A') (A") (A') (A') (A') (A") (A')
                 (A') (A') (A') (A') (A') (A') (A') (A') (A') (A')
                 (A')
 The electronic state is 1-A'.
 Alpha  occ. eigenvalues --  -20.71994 -20.68757 -20.66629 -15.82571  -1.64793
 Alpha  occ. eigenvalues --   -1.51240  -1.29106  -0.96156  -0.83857  -0.76048
 Alpha  occ. eigenvalues --   -0.74307  -0.63442  -0.62360  -0.62057  -0.50545
 Alpha  occ. eigenvalues --   -0.49385
 Alpha virt. eigenvalues --    0.03530   0.06016   0.09514   0.10058   0.11956
 Alpha virt. eigenvalues --    0.12302   0.14975   0.15407   0.17746   0.18003
 Alpha virt. eigenvalues --    0.18965   0.21111   0.21692   0.24638   0.25267
 Alpha virt. eigenvalues --    0.26881   0.31410   0.31729   0.33837   0.34464
 Alpha virt. eigenvalues --    0.34882   0.39227   0.44951   0.49009   0.50548
 Alpha virt. eigenvalues --    0.51880   0.54431   0.56114   0.59928   0.62090
 Alpha virt. eigenvalues --    0.63916   0.69023   0.71686   0.72359   0.74531
 Alpha virt. eigenvalues --    0.76470   0.76931   0.79435   0.80676   0.83854
 Alpha virt. eigenvalues --    0.84346   0.85135   0.88615   0.90986   0.93351
 Alpha virt. eigenvalues --    0.94817   0.95320   1.01926   1.03415   1.06586
 Alpha virt. eigenvalues --    1.06713   1.09775   1.14610   1.15762   1.16933
 Alpha virt. eigenvalues --    1.22361   1.22736   1.24730   1.35737   1.35886
 Alpha virt. eigenvalues --    1.37222   1.46749   1.48412   1.50412   1.54343
 Alpha virt. eigenvalues --    1.59777   1.59832   1.60602   1.63083   1.69667
 Alpha virt. eigenvalues --    1.74381   1.80130   1.82993   1.88864   1.90192
 Alpha virt. eigenvalues --    1.93187   1.98271   1.99040   2.05248   2.12578
 Alpha virt. eigenvalues --    2.13148   2.16855   2.18853   2.24359   2.26869
 Alpha virt. eigenvalues --    2.29787   2.35688   2.36789   2.38735   2.40126
 Alpha virt. eigenvalues --    2.44450   2.47141   2.48314   2.53007   2.53932
 Alpha virt. eigenvalues --    2.55372   2.56017   2.61793   2.63661   2.67909
 Alpha virt. eigenvalues --    2.67929   2.76545   2.81559   2.81978   2.84567
 Alpha virt. eigenvalues --    2.92408   2.98814   3.05206   3.05566   3.11791
 Alpha virt. eigenvalues --    3.12196   3.18337   3.22459   3.31757   3.33788
 Alpha virt. eigenvalues --    3.36538   3.49968   3.67822   3.87222   3.93860
 Alpha virt. eigenvalues --    4.19051   4.22774   4.23021   4.27348   4.37228
 Alpha virt. eigenvalues --    4.51866   4.53882   4.56499   4.60630   4.69073
 Alpha virt. eigenvalues --    4.81495   4.90097   4.91605   4.94408   4.99931
 Alpha virt. eigenvalues --    5.00508   5.10821   5.13775   5.17885   5.25199
 Alpha virt. eigenvalues --    5.25849   5.32195   5.35084   5.37155   5.54406
 Alpha virt. eigenvalues --    5.64527   5.71138   5.91747   6.00827   6.23004
 Alpha virt. eigenvalues --    6.29946   6.36742   6.37743   6.59064   6.64518
 Alpha virt. eigenvalues --    6.66266   6.68982   6.72317   6.79667   6.81118
 Alpha virt. eigenvalues --    6.84745   6.97151   7.03589   7.07576   7.08993
 Alpha virt. eigenvalues --    7.14860   7.18460   7.18689   7.22616   7.25451
 Alpha virt. eigenvalues --    7.26384   7.27559   7.35596   7.40531   7.44280
 Alpha virt. eigenvalues --    7.44446   7.47647   7.56499   7.67823   7.68019
 Alpha virt. eigenvalues --    7.81246   7.90575   7.96248   8.08287   8.34211
 Alpha virt. eigenvalues --    8.51321   8.67613  13.70325  14.80144  15.13901
 Alpha virt. eigenvalues --   15.79752
          Condensed to atoms (all electrons):
               1          2          3          4          5
     1  H    0.581597   0.123118   0.023879  -0.000557  -0.002339
     2  O    0.123118   8.421866  -0.261010  -0.002949  -0.009136
     3  O    0.023879  -0.261010   8.393838  -0.167335  -0.033638
     4  N   -0.000557  -0.002949  -0.167335   7.145067  -0.124114
     5  O   -0.002339  -0.009136  -0.033638  -0.124114   8.365795
 Mulliken charges:
               1
     1  H    0.274303
     2  O   -0.271890
     3  O    0.044267
     4  N    0.149889
     5  O   -0.196568
 Sum of Mulliken charges =  -0.00000
 Mulliken charges with hydrogens summed into heavy atoms:
               1
     2  O    0.002412
     3  O    0.044267
     4  N    0.149889
     5  O   -0.196568
 APT charges:
               1
     1  H    0.272061
     2  O   -0.298978
     3  O   -0.310795
     4  N    0.644377
     5  O   -0.306664
 Sum of APT charges =  -0.00000
 APT charges with hydrogens summed into heavy atoms:
               1
     2  O   -0.026917
     3  O   -0.310795
     4  N    0.644377
     5  O   -0.306664
 Electronic spatial extent (au):  <R**2>=            205.7416
 Charge=             -0.0000 electrons
 Dipole moment (field-independent basis, Debye):
    X=              0.0883    Y=             -1.0648    Z=              0.0000  Tot=              1.0684
 Quadrupole moment (field-independent basis, Debye-Ang):
   XX=            -23.3792   YY=            -22.9757   ZZ=            -21.9052
   XY=             -1.9261   XZ=             -0.0000   YZ=             -0.0000
 Traceless Quadrupole moment (field-independent basis, Debye-Ang):
   XX=             -0.6258   YY=             -0.2223   ZZ=              0.8482
   XY=             -1.9261   XZ=             -0.0000   YZ=             -0.0000
 Octapole moment (field-independent basis, Debye-Ang**2):
  XXX=              2.6350  YYY=              0.4123  ZZZ=             -0.0000  XYY=              2.3155
  XXY=             -2.7659  XXZ=              0.0000  XZZ=             -0.5364  YZZ=             -0.6764
  YYZ=              0.0000  XYZ=             -0.0000
 Hexadecapole moment (field-independent basis, Debye-Ang**3):
 XXXX=           -124.7333 YYYY=            -95.4104 ZZZZ=            -17.9945 XXXY=            -21.6753
 XXXZ=             -0.0000 YYYX=            -19.8942 YYYZ=             -0.0000 ZZZX=             -0.0000
 ZZZY=             -0.0000 XXYY=            -35.3797 XXZZ=            -23.9317 YYZZ=            -18.6587
 XXYZ=             -0.0000 YYXZ=             -0.0000 ZZXY=             -5.9681
 N-N= 1.233180511083D+02 E-N=-9.081887036392D+02  KE= 2.802357213997D+02
 Symmetry A'   KE= 2.663782232603D+02
 Symmetry A"   KE= 1.385749813943D+01
  Exact polarizability:  30.573   4.262  29.872   0.000  -0.000  17.561
 Approx polarizability:  24.145   0.674  27.585   0.000  -0.000  15.484
 No NMR shielding tensors so no spin-rotation constants.
 Leave Link  601 at Sun Mar  6 19:04:06 2022, MaxMem= 16106127360 cpu:               4.5 elap:               0.2
 (Enter /sw/contrib/gaussian/g16/B01/g16/l701.exe)
 ... and contract with generalized density number  2.
 Compute integral second derivatives.
 Leave Link  701 at Sun Mar  6 19:04:06 2022, MaxMem= 16106127360 cpu:               5.4 elap:               0.2
 (Enter /sw/contrib/gaussian/g16/B01/g16/l702.exe)
 L702 exits ... SP integral derivatives will be done elsewhere.
 Leave Link  702 at Sun Mar  6 19:04:06 2022, MaxMem= 16106127360 cpu:               0.6 elap:               0.0
 (Enter /sw/contrib/gaussian/g16/B01/g16/l703.exe)
 Integral derivatives from FoFJK, PRISM(SPDF).
 Compute integral second derivatives, UseDBF=F ICtDFT=           0.
 Calling FoFJK, ICntrl=  10100127 FMM=F ISym2X=1 I1Cent= 0 IOpClX= 0 NMat=1 NMatS=1 NMatT=0.
 FoFJK:  IHMeth= 1 ICntrl=10100127 DoSepK=F KAlg= 0 I1Cent=           0 FoldK=F
 IRaf=         0 NMat=       1 IRICut=       1 DoRegI=T DoRafI=F ISym2E= 1 IDoP0=0 IntGTp=1.
 FoFCou: FMM=F IPFlag=           0 FMFlag=      100000 FMFlg1=         800
         NFxFlg=           0 DoJE=F BraDBF=F KetDBF=F FulRan=T
         wScrn=  0.000000 ICntrl=  10100127 IOpCl=  0 I1Cent=           0 NGrid=           0
         NMat0=    1 NMatS0=      1 NMatT0=    0 NMatD0=    1 NMtDS0=    0 NMtDT0=    0
 Petite list used in FoFCou.
 Leave Link  703 at Sun Mar  6 19:04:22 2022, MaxMem= 16106127360 cpu:             448.9 elap:              16.1
 (Enter /sw/contrib/gaussian/g16/B01/g16/l716.exe)
 Dipole        = 3.47224391D-02-4.18918667D-01 4.70882826D-33
 Polarizability= 3.05729089D+01 4.26232911D+00 2.98719842D+01
                 6.35150343D-31-1.05228181D-31 1.75608607D+01
 Full mass-weighted force constant matrix:
 Low frequencies ---  -98.4305  -56.0087   -9.2479    0.0013    0.0018    0.0019
 Low frequencies ---  354.1681  400.2059  525.4298
 Diagonal vibrational polarizability:
        7.1962852       9.9797252      15.7932840
 Harmonic frequencies (cm**-1), IR intensities (KM/Mole), Raman scattering
 activities (A**4/AMU), depolarization ratios for plane and unpolarized
 incident light, reduced masses (AMU), force constants (mDyne/A),
 and normal coordinates:
                      1                      2                      3
                     A"                     A'                     A"
 Frequencies --    354.1523               400.1324               525.3765
 Red. masses --      1.5709                 7.0274                 2.8612
 Frc consts  --      0.1161                 0.6629                 0.4653
 IR Inten    --     61.9378                 8.0158                25.6804
  Atom  AN      X      Y      Z        X      Y      Z        X      Y      Z
     1   1     0.00   0.00   0.98    -0.73  -0.26   0.00     0.00   0.00   0.93
     2   8     0.00   0.00  -0.11    -0.32  -0.32  -0.00     0.00   0.00   0.05
     3   8     0.00  -0.00   0.12    -0.07   0.08   0.00    -0.00  -0.00  -0.18
     4   7    -0.00  -0.00  -0.11     0.05   0.09  -0.00     0.00   0.00   0.27
     5   8    -0.00  -0.00   0.03     0.39   0.17  -0.00    -0.00  -0.00  -0.16
                      4                      5                      6
                     A'                     A'                     A'
 Frequencies --    716.6342               870.4829              1001.7810
 Red. masses --     13.3902                11.2280                10.8319
 Frc consts  --      4.0516                 5.0127                 6.4047
 IR Inten    --    222.4498                30.8526                11.7395
  Atom  AN      X      Y      Z        X      Y      Z        X      Y      Z
     1   1    -0.35  -0.00   0.00     0.52  -0.13   0.00     0.57   0.03  -0.00
     2   8     0.01  -0.09   0.00     0.46  -0.15  -0.00    -0.30   0.21  -0.00
     3   8     0.35   0.59  -0.00    -0.29  -0.12   0.00     0.45  -0.40   0.00
     4   7    -0.41  -0.46   0.00    -0.47  -0.06  -0.00    -0.32  -0.05  -0.00
     5   8     0.01  -0.10  -0.00     0.21   0.32   0.00     0.10   0.24   0.00
                      7                      8                      9
                     A'                     A'                     A'
 Frequencies --   1452.6744              1576.0842              3478.3078
 Red. masses --      1.3753                 5.0939                 1.0634
 Frc consts  --      1.7100                 7.4552                 7.5799
 IR Inten    --     79.5785               152.2461                43.7861
  Atom  AN      X      Y      Z        X      Y      Z        X      Y      Z
     1   1     0.97  -0.19  -0.00    -0.82   0.17   0.00     0.14   0.99   0.00
     2   8    -0.07  -0.05  -0.00     0.02   0.03   0.00    -0.01  -0.06  -0.00
     3   8    -0.03   0.06   0.00    -0.03  -0.06  -0.00     0.00  -0.00   0.00
     4   7     0.07  -0.07  -0.00     0.21  -0.35   0.00    -0.00   0.00   0.00
     5   8    -0.03   0.06   0.00    -0.13   0.32  -0.00     0.00  -0.00  -0.00

 -------------------
 - Thermochemistry -
 -------------------
 Temperature   298.150 Kelvin.  Pressure   1.00000 Atm.
 Atom     1 has atomic number  1 and mass   1.00783
 Atom     2 has atomic number  8 and mass  15.99491
 Atom     3 has atomic number  8 and mass  15.99491
 Atom     4 has atomic number  7 and mass  14.00307
 Atom     5 has atomic number  8 and mass  15.99491
 Molecular mass:    62.99564 amu.
 Principal axes and moments of inertia in atomic units:
                           1         2         3
     Eigenvalues --    83.27900 221.05623 304.33523
           X            0.78504  -0.61945   0.00000
           Y            0.61945   0.78504   0.00000
           Z           -0.00000   0.00000   1.00000
 This molecule is an asymmetric top.
 Rotational symmetry number  1.
 Rotational temperatures (Kelvin)      1.04005     0.39182     0.28460
 Rotational constants (GHZ):          21.67102     8.16417     5.93011
 Zero-point vibrational energy      62060.0 (Joules/Mol)
                                   14.83270 (Kcal/Mol)
 Warning -- explicit consideration of   3 degrees of freedom as
           vibrations may cause significant error
 Vibrational temperatures:    509.55   575.70   755.90  1031.08  1252.43
          (Kelvin)           1441.34  2090.07  2267.63  5004.51
 
 Zero-point correction=                           0.023637 (Hartree/Particle)
 Thermal correction to Energy=                    0.027555
 Thermal correction to Enthalpy=                  0.028499
 Thermal correction to Gibbs Free Energy=        -0.002314
 Sum of electronic and zero-point Energies=           -280.431384
 Sum of electronic and thermal Energies=              -280.427467
 Sum of electronic and thermal Enthalpies=            -280.426522
 Sum of electronic and thermal Free Energies=         -280.457335
 
                     E (Thermal)             CV                S
                      KCal/Mol        Cal/Mol-Kelvin    Cal/Mol-Kelvin
 Total                   17.291             12.052             64.850
 Electronic               0.000              0.000              0.000
 Translational            0.889              2.981             38.341
 Rotational               0.889              2.981             23.242
 Vibrational             15.513              6.091              3.267
 Vibration     1          0.730              1.567              1.148
 Vibration     2          0.766              1.470              0.962
 Vibration     3          0.880              1.194              0.598
                       Q            Log10(Q)             Ln(Q)
 Total Bot       0.115924D+02          1.064174          2.450351
 Total V=0       0.864212D+12         11.936620         27.485084
 Vib (Bot)       0.220147D-10        -10.657286        -24.539309
 Vib (Bot)    1  0.519551D+00         -0.284372         -0.654791
 Vib (Bot)    2  0.445400D+00         -0.351250         -0.808783
 Vib (Bot)    3  0.305717D+00         -0.514681         -1.185096
 Vib (V=0)       0.164119D+01          0.215160          0.495424
 Vib (V=0)    1  0.122106D+01          0.086738          0.199723
 Vib (V=0)    2  0.116961D+01          0.068042          0.156672
 Vib (V=0)    3  0.108606D+01          0.035853          0.082554
 Electronic      0.100000D+01          0.000000          0.000000
 Translational   0.196526D+08          7.293420         16.793719
 Rotational      0.267942D+05          4.428041         10.195941
 
                                                                title
                                                             IR Spectrum
 
     3                                                                     1   1                1                                    
     4                                                                     5   4                0    8    7      5    4 3            
     7                                                                     7   5                0    7    1      2    0 5            
     8                                                                     6   3                2    0    7      5    0 4            
 
     X                                                                     X   X                X    X    X      X    X X            
     X                                                                     X   X                     X    X      X      X            
     X                                                                     X   X                     X    X             X            
     X                                                                     X   X                          X             X            
                                                                           X   X                          X             X            
                                                                           X   X                          X             X            
                                                                           X   X                          X                          
                                                                           X                              X                          
                                                                           X                              X                          
                                                                           X                              X                          
                                                                           X                              X                          
                                                                           X                              X                          
                                                                           X                              X                          
                                                                           X                              X                          
                                                                                                          X                          
                                                                                                          X                          
                                                                                                          X                          
                                                                                                          X                          
                                                                                                          X                          
                                                                                                          X                          
 
 ***** Axes restored to original set *****
 -------------------------------------------------------------------
 Center     Atomic                   Forces (Hartrees/Bohr)
 Number     Number              X              Y              Z
 -------------------------------------------------------------------
      1        1          -0.001241040   -0.000000000   -0.000968527
      2        8          -0.009608010   -0.000000000   -0.001504456
      3        8           0.009229384    0.000000000    0.001901071
      4        7           0.003458572    0.000000000    0.000869425
      5        8          -0.001838906   -0.000000000   -0.000297512
 -------------------------------------------------------------------
 Cartesian Forces:  Max     0.009608010 RMS     0.003670048
 -----------------------------------------------------------------------------------------------
                       Internal Coordinate Forces (Hartree/Bohr or radian)
  Cent   Atom   N1       Length/X         N2         Alpha/Y        N3         Beta/Z          J
 -----------------------------------------------------------------------------------------------
      1  H 
      2  O        1   0.000969(     1)
      3  O        2   0.011119(     2)      1   0.002311(     5)
      4  N        3   0.000425(     3)      2   0.001173(     6)      1   0.000000(     8)     0
      5  O        4   0.001224(     4)      3  -0.003170(     7)      2  -0.000000(     9)     0
 -----------------------------------------------------------------------------------------------
 Internal  Forces:  Max     0.011119090 RMS     0.003986342
 Force constants in Cartesian coordinates: 
                1             2             3             4             5 
      1  0.748245D-01
      2  0.000000D+00  0.610266D-02
      3  0.265171D-01  0.000000D+00  0.434176D+00
      4 -0.519770D-01  0.000000D+00 -0.404639D-02  0.311717D+00
      5  0.000000D+00 -0.271531D-02  0.000000D+00  0.000000D+00  0.969220D-02
      6  0.326975D-01  0.000000D+00 -0.416905D+00 -0.842114D-02  0.000000D+00
      7 -0.270991D-01  0.000000D+00 -0.184593D-01 -0.199869D+00  0.000000D+00
      8  0.000000D+00 -0.387903D-02  0.000000D+00  0.000000D+00 -0.169396D-01
      9 -0.455248D-01  0.000000D+00 -0.215579D-01  0.707895D-02  0.000000D+00
     10 -0.703739D-02  0.000000D+00  0.722185D-02 -0.873875D-01  0.000000D+00
     11  0.000000D+00  0.834761D-02  0.000000D+00  0.000000D+00  0.211693D-01
     12 -0.203210D-01  0.000000D+00  0.126314D-01  0.934171D-02  0.000000D+00
     13  0.112890D-01  0.000000D+00 -0.112333D-01  0.275164D-01  0.000000D+00
     14  0.000000D+00 -0.785593D-02  0.000000D+00  0.000000D+00 -0.112066D-01
     15  0.663108D-02  0.000000D+00 -0.834466D-02 -0.395312D-02  0.000000D+00
                6             7             8             9            10 
      6  0.521752D+00
      7 -0.990342D-01  0.337523D+00
      8  0.000000D+00  0.000000D+00  0.392245D-01
      9 -0.976142D-01  0.880321D-01  0.000000D+00  0.319975D+00
     10  0.411479D-01 -0.144471D+00  0.000000D+00 -0.356509D-01  0.560743D+00
     11  0.000000D+00  0.000000D+00 -0.493200D-01  0.000000D+00  0.000000D+00
     12 -0.119069D-01  0.202190D-01  0.000000D+00 -0.256834D-01  0.241869D+00
     13  0.336099D-01  0.339171D-01  0.000000D+00 -0.139354D-01 -0.321847D+00
     14  0.000000D+00  0.000000D+00  0.309142D-01  0.000000D+00  0.000000D+00
     15  0.467410D-02  0.924242D-02  0.000000D+00 -0.175119D+00 -0.254588D+00
               11            12            13            14            15 
     11  0.574186D-01
     12  0.000000D+00  0.449862D+00
     13  0.000000D+00 -0.251109D+00  0.249124D+00
     14 -0.376155D-01  0.000000D+00  0.000000D+00  0.257638D-01
     15  0.000000D+00 -0.424903D+00  0.242668D+00  0.000000D+00  0.603693D+00
 Force constants in internal coordinates: 
                1             2             3             4             5 
      1  0.434176D+00
      2  0.252722D-01  0.294081D+00
      3  0.579333D-02  0.158958D-01  0.211693D+00
      4 -0.130198D-01  0.239913D-01  0.149460D+00  0.722429D+00
      5  0.481361D-01  0.621636D-01 -0.255907D-01  0.215897D-01  0.261248D+00
      6  0.140628D-01  0.241948D-01  0.952531D-01  0.100272D-01 -0.575841D-02
      7  0.115797D-01 -0.786966D-01  0.121141D+00  0.118486D+00 -0.255685D-01
      8  0.000000D+00  0.000000D+00  0.000000D+00  0.000000D+00  0.000000D+00
      9  0.000000D+00  0.000000D+00  0.000000D+00  0.000000D+00  0.000000D+00
                6             7             8             9 
      6  0.537358D+00
      7  0.629469D-01  0.667451D+00
      8  0.000000D+00  0.000000D+00  0.217623D-01
      9  0.000000D+00  0.000000D+00  0.295774D-01  0.112523D+00
 Leave Link  716 at Sun Mar  6 19:04:23 2022, MaxMem= 16106127360 cpu:               1.2 elap:               0.1
 (Enter /sw/contrib/gaussian/g16/B01/g16/l103.exe)

 GradGradGradGradGradGradGradGradGradGradGradGradGradGradGradGradGradGrad
 Berny optimization.
 Search for a local minimum.
 Step number   1 out of a maximum of    2
 All quantities printed in internal units (Hartrees-Bohrs-Radians)
 Second derivative matrix not updated -- analytic derivatives used.
 The second derivative matrix:
                          r1        r2        r3        r4        a1
           r1           0.43418
           r2           0.02527   0.29408
           r3           0.00579   0.01590   0.21169
           r4          -0.01302   0.02399   0.14946   0.72243
           a1           0.04814   0.06216  -0.02559   0.02159   0.26125
           a2           0.01406   0.02419   0.09525   0.01003  -0.00576
           a3           0.01158  -0.07870   0.12114   0.11849  -0.02557
           d1           0.00000   0.00000   0.00000  -0.00000  -0.00000
           d2           0.00000  -0.00000  -0.00000  -0.00000  -0.00000
                          a2        a3        d1        d2
           a2           0.53736
           a3           0.06295   0.66745
           d1           0.00000  -0.00000   0.02176
           d2          -0.00000   0.00000   0.02958   0.11252
 ITU=  0
     Eigenvalues ---    0.01297   0.12131   0.12896   0.21793   0.29368
     Eigenvalues ---    0.45076   0.53376   0.61446   0.88888
 Angle between quadratic step and forces=  21.44 degrees.
 Linear search not attempted -- first point.
 Variable       Old X    -DE/DX   Delta X   Delta X   Delta X     New X
                                 (Linear)    (Quad)   (Total)
    r1        1.86209   0.00097   0.00000   0.00010   0.00010   1.86220
    r2        2.65634   0.01112   0.00000   0.03778   0.03778   2.69412
    r3        2.60992   0.00042   0.00000  -0.00169  -0.00169   2.60822
    r4        2.25782   0.00122   0.00000   0.00083   0.00083   2.25865
    a1        1.75642   0.00231   0.00000  -0.00040  -0.00040   1.75602
    a2        1.97463   0.00117   0.00000   0.00079   0.00079   1.97541
    a3        1.99550  -0.00317   0.00000  -0.00023  -0.00023   1.99528
    d1        0.00000   0.00000   0.00000  -0.00000  -0.00000  -0.00000
    d2        0.00000  -0.00000   0.00000   0.00000   0.00000   0.00000
         Item               Value     Threshold  Converged?
 Maximum Force            0.011119     0.000450     NO 
 RMS     Force            0.003986     0.000300     NO 
 Maximum Displacement     0.037785     0.001800     NO 
 RMS     Displacement     0.012614     0.001200     NO 
 Predicted change in Energy=-2.106172D-04
                       ----------------------------
                       ! Non-Optimized Parameters !
                       ! (Angstroms and Degrees)  !
 ----------------------                            ----------------------
 !      Name          Value   Derivative information (Atomic Units)     !
 ------------------------------------------------------------------------
 !       r1          0.9854   -DE/DX =    0.001                         !
 !       r2          1.4257   -DE/DX =    0.0111                        !
 !       r3          1.3802   -DE/DX =    0.0004                        !
 !       r4          1.1952   -DE/DX =    0.0012                        !
 !       a1        100.6124   -DE/DX =    0.0023                        !
 !       a2        113.1828   -DE/DX =    0.0012                        !
 !       a3        114.3209   -DE/DX =   -0.0032                        !
 !       d1          0.0      -DE/DX =    0.0                           !
 !       d2          0.0      -DE/DX =    0.0                           !
 ------------------------------------------------------------------------
 GradGradGradGradGradGradGradGradGradGradGradGradGradGradGradGradGradGrad

 Leave Link  103 at Sun Mar  6 19:04:23 2022, MaxMem= 16106127360 cpu:               0.6 elap:               0.0
 (Enter /sw/contrib/gaussian/g16/B01/g16/l9999.exe)

 ----------------------------------------------------------------------

 Electric dipole moment (input orientation):
 (Debye = 10**-18 statcoulomb cm , SI units = C m)
                  (au)            (Debye)         (10**-30 SI)
   Tot        0.420355D+00      0.106844D+01      0.356392D+01
   x         -0.119394D+00     -0.303470D+00     -0.101227D+01
   y          0.000000D+00      0.000000D+00      0.000000D+00
   z         -0.403043D+00     -0.102443D+01     -0.341714D+01

 Dipole polarizability, Alpha (input orientation).
 (esu units = cm**3 , SI units = C**2 m**2 J**-1)
 Alpha(0;0):
               (au)            (10**-24 esu)      (10**-40 SI)
   iso        0.260019D+02      0.385309D+01      0.428714D+01
   aniso      0.146692D+02      0.217376D+01      0.241863D+01
   xx         0.288424D+02      0.427401D+01      0.475548D+01
   yx         0.000000D+00      0.000000D+00      0.000000D+00
   yy         0.175609D+02      0.260225D+01      0.289539D+01
   zx        -0.404794D+01     -0.599843D+00     -0.667416D+00
   zy         0.000000D+00      0.000000D+00      0.000000D+00
   zz         0.316025D+02      0.468300D+01      0.521054D+01

 ----------------------------------------------------------------------

 Dipole orientation:
     1         -0.00000000          0.00000000          0.00000000
     8         -0.52889280          0.00000000         -1.78540162
     8          1.83504459          0.00000000         -2.99698893
     7          3.84236250         -0.00000000         -1.32895653
     8          3.24309391         -0.00000000          0.84788561

 Electric dipole moment (dipole orientation):
 (Debye = 10**-18 statcoulomb cm , SI units = C m)
                  (au)            (Debye)         (10**-30 SI)
   Tot        0.420355D+00      0.106844D+01      0.356392D+01
   x          0.000000D+00      0.000000D+00      0.000000D+00
   y          0.000000D+00      0.000000D+00      0.000000D+00
   z          0.420355D+00      0.106844D+01      0.356392D+01

 Dipole polarizability, Alpha (dipole orientation).
 (esu units = cm**3 , SI units = C**2 m**2 J**-1)
 Alpha(0;0):
               (au)            (10**-24 esu)      (10**-40 SI)
   iso        0.260019D+02      0.385309D+01      0.428714D+01
   aniso      0.146692D+02      0.217376D+01      0.241863D+01
   xx         0.312699D+02      0.463372D+01      0.515571D+01
   yx         0.000000D+00      0.000000D+00      0.000000D+00
   yy         0.175609D+02      0.260225D+01      0.289539D+01
   zx         0.414646D+01      0.614442D+00      0.683659D+00
   zy         0.000000D+00      0.000000D+00      0.000000D+00
   zz         0.291750D+02      0.432329D+01      0.481031D+01

 ----------------------------------------------------------------------
 1\1\GINC-N2110\Freq\RMP2-FC\Aug-CC-pVTZ\H1N1O3\CGAVINH\06-Mar-2022\1\\
 #p freq mp2/aug-cc-pvtz density=current\\title\\0,1\H\O,1,r1\O,2,r2,1,
 a1\N,3,r3,2,a2,1,d1,0\O,4,r4,3,a3,2,d2,0\\r1=0.98537664\r2=1.40567475\
 r3=1.38110764\r4=1.19478846\a1=100.6355057\a2=113.13777052\a3=114.3339
 2022\d1=0.\d2=0.\\Version=ES64L-G16RevB.01\State=1-A'\HF=-279.5074369\
 MP2=-280.455021\RMSD=4.064e-09\RMSF=3.670e-03\ZeroPoint=0.0236374\Ther
 mal=0.0275545\Dipole=-0.1193941,0.,-0.4030429\DipoleDeriv=0.3171354,0.
 ,0.038712,0.,0.2969794,0.,-0.0312606,0.,0.2020679,-0.5282097,0.,0.3044
 2,0.,-0.2508246,0.,-0.1036139,0.,-0.1179008,0.0090187,0.,0.3107947,0.,
 -0.0082045,0.,0.4509386,0.,-0.9332003,0.1967911,0.,-0.1319156,0.,0.009
 1319,0.,-0.6731898,0.,1.7272085,0.0052646,0.,-0.5220111,0.,-0.0470822,
 0.,0.3571257,0.,-0.8781753\Polar=28.842435,0.,17.5608607,-4.0479428,0.
 ,31.6024581\Quadrupole=0.1187794,0.6305889,-0.7493683,0.,1.3728531,0.\
 PG=CS [SG(H1N1O3)]\NImag=0\\0.07482449,0.,0.00610266,0.02651710,0.,0.4
 3417571,-0.05197702,0.,-0.00404639,0.31171739,0.,-0.00271531,0.,0.,0.0
 0969220,0.03269754,0.,-0.41690464,-0.00842114,0.,0.52175161,-0.0270991
 3,0.,-0.01845931,-0.19986930,0.,-0.09903422,0.33752263,0.,-0.00387903,
 0.,0.,-0.01693963,0.,0.,0.03922447,-0.04552475,0.,-0.02155785,0.007078
 95,0.,-0.09761418,0.08803212,0.,0.31997461,-0.00703739,0.,0.00722185,-
 0.08738748,0.,0.04114789,-0.14447129,0.,-0.03565091,0.56074303,0.,0.00
 834761,0.,0.,0.02116932,0.,0.,-0.04932003,0.,0.,0.05741865,-0.02032096
 ,0.,0.01263144,0.00934171,0.,-0.01190690,0.02021899,0.,-0.02568338,0.2
 4186915,0.,0.44986188,0.01128904,0.,-0.01123325,0.02751641,0.,0.033609
 94,0.03391709,0.,-0.01393541,-0.32184687,0.,-0.25110889,0.24912433,0.,
 -0.00785593,0.,0.,-0.01120658,0.,0.,0.03091422,0.,0.,-0.03761554,0.,0.
 ,0.02576383,0.00663108,0.,-0.00834466,-0.00395312,0.,0.00467410,0.0092
 4242,0.,-0.17511920,-0.25458798,0.,-0.42490305,0.24266761,0.,0.6036928
 1\\0.00124104,0.,0.00096853,0.00960801,0.,0.00150446,-0.00922938,0.,-0
 .00190107,-0.00345857,0.,-0.00086943,0.00183891,0.,0.00029751\\\@


 IF OTHER PEOPLE ARE GOING TO TALK, CONVERSATION IS SIMPLY IMPOSSIBLE.

                                               -- WHISTLER'S PRINCIPLE
 Job cpu time:       0 days  2 hours  4 minutes  7.9 seconds.
 Elapsed time:       0 days  0 hours  4 minutes 29.4 seconds.
 File lengths (MBytes):  RWF=   7239 Int=      0 D2E=      0 Chk=      8 Scr=      1
 Normal termination of Gaussian 16 at Sun Mar  6 19:04:24 2022.
