 Entering Gaussian System, Link 0=g16
 Input=hoono_r4_1p186378.gjf
 Output=hoono_r4_1p186378.log
 Initial command:
 /sw/contrib/gaussian/g16/B01/g16/l1.exe "/scr/Gau-1917.inp" -scrdir="/scr/"
 Entering Link 1 = /sw/contrib/gaussian/g16/B01/g16/l1.exe PID=      1918.
  
 Copyright (c) 1988-2017, Gaussian, Inc.  All Rights Reserved.
  
 This is part of the Gaussian(R) 16 program.  It is based on
 the Gaussian(R) 09 system (copyright 2009, Gaussian, Inc.),
 the Gaussian(R) 03 system (copyright 2003, Gaussian, Inc.),
 the Gaussian(R) 98 system (copyright 1998, Gaussian, Inc.),
 the Gaussian(R) 94 system (copyright 1995, Gaussian, Inc.),
 the Gaussian 92(TM) system (copyright 1992, Gaussian, Inc.),
 the Gaussian 90(TM) system (copyright 1990, Gaussian, Inc.),
 the Gaussian 88(TM) system (copyright 1988, Gaussian, Inc.),
 the Gaussian 86(TM) system (copyright 1986, Carnegie Mellon
 University), and the Gaussian 82(TM) system (copyright 1983,
 Carnegie Mellon University). Gaussian is a federally registered
 trademark of Gaussian, Inc.
  
 This software contains proprietary and confidential information,
 including trade secrets, belonging to Gaussian, Inc.
  
 This software is provided under written license and may be
 used, copied, transmitted, or stored only in accord with that
 written license.
  
 The following legend is applicable only to US Government
 contracts under FAR:
  
                    RESTRICTED RIGHTS LEGEND
  
 Use, reproduction and disclosure by the US Government is
 subject to restrictions as set forth in subparagraphs (a)
 and (c) of the Commercial Computer Software - Restricted
 Rights clause in FAR 52.227-19.
  
 Gaussian, Inc.
 340 Quinnipiac St., Bldg. 40, Wallingford CT 06492
  
  
 ---------------------------------------------------------------
 Warning -- This program may not be used in any manner that
 competes with the business of Gaussian, Inc. or will provide
 assistance to any competitor of Gaussian, Inc.  The licensee
 of this program is prohibited from giving any competitor of
 Gaussian, Inc. access to this program.  By using this program,
 the user acknowledges that Gaussian, Inc. is engaged in the
 business of creating and licensing software in the field of
 computational chemistry and represents and warrants to the
 licensee that it is not a competitor of Gaussian, Inc. and that
 it will not use this program in any manner prohibited above.
 ---------------------------------------------------------------
  

 Cite this work as:
 Gaussian 16, Revision B.01,
 M. J. Frisch, G. W. Trucks, H. B. Schlegel, G. E. Scuseria, 
 M. A. Robb, J. R. Cheeseman, G. Scalmani, V. Barone, 
 G. A. Petersson, H. Nakatsuji, X. Li, M. Caricato, A. V. Marenich, 
 J. Bloino, B. G. Janesko, R. Gomperts, B. Mennucci, H. P. Hratchian, 
 J. V. Ortiz, A. F. Izmaylov, J. L. Sonnenberg, D. Williams-Young, 
 F. Ding, F. Lipparini, F. Egidi, J. Goings, B. Peng, A. Petrone, 
 T. Henderson, D. Ranasinghe, V. G. Zakrzewski, J. Gao, N. Rega, 
 G. Zheng, W. Liang, M. Hada, M. Ehara, K. Toyota, R. Fukuda, 
 J. Hasegawa, M. Ishida, T. Nakajima, Y. Honda, O. Kitao, H. Nakai, 
 T. Vreven, K. Throssell, J. A. Montgomery, Jr., J. E. Peralta, 
 F. Ogliaro, M. J. Bearpark, J. J. Heyd, E. N. Brothers, K. N. Kudin, 
 V. N. Staroverov, T. A. Keith, R. Kobayashi, J. Normand, 
 K. Raghavachari, A. P. Rendell, J. C. Burant, S. S. Iyengar, 
 J. Tomasi, M. Cossi, J. M. Millam, M. Klene, C. Adamo, R. Cammi, 
 J. W. Ochterski, R. L. Martin, K. Morokuma, O. Farkas, 
 J. B. Foresman, and D. J. Fox, Gaussian, Inc., Wallingford CT, 2016.
 
 ******************************************
 Gaussian 16:  ES64L-G16RevB.01 20-Dec-2017
                 6-Mar-2022 
 ******************************************
 %nproc=28
 Will use up to   28 processors via shared memory.
 %mem=120GB
 %chk=hoono_r4_1p186378.chk
 ---------------------------------------
 #p freq mp2/aug-cc-pvtz density=current
 ---------------------------------------
 1/10=4,30=1,38=1/1,3;
 2/12=2,17=6,18=5,40=1/2;
 3/5=16,6=1,7=10,11=9,25=1,30=1,71=2,140=1/1,2,3;
 4//1;
 5/5=2,38=5,98=1/2;
 8/6=3,8=1,10=1,19=11,30=-1/1;
 9/15=3,16=-3/6;
 11/6=1,8=1,15=11,17=12,24=-1,27=1,28=-2,29=300,32=6,42=3/1,2,10;
 10/6=2,21=1/2;
 8/6=4,8=1,10=1,19=11,30=-1/11,4;
 10/5=1,20=4/2;
 11/12=2,14=11,16=1,17=2,28=-2,42=3,76=2/2,10,12;
 6/7=2,8=2,9=2,10=2,22=-1/1;
 7/8=1,10=1,12=2,25=1,44=2/1,2,3,16;
 1/10=4,30=1/3;
 99//99;
 Leave Link    1 at Sun Mar  6 19:16:53 2022, MaxMem= 16106127360 cpu:               2.3 elap:               0.1
 (Enter /sw/contrib/gaussian/g16/B01/g16/l101.exe)
 -----
 title
 -----
 Symbolic Z-matrix:
 Charge =  0 Multiplicity = 1
 H
 O                    1    r1
 O                    2    r2       1    a1
 N                    3    r3       2    a2       1    d1       0
 O                    4    r4       3    a3       2    d2       0
       Variables:
  r1                    0.98538                  
  r2                    1.42674                  
  r3                    1.38111                  
  r4                    1.18638                  
  a1                  100.63551                  
  a2                  113.13777                  
  a3                  114.33392                  
  d1                    0.                       
  d2                    0.                       
 
 ITRead=  0  0  0  0  0
 MicOpt= -1 -1 -1 -1 -1
 NAtoms=      5 NQM=        5 NQMF=       0 NMMI=      0 NMMIF=      0
                NMic=       0 NMicF=      0.
                    Isotopes and Nuclear Properties:
 (Nuclear quadrupole moments (NQMom) in fm**2, nuclear magnetic moments (NMagM)
  in nuclear magnetons)

  Atom         1           2           3           4           5
 IAtWgt=           1          16          16          14          16
 AtmWgt=   1.0078250  15.9949146  15.9949146  14.0030740  15.9949146
 NucSpn=           1           0           0           2           0
 AtZEff=  -0.0000000  -0.0000000  -0.0000000  -0.0000000  -0.0000000
 NQMom=    0.0000000   0.0000000   0.0000000   2.0440000   0.0000000
 NMagM=    2.7928460   0.0000000   0.0000000   0.4037610   0.0000000
 AtZNuc=   1.0000000   8.0000000   8.0000000   7.0000000   8.0000000
 Leave Link  101 at Sun Mar  6 19:16:53 2022, MaxMem= 16106127360 cpu:               3.3 elap:               0.2
 (Enter /sw/contrib/gaussian/g16/B01/g16/l103.exe)

 GradGradGradGradGradGradGradGradGradGradGradGradGradGradGradGradGradGrad
 Berny optimization.
 Initialization pass.
                       ----------------------------
                       !    Initial Parameters    !
                       ! (Angstroms and Degrees)  !
 ----------------------                            ----------------------
 !      Name          Value   Derivative information (Atomic Units)     !
 ------------------------------------------------------------------------
 !       r1          0.9854   calculate D2E/DX2 analytically            !
 !       r2          1.4267   calculate D2E/DX2 analytically            !
 !       r3          1.3811   calculate D2E/DX2 analytically            !
 !       r4          1.1864   calculate D2E/DX2 analytically            !
 !       a1        100.6355   calculate D2E/DX2 analytically            !
 !       a2        113.1378   calculate D2E/DX2 analytically            !
 !       a3        114.3339   calculate D2E/DX2 analytically            !
 !       d1          0.0      calculate D2E/DX2 analytically            !
 !       d2          0.0      calculate D2E/DX2 analytically            !
 ------------------------------------------------------------------------
 Trust Radius=3.00D-01 FncErr=1.00D-07 GrdErr=1.00D-07 EigMax=2.50D+02 EigMin=1.00D-04
 Number of steps in this run=      2 maximum allowed number of steps=      2.
 GradGradGradGradGradGradGradGradGradGradGradGradGradGradGradGradGradGrad

 Leave Link  103 at Sun Mar  6 19:16:53 2022, MaxMem= 16106127360 cpu:               0.6 elap:               0.0
 (Enter /sw/contrib/gaussian/g16/B01/g16/l202.exe)
                          Input orientation:                          
 ---------------------------------------------------------------------
 Center     Atomic      Atomic             Coordinates (Angstroms)
 Number     Number       Type             X           Y           Z
 ---------------------------------------------------------------------
      1          1           0        0.000000    0.000000    0.000000
      2          8           0        0.000000    0.000000    0.985377
      3          8           0        1.402227    0.000000    1.248696
      4          7           0        2.169996    0.000000    0.100659
      5          8           0        1.543194    0.000000   -0.906622
 ---------------------------------------------------------------------
                    Distance matrix (angstroms):
                    1          2          3          4          5
     1  H    0.000000
     2  O    0.985377   0.000000
     3  O    1.877627   1.426737   0.000000
     4  N    2.172329   2.343418   1.381108   0.000000
     5  O    1.789808   2.441538   2.159923   1.186378   0.000000
 Stoichiometry    HNO3
 Framework group  CS[SG(HNO3)]
 Deg. of freedom     7
 Full point group                 CS      NOp   2
 Largest Abelian subgroup         CS      NOp   2
 Largest concise Abelian subgroup C1      NOp   1
                         Standard orientation:                         
 ---------------------------------------------------------------------
 Center     Atomic      Atomic             Coordinates (Angstroms)
 Number     Number       Type             X           Y           Z
 ---------------------------------------------------------------------
      1          1           0        1.110370   -0.599110    0.000000
      2          8           0        1.316258    0.364518    0.000000
      3          8           0       -0.000000    0.915010    0.000000
      4          7           0       -0.990697   -0.047267    0.000000
      5          8           0       -0.588195   -1.163280    0.000000
 ---------------------------------------------------------------------
 Rotational constants (GHZ):          21.4892036           8.1193745           5.8928494
 Leave Link  202 at Sun Mar  6 19:16:53 2022, MaxMem= 16106127360 cpu:               0.3 elap:               0.0
 (Enter /sw/contrib/gaussian/g16/B01/g16/l301.exe)
 Standard basis: Aug-CC-pVTZ (5D, 7F)
 Ernie: Thresh=  0.10000D-02 Tol=  0.10000D-05 Strict=F.
 Ernie:  12 primitive shells out of 131 were deleted.
 There are   166 symmetry adapted cartesian basis functions of A'  symmetry.
 There are    79 symmetry adapted cartesian basis functions of A"  symmetry.
 There are   136 symmetry adapted basis functions of A'  symmetry.
 There are    71 symmetry adapted basis functions of A"  symmetry.
   207 basis functions,   315 primitive gaussians,   245 cartesian basis functions
    16 alpha electrons       16 beta electrons
       nuclear repulsion energy       122.9909341767 Hartrees.
 IExCor=    0 DFT=F Ex=HF Corr=None ExCW=0 ScaHFX=  1.000000
 ScaDFX=  1.000000  1.000000  1.000000  1.000000 ScalE2=  1.000000  1.000000
 IRadAn=      5 IRanWt=     -1 IRanGd=            0 ICorTp=0 IEmpDi=  4
 NAtoms=    5 NActive=    5 NUniq=    5 SFac= 1.00D+00 NAtFMM=   60 NAOKFM=F Big=F
 Integral buffers will be    131072 words long.
 Raffenetti 1 integral format.
 Two-electron integral symmetry is turned on.
 Leave Link  301 at Sun Mar  6 19:16:53 2022, MaxMem= 16106127360 cpu:               1.3 elap:               0.1
 (Enter /sw/contrib/gaussian/g16/B01/g16/l302.exe)
 NPDir=0 NMtPBC=     1 NCelOv=     1 NCel=       1 NClECP=     1 NCelD=      1
         NCelK=      1 NCelE2=     1 NClLst=     1 CellRange=     0.0.
 One-electron integrals computed using PRISM.
 One-electron integral symmetry used in STVInt
 NBasis=   207 RedAO= T EigKep=  1.30D-04  NBF=   136    71
 NBsUse=   207 1.00D-06 EigRej= -1.00D+00 NBFU=   136    71
 Leave Link  302 at Sun Mar  6 19:16:53 2022, MaxMem= 16106127360 cpu:               4.9 elap:               0.2
 (Enter /sw/contrib/gaussian/g16/B01/g16/l303.exe)
 DipDrv:  MaxL=1.
 Leave Link  303 at Sun Mar  6 19:16:53 2022, MaxMem= 16106127360 cpu:               0.7 elap:               0.0
 (Enter /sw/contrib/gaussian/g16/B01/g16/l401.exe)
 ExpMin= 2.53D-02 ExpMax= 1.53D+04 ExpMxC= 5.22D+02 IAcc=3 IRadAn=         5 AccDes= 0.00D+00
 Harris functional with IExCor=  205 and IRadAn=       5 diagonalized for initial guess.
 HarFok:  IExCor=  205 AccDes= 0.00D+00 IRadAn=         5 IDoV= 1 UseB2=F ITyADJ=14
 ICtDFT=  3500011 ScaDFX=  1.000000  1.000000  1.000000  1.000000
 FoFCou: FMM=F IPFlag=           0 FMFlag=      100000 FMFlg1=           0
         NFxFlg=           0 DoJE=T BraDBF=F KetDBF=T FulRan=T
         wScrn=  0.000000 ICntrl=       500 IOpCl=  0 I1Cent=   200000004 NGrid=           0
         NMat0=    1 NMatS0=      1 NMatT0=    0 NMatD0=    1 NMtDS0=    0 NMtDT0=    0
 Petite list used in FoFCou.
 Harris En= -279.644833222255    
 JPrj=0 DoOrth=F DoCkMO=F.
 Initial guess orbital symmetries:
       Occupied  (A') (A') (A') (A') (A') (A') (A') (A') (A') (A')
                 (A") (A') (A") (A') (A") (A')
       Virtual   (A") (A') (A') (A') (A') (A") (A') (A') (A') (A')
                 (A") (A') (A") (A') (A') (A") (A') (A') (A") (A')
                 (A') (A') (A') (A') (A") (A') (A') (A') (A") (A')
                 (A') (A") (A") (A') (A') (A") (A') (A") (A') (A")
                 (A') (A") (A') (A") (A') (A') (A') (A") (A') (A')
                 (A') (A") (A') (A") (A') (A") (A') (A') (A') (A")
                 (A') (A') (A") (A') (A') (A') (A") (A") (A') (A')
                 (A") (A') (A") (A") (A') (A') (A") (A') (A') (A')
                 (A") (A') (A') (A") (A') (A") (A') (A") (A') (A')
                 (A') (A") (A') (A") (A') (A') (A") (A') (A") (A')
                 (A") (A') (A') (A") (A") (A') (A') (A') (A") (A')
                 (A") (A') (A') (A') (A") (A') (A') (A') (A") (A')
                 (A") (A') (A') (A") (A") (A") (A") (A') (A') (A')
                 (A') (A') (A') (A") (A') (A") (A') (A") (A') (A')
                 (A") (A") (A') (A') (A') (A") (A') (A') (A') (A")
                 (A') (A') (A') (A") (A') (A") (A") (A') (A') (A")
                 (A') (A") (A") (A') (A") (A') (A') (A") (A") (A')
                 (A") (A") (A") (A') (A') (A") (A') (A') (A") (A')
                 (A') (A') (A') (A') (A') (A') (A') (A') (A') (A')
                 (A')
 The electronic state of the initial guess is 1-A'.
 Leave Link  401 at Sun Mar  6 19:16:54 2022, MaxMem= 16106127360 cpu:               5.9 elap:               0.3
 (Enter /sw/contrib/gaussian/g16/B01/g16/l502.exe)
 Keep R1 ints in memory in symmetry-blocked form, NReq=348887737.
 FoFCou: FMM=F IPFlag=           0 FMFlag=           0 FMFlg1=           0
         NFxFlg=           0 DoJE=F BraDBF=F KetDBF=F FulRan=T
         wScrn=  0.000000 ICntrl=       600 IOpCl=  0 I1Cent=           0 NGrid=           0
         NMat0=    1 NMatS0=  21528 NMatT0=    0 NMatD0=    1 NMtDS0=    0 NMtDT0=    0
 Petite list used in FoFCou.
 Closed shell SCF:
 Using DIIS extrapolation, IDIIS=  1040.
 NGot= 16106127360 LenX= 15988850015 LenY= 15988789549
 Requested convergence on RMS density matrix=1.00D-08 within 128 cycles.
 Requested convergence on MAX density matrix=1.00D-06.
 Requested convergence on             energy=1.00D-06.
 No special actions if energy rises.

 Cycle   1  Pass 1  IDiag  1:
 E= -279.367067615648    
 DIIS: error= 2.73D-02 at cycle   1 NSaved=   1.
 NSaved= 1 IEnMin= 1 EnMin= -279.367067615648     IErMin= 1 ErrMin= 2.73D-02
 ErrMax= 2.73D-02  0.00D+00 EMaxC= 1.00D-01 BMatC= 4.49D-01 BMatP= 4.49D-01
 IDIUse=3 WtCom= 7.27D-01 WtEn= 2.73D-01
 Coeff-Com:  0.100D+01
 Coeff-En:   0.100D+01
 Coeff:      0.100D+01
 Gap=     0.501 Goal=   None    Shift=    0.000
 GapD=    0.501 DampG=2.000 DampE=0.500 DampFc=1.0000 IDamp=-1.
 RMSDP=1.67D-03 MaxDP=8.75D-02              OVMax= 1.20D-01

 Cycle   2  Pass 1  IDiag  1:
 E= -279.450036426339     Delta-E=       -0.082968810691 Rises=F Damp=F
 DIIS: error= 1.88D-02 at cycle   2 NSaved=   2.
 NSaved= 2 IEnMin= 2 EnMin= -279.450036426339     IErMin= 2 ErrMin= 1.88D-02
 ErrMax= 1.88D-02  0.00D+00 EMaxC= 1.00D-01 BMatC= 8.26D-02 BMatP= 4.49D-01
 IDIUse=3 WtCom= 8.12D-01 WtEn= 1.88D-01
 Coeff-Com:  0.213D+00 0.787D+00
 Coeff-En:   0.536D-01 0.946D+00
 Coeff:      0.183D+00 0.817D+00
 Gap=     0.561 Goal=   None    Shift=    0.000
 RMSDP=9.56D-04 MaxDP=3.70D-02 DE=-8.30D-02 OVMax= 8.82D-02

 Cycle   3  Pass 1  IDiag  1:
 E= -279.485748001618     Delta-E=       -0.035711575279 Rises=F Damp=F
 DIIS: error= 1.10D-02 at cycle   3 NSaved=   3.
 NSaved= 3 IEnMin= 3 EnMin= -279.485748001618     IErMin= 3 ErrMin= 1.10D-02
 ErrMax= 1.10D-02  0.00D+00 EMaxC= 1.00D-01 BMatC= 3.05D-02 BMatP= 8.26D-02
 IDIUse=3 WtCom= 8.90D-01 WtEn= 1.10D-01
 Coeff-Com: -0.346D-01 0.368D+00 0.667D+00
 Coeff-En:   0.000D+00 0.223D+00 0.777D+00
 Coeff:     -0.308D-01 0.352D+00 0.679D+00
 Gap=     0.541 Goal=   None    Shift=    0.000
 RMSDP=4.06D-04 MaxDP=1.54D-02 DE=-3.57D-02 OVMax= 3.78D-02

 Cycle   4  Pass 1  IDiag  1:
 E= -279.506534728837     Delta-E=       -0.020786727219 Rises=F Damp=F
 DIIS: error= 1.64D-03 at cycle   4 NSaved=   4.
 NSaved= 4 IEnMin= 4 EnMin= -279.506534728837     IErMin= 4 ErrMin= 1.64D-03
 ErrMax= 1.64D-03  0.00D+00 EMaxC= 1.00D-01 BMatC= 5.81D-04 BMatP= 3.05D-02
 IDIUse=3 WtCom= 9.84D-01 WtEn= 1.64D-02
 Coeff-Com: -0.118D-01 0.477D-01 0.153D+00 0.812D+00
 Coeff-En:   0.000D+00 0.000D+00 0.000D+00 0.100D+01
 Coeff:     -0.116D-01 0.470D-01 0.150D+00 0.815D+00
 Gap=     0.527 Goal=   None    Shift=    0.000
 RMSDP=9.77D-05 MaxDP=2.30D-03 DE=-2.08D-02 OVMax= 1.16D-02

 Cycle   5  Pass 1  IDiag  1:
 E= -279.507322142160     Delta-E=       -0.000787413323 Rises=F Damp=F
 DIIS: error= 1.08D-03 at cycle   5 NSaved=   5.
 NSaved= 5 IEnMin= 5 EnMin= -279.507322142160     IErMin= 5 ErrMin= 1.08D-03
 ErrMax= 1.08D-03  0.00D+00 EMaxC= 1.00D-01 BMatC= 9.98D-05 BMatP= 5.81D-04
 IDIUse=3 WtCom= 9.89D-01 WtEn= 1.08D-02
 Coeff-Com:  0.530D-02-0.662D-01-0.109D+00 0.605D-01 0.111D+01
 Coeff-En:   0.000D+00 0.000D+00 0.000D+00 0.000D+00 0.100D+01
 Coeff:      0.524D-02-0.655D-01-0.108D+00 0.598D-01 0.111D+01
 Gap=     0.531 Goal=   None    Shift=    0.000
 RMSDP=7.87D-05 MaxDP=2.09D-03 DE=-7.87D-04 OVMax= 1.27D-02

 Cycle   6  Pass 1  IDiag  1:
 E= -279.507673976096     Delta-E=       -0.000351833937 Rises=F Damp=F
 DIIS: error= 3.31D-04 at cycle   6 NSaved=   6.
 NSaved= 6 IEnMin= 6 EnMin= -279.507673976096     IErMin= 6 ErrMin= 3.31D-04
 ErrMax= 3.31D-04  0.00D+00 EMaxC= 1.00D-01 BMatC= 2.34D-05 BMatP= 9.98D-05
 IDIUse=3 WtCom= 9.97D-01 WtEn= 3.31D-03
 Coeff-Com:  0.187D-02-0.735D-02-0.180D-01-0.183D+00 0.163D-01 0.119D+01
 Coeff-En:   0.000D+00 0.000D+00 0.000D+00 0.000D+00 0.000D+00 0.100D+01
 Coeff:      0.187D-02-0.732D-02-0.179D-01-0.182D+00 0.163D-01 0.119D+01
 Gap=     0.531 Goal=   None    Shift=    0.000
 RMSDP=4.60D-05 MaxDP=1.06D-03 DE=-3.52D-04 OVMax= 5.99D-03

 Cycle   7  Pass 1  IDiag  1:
 E= -279.507757207749     Delta-E=       -0.000083231653 Rises=F Damp=F
 DIIS: error= 1.29D-04 at cycle   7 NSaved=   7.
 NSaved= 7 IEnMin= 7 EnMin= -279.507757207749     IErMin= 7 ErrMin= 1.29D-04
 ErrMax= 1.29D-04  0.00D+00 EMaxC= 1.00D-01 BMatC= 3.45D-06 BMatP= 2.34D-05
 IDIUse=3 WtCom= 9.99D-01 WtEn= 1.29D-03
 Coeff-Com: -0.109D-02 0.115D-01 0.249D-01 0.181D-01-0.183D+00-0.158D+00
 Coeff-Com:  0.129D+01
 Coeff-En:   0.000D+00 0.000D+00 0.000D+00 0.000D+00 0.000D+00 0.000D+00
 Coeff-En:   0.100D+01
 Coeff:     -0.108D-02 0.115D-01 0.249D-01 0.181D-01-0.183D+00-0.158D+00
 Coeff:      0.129D+01
 Gap=     0.532 Goal=   None    Shift=    0.000
 RMSDP=1.74D-05 MaxDP=5.00D-04 DE=-8.32D-05 OVMax= 2.28D-03

 Cycle   8  Pass 1  IDiag  1:
 E= -279.507768778386     Delta-E=       -0.000011570637 Rises=F Damp=F
 DIIS: error= 4.50D-05 at cycle   8 NSaved=   8.
 NSaved= 8 IEnMin= 8 EnMin= -279.507768778386     IErMin= 8 ErrMin= 4.50D-05
 ErrMax= 4.50D-05  0.00D+00 EMaxC= 1.00D-01 BMatC= 5.50D-07 BMatP= 3.45D-06
 IDIUse=1 WtCom= 1.00D+00 WtEn= 0.00D+00
 Coeff-Com: -0.545D-03 0.407D-02 0.949D-02 0.247D-01-0.569D-01-0.188D+00
 Coeff-Com:  0.348D+00 0.859D+00
 Coeff:     -0.545D-03 0.407D-02 0.949D-02 0.247D-01-0.569D-01-0.188D+00
 Coeff:      0.348D+00 0.859D+00
 Gap=     0.532 Goal=   None    Shift=    0.000
 RMSDP=5.18D-06 MaxDP=1.45D-04 DE=-1.16D-05 OVMax= 6.09D-04

 Cycle   9  Pass 1  IDiag  1:
 E= -279.507770031363     Delta-E=       -0.000001252977 Rises=F Damp=F
 DIIS: error= 2.36D-05 at cycle   9 NSaved=   9.
 NSaved= 9 IEnMin= 9 EnMin= -279.507770031363     IErMin= 9 ErrMin= 2.36D-05
 ErrMax= 2.36D-05  0.00D+00 EMaxC= 1.00D-01 BMatC= 1.08D-07 BMatP= 5.50D-07
 IDIUse=1 WtCom= 1.00D+00 WtEn= 0.00D+00
 Coeff-Com:  0.232D-03-0.252D-02-0.519D-02-0.548D-02 0.459D-01 0.478D-01
 Coeff-Com: -0.334D+00 0.434D-01 0.121D+01
 Coeff:      0.232D-03-0.252D-02-0.519D-02-0.548D-02 0.459D-01 0.478D-01
 Coeff:     -0.334D+00 0.434D-01 0.121D+01
 Gap=     0.532 Goal=   None    Shift=    0.000
 RMSDP=2.32D-06 MaxDP=6.24D-05 DE=-1.25D-06 OVMax= 2.43D-04

 Cycle  10  Pass 1  IDiag  1:
 E= -279.507770267371     Delta-E=       -0.000000236008 Rises=F Damp=F
 DIIS: error= 5.37D-06 at cycle  10 NSaved=  10.
 NSaved=10 IEnMin=10 EnMin= -279.507770267371     IErMin=10 ErrMin= 5.37D-06
 ErrMax= 5.37D-06  0.00D+00 EMaxC= 1.00D-01 BMatC= 7.21D-09 BMatP= 1.08D-07
 IDIUse=1 WtCom= 1.00D+00 WtEn= 0.00D+00
 Coeff-Com: -0.351D-04 0.470D-03 0.113D-02-0.172D-02-0.104D-01 0.500D-02
 Coeff-Com:  0.697D-01-0.552D-01-0.424D+00 0.141D+01
 Coeff:     -0.351D-04 0.470D-03 0.113D-02-0.172D-02-0.104D-01 0.500D-02
 Coeff:      0.697D-01-0.552D-01-0.424D+00 0.141D+01
 Gap=     0.532 Goal=   None    Shift=    0.000
 RMSDP=6.53D-07 MaxDP=2.43D-05 DE=-2.36D-07 OVMax= 6.87D-05

 Cycle  11  Pass 1  IDiag  1:
 E= -279.507770288750     Delta-E=       -0.000000021379 Rises=F Damp=F
 DIIS: error= 2.13D-06 at cycle  11 NSaved=  11.
 NSaved=11 IEnMin=11 EnMin= -279.507770288750     IErMin=11 ErrMin= 2.13D-06
 ErrMax= 2.13D-06  0.00D+00 EMaxC= 1.00D-01 BMatC= 7.08D-10 BMatP= 7.21D-09
 IDIUse=1 WtCom= 1.00D+00 WtEn= 0.00D+00
 Coeff-Com: -0.143D-04 0.142D-03 0.281D-03 0.910D-03-0.165D-02-0.710D-02
 Coeff-Com:  0.154D-01 0.210D-01-0.301D-01-0.379D+00 0.138D+01
 Coeff:     -0.143D-04 0.142D-03 0.281D-03 0.910D-03-0.165D-02-0.710D-02
 Coeff:      0.154D-01 0.210D-01-0.301D-01-0.379D+00 0.138D+01
 Gap=     0.532 Goal=   None    Shift=    0.000
 RMSDP=2.26D-07 MaxDP=8.23D-06 DE=-2.14D-08 OVMax= 2.60D-05

 Cycle  12  Pass 1  IDiag  1:
 E= -279.507770291300     Delta-E=       -0.000000002550 Rises=F Damp=F
 DIIS: error= 5.87D-07 at cycle  12 NSaved=  12.
 NSaved=12 IEnMin=12 EnMin= -279.507770291300     IErMin=12 ErrMin= 5.87D-07
 ErrMax= 5.87D-07  0.00D+00 EMaxC= 1.00D-01 BMatC= 6.89D-11 BMatP= 7.08D-10
 IDIUse=1 WtCom= 1.00D+00 WtEn= 0.00D+00
 Coeff-Com:  0.310D-05-0.484D-04-0.100D-03 0.467D-04 0.109D-02-0.196D-03
 Coeff-Com: -0.741D-02 0.471D-02 0.372D-01-0.761D-01-0.255D+00 0.130D+01
 Coeff:      0.310D-05-0.484D-04-0.100D-03 0.467D-04 0.109D-02-0.196D-03
 Coeff:     -0.741D-02 0.471D-02 0.372D-01-0.761D-01-0.255D+00 0.130D+01
 Gap=     0.532 Goal=   None    Shift=    0.000
 RMSDP=7.66D-08 MaxDP=2.42D-06 DE=-2.55D-09 OVMax= 8.59D-06

 Cycle  13  Pass 1  IDiag  1:
 E= -279.507770291541     Delta-E=       -0.000000000241 Rises=F Damp=F
 DIIS: error= 1.36D-07 at cycle  13 NSaved=  13.
 NSaved=13 IEnMin=13 EnMin= -279.507770291541     IErMin=13 ErrMin= 1.36D-07
 ErrMax= 1.36D-07  0.00D+00 EMaxC= 1.00D-01 BMatC= 5.04D-12 BMatP= 6.89D-11
 IDIUse=1 WtCom= 1.00D+00 WtEn= 0.00D+00
 Coeff-Com:  0.899D-06-0.746D-05-0.836D-05-0.102D-03-0.359D-04 0.810D-03
 Coeff-Com: -0.398D-03-0.247D-02-0.424D-02 0.533D-01-0.104D+00-0.188D+00
 Coeff-Com:  0.125D+01
 Coeff:      0.899D-06-0.746D-05-0.836D-05-0.102D-03-0.359D-04 0.810D-03
 Coeff:     -0.398D-03-0.247D-02-0.424D-02 0.533D-01-0.104D+00-0.188D+00
 Coeff:      0.125D+01
 Gap=     0.532 Goal=   None    Shift=    0.000
 RMSDP=1.90D-08 MaxDP=5.38D-07 DE=-2.41D-10 OVMax= 1.74D-06

 Cycle  14  Pass 1  IDiag  1:
 E= -279.507770291558     Delta-E=       -0.000000000017 Rises=F Damp=F
 DIIS: error= 3.43D-08 at cycle  14 NSaved=  14.
 NSaved=14 IEnMin=14 EnMin= -279.507770291558     IErMin=14 ErrMin= 3.43D-08
 ErrMax= 3.43D-08  0.00D+00 EMaxC= 1.00D-01 BMatC= 3.64D-13 BMatP= 5.04D-12
 IDIUse=1 WtCom= 1.00D+00 WtEn= 0.00D+00
 Coeff-Com: -0.315D-06 0.442D-05 0.842D-05 0.120D-05-0.100D-03 0.166D-04
 Coeff-Com:  0.600D-03-0.213D-03-0.307D-02 0.548D-02 0.178D-01-0.822D-01
 Coeff-Com: -0.175D-01 0.108D+01
 Coeff:     -0.315D-06 0.442D-05 0.842D-05 0.120D-05-0.100D-03 0.166D-04
 Coeff:      0.600D-03-0.213D-03-0.307D-02 0.548D-02 0.178D-01-0.822D-01
 Coeff:     -0.175D-01 0.108D+01
 Gap=     0.532 Goal=   None    Shift=    0.000
 RMSDP=3.61D-09 MaxDP=9.26D-08 DE=-1.66D-11 OVMax= 3.85D-07

 SCF Done:  E(RHF) =  -279.507770292     A.U. after   14 cycles
            NFock= 14  Conv=0.36D-08     -V/T= 2.0021
 KE= 2.789231880498D+02 PE=-9.068780935015D+02 EE= 2.254562009834D+02
 Leave Link  502 at Sun Mar  6 19:16:57 2022, MaxMem= 16106127360 cpu:              52.7 elap:               3.4
 (Enter /sw/contrib/gaussian/g16/B01/g16/l801.exe)
 ExpMin= 2.53D-02 ExpMax= 1.53D+04 ExpMxC= 5.22D+02 IAcc=3 IRadAn=         5 AccDes= 0.00D+00
 HarFok:  IExCor=  205 AccDes= 0.00D+00 IRadAn=         5 IDoV=-2 UseB2=F ITyADJ=14
 ICtDFT= 12500011 ScaDFX=  1.000000  1.000000  1.000000  1.000000
 Largest valence mixing into a core orbital is  2.06D-04
 Largest core mixing into a valence orbital is  3.08D-05
 Range of M.O.s used for correlation:     5   207
 NBasis=   207 NAE=    16 NBE=    16 NFC=     4 NFV=     0
 NROrb=    203 NOA=    12 NOB=    12 NVA=   191 NVB=   191

 **** Warning!!: The largest alpha MO coefficient is  0.15741892D+02

 Leave Link  801 at Sun Mar  6 19:16:57 2022, MaxMem= 16106127360 cpu:               2.2 elap:               0.1
 (Enter /sw/contrib/gaussian/g16/B01/g16/l906.exe)
 Frozen-core derivative calculation, NFC=   4 NFV=   0.
 FulOut=F Deriv=T AODrv=T NAtomX=     5
   MMem=           0  MDisk=          12 MDiskD=          12
  W3Min=      811440 MinDsk=     2425030 NBas6D=         245
 NBas2D=       30762    NTT=       30135    LW2=     7400000
    MDV= 16105571518 MDiskM=      328644 NBas2p=       30759
 Disk-based method using ON**2 memory for 12 occupieds at a time.
 Permanent disk used for amplitudes=    11516536 words.
 Estimated scratch disk usage=   321863743 words.
 IMap=   1   2   3   4   5   6   7   8   9  10  11  12  13  14  15  16
 Actual    scratch disk usage=   310892607 words.
 JobTyp=1 Pass  1:  I=   5 to  16 NPSUse= 28 ParTrn=T ParDer=T DoDerP=T.
 (rs|ai) integrals will be sorted in core.
 Spin components of T(2) and E(2):
     alpha-alpha T2 =       0.3461723181D-01 E2=     -0.1243568945D+00
     alpha-beta  T2 =       0.1835639988D+00 E2=     -0.6986583735D+00
     beta-beta   T2 =       0.3461723181D-01 E2=     -0.1243568945D+00
 The integrals were generated   1 times.
 ANorm=    0.1119284800D+01
 E2 =    -0.9473721626D+00 EUMP2 =    -0.28045514245412D+03
 Leave Link  906 at Sun Mar  6 19:18:34 2022, MaxMem= 16106127360 cpu:            2713.7 elap:              97.0
 (Enter /sw/contrib/gaussian/g16/B01/g16/l1101.exe)
 Using compressed Sx but separate Hx and Fx, NAtomX=     5.
 Will process      6 centers per pass.
 Leave Link 1101 at Sun Mar  6 19:18:34 2022, MaxMem= 16106127360 cpu:               6.3 elap:               0.3
 (Enter /sw/contrib/gaussian/g16/B01/g16/l1102.exe)
 Leave Link 1102 at Sun Mar  6 19:18:34 2022, MaxMem= 16106127360 cpu:               1.3 elap:               0.1
 (Enter /sw/contrib/gaussian/g16/B01/g16/l1110.exe)
 Forming Gx(P) for the SCF density, NAtomX=     5.
 Integral derivatives from FoFJK, PRISM(SPDF).
 Do as many integral derivatives as possible in FoFJK.
 G2DrvN: MDV=   16106126844.
 G2DrvN: will do     6 centers at a time, making    1 passes.
 Calling FoFCou, ICntrl=  3107 FMM=F I1Cent=   0 AccDes= 0.00D+00.
 FoFJK:  IHMeth= 1 ICntrl=    3107 DoSepK=F KAlg= 0 I1Cent=           0 FoldK=F
 IRaf=         0 NMat=       1 IRICut=       1 DoRegI=T DoRafI=F ISym2E= 1 IDoP0=0 IntGTp=1.
 FoFCou: FMM=F IPFlag=           0 FMFlag=      100000 FMFlg1=           0
         NFxFlg=           0 DoJE=F BraDBF=F KetDBF=F FulRan=T
         wScrn=  0.000000 ICntrl=      3107 IOpCl=  0 I1Cent=           0 NGrid=           0
         NMat0=    1 NMatS0=      1 NMatT0=    0 NMatD0=    1 NMtDS0=    0 NMtDT0=    0
 Petite list used in FoFCou.
 End of G2Drv F.D. properties file   721 does not exist.
 End of G2Drv F.D. properties file   722 does not exist.
 End of G2Drv F.D. properties file   788 does not exist.
 Leave Link 1110 at Sun Mar  6 19:18:38 2022, MaxMem= 16106127360 cpu:              88.5 elap:               3.2
 (Enter /sw/contrib/gaussian/g16/B01/g16/l1002.exe)
 Minotr:  Closed shell wavefunction.
          IDoAtm=11111
          Frozen-core window.
          Direct CPHF calculation.
          Differentiating once with respect to electric field.
                with respect to dipole field.
          Differentiating once with respect to nuclear coordinates.
          Requested convergence is 1.0D-08 RMS, and 1.0D-07 maximum.
          Secondary convergence is 1.0D-12 RMS, and 1.0D-12 maximum.
          NewPWx=T KeepS1=T KeepF1=T KeepIn=T MapXYZ=F SortEE=F KeepMc=T.
 Keep R1 ints in memory in symmetry-blocked form, NReq=348888983.
 FoFCou: FMM=F IPFlag=           0 FMFlag=           0 FMFlg1=           0
         NFxFlg=           0 DoJE=F BraDBF=F KetDBF=F FulRan=T
         wScrn=  0.000000 ICntrl=       600 IOpCl=  0 I1Cent=           0 NGrid=           0
         NMat0=    1 NMatS0=  21528 NMatT0=    0 NMatD0=    1 NMtDS0=    0 NMtDT0=    0
 Petite list used in FoFCou.
          MDV=   16106127360 using IRadAn=       1.
          Solving linear equations simultaneously, MaxMat=       0.
          There are    18 degrees of freedom in the 1st order CPHF.  IDoFFX=6 NUNeed=    18.
     15 vectors produced by pass  0 Test12= 1.70D-14 5.56D-09 XBig12= 7.81D+00 1.20D+00.
 AX will form    15 AO Fock derivatives at one time.
     15 vectors produced by pass  1 Test12= 1.70D-14 5.56D-09 XBig12= 1.33D+00 2.21D-01.
     15 vectors produced by pass  2 Test12= 1.70D-14 5.56D-09 XBig12= 6.58D-02 5.69D-02.
     15 vectors produced by pass  3 Test12= 1.70D-14 5.56D-09 XBig12= 1.91D-03 1.08D-02.
     15 vectors produced by pass  4 Test12= 1.70D-14 5.56D-09 XBig12= 4.22D-05 1.21D-03.
     15 vectors produced by pass  5 Test12= 1.70D-14 5.56D-09 XBig12= 5.82D-07 1.22D-04.
     15 vectors produced by pass  6 Test12= 1.70D-14 5.56D-09 XBig12= 4.51D-09 1.29D-05.
     14 vectors produced by pass  7 Test12= 1.70D-14 5.56D-09 XBig12= 3.40D-11 7.81D-07.
      3 vectors produced by pass  8 Test12= 1.70D-14 5.56D-09 XBig12= 2.36D-13 6.08D-08.
      1 vectors produced by pass  9 Test12= 1.70D-14 5.56D-09 XBig12= 1.58D-15 7.23D-09.
 InvSVY:  IOpt=1 It=  1 EMax= 9.99D-16
 Solved reduced A of dimension   123 with    15 vectors.
 FullF1:  Do perturbations      1 to      18.
 Saving first derivative matrices.
 End of Minotr F.D. properties file   721 does not exist.
 End of Minotr F.D. properties file   722 does not exist.
 End of Minotr F.D. properties file   788 does not exist.
 Leave Link 1002 at Sun Mar  6 19:18:41 2022, MaxMem= 16106127360 cpu:              77.8 elap:               2.9
 (Enter /sw/contrib/gaussian/g16/B01/g16/l811.exe)
 MDV= 16106127360.
 Form MO integral derivatives with frozen-active canonical formalism.
 MOERI=1 MOERIx=1 NAtoms=     5 NAtomX=     5.
 Discarding MO integrals.
 MO basis two electron integral derivatives will not be stored on disk.
 IAlg= 3 DoFC=T DoPWx=T Debug=F.
 Frozen-core window:  NFC=   4 NFV=   0.
 Reordered first order wavefunction length =     18678272
 In DefCFB: NBatch=  1 ICI= 16 ICA=191 LFMax= 96
            Large arrays: LIAPS=   619940160 LIARS=   288257200 words.
 In StABat: MaxSiz= 55 MinSiz= 25 NAtomB=  5
 DoIAMN: NPSUse= 28.
 Leave Link  811 at Sun Mar  6 19:20:02 2022, MaxMem= 16106127360 cpu:            2262.1 elap:              80.9
 (Enter /sw/contrib/gaussian/g16/B01/g16/l804.exe)
 Frozen-core window:  NFC=   4 NFV=   0.
 Closed-shell transformation, MDV= 16106127360 ITran=4 ISComp=1.
 Semi-Direct transformation.
 ModeAB=           2 MOrb=            16 LenV=   16104919883
 LASXX=     67341636 LTotXX=    67341636 LenRXX=    67341636
 LTotAB=    68301760 MaxLAS=    99807120 LenRXY=    99807120
 NonZer=   134683272 LenScr=   202817536 LnRSAI=           0
 LnScr1=           0 LExtra=           0 Total=    369966292
 MaxDsk=          -1 SrtSym=           F ITran=            4
 DoSDTr:  NPSUse= 28
 JobTyp=0 Pass  1:  I=   1 to  16.
 (rs|ai) integrals will be sorted in core.
 Complete sort for first half transformation.
 First half transformation complete.
 Begin second half transformation for I=  10.
 Begin second half transformation for I=  10.
 Complete sort for second half transformation.
 Second half transformation complete.
 Spin components of T(2) and E(2):
     alpha-alpha T2 =       0.3461723181D-01 E2=     -0.1243568945D+00
     alpha-beta  T2 =       0.1835639988D+00 E2=     -0.6986583735D+00
     beta-beta   T2 =       0.3461723181D-01 E2=     -0.1243568945D+00
 ANorm=    0.1582907744D+01
 E2 =    -0.9473721626D+00 EUMP2 =    -0.28045514245412D+03
 Leave Link  804 at Sun Mar  6 19:20:18 2022, MaxMem= 16106127360 cpu:             451.1 elap:              16.2
 (Enter /sw/contrib/gaussian/g16/B01/g16/l1002.exe)
 Minotr:  Closed shell wavefunction.
          Computing MP2/KS-MP2 derivatives.
          Using Z-Vector for PSCF gradient.
          Skipping F1 and S1 gradient terms here.
          IDoAtm=11111
          Frozen-core window.
          Using MO integrals in the linear equations.
          Forming densities via direct SCF.
          Differentiating once with respect to electric field.
                with respect to dipole field.
          Differentiating once with respect to nuclear coordinates.
          Using symmetry in CPHF.
          Requested convergence is 1.0D-10 RMS, and 1.0D-09 maximum.
          NewPWx=F KeepS1=T KeepF1=T KeepIn=T MapXYZ=F SortEE=F KeepMc=T.
          MDV=   16106127360 using IRadAn=       5.
          Solving linear equations separately, MaxMat=       0.
          There are     1 degrees of freedom in the 1st order CPHF.  IDoFFX=0 NUNeed=     1.
 FoFJK:  IHMeth= 1 ICntrl=       0 DoSepK=F KAlg= 0 I1Cent=           0 FoldK=F
 IRaf=         0 NMat=       1 IRICut=       1 DoRegI=T DoRafI=F ISym2E= 0 IDoP0=0 IntGTp=1.
 FoFCou: FMM=F IPFlag=           0 FMFlag=      100000 FMFlg1=           0
         NFxFlg=           0 DoJE=F BraDBF=F KetDBF=F FulRan=T
         wScrn=  0.000000 ICntrl=         0 IOpCl=  0 I1Cent=           0 NGrid=           0
         NMat0=    1 NMatS0=      1 NMatT0=    0 NMatD0=    1 NMtDS0=    0 NMtDT0=    0
 Symmetry not used in FoFCou.
 LinEq1:  Iter=  0 NonCon=     1 RMS=6.54D-03 Max=1.71D-01 NDo=     1
 LinEq1:  Iter=  1 NonCon=     1 RMS=1.97D-03 Max=2.99D-02 NDo=     1
 LinEq1:  Iter=  2 NonCon=     1 RMS=8.69D-04 Max=1.39D-02 NDo=     1
 LinEq1:  Iter=  3 NonCon=     1 RMS=3.68D-04 Max=7.68D-03 NDo=     1
 LinEq1:  Iter=  4 NonCon=     1 RMS=1.33D-04 Max=1.62D-03 NDo=     1
 LinEq1:  Iter=  5 NonCon=     1 RMS=7.32D-05 Max=1.36D-03 NDo=     1
 LinEq1:  Iter=  6 NonCon=     1 RMS=2.37D-05 Max=3.40D-04 NDo=     1
 LinEq1:  Iter=  7 NonCon=     1 RMS=7.78D-06 Max=1.03D-04 NDo=     1
 LinEq1:  Iter=  8 NonCon=     1 RMS=3.81D-06 Max=5.75D-05 NDo=     1
 LinEq1:  Iter=  9 NonCon=     1 RMS=9.97D-07 Max=1.10D-05 NDo=     1
 LinEq1:  Iter= 10 NonCon=     1 RMS=2.22D-07 Max=2.74D-06 NDo=     1
 LinEq1:  Iter= 11 NonCon=     1 RMS=4.77D-08 Max=7.72D-07 NDo=     1
 LinEq1:  Iter= 12 NonCon=     1 RMS=1.12D-08 Max=1.66D-07 NDo=     1
 LinEq1:  Iter= 13 NonCon=     1 RMS=1.97D-09 Max=2.09D-08 NDo=     1
 LinEq1:  Iter= 14 NonCon=     1 RMS=4.11D-10 Max=5.44D-09 NDo=     1
 LinEq1:  Iter= 15 NonCon=     0 RMS=8.40D-11 Max=8.52D-10 NDo=     1
 Linear equations converged to 1.000D-10 1.000D-09 after    15 iterations.
 End of Minotr F.D. properties file   721 does not exist.
 End of Minotr F.D. properties file   722 does not exist.
 End of Minotr F.D. properties file   788 does not exist.
 Leave Link 1002 at Sun Mar  6 19:20:20 2022, MaxMem= 16106127360 cpu:              64.2 elap:               2.3
 (Enter /sw/contrib/gaussian/g16/B01/g16/l1102.exe)
 Use density number 2.
 Symmetrizing basis deriv contribution to polar:
 IMax=3 JMax=2 DiffMx= 0.00D+00
 Leave Link 1102 at Sun Mar  6 19:20:20 2022, MaxMem= 16106127360 cpu:               0.6 elap:               0.0
 (Enter /sw/contrib/gaussian/g16/B01/g16/l1110.exe)
 Forming Gx(P) for generalized density number  2 NAtomX=     5.
 Integral derivatives from FoFJK, PRISM(SPDF).
 Do as many integral derivatives as possible in FoFJK.
 G2DrvN: MDV=   16106126844.
 G2DrvN: will do     6 centers at a time, making    1 passes.
 Calling FoFCou, ICntrl=  3107 FMM=F I1Cent=   0 AccDes= 0.00D+00.
 FoFJK:  IHMeth= 1 ICntrl=    3107 DoSepK=F KAlg= 0 I1Cent=           0 FoldK=F
 IRaf=         0 NMat=       1 IRICut=       1 DoRegI=T DoRafI=F ISym2E= 1 IDoP0=0 IntGTp=1.
 FoFCou: FMM=F IPFlag=           0 FMFlag=      100000 FMFlg1=           0
         NFxFlg=           0 DoJE=F BraDBF=F KetDBF=F FulRan=T
         wScrn=  0.000000 ICntrl=      3107 IOpCl=  0 I1Cent=           0 NGrid=           0
         NMat0=    1 NMatS0=      1 NMatT0=    0 NMatD0=    1 NMtDS0=    0 NMtDT0=    0
 Petite list used in FoFCou.
 End of G2Drv F.D. properties file   721 does not exist.
 End of G2Drv F.D. properties file   722 does not exist.
 End of G2Drv F.D. properties file   788 does not exist.
 Leave Link 1110 at Sun Mar  6 19:20:23 2022, MaxMem= 16106127360 cpu:              87.0 elap:               3.1
 (Enter /sw/contrib/gaussian/g16/B01/g16/l1112.exe)
 MP22nd: MDV=   16106127360
 This link is doing NAtomX=     5 total of    18 degrees of freedom.
 Using ON3 I/O method in MakUI.
 Frozen-core window:  NFC=   4 NFV=   0.
 Using Ix for Sx.
 Use MO integrals over full window.
 Using OV2 memory method for fx*t*t/D, MaxI=    16 DoOO2=F NP=  28.
 R2 and R3 integrals will be kept in memory, NReq=   915591705.
 FoFCou: FMM=F IPFlag=           0 FMFlag=           0 FMFlg1=           0
         NFxFlg=           0 DoJE=F BraDBF=F KetDBF=F FulRan=T
         wScrn=  0.000000 ICntrl=       600 IOpCl=  0 I1Cent=           0 NGrid=           0
         NMat0=    1 NMatS0=      1 NMatT0=    0 NMatD0=    1 NMtDS0=    0 NMtDT0=    0
 Symmetry not used in FoFCou.
 DD1Dir will call FoFMem   1 times, MxPair=       272
 NAB=   136 NAA=     0 NBB=     0.
 Symmetry is being used.
 FoFJK:  IHMeth= 1 ICntrl=       0 DoSepK=F KAlg= 0 I1Cent=           0 FoldK=F
 IRaf=         0 NMat=      18 IRICut=      45 DoRegI=T DoRafI=T ISym2E= 2 IDoP0=3 IntGTp=3.
 Discarding MO integrals.
 Leave Link 1112 at Sun Mar  6 19:20:49 2022, MaxMem= 16106127360 cpu:             704.8 elap:              25.3
 (Enter /sw/contrib/gaussian/g16/B01/g16/l601.exe)
 Copying SCF densities to generalized density rwf, IOpCl= 0 IROHF=0.

 **********************************************************************

            Population analysis using the MP2 Density.

 **********************************************************************

 Orbital symmetries:
       Occupied  (A') (A') (A') (A') (A') (A') (A') (A') (A') (A')
                 (A") (A') (A") (A') (A') (A")
       Virtual   (A') (A") (A') (A') (A") (A') (A') (A') (A") (A')
                 (A") (A') (A') (A') (A") (A') (A') (A") (A') (A')
                 (A') (A') (A') (A') (A") (A') (A') (A") (A') (A')
                 (A') (A") (A") (A') (A') (A') (A") (A') (A") (A')
                 (A") (A") (A') (A') (A") (A') (A') (A") (A') (A')
                 (A') (A") (A') (A') (A") (A') (A") (A') (A") (A')
                 (A') (A') (A") (A') (A') (A') (A") (A") (A') (A')
                 (A") (A') (A") (A") (A') (A') (A") (A') (A') (A')
                 (A") (A') (A') (A") (A') (A") (A") (A') (A') (A')
                 (A') (A') (A") (A") (A') (A') (A") (A") (A') (A")
                 (A') (A') (A") (A') (A") (A') (A') (A') (A") (A")
                 (A') (A') (A') (A') (A") (A') (A') (A') (A") (A')
                 (A") (A") (A') (A') (A") (A") (A') (A") (A') (A')
                 (A') (A') (A") (A') (A') (A") (A") (A') (A') (A')
                 (A") (A") (A') (A') (A') (A") (A') (A') (A') (A")
                 (A') (A') (A') (A") (A") (A') (A") (A') (A') (A")
                 (A') (A") (A') (A") (A") (A') (A") (A') (A") (A')
                 (A") (A") (A") (A') (A') (A") (A') (A') (A") (A')
                 (A') (A') (A') (A') (A') (A') (A') (A') (A') (A')
                 (A')
 The electronic state is 1-A'.
 Alpha  occ. eigenvalues --  -20.71787 -20.68768 -20.66754 -15.82465  -1.64913
 Alpha  occ. eigenvalues --   -1.50705  -1.29294  -0.95910  -0.83651  -0.76076
 Alpha  occ. eigenvalues --   -0.74133  -0.63745  -0.62029  -0.61885  -0.50316
 Alpha  occ. eigenvalues --   -0.49696
 Alpha virt. eigenvalues --    0.03502   0.06287   0.09515   0.10045   0.11953
 Alpha virt. eigenvalues --    0.12268   0.14932   0.15206   0.17779   0.18028
 Alpha virt. eigenvalues --    0.18980   0.21101   0.21675   0.24335   0.24651
 Alpha virt. eigenvalues --    0.26925   0.31277   0.31667   0.33804   0.34453
 Alpha virt. eigenvalues --    0.34762   0.39296   0.44884   0.48913   0.50515
 Alpha virt. eigenvalues --    0.51897   0.54536   0.56075   0.60157   0.62173
 Alpha virt. eigenvalues --    0.64046   0.68827   0.71687   0.72453   0.74482
 Alpha virt. eigenvalues --    0.76332   0.76718   0.79598   0.80713   0.84080
 Alpha virt. eigenvalues --    0.84365   0.85187   0.88624   0.90831   0.93151
 Alpha virt. eigenvalues --    0.94970   0.95404   1.01867   1.03196   1.06282
 Alpha virt. eigenvalues --    1.06646   1.09549   1.14423   1.15652   1.17079
 Alpha virt. eigenvalues --    1.22350   1.22763   1.24655   1.35274   1.36086
 Alpha virt. eigenvalues --    1.37299   1.46874   1.48575   1.50500   1.54164
 Alpha virt. eigenvalues --    1.59669   1.59822   1.60680   1.62978   1.69751
 Alpha virt. eigenvalues --    1.74096   1.80246   1.82981   1.89085   1.89697
 Alpha virt. eigenvalues --    1.92774   1.98001   1.99014   2.05001   2.12592
 Alpha virt. eigenvalues --    2.13081   2.16613   2.18706   2.24389   2.25924
 Alpha virt. eigenvalues --    2.29486   2.35268   2.36734   2.38750   2.40508
 Alpha virt. eigenvalues --    2.43499   2.46861   2.47992   2.52902   2.53939
 Alpha virt. eigenvalues --    2.55191   2.56132   2.61901   2.63025   2.67545
 Alpha virt. eigenvalues --    2.67817   2.75778   2.81157   2.81989   2.84130
 Alpha virt. eigenvalues --    2.91954   2.98822   3.05099   3.05242   3.11658
 Alpha virt. eigenvalues --    3.11726   3.17549   3.21379   3.31044   3.33223
 Alpha virt. eigenvalues --    3.36232   3.47903   3.68512   3.87018   3.93044
 Alpha virt. eigenvalues --    4.18501   4.22452   4.22812   4.28279   4.37048
 Alpha virt. eigenvalues --    4.50286   4.52900   4.56478   4.59985   4.69654
 Alpha virt. eigenvalues --    4.81388   4.90005   4.91392   4.94466   4.99741
 Alpha virt. eigenvalues --    5.00495   5.10918   5.13872   5.18023   5.25874
 Alpha virt. eigenvalues --    5.25977   5.32050   5.34947   5.35625   5.54137
 Alpha virt. eigenvalues --    5.65761   5.71111   5.88714   6.00504   6.26605
 Alpha virt. eigenvalues --    6.29761   6.36288   6.37845   6.59934   6.66072
 Alpha virt. eigenvalues --    6.66076   6.69161   6.72992   6.79470   6.80508
 Alpha virt. eigenvalues --    6.85748   6.97075   7.02094   7.06728   7.08191
 Alpha virt. eigenvalues --    7.14299   7.17859   7.18161   7.20549   7.24910
 Alpha virt. eigenvalues --    7.25087   7.28526   7.35278   7.40039   7.43151
 Alpha virt. eigenvalues --    7.44515   7.47288   7.57387   7.66471   7.67153
 Alpha virt. eigenvalues --    7.79865   7.88640   7.95696   8.07576   8.30757
 Alpha virt. eigenvalues --    8.50130   8.65602  13.63579  14.81378  15.14228
 Alpha virt. eigenvalues --   15.97472
          Condensed to atoms (all electrons):
               1          2          3          4          5
     1  H    0.579644   0.124142   0.023994   0.000239  -0.005226
     2  O    0.124142   8.391007  -0.231135  -0.001120  -0.008105
     3  O    0.023994  -0.231135   8.377983  -0.170052  -0.036789
     4  N    0.000239  -0.001120  -0.170052   7.139074  -0.121865
     5  O   -0.005226  -0.008105  -0.036789  -0.121865   8.364127
 Mulliken charges:
               1
     1  H    0.277206
     2  O   -0.274790
     3  O    0.036000
     4  N    0.153724
     5  O   -0.192141
 Sum of Mulliken charges =  -0.00000
 Mulliken charges with hydrogens summed into heavy atoms:
               1
     2  O    0.002417
     3  O    0.036000
     4  N    0.153724
     5  O   -0.192141
 APT charges:
               1
     1  H    0.271280
     2  O   -0.303450
     3  O   -0.312395
     4  N    0.652231
     5  O   -0.307667
 Sum of APT charges =  -0.00000
 APT charges with hydrogens summed into heavy atoms:
               1
     2  O   -0.032170
     3  O   -0.312395
     4  N    0.652231
     5  O   -0.307667
 Electronic spatial extent (au):  <R**2>=            206.7420
 Charge=             -0.0000 electrons
 Dipole moment (field-independent basis, Debye):
    X=              0.0319    Y=             -1.1318    Z=              0.0000  Tot=              1.1323
 Quadrupole moment (field-independent basis, Debye-Ang):
   XX=            -23.3633   YY=            -22.9305   ZZ=            -21.9167
   XY=             -1.9549   XZ=              0.0000   YZ=              0.0000
 Traceless Quadrupole moment (field-independent basis, Debye-Ang):
   XX=             -0.6265   YY=             -0.1937   ZZ=              0.8202
   XY=             -1.9549   XZ=              0.0000   YZ=              0.0000
 Octapole moment (field-independent basis, Debye-Ang**2):
  XXX=              2.4845  YYY=              0.1923  ZZZ=              0.0000  XYY=              2.3384
  XXY=             -2.8560  XXZ=              0.0000  XZZ=             -0.6135  YZZ=             -0.7330
  YYZ=              0.0000  XYZ=              0.0000
 Hexadecapole moment (field-independent basis, Debye-Ang**3):
 XXXX=           -127.0653 YYYY=            -94.2443 ZZZZ=            -18.0196 XXXY=            -21.5186
 XXXZ=              0.0000 YYYX=            -19.7680 YYYZ=              0.0000 ZZZX=              0.0000
 ZZZY=              0.0000 XXYY=            -35.5022 XXZZ=            -24.3362 YYZZ=            -18.4818
 XXYZ=              0.0000 YYXZ=              0.0000 ZZXY=             -5.9015
 N-N= 1.229909341767D+02 E-N=-9.075576110326D+02  KE= 2.802359612763D+02
 Symmetry A'   KE= 2.663796088829D+02
 Symmetry A"   KE= 1.385635239343D+01
  Exact polarizability:  30.857   4.087  29.678   0.000   0.000  17.596
 Approx polarizability:  24.509   0.535  27.442  -0.000  -0.000  15.476
 No NMR shielding tensors so no spin-rotation constants.
 Leave Link  601 at Sun Mar  6 19:20:49 2022, MaxMem= 16106127360 cpu:               4.4 elap:               0.2
 (Enter /sw/contrib/gaussian/g16/B01/g16/l701.exe)
 ... and contract with generalized density number  2.
 Compute integral second derivatives.
 Leave Link  701 at Sun Mar  6 19:20:49 2022, MaxMem= 16106127360 cpu:               6.4 elap:               0.3
 (Enter /sw/contrib/gaussian/g16/B01/g16/l702.exe)
 L702 exits ... SP integral derivatives will be done elsewhere.
 Leave Link  702 at Sun Mar  6 19:20:49 2022, MaxMem= 16106127360 cpu:               0.5 elap:               0.0
 (Enter /sw/contrib/gaussian/g16/B01/g16/l703.exe)
 Integral derivatives from FoFJK, PRISM(SPDF).
 Compute integral second derivatives, UseDBF=F ICtDFT=           0.
 Calling FoFJK, ICntrl=  10100127 FMM=F ISym2X=1 I1Cent= 0 IOpClX= 0 NMat=1 NMatS=1 NMatT=0.
 FoFJK:  IHMeth= 1 ICntrl=10100127 DoSepK=F KAlg= 0 I1Cent=           0 FoldK=F
 IRaf=         0 NMat=       1 IRICut=       1 DoRegI=T DoRafI=F ISym2E= 1 IDoP0=0 IntGTp=1.
 FoFCou: FMM=F IPFlag=           0 FMFlag=      100000 FMFlg1=         800
         NFxFlg=           0 DoJE=F BraDBF=F KetDBF=F FulRan=T
         wScrn=  0.000000 ICntrl=  10100127 IOpCl=  0 I1Cent=           0 NGrid=           0
         NMat0=    1 NMatS0=      1 NMatT0=    0 NMatD0=    1 NMtDS0=    0 NMtDT0=    0
 Petite list used in FoFCou.
 Leave Link  703 at Sun Mar  6 19:21:05 2022, MaxMem= 16106127360 cpu:             446.6 elap:              16.0
 (Enter /sw/contrib/gaussian/g16/B01/g16/l716.exe)
 Dipole        = 1.25644346D-02-4.45290220D-01 0.00000000D+00
 Polarizability= 3.08568756D+01 4.08746432D+00 2.96775317D+01
                 0.00000000D+00 0.00000000D+00 1.75960139D+01
 Full mass-weighted force constant matrix:
 Low frequencies ---  -93.3952  -54.7378  -24.2985    0.0004    0.0009    0.0010
 Low frequencies ---  348.9042  396.1357  515.2786
 Diagonal vibrational polarizability:
        7.2801294      10.0356704      16.2472587
 Harmonic frequencies (cm**-1), IR intensities (KM/Mole), Raman scattering
 activities (A**4/AMU), depolarization ratios for plane and unpolarized
 incident light, reduced masses (AMU), force constants (mDyne/A),
 and normal coordinates:
                      1                      2                      3
                     A"                     A'                     A"
 Frequencies --    348.7943               396.0890               515.0712
 Red. masses --      1.5998                 7.0946                 2.7740
 Frc consts  --      0.1147                 0.6558                 0.4336
 IR Inten    --     60.9236                 7.4248                27.3141
  Atom  AN      X      Y      Z        X      Y      Z        X      Y      Z
     1   1    -0.00  -0.00   0.98    -0.73  -0.25  -0.00    -0.00  -0.00   0.93
     2   8    -0.00  -0.00  -0.11    -0.32  -0.32   0.00    -0.00  -0.00   0.05
     3   8    -0.00   0.00   0.12    -0.06   0.09  -0.00     0.00   0.00  -0.17
     4   7     0.00   0.00  -0.11     0.05   0.09   0.00     0.00   0.00   0.26
     5   8     0.00   0.00   0.03     0.39   0.17   0.00     0.00   0.00  -0.16
                      4                      5                      6
                     A'                     A'                     A'
 Frequencies --    708.0422               836.6989               972.8402
 Red. masses --     13.5203                12.2970                 9.6827
 Frc consts  --      3.9935                 5.0721                 5.3992
 IR Inten    --    220.9950                27.3802                12.1393
  Atom  AN      X      Y      Z        X      Y      Z        X      Y      Z
     1   1    -0.34   0.00  -0.00     0.45  -0.15   0.00    -0.63  -0.01   0.00
     2   8     0.00  -0.08  -0.00     0.53  -0.20  -0.00     0.20  -0.17  -0.00
     3   8     0.38   0.58   0.00    -0.39  -0.03  -0.00    -0.35   0.41   0.00
     4   7    -0.43  -0.46  -0.00    -0.43  -0.05   0.00     0.38   0.04  -0.00
     5   8     0.02  -0.10   0.00     0.20   0.28  -0.00    -0.13  -0.27   0.00
                      7                      8                      9
                     A'                     A'                     A'
 Frequencies --   1438.0040              1615.9855              3488.5848
 Red. masses --      1.2464                 8.3408                 1.0637
 Frc consts  --      1.5185                12.8331                 7.6275
 IR Inten    --     81.4018               157.9864                42.4934
  Atom  AN      X      Y      Z        X      Y      Z        X      Y      Z
     1   1     0.97  -0.20   0.00    -0.67   0.15  -0.00     0.15   0.99  -0.00
     2   8    -0.06  -0.05  -0.00     0.01   0.02   0.00    -0.01  -0.06   0.00
     3   8    -0.03   0.06   0.00    -0.04  -0.06  -0.00     0.00  -0.00  -0.00
     4   7     0.05  -0.04   0.00     0.28  -0.47  -0.00    -0.00   0.00  -0.00
     5   8    -0.02   0.03  -0.00    -0.17   0.44   0.00     0.00  -0.00   0.00

 -------------------
 - Thermochemistry -
 -------------------
 Temperature   298.150 Kelvin.  Pressure   1.00000 Atm.
 Atom     1 has atomic number  1 and mass   1.00783
 Atom     2 has atomic number  8 and mass  15.99491
 Atom     3 has atomic number  8 and mass  15.99491
 Atom     4 has atomic number  7 and mass  14.00307
 Atom     5 has atomic number  8 and mass  15.99491
 Molecular mass:    62.99564 amu.
 Principal axes and moments of inertia in atomic units:
                           1         2         3
     Eigenvalues --    83.98362 222.27589 306.25952
           X            0.79855  -0.60193   0.00000
           Y            0.60193   0.79855   0.00000
           Z            0.00000   0.00000   1.00000
 This molecule is an asymmetric top.
 Rotational symmetry number  1.
 Rotational temperatures (Kelvin)      1.03132     0.38967     0.28281
 Rotational constants (GHZ):          21.48920     8.11937     5.89285
 Zero-point vibrational energy      61728.0 (Joules/Mol)
                                   14.75334 (Kcal/Mol)
 Warning -- explicit consideration of   3 degrees of freedom as
           vibrations may cause significant error
 Vibrational temperatures:    501.84   569.88   741.07  1018.71  1203.82
          (Kelvin)           1399.70  2068.97  2325.04  5019.30
 
 Zero-point correction=                           0.023511 (Hartree/Particle)
 Thermal correction to Energy=                    0.027461
 Thermal correction to Enthalpy=                  0.028405
 Thermal correction to Gibbs Free Energy=        -0.002467
 Sum of electronic and zero-point Energies=           -280.431632
 Sum of electronic and thermal Energies=              -280.427682
 Sum of electronic and thermal Enthalpies=            -280.426738
 Sum of electronic and thermal Free Energies=         -280.457610
 
                     E (Thermal)             CV                S
                      KCal/Mol        Cal/Mol-Kelvin    Cal/Mol-Kelvin
 Total                   17.232             12.191             64.976
 Electronic               0.000              0.000              0.000
 Translational            0.889              2.981             38.341
 Rotational               0.889              2.981             23.262
 Vibrational             15.454              6.229              3.373
 Vibration     1          0.726              1.578              1.172
 Vibration     2          0.763              1.479              0.977
 Vibration     3          0.870              1.217              0.621
                       Q            Log10(Q)             Ln(Q)
 Total Bot       0.136430D+02          1.134909          2.613225
 Total V=0       0.889573D+12         11.949182         27.514008
 Vib (Bot)       0.256481D-10        -10.590944        -24.386550
 Vib (Bot)    1  0.529376D+00         -0.276235         -0.636055
 Vib (Bot)    2  0.451274D+00         -0.345559         -0.795680
 Vib (Bot)    3  0.314795D+00         -0.501972         -1.155834
 Vib (V=0)       0.167235D+01          0.223328          0.514232
 Vib (V=0)    1  0.122818D+01          0.089260          0.205530
 Vib (V=0)    2  0.117353D+01          0.069496          0.160020
 Vib (V=0)    3  0.109084D+01          0.037762          0.086951
 Electronic      0.100000D+01          0.000000          0.000000
 Translational   0.196526D+08          7.293420         16.793719
 Rotational      0.270666D+05          4.432434         10.206056
 
                                                                title
                                                             IR Spectrum
 
     3                                                                    1     1                                                    
     4                                                                    6     4                9    8    7      5   3 3            
     8                                                                    1     3                7    3    0      1   9 4            
     9                                                                    6     8                3    7    8      5   6 9            
 
     X                                                                    X     X                X    X    X      X   X X            
     X                                                                    X     X                     X    X      X     X            
     X                                                                    X     X                          X            X            
     X                                                                    X     X                          X            X            
                                                                          X     X                          X            X            
                                                                          X     X                          X            X            
                                                                          X     X                          X                         
                                                                          X                                X                         
                                                                          X                                X                         
                                                                          X                                X                         
                                                                          X                                X                         
                                                                          X                                X                         
                                                                          X                                X                         
                                                                          X                                X                         
                                                                                                           X                         
                                                                                                           X                         
                                                                                                           X                         
                                                                                                           X                         
                                                                                                           X                         
                                                                                                           X                         
 
 ***** Axes restored to original set *****
 -------------------------------------------------------------------
 Center     Atomic                   Forces (Hartrees/Bohr)
 Number     Number              X              Y              Z
 -------------------------------------------------------------------
      1        1          -0.000158214   -0.000000000    0.000170031
      2        8          -0.000332118   -0.000000000   -0.000217465
      3        8          -0.000294149   -0.000000000    0.002131296
      4        7           0.006536352   -0.000000000    0.008623630
      5        8          -0.005751871   -0.000000000   -0.010707490
 -------------------------------------------------------------------
 Cartesian Forces:  Max     0.010707490 RMS     0.004240014
 -----------------------------------------------------------------------------------------------
                       Internal Coordinate Forces (Hartree/Bohr or radian)
  Cent   Atom   N1       Length/X         N2         Alpha/Y        N3         Beta/Z          J
 -----------------------------------------------------------------------------------------------
      1  H 
      2  O        1  -0.000170(     1)
      3  O        2   0.000491(     2)      1   0.000294(     5)
      4  N        3   0.002168(     3)      2   0.000413(     6)      1   0.000000(     8)     0
      5  O        4   0.012130(     4)      3   0.001734(     7)      2   0.000000(     9)     0
 -----------------------------------------------------------------------------------------------
 Internal  Forces:  Max     0.012129962 RMS     0.004154941
 Force constants in Cartesian coordinates: 
                1             2             3             4             5 
      1  0.722249D-01
      2  0.000000D+00  0.602563D-02
      3  0.240233D-01  0.000000D+00  0.436955D+00
      4 -0.518990D-01  0.000000D+00 -0.481774D-02  0.281161D+00
      5  0.000000D+00 -0.240600D-02  0.000000D+00  0.000000D+00  0.121131D-01
      6  0.321524D-01  0.000000D+00 -0.420613D+00 -0.120901D-01  0.000000D+00
      7 -0.251573D-01  0.000000D+00 -0.159331D-01 -0.170861D+00  0.000000D+00
      8  0.000000D+00 -0.424539D-02  0.000000D+00  0.000000D+00 -0.188831D-01
      9 -0.439586D-01  0.000000D+00 -0.197420D-01  0.102074D-01  0.000000D+00
     10 -0.575608D-02  0.000000D+00  0.651716D-02 -0.844024D-01  0.000000D+00
     11  0.000000D+00  0.809049D-02  0.000000D+00  0.000000D+00  0.199326D-01
     12 -0.193821D-01  0.000000D+00  0.118212D-01  0.109410D-01  0.000000D+00
     13  0.105875D-01  0.000000D+00 -0.978970D-02  0.260017D-01  0.000000D+00
     14  0.000000D+00 -0.746473D-02  0.000000D+00  0.000000D+00 -0.107566D-01
     15  0.716490D-02  0.000000D+00 -0.842187D-02 -0.424055D-02  0.000000D+00
                6             7             8             9            10 
      6  0.522346D+00
      7 -0.913939D-01  0.303291D+00
      8  0.000000D+00  0.000000D+00  0.401182D-01
      9 -0.967230D-01  0.824431D-01  0.000000D+00  0.317865D+00
     10  0.404245D-01 -0.144821D+00  0.000000D+00 -0.357797D-01  0.567785D+00
     11  0.000000D+00  0.000000D+00 -0.476725D-01  0.000000D+00  0.000000D+00
     12 -0.102946D-01  0.141367D-01  0.000000D+00 -0.217839D-01  0.266172D+00
     13  0.309071D-01  0.375473D-01  0.000000D+00 -0.129123D-01 -0.332806D+00
     14  0.000000D+00  0.000000D+00  0.306828D-01  0.000000D+00  0.000000D+00
     15  0.528390D-02  0.107472D-01  0.000000D+00 -0.179616D+00 -0.277334D+00
               11            12            13            14            15 
     11  0.527545D-01
     12  0.000000D+00  0.474684D+00
     13  0.000000D+00 -0.271868D+00  0.258670D+00
     14 -0.331051D-01  0.000000D+00  0.000000D+00  0.206436D-01
     15  0.000000D+00 -0.454427D+00  0.263663D+00  0.000000D+00  0.637182D+00
 Force constants in internal coordinates: 
                1             2             3             4             5 
      1  0.436955D+00
      2  0.218919D-01  0.259354D+00
      3  0.464490D-02  0.175310D-01  0.207879D+00
      4 -0.123227D-01  0.230068D-01  0.153604D+00  0.768070D+00
      5  0.445754D-01  0.565044D-01 -0.239114D-01  0.217434D-01  0.250114D+00
      6  0.108267D-01  0.221172D-01  0.924295D-01  0.100938D-01 -0.823512D-02
      7  0.865899D-02 -0.731508D-01  0.123475D+00  0.118772D+00 -0.217245D-01
      8  0.000000D+00  0.000000D+00  0.000000D+00  0.000000D+00  0.000000D+00
      9  0.000000D+00  0.000000D+00  0.000000D+00  0.000000D+00  0.000000D+00
                6             7             8             9 
      6  0.522066D+00
      7  0.617059D-01  0.669455D+00
      8  0.000000D+00  0.000000D+00  0.198223D-01
      9  0.000000D+00  0.000000D+00  0.279068D-01  0.108069D+00
 Leave Link  716 at Sun Mar  6 19:21:05 2022, MaxMem= 16106127360 cpu:               0.7 elap:               0.0
 (Enter /sw/contrib/gaussian/g16/B01/g16/l103.exe)

 GradGradGradGradGradGradGradGradGradGradGradGradGradGradGradGradGradGrad
 Berny optimization.
 Search for a local minimum.
 Step number   1 out of a maximum of    2
 All quantities printed in internal units (Hartrees-Bohrs-Radians)
 Second derivative matrix not updated -- analytic derivatives used.
 The second derivative matrix:
                          r1        r2        r3        r4        a1
           r1           0.43696
           r2           0.02189   0.25935
           r3           0.00464   0.01753   0.20788
           r4          -0.01232   0.02301   0.15360   0.76807
           a1           0.04458   0.05650  -0.02391   0.02174   0.25011
           a2           0.01083   0.02212   0.09243   0.01009  -0.00824
           a3           0.00866  -0.07315   0.12348   0.11877  -0.02172
           d1           0.00000   0.00000   0.00000   0.00000   0.00000
           d2           0.00000   0.00000   0.00000   0.00000   0.00000
                          a2        a3        d1        d2
           a2           0.52207
           a3           0.06171   0.66946
           d1           0.00000   0.00000   0.01982
           d2           0.00000   0.00000   0.02791   0.10807
 ITU=  0
     Eigenvalues ---    0.01174   0.11615   0.12414   0.20389   0.27676
     Eigenvalues ---    0.44973   0.51706   0.62723   0.91509
 Angle between quadratic step and forces=  19.23 degrees.
 Linear search not attempted -- first point.
 Variable       Old X    -DE/DX   Delta X   Delta X   Delta X     New X
                                 (Linear)    (Quad)   (Total)
    r1        1.86209  -0.00017   0.00000   0.00009   0.00009   1.86218
    r2        2.69614   0.00049   0.00000   0.00066   0.00066   2.69680
    r3        2.60992   0.00217   0.00000  -0.00204  -0.00204   2.60787
    r4        2.24193   0.01213   0.00000   0.01618   0.01618   2.25811
    a1        1.75642   0.00029   0.00000  -0.00056  -0.00056   1.75586
    a2        1.97463   0.00041   0.00000   0.00079   0.00079   1.97542
    a3        1.99550   0.00173   0.00000   0.00008   0.00008   1.99558
    d1        0.00000   0.00000   0.00000   0.00000   0.00000   0.00000
    d2        0.00000   0.00000   0.00000   0.00000   0.00000   0.00000
         Item               Value     Threshold  Converged?
 Maximum Force            0.012130     0.000450     NO 
 RMS     Force            0.004155     0.000300     NO 
 Maximum Displacement     0.016176     0.001800     NO 
 RMS     Displacement     0.005449     0.001200     NO 
 Predicted change in Energy=-9.619764D-05
                       ----------------------------
                       ! Non-Optimized Parameters !
                       ! (Angstroms and Degrees)  !
 ----------------------                            ----------------------
 !      Name          Value   Derivative information (Atomic Units)     !
 ------------------------------------------------------------------------
 !       r1          0.9854   -DE/DX =   -0.0002                        !
 !       r2          1.4271   -DE/DX =    0.0005                        !
 !       r3          1.38     -DE/DX =    0.0022                        !
 !       r4          1.1949   -DE/DX =    0.0121                        !
 !       a1        100.6036   -DE/DX =    0.0003                        !
 !       a2        113.1831   -DE/DX =    0.0004                        !
 !       a3        114.3384   -DE/DX =    0.0017                        !
 !       d1          0.0      -DE/DX =    0.0                           !
 !       d2          0.0      -DE/DX =    0.0                           !
 ------------------------------------------------------------------------
 GradGradGradGradGradGradGradGradGradGradGradGradGradGradGradGradGradGrad

 Leave Link  103 at Sun Mar  6 19:21:05 2022, MaxMem= 16106127360 cpu:               1.9 elap:               0.1
 (Enter /sw/contrib/gaussian/g16/B01/g16/l9999.exe)

 ----------------------------------------------------------------------

 Electric dipole moment (input orientation):
 (Debye = 10**-18 statcoulomb cm , SI units = C m)
                  (au)            (Debye)         (10**-30 SI)
   Tot        0.445467D+00      0.113227D+01      0.377683D+01
   x         -0.105327D+00     -0.267716D+00     -0.893003D+00
   y          0.000000D+00      0.000000D+00      0.000000D+00
   z         -0.432836D+00     -0.110016D+01     -0.366974D+01

 Dipole polarizability, Alpha (input orientation).
 (esu units = cm**3 , SI units = C**2 m**2 J**-1)
 Alpha(0;0):
               (au)            (10**-24 esu)      (10**-40 SI)
   iso        0.260435D+02      0.385924D+01      0.429399D+01
   aniso      0.145507D+02      0.215620D+01      0.239909D+01
   xx         0.291350D+02      0.431736D+01      0.480371D+01
   yx         0.000000D+00      0.000000D+00      0.000000D+00
   yy         0.175960D+02      0.260746D+01      0.290119D+01
   zx        -0.397155D+01     -0.588522D+00     -0.654820D+00
   zy         0.000000D+00      0.000000D+00      0.000000D+00
   zz         0.313994D+02      0.465291D+01      0.517706D+01

 ----------------------------------------------------------------------

 Dipole orientation:
     1         -0.00000000          0.00000000          0.00000000
     8         -0.44027757          0.00000000         -1.80929329
     8          2.01675894         -0.00000000         -2.91931618
     7          3.93944899         -0.00000000         -1.15440252
     8          3.23861610          0.00000000          0.97517100

 Electric dipole moment (dipole orientation):
 (Debye = 10**-18 statcoulomb cm , SI units = C m)
                  (au)            (Debye)         (10**-30 SI)
   Tot        0.445467D+00      0.113227D+01      0.377683D+01
   x          0.000000D+00      0.000000D+00      0.000000D+00
   y          0.000000D+00      0.000000D+00      0.000000D+00
   z          0.445467D+00      0.113227D+01      0.377683D+01

 Dipole polarizability, Alpha (dipole orientation).
 (esu units = cm**3 , SI units = C**2 m**2 J**-1)
 Alpha(0;0):
               (au)            (10**-24 esu)      (10**-40 SI)
   iso        0.260435D+02      0.385924D+01      0.429399D+01
   aniso      0.145507D+02      0.215620D+01      0.239909D+01
   xx         0.310864D+02      0.460653D+01      0.512546D+01
   yx         0.000000D+00      0.000000D+00      0.000000D+00
   yy         0.175960D+02      0.260746D+01      0.290119D+01
   zx         0.404771D+01      0.599809D+00      0.667377D+00
   zy         0.000000D+00      0.000000D+00      0.000000D+00
   zz         0.294480D+02      0.436374D+01      0.485532D+01

 ----------------------------------------------------------------------
 1\1\GINC-N2228\Freq\RMP2-FC\Aug-CC-pVTZ\H1N1O3\CGAVINH\06-Mar-2022\1\\
 #p freq mp2/aug-cc-pvtz density=current\\title\\0,1\H\O,1,r1\O,2,r2,1,
 a1\N,3,r3,2,a2,1,d1,0\O,4,r4,3,a3,2,d2,0\\r1=0.98537664\r2=1.42673666\
 r3=1.38110764\r4=1.18637827\a1=100.6355057\a2=113.13777052\a3=114.3339
 2022\d1=0.\d2=0.\\Version=ES64L-G16RevB.01\State=1-A'\HF=-279.5077703\
 MP2=-280.4551425\RMSD=3.611e-09\RMSF=4.240e-03\ZeroPoint=0.0235109\The
 rmal=0.0274607\Dipole=-0.1053274,0.,-0.4328364\DipoleDeriv=0.3166781,0
 .,0.0376616,0.,0.2980979,0.,-0.0248667,0.,0.1990642,-0.527668,0.,0.278
 6668,0.,-0.2551361,0.,-0.1036463,0.,-0.1275448,-0.0015698,0.,0.3418084
 ,0.,-0.0140917,0.,0.4416569,0.,-0.9215229,0.2020117,0.,-0.1306014,0.,0
 .0136805,0.,-0.6671246,0.,1.7410022,0.0105479,0.,-0.5275354,0.,-0.0425
 505,0.,0.3539807,0.,-0.8909988\Polar=29.1349955,0.,17.5960139,-3.97154
 66,0.,31.3994117\Quadrupole=0.1422363,0.6097684,-0.7520046,0.,1.392252
 8,0.\PG=CS [SG(H1N1O3)]\NImag=0\\0.07222488,0.,0.00602563,0.02402335,0
 .,0.43695541,-0.05189899,0.,-0.00481774,0.28116062,0.,-0.00240600,0.,0
 .,0.01211305,0.03215239,0.,-0.42061268,-0.01209012,0.,0.52234636,-0.02
 515727,0.,-0.01593305,-0.17086099,0.,-0.09139390,0.30329145,0.,-0.0042
 4539,0.,0.,-0.01888314,0.,0.,0.04011816,-0.04395855,0.,-0.01974204,0.0
 1020742,0.,-0.09672296,0.08244313,0.,0.31786539,-0.00575608,0.,0.00651
 716,-0.08440236,0.,0.04042451,-0.14482053,0.,-0.03577967,0.56778528,0.
 ,0.00809049,0.,0.,0.01993264,0.,0.,-0.04767246,0.,0.,0.05275447,-0.019
 38209,0.,0.01182118,0.01094100,0.,-0.01029461,0.01413667,0.,-0.0217839
 1,0.26617203,0.,0.47468447,0.01058746,0.,-0.00978970,0.02600171,0.,0.0
 3090712,0.03754734,0.,-0.01291234,-0.33280630,0.,-0.27186760,0.2586697
 9,0.,-0.00746473,0.,0.,-0.01075656,0.,0.,0.03068283,0.,0.,-0.03310515,
 0.,0.,0.02064360,0.00716490,0.,-0.00842187,-0.00424055,0.,0.00528390,0
 .01074716,0.,-0.17961647,-0.27733402,0.,-0.45442712,0.26366252,0.,0.63
 718157\\0.00015821,0.,-0.00017003,0.00033212,0.,0.00021747,0.00029415,
 0.,-0.00213130,-0.00653635,0.,-0.00862363,0.00575187,0.,0.01070749\\\@


 BOOKS ARE LIGHTHOUSES ERECTED IN THE GREAT SEA OF TIME.
     -- E.P.WHIPPLE
 Job cpu time:       0 days  1 hours 56 minutes 34.0 seconds.
 Elapsed time:       0 days  0 hours  4 minutes 12.6 seconds.
 File lengths (MBytes):  RWF=   7239 Int=      0 D2E=      0 Chk=      8 Scr=      1
 Normal termination of Gaussian 16 at Sun Mar  6 19:21:06 2022.
