 Entering Gaussian System, Link 0=g16
 Input=hoono_a1_98p90666.gjf
 Output=hoono_a1_98p90666.log
 Initial command:
 /sw/contrib/gaussian/g16/B01/g16/l1.exe "/scr/Gau-24065.inp" -scrdir="/scr/"
 Entering Link 1 = /sw/contrib/gaussian/g16/B01/g16/l1.exe PID=     24066.
  
 Copyright (c) 1988-2017, Gaussian, Inc.  All Rights Reserved.
  
 This is part of the Gaussian(R) 16 program.  It is based on
 the Gaussian(R) 09 system (copyright 2009, Gaussian, Inc.),
 the Gaussian(R) 03 system (copyright 2003, Gaussian, Inc.),
 the Gaussian(R) 98 system (copyright 1998, Gaussian, Inc.),
 the Gaussian(R) 94 system (copyright 1995, Gaussian, Inc.),
 the Gaussian 92(TM) system (copyright 1992, Gaussian, Inc.),
 the Gaussian 90(TM) system (copyright 1990, Gaussian, Inc.),
 the Gaussian 88(TM) system (copyright 1988, Gaussian, Inc.),
 the Gaussian 86(TM) system (copyright 1986, Carnegie Mellon
 University), and the Gaussian 82(TM) system (copyright 1983,
 Carnegie Mellon University). Gaussian is a federally registered
 trademark of Gaussian, Inc.
  
 This software contains proprietary and confidential information,
 including trade secrets, belonging to Gaussian, Inc.
  
 This software is provided under written license and may be
 used, copied, transmitted, or stored only in accord with that
 written license.
  
 The following legend is applicable only to US Government
 contracts under FAR:
  
                    RESTRICTED RIGHTS LEGEND
  
 Use, reproduction and disclosure by the US Government is
 subject to restrictions as set forth in subparagraphs (a)
 and (c) of the Commercial Computer Software - Restricted
 Rights clause in FAR 52.227-19.
  
 Gaussian, Inc.
 340 Quinnipiac St., Bldg. 40, Wallingford CT 06492
  
  
 ---------------------------------------------------------------
 Warning -- This program may not be used in any manner that
 competes with the business of Gaussian, Inc. or will provide
 assistance to any competitor of Gaussian, Inc.  The licensee
 of this program is prohibited from giving any competitor of
 Gaussian, Inc. access to this program.  By using this program,
 the user acknowledges that Gaussian, Inc. is engaged in the
 business of creating and licensing software in the field of
 computational chemistry and represents and warrants to the
 licensee that it is not a competitor of Gaussian, Inc. and that
 it will not use this program in any manner prohibited above.
 ---------------------------------------------------------------
  

 Cite this work as:
 Gaussian 16, Revision B.01,
 M. J. Frisch, G. W. Trucks, H. B. Schlegel, G. E. Scuseria, 
 M. A. Robb, J. R. Cheeseman, G. Scalmani, V. Barone, 
 G. A. Petersson, H. Nakatsuji, X. Li, M. Caricato, A. V. Marenich, 
 J. Bloino, B. G. Janesko, R. Gomperts, B. Mennucci, H. P. Hratchian, 
 J. V. Ortiz, A. F. Izmaylov, J. L. Sonnenberg, D. Williams-Young, 
 F. Ding, F. Lipparini, F. Egidi, J. Goings, B. Peng, A. Petrone, 
 T. Henderson, D. Ranasinghe, V. G. Zakrzewski, J. Gao, N. Rega, 
 G. Zheng, W. Liang, M. Hada, M. Ehara, K. Toyota, R. Fukuda, 
 J. Hasegawa, M. Ishida, T. Nakajima, Y. Honda, O. Kitao, H. Nakai, 
 T. Vreven, K. Throssell, J. A. Montgomery, Jr., J. E. Peralta, 
 F. Ogliaro, M. J. Bearpark, J. J. Heyd, E. N. Brothers, K. N. Kudin, 
 V. N. Staroverov, T. A. Keith, R. Kobayashi, J. Normand, 
 K. Raghavachari, A. P. Rendell, J. C. Burant, S. S. Iyengar, 
 J. Tomasi, M. Cossi, J. M. Millam, M. Klene, C. Adamo, R. Cammi, 
 J. W. Ochterski, R. L. Martin, K. Morokuma, O. Farkas, 
 J. B. Foresman, and D. J. Fox, Gaussian, Inc., Wallingford CT, 2016.
 
 ******************************************
 Gaussian 16:  ES64L-G16RevB.01 20-Dec-2017
                 6-Mar-2022 
 ******************************************
 %nproc=28
 Will use up to   28 processors via shared memory.
 %mem=120GB
 %chk=hoono_a1_98p90666.chk
 ---------------------------------------
 #p freq mp2/aug-cc-pvtz density=current
 ---------------------------------------
 1/10=4,30=1,38=1/1,3;
 2/12=2,17=6,18=5,40=1/2;
 3/5=16,6=1,7=10,11=9,25=1,30=1,71=2,140=1/1,2,3;
 4//1;
 5/5=2,38=5,98=1/2;
 8/6=3,8=1,10=1,19=11,30=-1/1;
 9/15=3,16=-3/6;
 11/6=1,8=1,15=11,17=12,24=-1,27=1,28=-2,29=300,32=6,42=3/1,2,10;
 10/6=2,21=1/2;
 8/6=4,8=1,10=1,19=11,30=-1/11,4;
 10/5=1,20=4/2;
 11/12=2,14=11,16=1,17=2,28=-2,42=3,76=2/2,10,12;
 6/7=2,8=2,9=2,10=2,22=-1/1;
 7/8=1,10=1,12=2,25=1,44=2/1,2,3,16;
 1/10=4,30=1/3;
 99//99;
 Leave Link    1 at Sun Mar  6 19:25:47 2022, MaxMem= 16106127360 cpu:               2.4 elap:               0.1
 (Enter /sw/contrib/gaussian/g16/B01/g16/l101.exe)
 -----
 title
 -----
 Symbolic Z-matrix:
 Charge =  0 Multiplicity = 1
 H
 O                    1    r1
 O                    2    r2       1    a1
 N                    3    r3       2    a2       1    d1       0
 O                    4    r4       3    a3       2    d2       0
       Variables:
  r1                    0.98538                  
  r2                    1.42674                  
  r3                    1.38111                  
  r4                    1.19479                  
  a1                   98.90666                  
  a2                  113.13777                  
  a3                  114.33392                  
  d1                    0.                       
  d2                    0.                       
 
 ITRead=  0  0  0  0  0
 MicOpt= -1 -1 -1 -1 -1
 NAtoms=      5 NQM=        5 NQMF=       0 NMMI=      0 NMMIF=      0
                NMic=       0 NMicF=      0.
                    Isotopes and Nuclear Properties:
 (Nuclear quadrupole moments (NQMom) in fm**2, nuclear magnetic moments (NMagM)
  in nuclear magnetons)

  Atom         1           2           3           4           5
 IAtWgt=           1          16          16          14          16
 AtmWgt=   1.0078250  15.9949146  15.9949146  14.0030740  15.9949146
 NucSpn=           1           0           0           2           0
 AtZEff=  -0.0000000  -0.0000000  -0.0000000  -0.0000000  -0.0000000
 NQMom=    0.0000000   0.0000000   0.0000000   2.0440000   0.0000000
 NMagM=    2.7928460   0.0000000   0.0000000   0.4037610   0.0000000
 AtZNuc=   1.0000000   8.0000000   8.0000000   7.0000000   8.0000000
 Leave Link  101 at Sun Mar  6 19:25:47 2022, MaxMem= 16106127360 cpu:               3.4 elap:               0.1
 (Enter /sw/contrib/gaussian/g16/B01/g16/l103.exe)

 GradGradGradGradGradGradGradGradGradGradGradGradGradGradGradGradGradGrad
 Berny optimization.
 Initialization pass.
                       ----------------------------
                       !    Initial Parameters    !
                       ! (Angstroms and Degrees)  !
 ----------------------                            ----------------------
 !      Name          Value   Derivative information (Atomic Units)     !
 ------------------------------------------------------------------------
 !       r1          0.9854   calculate D2E/DX2 analytically            !
 !       r2          1.4267   calculate D2E/DX2 analytically            !
 !       r3          1.3811   calculate D2E/DX2 analytically            !
 !       r4          1.1948   calculate D2E/DX2 analytically            !
 !       a1         98.9067   calculate D2E/DX2 analytically            !
 !       a2        113.1378   calculate D2E/DX2 analytically            !
 !       a3        114.3339   calculate D2E/DX2 analytically            !
 !       d1          0.0      calculate D2E/DX2 analytically            !
 !       d2          0.0      calculate D2E/DX2 analytically            !
 ------------------------------------------------------------------------
 Trust Radius=3.00D-01 FncErr=1.00D-07 GrdErr=1.00D-07 EigMax=2.50D+02 EigMin=1.00D-04
 Number of steps in this run=      2 maximum allowed number of steps=      2.
 GradGradGradGradGradGradGradGradGradGradGradGradGradGradGradGradGradGrad

 Leave Link  103 at Sun Mar  6 19:25:47 2022, MaxMem= 16106127360 cpu:               0.5 elap:               0.0
 (Enter /sw/contrib/gaussian/g16/B01/g16/l202.exe)
                          Input orientation:                          
 ---------------------------------------------------------------------
 Center     Atomic      Atomic             Coordinates (Angstroms)
 Number     Number       Type             X           Y           Z
 ---------------------------------------------------------------------
      1          1           0        0.000000    0.000000    0.000000
      2          8           0        0.000000    0.000000    0.985377
      3          8           0        1.409533    0.000000    1.206272
      4          7           0        2.142317    0.000000    0.035594
      5          8           0        1.480755    0.000000   -0.959321
 ---------------------------------------------------------------------
                    Distance matrix (angstroms):
                    1          2          3          4          5
     1  H    0.000000
     2  O    0.985377   0.000000
     3  O    1.855229   1.426737   0.000000
     4  N    2.142612   2.343418   1.381108   0.000000
     5  O    1.764350   2.444276   2.166763   1.194788   0.000000
 Stoichiometry    HNO3
 Framework group  CS[SG(HNO3)]
 Deg. of freedom     7
 Full point group                 CS      NOp   2
 Largest Abelian subgroup         CS      NOp   2
 Largest concise Abelian subgroup C1      NOp   1
                         Standard orientation:                         
 ---------------------------------------------------------------------
 Center     Atomic      Atomic             Coordinates (Angstroms)
 Number     Number       Type             X           Y           Z
 ---------------------------------------------------------------------
      1          1           0        1.081708   -0.590463    0.000000
      2          8           0        1.316373    0.366564    0.000000
      3          8           0       -0.000000    0.916780    0.000000
      4          7           0       -0.990495   -0.045705    0.000000
      5          8           0       -0.584904   -1.169544    0.000000
 ---------------------------------------------------------------------
 Rotational constants (GHZ):          21.3988814           8.1098382           5.8810232
 Leave Link  202 at Sun Mar  6 19:25:47 2022, MaxMem= 16106127360 cpu:               1.7 elap:               0.1
 (Enter /sw/contrib/gaussian/g16/B01/g16/l301.exe)
 Standard basis: Aug-CC-pVTZ (5D, 7F)
 Ernie: Thresh=  0.10000D-02 Tol=  0.10000D-05 Strict=F.
 Ernie:  12 primitive shells out of 131 were deleted.
 There are   166 symmetry adapted cartesian basis functions of A'  symmetry.
 There are    79 symmetry adapted cartesian basis functions of A"  symmetry.
 There are   136 symmetry adapted basis functions of A'  symmetry.
 There are    71 symmetry adapted basis functions of A"  symmetry.
   207 basis functions,   315 primitive gaussians,   245 cartesian basis functions
    16 alpha electrons       16 beta electrons
       nuclear repulsion energy       122.8350659751 Hartrees.
 IExCor=    0 DFT=F Ex=HF Corr=None ExCW=0 ScaHFX=  1.000000
 ScaDFX=  1.000000  1.000000  1.000000  1.000000 ScalE2=  1.000000  1.000000
 IRadAn=      5 IRanWt=     -1 IRanGd=            0 ICorTp=0 IEmpDi=  4
 NAtoms=    5 NActive=    5 NUniq=    5 SFac= 1.00D+00 NAtFMM=   60 NAOKFM=F Big=F
 Integral buffers will be    131072 words long.
 Raffenetti 1 integral format.
 Two-electron integral symmetry is turned on.
 Leave Link  301 at Sun Mar  6 19:25:47 2022, MaxMem= 16106127360 cpu:               1.5 elap:               0.1
 (Enter /sw/contrib/gaussian/g16/B01/g16/l302.exe)
 NPDir=0 NMtPBC=     1 NCelOv=     1 NCel=       1 NClECP=     1 NCelD=      1
         NCelK=      1 NCelE2=     1 NClLst=     1 CellRange=     0.0.
 One-electron integrals computed using PRISM.
 One-electron integral symmetry used in STVInt
 NBasis=   207 RedAO= T EigKep=  1.31D-04  NBF=   136    71
 NBsUse=   207 1.00D-06 EigRej= -1.00D+00 NBFU=   136    71
 Leave Link  302 at Sun Mar  6 19:25:48 2022, MaxMem= 16106127360 cpu:               4.7 elap:               0.2
 (Enter /sw/contrib/gaussian/g16/B01/g16/l303.exe)
 DipDrv:  MaxL=1.
 Leave Link  303 at Sun Mar  6 19:25:48 2022, MaxMem= 16106127360 cpu:               1.0 elap:               0.1
 (Enter /sw/contrib/gaussian/g16/B01/g16/l401.exe)
 ExpMin= 2.53D-02 ExpMax= 1.53D+04 ExpMxC= 5.22D+02 IAcc=3 IRadAn=         5 AccDes= 0.00D+00
 Harris functional with IExCor=  205 and IRadAn=       5 diagonalized for initial guess.
 HarFok:  IExCor=  205 AccDes= 0.00D+00 IRadAn=         5 IDoV= 1 UseB2=F ITyADJ=14
 ICtDFT=  3500011 ScaDFX=  1.000000  1.000000  1.000000  1.000000
 FoFCou: FMM=F IPFlag=           0 FMFlag=      100000 FMFlg1=           0
         NFxFlg=           0 DoJE=T BraDBF=F KetDBF=T FulRan=T
         wScrn=  0.000000 ICntrl=       500 IOpCl=  0 I1Cent=   200000004 NGrid=           0
         NMat0=    1 NMatS0=      1 NMatT0=    0 NMatD0=    1 NMtDS0=    0 NMtDT0=    0
 Petite list used in FoFCou.
 Harris En= -279.644833921825    
 JPrj=0 DoOrth=F DoCkMO=F.
 Initial guess orbital symmetries:
       Occupied  (A') (A') (A') (A') (A') (A') (A') (A') (A') (A')
                 (A") (A') (A") (A') (A") (A')
       Virtual   (A") (A') (A') (A') (A') (A") (A') (A') (A') (A')
                 (A") (A') (A") (A') (A') (A") (A') (A') (A") (A')
                 (A') (A') (A') (A') (A") (A') (A') (A') (A") (A')
                 (A') (A") (A") (A') (A') (A") (A') (A") (A') (A")
                 (A') (A") (A') (A") (A') (A') (A') (A") (A') (A')
                 (A') (A") (A') (A") (A') (A") (A') (A') (A') (A")
                 (A') (A') (A") (A') (A') (A') (A") (A") (A') (A')
                 (A") (A') (A") (A") (A') (A') (A") (A') (A') (A')
                 (A") (A') (A') (A") (A') (A") (A') (A") (A') (A')
                 (A') (A") (A') (A") (A') (A') (A") (A') (A") (A')
                 (A") (A') (A') (A") (A") (A') (A') (A') (A") (A')
                 (A") (A') (A') (A') (A") (A') (A') (A') (A") (A')
                 (A") (A') (A') (A") (A") (A") (A") (A') (A') (A')
                 (A') (A') (A') (A") (A') (A") (A') (A") (A') (A')
                 (A") (A") (A') (A') (A') (A") (A') (A') (A') (A")
                 (A') (A') (A') (A") (A') (A") (A") (A') (A') (A")
                 (A') (A") (A") (A') (A") (A') (A") (A') (A") (A')
                 (A") (A") (A") (A') (A") (A') (A') (A') (A") (A')
                 (A') (A') (A') (A') (A') (A') (A') (A') (A') (A')
                 (A')
 The electronic state of the initial guess is 1-A'.
 Leave Link  401 at Sun Mar  6 19:25:48 2022, MaxMem= 16106127360 cpu:               7.8 elap:               0.3
 (Enter /sw/contrib/gaussian/g16/B01/g16/l502.exe)
 Keep R1 ints in memory in symmetry-blocked form, NReq=348887737.
 FoFCou: FMM=F IPFlag=           0 FMFlag=           0 FMFlg1=           0
         NFxFlg=           0 DoJE=F BraDBF=F KetDBF=F FulRan=T
         wScrn=  0.000000 ICntrl=       600 IOpCl=  0 I1Cent=           0 NGrid=           0
         NMat0=    1 NMatS0=  21528 NMatT0=    0 NMatD0=    1 NMtDS0=    0 NMtDT0=    0
 Petite list used in FoFCou.
 Closed shell SCF:
 Using DIIS extrapolation, IDIIS=  1040.
 NGot= 16106127360 LenX= 15988850015 LenY= 15988789549
 Requested convergence on RMS density matrix=1.00D-08 within 128 cycles.
 Requested convergence on MAX density matrix=1.00D-06.
 Requested convergence on             energy=1.00D-06.
 No special actions if energy rises.

 Cycle   1  Pass 1  IDiag  1:
 E= -279.363783900940    
 DIIS: error= 2.74D-02 at cycle   1 NSaved=   1.
 NSaved= 1 IEnMin= 1 EnMin= -279.363783900940     IErMin= 1 ErrMin= 2.74D-02
 ErrMax= 2.74D-02  0.00D+00 EMaxC= 1.00D-01 BMatC= 4.50D-01 BMatP= 4.50D-01
 IDIUse=3 WtCom= 7.26D-01 WtEn= 2.74D-01
 Coeff-Com:  0.100D+01
 Coeff-En:   0.100D+01
 Coeff:      0.100D+01
 Gap=     0.496 Goal=   None    Shift=    0.000
 GapD=    0.496 DampG=2.000 DampE=0.500 DampFc=1.0000 IDamp=-1.
 RMSDP=1.68D-03 MaxDP=8.84D-02              OVMax= 1.22D-01

 Cycle   2  Pass 1  IDiag  1:
 E= -279.446058351091     Delta-E=       -0.082274450152 Rises=F Damp=F
 DIIS: error= 1.96D-02 at cycle   2 NSaved=   2.
 NSaved= 2 IEnMin= 2 EnMin= -279.446058351091     IErMin= 2 ErrMin= 1.96D-02
 ErrMax= 1.96D-02  0.00D+00 EMaxC= 1.00D-01 BMatC= 8.54D-02 BMatP= 4.50D-01
 IDIUse=3 WtCom= 8.04D-01 WtEn= 1.96D-01
 Coeff-Com:  0.218D+00 0.782D+00
 Coeff-En:   0.732D-01 0.927D+00
 Coeff:      0.189D+00 0.811D+00
 Gap=     0.563 Goal=   None    Shift=    0.000
 RMSDP=9.67D-04 MaxDP=3.73D-02 DE=-8.23D-02 OVMax= 9.13D-02

 Cycle   3  Pass 1  IDiag  1:
 E= -279.483497847548     Delta-E=       -0.037439496457 Rises=F Damp=F
 DIIS: error= 1.14D-02 at cycle   3 NSaved=   3.
 NSaved= 3 IEnMin= 3 EnMin= -279.483497847548     IErMin= 3 ErrMin= 1.14D-02
 ErrMax= 1.14D-02  0.00D+00 EMaxC= 1.00D-01 BMatC= 3.10D-02 BMatP= 8.54D-02
 IDIUse=3 WtCom= 8.86D-01 WtEn= 1.14D-01
 Coeff-Com: -0.348D-01 0.365D+00 0.669D+00
 Coeff-En:   0.000D+00 0.219D+00 0.781D+00
 Coeff:     -0.308D-01 0.349D+00 0.682D+00
 Gap=     0.542 Goal=   None    Shift=    0.000
 RMSDP=4.11D-04 MaxDP=1.59D-02 DE=-3.74D-02 OVMax= 3.87D-02

 Cycle   4  Pass 1  IDiag  1:
 E= -279.504654352821     Delta-E=       -0.021156505273 Rises=F Damp=F
 DIIS: error= 1.69D-03 at cycle   4 NSaved=   4.
 NSaved= 4 IEnMin= 4 EnMin= -279.504654352821     IErMin= 4 ErrMin= 1.69D-03
 ErrMax= 1.69D-03  0.00D+00 EMaxC= 1.00D-01 BMatC= 6.09D-04 BMatP= 3.10D-02
 IDIUse=3 WtCom= 9.83D-01 WtEn= 1.69D-02
 Coeff-Com: -0.121D-01 0.482D-01 0.156D+00 0.808D+00
 Coeff-En:   0.000D+00 0.000D+00 0.000D+00 0.100D+01
 Coeff:     -0.119D-01 0.474D-01 0.153D+00 0.811D+00
 Gap=     0.529 Goal=   None    Shift=    0.000
 RMSDP=9.89D-05 MaxDP=2.32D-03 DE=-2.12D-02 OVMax= 1.18D-02

 Cycle   5  Pass 1  IDiag  1:
 E= -279.505470735261     Delta-E=       -0.000816382441 Rises=F Damp=F
 DIIS: error= 1.12D-03 at cycle   5 NSaved=   5.
 NSaved= 5 IEnMin= 5 EnMin= -279.505470735261     IErMin= 5 ErrMin= 1.12D-03
 ErrMax= 1.12D-03  0.00D+00 EMaxC= 1.00D-01 BMatC= 1.03D-04 BMatP= 6.09D-04
 IDIUse=3 WtCom= 9.89D-01 WtEn= 1.12D-02
 Coeff-Com:  0.543D-02-0.666D-01-0.112D+00 0.598D-01 0.111D+01
 Coeff-En:   0.000D+00 0.000D+00 0.000D+00 0.000D+00 0.100D+01
 Coeff:      0.537D-02-0.659D-01-0.110D+00 0.592D-01 0.111D+01
 Gap=     0.532 Goal=   None    Shift=    0.000
 RMSDP=8.03D-05 MaxDP=2.12D-03 DE=-8.16D-04 OVMax= 1.30D-02

 Cycle   6  Pass 1  IDiag  1:
 E= -279.505836604048     Delta-E=       -0.000365868787 Rises=F Damp=F
 DIIS: error= 3.42D-04 at cycle   6 NSaved=   6.
 NSaved= 6 IEnMin= 6 EnMin= -279.505836604048     IErMin= 6 ErrMin= 3.42D-04
 ErrMax= 3.42D-04  0.00D+00 EMaxC= 1.00D-01 BMatC= 2.42D-05 BMatP= 1.03D-04
 IDIUse=3 WtCom= 9.97D-01 WtEn= 3.42D-03
 Coeff-Com:  0.189D-02-0.709D-02-0.179D-01-0.182D+00 0.109D-01 0.119D+01
 Coeff-En:   0.000D+00 0.000D+00 0.000D+00 0.000D+00 0.000D+00 0.100D+01
 Coeff:      0.188D-02-0.707D-02-0.178D-01-0.182D+00 0.108D-01 0.119D+01
 Gap=     0.533 Goal=   None    Shift=    0.000
 RMSDP=4.68D-05 MaxDP=1.07D-03 DE=-3.66D-04 OVMax= 6.12D-03

 Cycle   7  Pass 1  IDiag  1:
 E= -279.505922846797     Delta-E=       -0.000086242749 Rises=F Damp=F
 DIIS: error= 1.27D-04 at cycle   7 NSaved=   7.
 NSaved= 7 IEnMin= 7 EnMin= -279.505922846797     IErMin= 7 ErrMin= 1.27D-04
 ErrMax= 1.27D-04  0.00D+00 EMaxC= 1.00D-01 BMatC= 3.56D-06 BMatP= 2.42D-05
 IDIUse=3 WtCom= 9.99D-01 WtEn= 1.27D-03
 Coeff-Com: -0.109D-02 0.115D-01 0.250D-01 0.159D-01-0.180D+00-0.150D+00
 Coeff-Com:  0.128D+01
 Coeff-En:   0.000D+00 0.000D+00 0.000D+00 0.000D+00 0.000D+00 0.000D+00
 Coeff-En:   0.100D+01
 Coeff:     -0.109D-02 0.114D-01 0.249D-01 0.159D-01-0.180D+00-0.149D+00
 Coeff:      0.128D+01
 Gap=     0.533 Goal=   None    Shift=    0.000
 RMSDP=1.75D-05 MaxDP=5.11D-04 DE=-8.62D-05 OVMax= 2.33D-03

 Cycle   8  Pass 1  IDiag  1:
 E= -279.505934838923     Delta-E=       -0.000011992126 Rises=F Damp=F
 DIIS: error= 4.71D-05 at cycle   8 NSaved=   8.
 NSaved= 8 IEnMin= 8 EnMin= -279.505934838923     IErMin= 8 ErrMin= 4.71D-05
 ErrMax= 4.71D-05  0.00D+00 EMaxC= 1.00D-01 BMatC= 6.02D-07 BMatP= 3.56D-06
 IDIUse=1 WtCom= 1.00D+00 WtEn= 0.00D+00
 Coeff-Com: -0.561D-03 0.413D-02 0.973D-02 0.246D-01-0.564D-01-0.193D+00
 Coeff-Com:  0.353D+00 0.858D+00
 Coeff:     -0.561D-03 0.413D-02 0.973D-02 0.246D-01-0.564D-01-0.193D+00
 Coeff:      0.353D+00 0.858D+00
 Gap=     0.533 Goal=   None    Shift=    0.000
 RMSDP=5.47D-06 MaxDP=1.55D-04 DE=-1.20D-05 OVMax= 6.53D-04

 Cycle   9  Pass 1  IDiag  1:
 E= -279.505936225791     Delta-E=       -0.000001386868 Rises=F Damp=F
 DIIS: error= 2.39D-05 at cycle   9 NSaved=   9.
 NSaved= 9 IEnMin= 9 EnMin= -279.505936225791     IErMin= 9 ErrMin= 2.39D-05
 ErrMax= 2.39D-05  0.00D+00 EMaxC= 1.00D-01 BMatC= 1.17D-07 BMatP= 6.02D-07
 IDIUse=1 WtCom= 1.00D+00 WtEn= 0.00D+00
 Coeff-Com:  0.242D-03-0.258D-02-0.535D-02-0.555D-02 0.467D-01 0.492D-01
 Coeff-Com: -0.340D+00 0.314D-01 0.123D+01
 Coeff:      0.242D-03-0.258D-02-0.535D-02-0.555D-02 0.467D-01 0.492D-01
 Coeff:     -0.340D+00 0.314D-01 0.123D+01
 Gap=     0.533 Goal=   None    Shift=    0.000
 RMSDP=2.47D-06 MaxDP=6.77D-05 DE=-1.39D-06 OVMax= 2.59D-04

 Cycle  10  Pass 1  IDiag  1:
 E= -279.505936491191     Delta-E=       -0.000000265401 Rises=F Damp=F
 DIIS: error= 5.83D-06 at cycle  10 NSaved=  10.
 NSaved=10 IEnMin=10 EnMin= -279.505936491191     IErMin=10 ErrMin= 5.83D-06
 ErrMax= 5.83D-06  0.00D+00 EMaxC= 1.00D-01 BMatC= 8.26D-09 BMatP= 1.17D-07
 IDIUse=1 WtCom= 1.00D+00 WtEn= 0.00D+00
 Coeff-Com: -0.372D-04 0.485D-03 0.117D-02-0.190D-02-0.107D-01 0.570D-02
 Coeff-Com:  0.706D-01-0.536D-01-0.428D+00 0.142D+01
 Coeff:     -0.372D-04 0.485D-03 0.117D-02-0.190D-02-0.107D-01 0.570D-02
 Coeff:      0.706D-01-0.536D-01-0.428D+00 0.142D+01
 Gap=     0.533 Goal=   None    Shift=    0.000
 RMSDP=7.05D-07 MaxDP=2.52D-05 DE=-2.65D-07 OVMax= 7.54D-05

 Cycle  11  Pass 1  IDiag  1:
 E= -279.505936516196     Delta-E=       -0.000000025005 Rises=F Damp=F
 DIIS: error= 2.24D-06 at cycle  11 NSaved=  11.
 NSaved=11 IEnMin=11 EnMin= -279.505936516196     IErMin=11 ErrMin= 2.24D-06
 ErrMax= 2.24D-06  0.00D+00 EMaxC= 1.00D-01 BMatC= 8.59D-10 BMatP= 8.26D-09
 IDIUse=1 WtCom= 1.00D+00 WtEn= 0.00D+00
 Coeff-Com: -0.170D-04 0.174D-03 0.362D-03 0.872D-03-0.230D-02-0.725D-02
 Coeff-Com:  0.201D-01 0.190D-01-0.556D-01-0.311D+00 0.134D+01
 Coeff:     -0.170D-04 0.174D-03 0.362D-03 0.872D-03-0.230D-02-0.725D-02
 Coeff:      0.201D-01 0.190D-01-0.556D-01-0.311D+00 0.134D+01
 Gap=     0.533 Goal=   None    Shift=    0.000
 RMSDP=2.45D-07 MaxDP=9.09D-06 DE=-2.50D-08 OVMax= 2.86D-05

 Cycle  12  Pass 1  IDiag  1:
 E= -279.505936519262     Delta-E=       -0.000000003065 Rises=F Damp=F
 DIIS: error= 7.51D-07 at cycle  12 NSaved=  12.
 NSaved=12 IEnMin=12 EnMin= -279.505936519262     IErMin=12 ErrMin= 7.51D-07
 ErrMax= 7.51D-07  0.00D+00 EMaxC= 1.00D-01 BMatC= 9.21D-11 BMatP= 8.59D-10
 IDIUse=1 WtCom= 1.00D+00 WtEn= 0.00D+00
 Coeff-Com:  0.252D-05-0.453D-04-0.983D-04 0.154D-03 0.115D-02-0.888D-03
 Coeff-Com: -0.729D-02 0.690D-02 0.418D-01-0.121D+00-0.173D+00 0.125D+01
 Coeff:      0.252D-05-0.453D-04-0.983D-04 0.154D-03 0.115D-02-0.888D-03
 Coeff:     -0.729D-02 0.690D-02 0.418D-01-0.121D+00-0.173D+00 0.125D+01
 Gap=     0.533 Goal=   None    Shift=    0.000
 RMSDP=8.70D-08 MaxDP=2.85D-06 DE=-3.07D-09 OVMax= 1.01D-05

 Cycle  13  Pass 1  IDiag  1:
 E= -279.505936519586     Delta-E=       -0.000000000324 Rises=F Damp=F
 DIIS: error= 1.70D-07 at cycle  13 NSaved=  13.
 NSaved=13 IEnMin=13 EnMin= -279.505936519586     IErMin=13 ErrMin= 1.70D-07
 ErrMax= 1.70D-07  0.00D+00 EMaxC= 1.00D-01 BMatC= 7.75D-12 BMatP= 9.21D-11
 IDIUse=1 WtCom= 1.00D+00 WtEn= 0.00D+00
 Coeff-Com:  0.136D-05-0.131D-04-0.192D-04-0.121D-03 0.578D-04 0.948D-03
 Coeff-Com: -0.117D-02-0.255D-02-0.146D-02 0.544D-01-0.129D+00-0.154D+00
 Coeff-Com:  0.123D+01
 Coeff:      0.136D-05-0.131D-04-0.192D-04-0.121D-03 0.578D-04 0.948D-03
 Coeff:     -0.117D-02-0.255D-02-0.146D-02 0.544D-01-0.129D+00-0.154D+00
 Coeff:      0.123D+01
 Gap=     0.533 Goal=   None    Shift=    0.000
 RMSDP=2.32D-08 MaxDP=6.94D-07 DE=-3.24D-10 OVMax= 2.14D-06

 Cycle  14  Pass 1  IDiag  1:
 E= -279.505936519608     Delta-E=       -0.000000000022 Rises=F Damp=F
 DIIS: error= 4.14D-08 at cycle  14 NSaved=  14.
 NSaved=14 IEnMin=14 EnMin= -279.505936519608     IErMin=14 ErrMin= 4.14D-08
 ErrMax= 4.14D-08  0.00D+00 EMaxC= 1.00D-01 BMatC= 5.08D-13 BMatP= 7.75D-12
 IDIUse=1 WtCom= 1.00D+00 WtEn= 0.00D+00
 Coeff-Com: -0.296D-06 0.447D-05 0.901D-05-0.516D-05-0.114D-03 0.704D-04
 Coeff-Com:  0.644D-03-0.350D-03-0.365D-02 0.851D-02 0.165D-01-0.895D-01
 Coeff-Com: -0.232D-01 0.109D+01
 Coeff:     -0.296D-06 0.447D-05 0.901D-05-0.516D-05-0.114D-03 0.704D-04
 Coeff:      0.644D-03-0.350D-03-0.365D-02 0.851D-02 0.165D-01-0.895D-01
 Coeff:     -0.232D-01 0.109D+01
 Gap=     0.533 Goal=   None    Shift=    0.000
 RMSDP=4.49D-09 MaxDP=1.12D-07 DE=-2.21D-11 OVMax= 4.85D-07

 SCF Done:  E(RHF) =  -279.505936520     A.U. after   14 cycles
            NFock= 14  Conv=0.45D-08     -V/T= 2.0022
 KE= 2.788927844524D+02 PE=-9.065236779379D+02 EE= 2.252898909908D+02
 Leave Link  502 at Sun Mar  6 19:25:52 2022, MaxMem= 16106127360 cpu:              58.2 elap:               3.8
 (Enter /sw/contrib/gaussian/g16/B01/g16/l801.exe)
 ExpMin= 2.53D-02 ExpMax= 1.53D+04 ExpMxC= 5.22D+02 IAcc=3 IRadAn=         5 AccDes= 0.00D+00
 HarFok:  IExCor=  205 AccDes= 0.00D+00 IRadAn=         5 IDoV=-2 UseB2=F ITyADJ=14
 ICtDFT= 12500011 ScaDFX=  1.000000  1.000000  1.000000  1.000000
 Largest valence mixing into a core orbital is  2.07D-04
 Largest core mixing into a valence orbital is  3.12D-05
 Range of M.O.s used for correlation:     5   207
 NBasis=   207 NAE=    16 NBE=    16 NFC=     4 NFV=     0
 NROrb=    203 NOA=    12 NOB=    12 NVA=   191 NVB=   191

 **** Warning!!: The largest alpha MO coefficient is  0.16950466D+02

 Leave Link  801 at Sun Mar  6 19:25:52 2022, MaxMem= 16106127360 cpu:               2.2 elap:               0.1
 (Enter /sw/contrib/gaussian/g16/B01/g16/l906.exe)
 Frozen-core derivative calculation, NFC=   4 NFV=   0.
 FulOut=F Deriv=T AODrv=T NAtomX=     5
   MMem=           0  MDisk=          12 MDiskD=          12
  W3Min=      811440 MinDsk=     2425030 NBas6D=         245
 NBas2D=       30762    NTT=       30135    LW2=     7400000
    MDV= 16105571532 MDiskM=      328644 NBas2p=       30759
 Disk-based method using ON**2 memory for 12 occupieds at a time.
 Permanent disk used for amplitudes=    11516536 words.
 Estimated scratch disk usage=   321863743 words.
 IMap=   1   2   3   4   5   6   7   8   9  10  11  12  13  14  15  16
 Actual    scratch disk usage=   310892607 words.
 JobTyp=1 Pass  1:  I=   5 to  16 NPSUse= 28 ParTrn=T ParDer=T DoDerP=T.
 (rs|ai) integrals will be sorted in core.
 Spin components of T(2) and E(2):
     alpha-alpha T2 =       0.3483292389D-01 E2=     -0.1246433308D+00
     alpha-beta  T2 =       0.1845592566D+00 E2=     -0.6999024271D+00
     beta-beta   T2 =       0.3483292389D-01 E2=     -0.1246433308D+00
 The integrals were generated   1 times.
 ANorm=    0.1119921919D+01
 E2 =    -0.9491890887D+00 EUMP2 =    -0.28045512560831D+03
 Leave Link  906 at Sun Mar  6 19:27:29 2022, MaxMem= 16106127360 cpu:            2701.7 elap:              96.7
 (Enter /sw/contrib/gaussian/g16/B01/g16/l1101.exe)
 Using compressed Sx but separate Hx and Fx, NAtomX=     5.
 Will process      6 centers per pass.
 Leave Link 1101 at Sun Mar  6 19:27:29 2022, MaxMem= 16106127360 cpu:               5.2 elap:               0.2
 (Enter /sw/contrib/gaussian/g16/B01/g16/l1102.exe)
 Leave Link 1102 at Sun Mar  6 19:27:29 2022, MaxMem= 16106127360 cpu:               0.5 elap:               0.0
 (Enter /sw/contrib/gaussian/g16/B01/g16/l1110.exe)
 Forming Gx(P) for the SCF density, NAtomX=     5.
 Integral derivatives from FoFJK, PRISM(SPDF).
 Do as many integral derivatives as possible in FoFJK.
 G2DrvN: MDV=   16106126844.
 G2DrvN: will do     6 centers at a time, making    1 passes.
 Calling FoFCou, ICntrl=  3107 FMM=F I1Cent=   0 AccDes= 0.00D+00.
 FoFJK:  IHMeth= 1 ICntrl=    3107 DoSepK=F KAlg= 0 I1Cent=           0 FoldK=F
 IRaf=         0 NMat=       1 IRICut=       1 DoRegI=T DoRafI=F ISym2E= 1 IDoP0=0 IntGTp=1.
 FoFCou: FMM=F IPFlag=           0 FMFlag=      100000 FMFlg1=           0
         NFxFlg=           0 DoJE=F BraDBF=F KetDBF=F FulRan=T
         wScrn=  0.000000 ICntrl=      3107 IOpCl=  0 I1Cent=           0 NGrid=           0
         NMat0=    1 NMatS0=      1 NMatT0=    0 NMatD0=    1 NMtDS0=    0 NMtDT0=    0
 Petite list used in FoFCou.
 End of G2Drv F.D. properties file   721 does not exist.
 End of G2Drv F.D. properties file   722 does not exist.
 End of G2Drv F.D. properties file   788 does not exist.
 Leave Link 1110 at Sun Mar  6 19:27:32 2022, MaxMem= 16106127360 cpu:              86.8 elap:               3.1
 (Enter /sw/contrib/gaussian/g16/B01/g16/l1002.exe)
 Minotr:  Closed shell wavefunction.
          IDoAtm=11111
          Frozen-core window.
          Direct CPHF calculation.
          Differentiating once with respect to electric field.
                with respect to dipole field.
          Differentiating once with respect to nuclear coordinates.
          Requested convergence is 1.0D-08 RMS, and 1.0D-07 maximum.
          Secondary convergence is 1.0D-12 RMS, and 1.0D-12 maximum.
          NewPWx=T KeepS1=T KeepF1=T KeepIn=T MapXYZ=F SortEE=F KeepMc=T.
 Keep R1 ints in memory in symmetry-blocked form, NReq=348888983.
 FoFCou: FMM=F IPFlag=           0 FMFlag=           0 FMFlg1=           0
         NFxFlg=           0 DoJE=F BraDBF=F KetDBF=F FulRan=T
         wScrn=  0.000000 ICntrl=       600 IOpCl=  0 I1Cent=           0 NGrid=           0
         NMat0=    1 NMatS0=  21528 NMatT0=    0 NMatD0=    1 NMtDS0=    0 NMtDT0=    0
 Petite list used in FoFCou.
          MDV=   16106127360 using IRadAn=       1.
          Solving linear equations simultaneously, MaxMat=       0.
          There are    18 degrees of freedom in the 1st order CPHF.  IDoFFX=6 NUNeed=    18.
     15 vectors produced by pass  0 Test12= 1.70D-14 5.56D-09 XBig12= 7.90D+00 1.22D+00.
 AX will form    15 AO Fock derivatives at one time.
     15 vectors produced by pass  1 Test12= 1.70D-14 5.56D-09 XBig12= 1.35D+00 2.22D-01.
     15 vectors produced by pass  2 Test12= 1.70D-14 5.56D-09 XBig12= 6.89D-02 5.73D-02.
     15 vectors produced by pass  3 Test12= 1.70D-14 5.56D-09 XBig12= 1.96D-03 1.05D-02.
     15 vectors produced by pass  4 Test12= 1.70D-14 5.56D-09 XBig12= 4.24D-05 1.25D-03.
     15 vectors produced by pass  5 Test12= 1.70D-14 5.56D-09 XBig12= 5.78D-07 1.13D-04.
     15 vectors produced by pass  6 Test12= 1.70D-14 5.56D-09 XBig12= 4.41D-09 1.13D-05.
     14 vectors produced by pass  7 Test12= 1.70D-14 5.56D-09 XBig12= 3.41D-11 7.32D-07.
      3 vectors produced by pass  8 Test12= 1.70D-14 5.56D-09 XBig12= 2.44D-13 6.05D-08.
      1 vectors produced by pass  9 Test12= 1.70D-14 5.56D-09 XBig12= 1.65D-15 7.15D-09.
 InvSVY:  IOpt=1 It=  1 EMax= 1.22D-15
 Solved reduced A of dimension   123 with    15 vectors.
 FullF1:  Do perturbations      1 to      18.
 Saving first derivative matrices.
 End of Minotr F.D. properties file   721 does not exist.
 End of Minotr F.D. properties file   722 does not exist.
 End of Minotr F.D. properties file   788 does not exist.
 Leave Link 1002 at Sun Mar  6 19:27:35 2022, MaxMem= 16106127360 cpu:              76.9 elap:               2.9
 (Enter /sw/contrib/gaussian/g16/B01/g16/l811.exe)
 MDV= 16106127360.
 Form MO integral derivatives with frozen-active canonical formalism.
 MOERI=1 MOERIx=1 NAtoms=     5 NAtomX=     5.
 Discarding MO integrals.
 MO basis two electron integral derivatives will not be stored on disk.
 IAlg= 3 DoFC=T DoPWx=T Debug=F.
 Frozen-core window:  NFC=   4 NFV=   0.
 Reordered first order wavefunction length =     18678272
 In DefCFB: NBatch=  1 ICI= 16 ICA=191 LFMax= 96
            Large arrays: LIAPS=   619940160 LIARS=   288257200 words.
 In StABat: MaxSiz= 55 MinSiz= 25 NAtomB=  5
 DoIAMN: NPSUse= 28.
 Leave Link  811 at Sun Mar  6 19:28:55 2022, MaxMem= 16106127360 cpu:            2235.0 elap:              79.9
 (Enter /sw/contrib/gaussian/g16/B01/g16/l804.exe)
 Frozen-core window:  NFC=   4 NFV=   0.
 Closed-shell transformation, MDV= 16106127360 ITran=4 ISComp=1.
 Semi-Direct transformation.
 ModeAB=           2 MOrb=            16 LenV=   16104919911
 LASXX=     67341636 LTotXX=    67341636 LenRXX=    67341636
 LTotAB=    68301760 MaxLAS=    99807120 LenRXY=    99807120
 NonZer=   134683272 LenScr=   202817536 LnRSAI=           0
 LnScr1=           0 LExtra=           0 Total=    369966292
 MaxDsk=          -1 SrtSym=           F ITran=            4
 DoSDTr:  NPSUse= 28
 JobTyp=0 Pass  1:  I=   1 to  16.
 (rs|ai) integrals will be sorted in core.
 Complete sort for first half transformation.
 First half transformation complete.
 Begin second half transformation for I=  10.
 Begin second half transformation for I=  10.
 Complete sort for second half transformation.
 Second half transformation complete.
 Spin components of T(2) and E(2):
     alpha-alpha T2 =       0.3483292389D-01 E2=     -0.1246433308D+00
     alpha-beta  T2 =       0.1845592566D+00 E2=     -0.6999024271D+00
     beta-beta   T2 =       0.3483292389D-01 E2=     -0.1246433308D+00
 ANorm=    0.1583808766D+01
 E2 =    -0.9491890887D+00 EUMP2 =    -0.28045512560831D+03
 Leave Link  804 at Sun Mar  6 19:29:11 2022, MaxMem= 16106127360 cpu:             441.0 elap:              15.8
 (Enter /sw/contrib/gaussian/g16/B01/g16/l1002.exe)
 Minotr:  Closed shell wavefunction.
          Computing MP2/KS-MP2 derivatives.
          Using Z-Vector for PSCF gradient.
          Skipping F1 and S1 gradient terms here.
          IDoAtm=11111
          Frozen-core window.
          Using MO integrals in the linear equations.
          Forming densities via direct SCF.
          Differentiating once with respect to electric field.
                with respect to dipole field.
          Differentiating once with respect to nuclear coordinates.
          Using symmetry in CPHF.
          Requested convergence is 1.0D-10 RMS, and 1.0D-09 maximum.
          NewPWx=F KeepS1=T KeepF1=T KeepIn=T MapXYZ=F SortEE=F KeepMc=T.
          MDV=   16106127360 using IRadAn=       5.
          Solving linear equations separately, MaxMat=       0.
          There are     1 degrees of freedom in the 1st order CPHF.  IDoFFX=0 NUNeed=     1.
 FoFJK:  IHMeth= 1 ICntrl=       0 DoSepK=F KAlg= 0 I1Cent=           0 FoldK=F
 IRaf=         0 NMat=       1 IRICut=       1 DoRegI=T DoRafI=F ISym2E= 0 IDoP0=0 IntGTp=1.
 FoFCou: FMM=F IPFlag=           0 FMFlag=      100000 FMFlg1=           0
         NFxFlg=           0 DoJE=F BraDBF=F KetDBF=F FulRan=T
         wScrn=  0.000000 ICntrl=         0 IOpCl=  0 I1Cent=           0 NGrid=           0
         NMat0=    1 NMatS0=      1 NMatT0=    0 NMatD0=    1 NMtDS0=    0 NMtDT0=    0
 Symmetry not used in FoFCou.
 LinEq1:  Iter=  0 NonCon=     1 RMS=6.62D-03 Max=1.72D-01 NDo=     1
 LinEq1:  Iter=  1 NonCon=     1 RMS=2.01D-03 Max=3.06D-02 NDo=     1
 LinEq1:  Iter=  2 NonCon=     1 RMS=8.91D-04 Max=1.45D-02 NDo=     1
 LinEq1:  Iter=  3 NonCon=     1 RMS=3.79D-04 Max=8.03D-03 NDo=     1
 LinEq1:  Iter=  4 NonCon=     1 RMS=1.37D-04 Max=1.66D-03 NDo=     1
 LinEq1:  Iter=  5 NonCon=     1 RMS=7.63D-05 Max=1.41D-03 NDo=     1
 LinEq1:  Iter=  6 NonCon=     1 RMS=2.44D-05 Max=2.91D-04 NDo=     1
 LinEq1:  Iter=  7 NonCon=     1 RMS=8.26D-06 Max=1.13D-04 NDo=     1
 LinEq1:  Iter=  8 NonCon=     1 RMS=4.03D-06 Max=6.26D-05 NDo=     1
 LinEq1:  Iter=  9 NonCon=     1 RMS=1.05D-06 Max=1.22D-05 NDo=     1
 LinEq1:  Iter= 10 NonCon=     1 RMS=2.32D-07 Max=3.00D-06 NDo=     1
 LinEq1:  Iter= 11 NonCon=     1 RMS=4.96D-08 Max=8.35D-07 NDo=     1
 LinEq1:  Iter= 12 NonCon=     1 RMS=1.17D-08 Max=1.82D-07 NDo=     1
 LinEq1:  Iter= 13 NonCon=     1 RMS=2.07D-09 Max=2.42D-08 NDo=     1
 LinEq1:  Iter= 14 NonCon=     1 RMS=4.31D-10 Max=5.67D-09 NDo=     1
 LinEq1:  Iter= 15 NonCon=     0 RMS=8.81D-11 Max=9.41D-10 NDo=     1
 Linear equations converged to 1.000D-10 1.000D-09 after    15 iterations.
 End of Minotr F.D. properties file   721 does not exist.
 End of Minotr F.D. properties file   722 does not exist.
 End of Minotr F.D. properties file   788 does not exist.
 Leave Link 1002 at Sun Mar  6 19:29:13 2022, MaxMem= 16106127360 cpu:              66.1 elap:               2.4
 (Enter /sw/contrib/gaussian/g16/B01/g16/l1102.exe)
 Use density number 2.
 Symmetrizing basis deriv contribution to polar:
 IMax=3 JMax=2 DiffMx= 0.00D+00
 Leave Link 1102 at Sun Mar  6 19:29:13 2022, MaxMem= 16106127360 cpu:               0.6 elap:               0.0
 (Enter /sw/contrib/gaussian/g16/B01/g16/l1110.exe)
 Forming Gx(P) for generalized density number  2 NAtomX=     5.
 Integral derivatives from FoFJK, PRISM(SPDF).
 Do as many integral derivatives as possible in FoFJK.
 G2DrvN: MDV=   16106126844.
 G2DrvN: will do     6 centers at a time, making    1 passes.
 Calling FoFCou, ICntrl=  3107 FMM=F I1Cent=   0 AccDes= 0.00D+00.
 FoFJK:  IHMeth= 1 ICntrl=    3107 DoSepK=F KAlg= 0 I1Cent=           0 FoldK=F
 IRaf=         0 NMat=       1 IRICut=       1 DoRegI=T DoRafI=F ISym2E= 1 IDoP0=0 IntGTp=1.
 FoFCou: FMM=F IPFlag=           0 FMFlag=      100000 FMFlg1=           0
         NFxFlg=           0 DoJE=F BraDBF=F KetDBF=F FulRan=T
         wScrn=  0.000000 ICntrl=      3107 IOpCl=  0 I1Cent=           0 NGrid=           0
         NMat0=    1 NMatS0=      1 NMatT0=    0 NMatD0=    1 NMtDS0=    0 NMtDT0=    0
 Petite list used in FoFCou.
 End of G2Drv F.D. properties file   721 does not exist.
 End of G2Drv F.D. properties file   722 does not exist.
 End of G2Drv F.D. properties file   788 does not exist.
 Leave Link 1110 at Sun Mar  6 19:29:17 2022, MaxMem= 16106127360 cpu:              87.6 elap:               3.2
 (Enter /sw/contrib/gaussian/g16/B01/g16/l1112.exe)
 MP22nd: MDV=   16106127360
 This link is doing NAtomX=     5 total of    18 degrees of freedom.
 Using ON3 I/O method in MakUI.
 Frozen-core window:  NFC=   4 NFV=   0.
 Using Ix for Sx.
 Use MO integrals over full window.
 Using OV2 memory method for fx*t*t/D, MaxI=    16 DoOO2=F NP=  28.
 R2 and R3 integrals will be kept in memory, NReq=   915591705.
 FoFCou: FMM=F IPFlag=           0 FMFlag=           0 FMFlg1=           0
         NFxFlg=           0 DoJE=F BraDBF=F KetDBF=F FulRan=T
         wScrn=  0.000000 ICntrl=       600 IOpCl=  0 I1Cent=           0 NGrid=           0
         NMat0=    1 NMatS0=      1 NMatT0=    0 NMatD0=    1 NMtDS0=    0 NMtDT0=    0
 Symmetry not used in FoFCou.
 DD1Dir will call FoFMem   1 times, MxPair=       272
 NAB=   136 NAA=     0 NBB=     0.
 Symmetry is being used.
 FoFJK:  IHMeth= 1 ICntrl=       0 DoSepK=F KAlg= 0 I1Cent=           0 FoldK=F
 IRaf=         0 NMat=      18 IRICut=      45 DoRegI=T DoRafI=T ISym2E= 2 IDoP0=3 IntGTp=3.
 Discarding MO integrals.
 Leave Link 1112 at Sun Mar  6 19:29:53 2022, MaxMem= 16106127360 cpu:            1001.0 elap:              36.2
 (Enter /sw/contrib/gaussian/g16/B01/g16/l601.exe)
 Copying SCF densities to generalized density rwf, IOpCl= 0 IROHF=0.

 **********************************************************************

            Population analysis using the MP2 Density.

 **********************************************************************

 Orbital symmetries:
       Occupied  (A') (A') (A') (A') (A') (A') (A') (A') (A') (A')
                 (A") (A') (A") (A') (A') (A")
       Virtual   (A') (A") (A') (A') (A") (A') (A') (A') (A") (A')
                 (A") (A') (A') (A') (A") (A') (A') (A") (A') (A')
                 (A') (A') (A') (A') (A") (A') (A') (A") (A') (A')
                 (A') (A") (A") (A') (A') (A') (A") (A') (A") (A')
                 (A") (A") (A') (A') (A") (A') (A') (A") (A') (A')
                 (A') (A") (A') (A') (A") (A') (A") (A') (A') (A")
                 (A') (A') (A") (A') (A') (A") (A') (A") (A') (A')
                 (A") (A') (A") (A") (A') (A') (A") (A') (A') (A')
                 (A") (A') (A') (A") (A') (A") (A") (A') (A') (A')
                 (A') (A') (A") (A") (A') (A') (A") (A") (A') (A")
                 (A') (A') (A") (A') (A") (A') (A') (A') (A") (A")
                 (A') (A') (A') (A') (A") (A') (A') (A') (A") (A')
                 (A") (A') (A") (A') (A") (A") (A') (A") (A') (A')
                 (A') (A') (A") (A') (A') (A") (A") (A') (A') (A')
                 (A") (A") (A') (A') (A') (A") (A') (A') (A') (A")
                 (A') (A') (A') (A") (A') (A") (A") (A') (A') (A")
                 (A') (A") (A') (A") (A") (A') (A") (A') (A") (A")
                 (A') (A") (A") (A') (A') (A") (A') (A') (A") (A')
                 (A') (A') (A') (A') (A') (A') (A') (A') (A') (A')
                 (A')
 The electronic state is 1-A'.
 Alpha  occ. eigenvalues --  -20.71962 -20.68832 -20.66864 -15.82689  -1.64570
 Alpha  occ. eigenvalues --   -1.50615  -1.29389  -0.96033  -0.83624  -0.75961
 Alpha  occ. eigenvalues --   -0.74064  -0.63803  -0.61912  -0.61883  -0.50583
 Alpha  occ. eigenvalues --   -0.49769
 Alpha virt. eigenvalues --    0.03539   0.05951   0.09502   0.10030   0.11938
 Alpha virt. eigenvalues --    0.12261   0.14931   0.15293   0.17737   0.17978
 Alpha virt. eigenvalues --    0.18963   0.21082   0.21696   0.24228   0.24631
 Alpha virt. eigenvalues --    0.26856   0.31355   0.31786   0.33771   0.34399
 Alpha virt. eigenvalues --    0.34811   0.39279   0.44999   0.49140   0.50564
 Alpha virt. eigenvalues --    0.51809   0.54296   0.56052   0.59726   0.62070
 Alpha virt. eigenvalues --    0.63861   0.69116   0.71614   0.72390   0.74206
 Alpha virt. eigenvalues --    0.76484   0.76704   0.79558   0.80637   0.83771
 Alpha virt. eigenvalues --    0.84321   0.85296   0.88498   0.90828   0.92914
 Alpha virt. eigenvalues --    0.94919   0.95318   1.01948   1.03554   1.06745
 Alpha virt. eigenvalues --    1.06892   1.09691   1.14605   1.15615   1.16968
 Alpha virt. eigenvalues --    1.22160   1.22817   1.24862   1.35007   1.35995
 Alpha virt. eigenvalues --    1.37011   1.46838   1.48438   1.50254   1.54610
 Alpha virt. eigenvalues --    1.59726   1.59781   1.60351   1.62947   1.69434
 Alpha virt. eigenvalues --    1.74794   1.80050   1.82894   1.88768   1.90852
 Alpha virt. eigenvalues --    1.93339   1.97894   1.98840   2.05287   2.12536
 Alpha virt. eigenvalues --    2.13378   2.16911   2.19095   2.24244   2.26057
 Alpha virt. eigenvalues --    2.29741   2.35608   2.36787   2.38953   2.40383
 Alpha virt. eigenvalues --    2.43586   2.46956   2.48042   2.53106   2.54133
 Alpha virt. eigenvalues --    2.54797   2.56071   2.61683   2.63198   2.67220
 Alpha virt. eigenvalues --    2.67523   2.75248   2.80361   2.81278   2.85082
 Alpha virt. eigenvalues --    2.91737   2.98622   3.04787   3.05042   3.11750
 Alpha virt. eigenvalues --    3.12387   3.17902   3.22272   3.31265   3.33164
 Alpha virt. eigenvalues --    3.35773   3.48320   3.67744   3.87090   3.94280
 Alpha virt. eigenvalues --    4.18894   4.22169   4.22658   4.26877   4.36812
 Alpha virt. eigenvalues --    4.49770   4.53169   4.55501   4.61103   4.69033
 Alpha virt. eigenvalues --    4.81245   4.89791   4.91520   4.93746   4.99853
 Alpha virt. eigenvalues --    5.00486   5.10821   5.13335   5.17690   5.25363
 Alpha virt. eigenvalues --    5.25460   5.31821   5.34499   5.37659   5.54596
 Alpha virt. eigenvalues --    5.64441   5.70977   5.89584   5.99598   6.26502
 Alpha virt. eigenvalues --    6.29971   6.35547   6.37418   6.60227   6.65421
 Alpha virt. eigenvalues --    6.66390   6.69207   6.72463   6.79439   6.80780
 Alpha virt. eigenvalues --    6.85012   6.96888   7.03513   7.06638   7.07517
 Alpha virt. eigenvalues --    7.12814   7.17514   7.18012   7.20672   7.24711
 Alpha virt. eigenvalues --    7.25040   7.27306   7.35126   7.40178   7.43612
 Alpha virt. eigenvalues --    7.44138   7.46489   7.55942   7.66315   7.67683
 Alpha virt. eigenvalues --    7.79697   7.88980   7.95250   8.08081   8.32062
 Alpha virt. eigenvalues --    8.49574   8.65207  13.62351  14.78524  15.11988
 Alpha virt. eigenvalues --   15.80678
          Condensed to atoms (all electrons):
               1          2          3          4          5
     1  H    0.583716   0.121924   0.021994   0.001408  -0.001974
     2  O    0.121924   8.392512  -0.228902  -0.001112  -0.009467
     3  O    0.021994  -0.228902   8.371336  -0.170029  -0.033016
     4  N    0.001408  -0.001112  -0.170029   7.138268  -0.124935
     5  O   -0.001974  -0.009467  -0.033016  -0.124935   8.362384
 Mulliken charges:
               1
     1  H    0.272933
     2  O   -0.274955
     3  O    0.038616
     4  N    0.156399
     5  O   -0.192993
 Sum of Mulliken charges =  -0.00000
 Mulliken charges with hydrogens summed into heavy atoms:
               1
     2  O   -0.002022
     3  O    0.038616
     4  N    0.156399
     5  O   -0.192993
 APT charges:
               1
     1  H    0.272901
     2  O   -0.304003
     3  O   -0.307982
     4  N    0.643245
     5  O   -0.304161
 Sum of APT charges =  -0.00000
 APT charges with hydrogens summed into heavy atoms:
               1
     2  O   -0.031102
     3  O   -0.307982
     4  N    0.643245
     5  O   -0.304161
 Electronic spatial extent (au):  <R**2>=            206.9996
 Charge=             -0.0000 electrons
 Dipole moment (field-independent basis, Debye):
    X=              0.0096    Y=             -1.0790    Z=              0.0000  Tot=              1.0790
 Quadrupole moment (field-independent basis, Debye-Ang):
   XX=            -23.4439   YY=            -22.9489   ZZ=            -21.9267
   XY=             -1.8972   XZ=              0.0000   YZ=              0.0000
 Traceless Quadrupole moment (field-independent basis, Debye-Ang):
   XX=             -0.6707   YY=             -0.1758   ZZ=              0.8465
   XY=             -1.8972   XZ=              0.0000   YZ=              0.0000
 Octapole moment (field-independent basis, Debye-Ang**2):
  XXX=              2.4081  YYY=              0.2878  ZZZ=              0.0000  XYY=              2.3154
  XXY=             -2.6995  XXZ=              0.0000  XZZ=             -0.5858  YZZ=             -0.7051
  YYZ=              0.0000  XYZ=              0.0000
 Hexadecapole moment (field-independent basis, Debye-Ang**3):
 XXXX=           -126.8298 YYYY=            -94.8065 ZZZZ=            -18.0269 XXXY=            -21.4092
 XXXZ=              0.0000 YYYX=            -19.7823 YYYZ=              0.0000 ZZZX=              0.0000
 ZZZY=              0.0000 XXYY=            -35.6215 XXZZ=            -24.2808 YYZZ=            -18.5765
 XXYZ=              0.0000 YYXZ=              0.0000 ZZXY=             -5.9331
 N-N= 1.228350659751D+02 E-N=-9.072112839604D+02  KE= 2.802092689661D+02
 Symmetry A'   KE= 2.663596930705D+02
 Symmetry A"   KE= 1.384957589559D+01
  Exact polarizability:  30.901   4.214  29.824   0.000   0.000  17.590
 Approx polarizability:  24.612   0.599  27.618  -0.000  -0.000  15.497
 No NMR shielding tensors so no spin-rotation constants.
 Leave Link  601 at Sun Mar  6 19:29:53 2022, MaxMem= 16106127360 cpu:               4.5 elap:               0.2
 (Enter /sw/contrib/gaussian/g16/B01/g16/l701.exe)
 ... and contract with generalized density number  2.
 Compute integral second derivatives.
 Leave Link  701 at Sun Mar  6 19:29:53 2022, MaxMem= 16106127360 cpu:               5.5 elap:               0.2
 (Enter /sw/contrib/gaussian/g16/B01/g16/l702.exe)
 L702 exits ... SP integral derivatives will be done elsewhere.
 Leave Link  702 at Sun Mar  6 19:29:53 2022, MaxMem= 16106127360 cpu:               0.5 elap:               0.0
 (Enter /sw/contrib/gaussian/g16/B01/g16/l703.exe)
 Integral derivatives from FoFJK, PRISM(SPDF).
 Compute integral second derivatives, UseDBF=F ICtDFT=           0.
 Calling FoFJK, ICntrl=  10100127 FMM=F ISym2X=1 I1Cent= 0 IOpClX= 0 NMat=1 NMatS=1 NMatT=0.
 FoFJK:  IHMeth= 1 ICntrl=10100127 DoSepK=F KAlg= 0 I1Cent=           0 FoldK=F
 IRaf=         0 NMat=       1 IRICut=       1 DoRegI=T DoRafI=F ISym2E= 1 IDoP0=0 IntGTp=1.
 FoFCou: FMM=F IPFlag=           0 FMFlag=      100000 FMFlg1=         800
         NFxFlg=           0 DoJE=F BraDBF=F KetDBF=F FulRan=T
         wScrn=  0.000000 ICntrl=  10100127 IOpCl=  0 I1Cent=           0 NGrid=           0
         NMat0=    1 NMatS0=      1 NMatT0=    0 NMatD0=    1 NMtDS0=    0 NMtDT0=    0
 Petite list used in FoFCou.
 Leave Link  703 at Sun Mar  6 19:30:09 2022, MaxMem= 16106127360 cpu:             448.8 elap:              16.1
 (Enter /sw/contrib/gaussian/g16/B01/g16/l716.exe)
 Dipole        = 3.77553173D-03-4.24500543D-01 0.00000000D+00
 Polarizability= 3.09006122D+01 4.21374290D+00 2.98242255D+01
                 0.00000000D+00 0.00000000D+00 1.75902328D+01
 Full mass-weighted force constant matrix:
 Low frequencies ---  -71.8155  -25.6816   -0.0013   -0.0011    0.0018   27.0195
 Low frequencies ---  372.4767  398.0002  521.7252
 Diagonal vibrational polarizability:
        7.1181178       9.9882304      14.3693492
 Harmonic frequencies (cm**-1), IR intensities (KM/Mole), Raman scattering
 activities (A**4/AMU), depolarization ratios for plane and unpolarized
 incident light, reduced masses (AMU), force constants (mDyne/A),
 and normal coordinates:
                      1                      2                      3
                     A"                     A'                     A"
 Frequencies --    371.6017               397.9933               521.5838
 Red. masses --      1.5519                 7.2133                 2.9088
 Frc consts  --      0.1263                 0.6732                 0.4662
 IR Inten    --     61.1245                 7.9167                24.8394
  Atom  AN      X      Y      Z        X      Y      Z        X      Y      Z
     1   1     0.00   0.00   0.98    -0.72  -0.25   0.00    -0.00   0.00   0.93
     2   8     0.00   0.00  -0.11    -0.33  -0.32  -0.00     0.00   0.00   0.06
     3   8     0.00  -0.00   0.11    -0.07   0.08   0.00    -0.00  -0.00  -0.18
     4   7    -0.00  -0.00  -0.11     0.06   0.10  -0.00     0.00   0.00   0.27
     5   8    -0.00  -0.00   0.03     0.39   0.17   0.00    -0.00   0.00  -0.17
                      4                      5                      6
                     A'                     A'                     A'
 Frequencies --    712.9383               840.2141               973.6630
 Red. masses --     13.4182                13.1080                 9.7961
 Frc consts  --      4.0184                 5.4522                 5.4717
 IR Inten    --    215.6848                31.6796                12.6905
  Atom  AN      X      Y      Z        X      Y      Z        X      Y      Z
     1   1    -0.35   0.01   0.00     0.38  -0.14  -0.00    -0.63   0.01  -0.00
     2   8    -0.01  -0.08   0.00     0.55  -0.21  -0.00     0.19  -0.17  -0.00
     3   8     0.37   0.58  -0.00    -0.40  -0.02   0.00    -0.36   0.41   0.00
     4   7    -0.41  -0.46   0.00    -0.44  -0.06  -0.00     0.38   0.04  -0.00
     5   8     0.02  -0.10  -0.00     0.21   0.29   0.00    -0.13  -0.28   0.00
                      7                      8                      9
                     A'                     A'                     A'
 Frequencies --   1452.6500              1576.1549              3477.1004
 Red. masses --      1.3643                 5.0511                 1.0636
 Frc consts  --      1.6963                 7.3932                 7.5762
 IR Inten    --     81.8186               150.4206                45.3950
  Atom  AN      X      Y      Z        X      Y      Z        X      Y      Z
     1   1     0.96  -0.22  -0.00     0.82  -0.20  -0.00     0.17   0.98   0.00
     2   8    -0.06  -0.05  -0.00    -0.02  -0.03   0.00    -0.01  -0.06  -0.00
     3   8    -0.03   0.06   0.00     0.03   0.06  -0.00     0.00  -0.00   0.00
     4   7     0.07  -0.07  -0.00    -0.21   0.35  -0.00    -0.00   0.00   0.00
     5   8    -0.03   0.06   0.00     0.13  -0.32   0.00     0.00  -0.00  -0.00

 -------------------
 - Thermochemistry -
 -------------------
 Temperature   298.150 Kelvin.  Pressure   1.00000 Atm.
 Atom     1 has atomic number  1 and mass   1.00783
 Atom     2 has atomic number  8 and mass  15.99491
 Atom     3 has atomic number  8 and mass  15.99491
 Atom     4 has atomic number  7 and mass  14.00307
 Atom     5 has atomic number  8 and mass  15.99491
 Molecular mass:    62.99564 amu.
 Principal axes and moments of inertia in atomic units:
                           1         2         3
     Eigenvalues --    84.33811 222.53726 306.87537
           X            0.79518  -0.60637   0.00000
           Y            0.60637   0.79518   0.00000
           Z            0.00000   0.00000   1.00000
 This molecule is an asymmetric top.
 Rotational symmetry number  1.
 Rotational temperatures (Kelvin)      1.02698     0.38921     0.28224
 Rotational constants (GHZ):          21.39888     8.10984     5.88102
 Zero-point vibrational energy      61750.6 (Joules/Mol)
                                   14.75876 (Kcal/Mol)
 Warning -- explicit consideration of   3 degrees of freedom as
           vibrations may cause significant error
 Vibrational temperatures:    534.65   572.62   750.44  1025.76  1208.88
          (Kelvin)           1400.88  2090.04  2267.74  5002.77
 
 Zero-point correction=                           0.023520 (Hartree/Particle)
 Thermal correction to Energy=                    0.027436
 Thermal correction to Enthalpy=                  0.028380
 Thermal correction to Gibbs Free Energy=        -0.002435
 Sum of electronic and zero-point Energies=           -280.431606
 Sum of electronic and thermal Energies=              -280.427690
 Sum of electronic and thermal Enthalpies=            -280.426746
 Sum of electronic and thermal Free Energies=         -280.457560
 
                     E (Thermal)             CV                S
                      KCal/Mol        Cal/Mol-Kelvin    Cal/Mol-Kelvin
 Total                   17.216             12.113             64.855
 Electronic               0.000              0.000              0.000
 Translational            0.889              2.981             38.341
 Rotational               0.889              2.981             23.270
 Vibrational             15.439              6.151              3.245
 Vibration     1          0.743              1.530              1.073
 Vibration     2          0.764              1.474              0.970
 Vibration     3          0.877              1.202              0.606
                       Q            Log10(Q)             Ln(Q)
 Total Bot       0.131810D+02          1.119948          2.578775
 Total V=0       0.867343D+12         11.938191         27.488701
 Vib (Bot)       0.246881D-10        -10.607512        -24.424698
 Vib (Bot)    1  0.489393D+00         -0.310342         -0.714588
 Vib (Bot)    2  0.448494D+00         -0.348244         -0.801861
 Vib (Bot)    3  0.309019D+00         -0.510016         -1.174354
 Vib (V=0)       0.162454D+01          0.210732          0.485227
 Vib (V=0)    1  0.119965D+01          0.079053          0.182027
 Vib (V=0)    2  0.117167D+01          0.068807          0.158434
 Vib (V=0)    3  0.108779D+01          0.036543          0.084144
 Electronic      0.100000D+01          0.000000          0.000000
 Translational   0.196526D+08          7.293420         16.793719
 Rotational      0.271669D+05          4.434040         10.209754
 
                                                                title
                                                             IR Spectrum
 
     3                                                                     1   1                                                     
     4                                                                     5   4                 9    8   7      5    33             
     7                                                                     7   5                 7    4   1      2    97             
     7                                                                     6   3                 4    0   3      2    82             
 
     X                                                                     X   X                 X    X   X      X    XX             
     X                                                                     X   X                      X   X      X     X             
     X                                                                     X   X                      X   X            X             
     X                                                                     X   X                          X            X             
                                                                           X   X                          X            X             
                                                                           X   X                          X            X             
                                                                           X   X                          X                          
                                                                           X   X                          X                          
                                                                           X                              X                          
                                                                           X                              X                          
                                                                           X                              X                          
                                                                           X                              X                          
                                                                           X                              X                          
                                                                           X                              X                          
                                                                                                          X                          
                                                                                                          X                          
                                                                                                          X                          
                                                                                                          X                          
                                                                                                          X                          
                                                                                                          X                          
 
 ***** Axes restored to original set *****
 -------------------------------------------------------------------
 Center     Atomic                   Forces (Hartrees/Bohr)
 Number     Number              X              Y              Z
 -------------------------------------------------------------------
      1        1          -0.004143382   -0.000000000   -0.001416024
      2        8           0.002650347   -0.000000000   -0.001682306
      3        8           0.001701216   -0.000000000    0.002085482
      4        7           0.000624601   -0.000000000    0.001580238
      5        8          -0.000832782   -0.000000000   -0.000567390
 -------------------------------------------------------------------
 Cartesian Forces:  Max     0.004143382 RMS     0.001636527
 -----------------------------------------------------------------------------------------------
                       Internal Coordinate Forces (Hartree/Bohr or radian)
  Cent   Atom   N1       Length/X         N2         Alpha/Y        N3         Beta/Z          J
 -----------------------------------------------------------------------------------------------
      1  H 
      2  O        1   0.001416(     1)
      3  O        2   0.001955(     2)      1   0.007715(     5)
      4  N        3  -0.000969(     3)      2   0.000086(     6)      1   0.000000(     8)     0
      5  O        4   0.000934(     4)      3  -0.000856(     7)      2   0.000000(     9)     0
 -----------------------------------------------------------------------------------------------
 Internal  Forces:  Max     0.007715179 RMS     0.002746742
 Force constants in Cartesian coordinates: 
                1             2             3             4             5 
      1  0.755113D-01
      2  0.000000D+00  0.617866D-02
      3  0.274349D-01  0.000000D+00  0.433576D+00
      4 -0.493209D-01  0.000000D+00 -0.523198D-02  0.277893D+00
      5  0.000000D+00 -0.384790D-02  0.000000D+00  0.000000D+00  0.147992D-01
      6  0.303996D-01  0.000000D+00 -0.417811D+00 -0.138104D-01  0.000000D+00
      7 -0.291807D-01  0.000000D+00 -0.177359D-01 -0.173047D+00  0.000000D+00
      8  0.000000D+00 -0.272048D-02  0.000000D+00  0.000000D+00 -0.204499D-01
      9 -0.442892D-01  0.000000D+00 -0.218811D-01  0.115773D-01  0.000000D+00
     10 -0.812266D-02  0.000000D+00  0.764580D-02 -0.823623D-01  0.000000D+00
     11  0.000000D+00  0.823841D-02  0.000000D+00  0.000000D+00  0.201906D-01
     12 -0.196722D-01  0.000000D+00  0.140892D-01  0.123168D-01  0.000000D+00
     13  0.111129D-01  0.000000D+00 -0.121129D-01  0.268369D-01  0.000000D+00
     14  0.000000D+00 -0.784868D-02  0.000000D+00  0.000000D+00 -0.106919D-01
     15  0.612683D-02  0.000000D+00 -0.797307D-02 -0.485180D-02  0.000000D+00
                6             7             8             9            10 
      6  0.520012D+00
      7 -0.902470D-01  0.311172D+00
      8  0.000000D+00  0.000000D+00  0.414604D-01
      9 -0.924013D-01  0.844717D-01  0.000000D+00  0.313852D+00
     10  0.413980D-01 -0.143940D+00  0.000000D+00 -0.322139D-01  0.570593D+00
     11  0.000000D+00  0.000000D+00 -0.487595D-01  0.000000D+00  0.000000D+00
     12 -0.129896D-01  0.202087D-01  0.000000D+00 -0.254902D-01  0.240608D+00
     13  0.322598D-01  0.349960D-01  0.000000D+00 -0.195459D-01 -0.336168D+00
     14  0.000000D+00  0.000000D+00  0.304694D-01  0.000000D+00  0.000000D+00
     15  0.318962D-02  0.330253D-02  0.000000D+00 -0.174079D+00 -0.257438D+00
               11            12            13            14            15 
     11  0.578838D-01
     12  0.000000D+00  0.434897D+00
     13  0.000000D+00 -0.253462D+00  0.263222D+00
     14 -0.375532D-01  0.000000D+00  0.000000D+00  0.256244D-01
     15  0.000000D+00 -0.410506D+00  0.252860D+00  0.000000D+00  0.589369D+00
 Force constants in internal coordinates: 
                1             2             3             4             5 
      1  0.433576D+00
      2  0.243761D-01  0.263351D+00
      3  0.755441D-02  0.162788D-01  0.207172D+00
      4 -0.133463D-01  0.229190D-01  0.149419D+00  0.722552D+00
      5  0.469428D-01  0.648546D-01 -0.243337D-01  0.209578D-01  0.264464D+00
      6  0.142189D-01  0.245240D-01  0.912521D-01  0.110684D-01 -0.203344D-02
      7  0.128060D-01 -0.757053D-01  0.120766D+00  0.119068D+00 -0.246433D-01
      8  0.000000D+00  0.000000D+00  0.000000D+00  0.000000D+00  0.000000D+00
      9  0.000000D+00  0.000000D+00  0.000000D+00  0.000000D+00  0.000000D+00
                6             7             8             9 
      6  0.531829D+00
      7  0.630616D-01  0.665015D+00
      8  0.000000D+00  0.000000D+00  0.223037D-01
      9  0.000000D+00  0.000000D+00  0.297042D-01  0.110520D+00
 Leave Link  716 at Sun Mar  6 19:30:09 2022, MaxMem= 16106127360 cpu:               0.9 elap:               0.1
 (Enter /sw/contrib/gaussian/g16/B01/g16/l103.exe)

 GradGradGradGradGradGradGradGradGradGradGradGradGradGradGradGradGradGrad
 Berny optimization.
 Search for a local minimum.
 Step number   1 out of a maximum of    2
 All quantities printed in internal units (Hartrees-Bohrs-Radians)
 Second derivative matrix not updated -- analytic derivatives used.
 The second derivative matrix:
                          r1        r2        r3        r4        a1
           r1           0.43358
           r2           0.02438   0.26335
           r3           0.00755   0.01628   0.20717
           r4          -0.01335   0.02292   0.14942   0.72255
           a1           0.04694   0.06485  -0.02433   0.02096   0.26446
           a2           0.01422   0.02452   0.09125   0.01107  -0.00203
           a3           0.01281  -0.07571   0.12077   0.11907  -0.02464
           d1           0.00000   0.00000   0.00000   0.00000   0.00000
           d2           0.00000   0.00000   0.00000   0.00000   0.00000
                          a2        a3        d1        d2
           a2           0.53183
           a3           0.06306   0.66501
           d1           0.00000   0.00000   0.02230
           d2           0.00000   0.00000   0.02970   0.11052
 ITU=  0
     Eigenvalues ---    0.01323   0.11959   0.12498   0.20450   0.28613
     Eigenvalues ---    0.44866   0.52657   0.60965   0.88745
 Angle between quadratic step and forces=  18.32 degrees.
 Linear search not attempted -- first point.
 Variable       Old X    -DE/DX   Delta X   Delta X   Delta X     New X
                                 (Linear)    (Quad)   (Total)
    r1        1.86209   0.00142   0.00000   0.00018   0.00018   1.86227
    r2        2.69614   0.00195   0.00000   0.00032   0.00032   2.69646
    r3        2.60992  -0.00097   0.00000  -0.00225  -0.00225   2.60766
    r4        2.25782   0.00093   0.00000   0.00091   0.00091   2.25873
    a1        1.72625   0.00772   0.00000   0.02879   0.02879   1.75504
    a2        1.97463   0.00009   0.00000   0.00062   0.00062   1.97525
    a3        1.99550  -0.00086   0.00000   0.00000   0.00000   1.99550
    d1        0.00000   0.00000   0.00000   0.00000   0.00000   0.00000
    d2        0.00000   0.00000   0.00000   0.00000   0.00000   0.00000
         Item               Value     Threshold  Converged?
 Maximum Force            0.007715     0.000450     NO 
 RMS     Force            0.002747     0.000300     NO 
 Maximum Displacement     0.028789     0.001800     NO 
 RMS     Displacement     0.009633     0.001200     NO 
 Predicted change in Energy=-1.130344D-04
                       ----------------------------
                       ! Non-Optimized Parameters !
                       ! (Angstroms and Degrees)  !
 ----------------------                            ----------------------
 !      Name          Value   Derivative information (Atomic Units)     !
 ------------------------------------------------------------------------
 !       r1          0.9855   -DE/DX =    0.0014                        !
 !       r2          1.4269   -DE/DX =    0.002                         !
 !       r3          1.3799   -DE/DX =   -0.001                         !
 !       r4          1.1953   -DE/DX =    0.0009                        !
 !       a1        100.5561   -DE/DX =    0.0077                        !
 !       a2        113.1733   -DE/DX =    0.0001                        !
 !       a3        114.3339   -DE/DX =   -0.0009                        !
 !       d1          0.0      -DE/DX =    0.0                           !
 !       d2          0.0      -DE/DX =    0.0                           !
 ------------------------------------------------------------------------
 GradGradGradGradGradGradGradGradGradGradGradGradGradGradGradGradGradGrad

 Leave Link  103 at Sun Mar  6 19:30:09 2022, MaxMem= 16106127360 cpu:               1.3 elap:               0.1
 (Enter /sw/contrib/gaussian/g16/B01/g16/l9999.exe)

 ----------------------------------------------------------------------

 Electric dipole moment (input orientation):
 (Debye = 10**-18 statcoulomb cm , SI units = C m)
                  (au)            (Debye)         (10**-30 SI)
   Tot        0.424517D+00      0.107902D+01      0.359921D+01
   x         -0.104761D+00     -0.266275D+00     -0.888199D+00
   y          0.000000D+00      0.000000D+00      0.000000D+00
   z         -0.411388D+00     -0.104564D+01     -0.348789D+01

 Dipole polarizability, Alpha (input orientation).
 (esu units = cm**3 , SI units = C**2 m**2 J**-1)
 Alpha(0;0):
               (au)            (10**-24 esu)      (10**-40 SI)
   iso        0.261050D+02      0.386837D+01      0.430414D+01
   aniso      0.147399D+02      0.218423D+01      0.243028D+01
   xx         0.288903D+02      0.428110D+01      0.476337D+01
   yx         0.000000D+00      0.000000D+00      0.000000D+00
   yy         0.175902D+02      0.260660D+01      0.290024D+01
   zx        -0.398475D+01     -0.590479D+00     -0.656996D+00
   zy         0.000000D+00      0.000000D+00      0.000000D+00
   zz         0.318345D+02      0.471739D+01      0.524880D+01

 ----------------------------------------------------------------------

 Dipole orientation:
     1          0.00000000         -0.00000000         -0.00000000
     8         -0.45951998         -0.00000000         -1.80450213
     8          2.01871967         -0.00000000         -2.86634367
     7          3.90658609         -0.00000000         -1.06422891
     8          3.15904823          0.00000000          1.06625266

 Electric dipole moment (dipole orientation):
 (Debye = 10**-18 statcoulomb cm , SI units = C m)
                  (au)            (Debye)         (10**-30 SI)
   Tot        0.424517D+00      0.107902D+01      0.359921D+01
   x          0.000000D+00      0.000000D+00      0.000000D+00
   y          0.000000D+00      0.000000D+00      0.000000D+00
   z          0.424517D+00      0.107902D+01      0.359921D+01

 Dipole polarizability, Alpha (dipole orientation).
 (esu units = cm**3 , SI units = C**2 m**2 J**-1)
 Alpha(0;0):
               (au)            (10**-24 esu)      (10**-40 SI)
   iso        0.261050D+02      0.386837D+01      0.430414D+01
   aniso      0.147399D+02      0.218423D+01      0.243028D+01
   xx         0.309755D+02      0.459009D+01      0.510717D+01
   yx         0.000000D+00      0.000000D+00      0.000000D+00
   yy         0.175902D+02      0.260660D+01      0.290024D+01
   zx         0.420350D+01      0.622895D+00      0.693064D+00
   zy         0.000000D+00      0.000000D+00      0.000000D+00
   zz         0.297494D+02      0.440840D+01      0.490501D+01

 ----------------------------------------------------------------------
 1\1\GINC-N2218\Freq\RMP2-FC\Aug-CC-pVTZ\H1N1O3\CGAVINH\06-Mar-2022\1\\
 #p freq mp2/aug-cc-pvtz density=current\\title\\0,1\H\O,1,r1\O,2,r2,1,
 a1\N,3,r3,2,a2,1,d1,0\O,4,r4,3,a3,2,d2,0\\r1=0.98537664\r2=1.42673666\
 r3=1.38110764\r4=1.19478846\a1=98.90666361\a2=113.13777052\a3=114.3339
 2022\d1=0.\d2=0.\\Version=ES64L-G16RevB.01\State=1-A'\HF=-279.5059365\
 MP2=-280.4551256\RMSD=4.488e-09\RMSF=1.637e-03\ZeroPoint=0.0235196\The
 rmal=0.0274356\Dipole=-0.1047608,0.,-0.4113881\DipoleDeriv=0.3203299,0
 .,0.0310116,0.,0.2940181,0.,-0.0392368,0.,0.2043544,-0.5256431,0.,0.29
 78583,0.,-0.2504048,0.,-0.0821471,0.,-0.1359599,0.0307783,0.,0.3020668
 ,0.,-0.0116795,0.,0.4075435,0.,-0.9430446,0.1755978,0.,-0.0901213,0.,0
 .0125637,0.,-0.61457,0.,1.7415734,-0.0010628,0.,-0.5408153,0.,-0.04449
 75,0.,0.3284104,0.,-0.8669232\Polar=28.8903217,0.,17.5902328,-3.984747
 3,0.,31.8345161\Quadrupole=0.1746896,0.6293513,-0.8040409,0.,1.3356627
 ,0.\PG=CS [SG(H1N1O3)]\NImag=0\\0.07551128,0.,0.00617866,0.02743495,0.
 ,0.43357579,-0.04932087,0.,-0.00523198,0.27789346,0.,-0.00384790,0.,0.
 ,0.01479919,0.03039960,0.,-0.41781082,-0.01381037,0.,0.52001205,-0.029
 18066,0.,-0.01773588,-0.17304717,0.,-0.09024701,0.31117222,0.,-0.00272
 048,0.,0.,-0.02044990,0.,0.,0.04146045,-0.04428919,0.,-0.02188112,0.01
 157731,0.,-0.09240127,0.08447169,0.,0.31385178,-0.00812266,0.,0.007645
 80,-0.08236227,0.,0.04139800,-0.14394037,0.,-0.03221394,0.57059299,0.,
 0.00823841,0.,0.,0.02019056,0.,0.,-0.04875950,0.,0.,0.05788377,-0.0196
 7218,0.,0.01408922,0.01231684,0.,-0.01298957,0.02020867,0.,-0.02549017
 ,0.24060818,0.,0.43489670,0.01111292,0.,-0.01211290,0.02683686,0.,0.03
 225979,0.03499598,0.,-0.01954587,-0.33616768,0.,-0.25346151,0.26322192
 ,0.,-0.00784868,0.,0.,-0.01069194,0.,0.,0.03046943,0.,0.,-0.03755323,0
 .,0.,0.02562443,0.00612683,0.,-0.00797307,-0.00485180,0.,0.00318962,0.
 00330253,0.,-0.17407921,-0.25743804,0.,-0.41050617,0.25286049,0.,0.589
 36884\\0.00414338,0.,0.00141602,-0.00265035,0.,0.00168231,-0.00170122,
 0.,-0.00208548,-0.00062460,0.,-0.00158024,0.00083278,0.,0.00056739\\\@


 IT IS A QUALITY OF REVOLUTIONS NOT TO GO BY OLD LINES OR OLD LAWS,
 BUT TO BREAK UP BOTH, AND MAKE NEW ONES.
                                              -- A. LINCOLN (1848)
 Job cpu time:       0 days  2 hours  0 minutes 49.4 seconds.
 Elapsed time:       0 days  0 hours  4 minutes 22.3 seconds.
 File lengths (MBytes):  RWF=   7239 Int=      0 D2E=      0 Chk=      8 Scr=      1
 Normal termination of Gaussian 16 at Sun Mar  6 19:30:11 2022.
