 Entering Gaussian System, Link 0=g16
 Input=hoono_r3_1p365431.gjf
 Output=hoono_r3_1p365431.log
 Initial command:
 /sw/contrib/gaussian/g16/B01/g16/l1.exe "/scr/Gau-30903.inp" -scrdir="/scr/"
 Entering Link 1 = /sw/contrib/gaussian/g16/B01/g16/l1.exe PID=     30904.
  
 Copyright (c) 1988-2017, Gaussian, Inc.  All Rights Reserved.
  
 This is part of the Gaussian(R) 16 program.  It is based on
 the Gaussian(R) 09 system (copyright 2009, Gaussian, Inc.),
 the Gaussian(R) 03 system (copyright 2003, Gaussian, Inc.),
 the Gaussian(R) 98 system (copyright 1998, Gaussian, Inc.),
 the Gaussian(R) 94 system (copyright 1995, Gaussian, Inc.),
 the Gaussian 92(TM) system (copyright 1992, Gaussian, Inc.),
 the Gaussian 90(TM) system (copyright 1990, Gaussian, Inc.),
 the Gaussian 88(TM) system (copyright 1988, Gaussian, Inc.),
 the Gaussian 86(TM) system (copyright 1986, Carnegie Mellon
 University), and the Gaussian 82(TM) system (copyright 1983,
 Carnegie Mellon University). Gaussian is a federally registered
 trademark of Gaussian, Inc.
  
 This software contains proprietary and confidential information,
 including trade secrets, belonging to Gaussian, Inc.
  
 This software is provided under written license and may be
 used, copied, transmitted, or stored only in accord with that
 written license.
  
 The following legend is applicable only to US Government
 contracts under FAR:
  
                    RESTRICTED RIGHTS LEGEND
  
 Use, reproduction and disclosure by the US Government is
 subject to restrictions as set forth in subparagraphs (a)
 and (c) of the Commercial Computer Software - Restricted
 Rights clause in FAR 52.227-19.
  
 Gaussian, Inc.
 340 Quinnipiac St., Bldg. 40, Wallingford CT 06492
  
  
 ---------------------------------------------------------------
 Warning -- This program may not be used in any manner that
 competes with the business of Gaussian, Inc. or will provide
 assistance to any competitor of Gaussian, Inc.  The licensee
 of this program is prohibited from giving any competitor of
 Gaussian, Inc. access to this program.  By using this program,
 the user acknowledges that Gaussian, Inc. is engaged in the
 business of creating and licensing software in the field of
 computational chemistry and represents and warrants to the
 licensee that it is not a competitor of Gaussian, Inc. and that
 it will not use this program in any manner prohibited above.
 ---------------------------------------------------------------
  

 Cite this work as:
 Gaussian 16, Revision B.01,
 M. J. Frisch, G. W. Trucks, H. B. Schlegel, G. E. Scuseria, 
 M. A. Robb, J. R. Cheeseman, G. Scalmani, V. Barone, 
 G. A. Petersson, H. Nakatsuji, X. Li, M. Caricato, A. V. Marenich, 
 J. Bloino, B. G. Janesko, R. Gomperts, B. Mennucci, H. P. Hratchian, 
 J. V. Ortiz, A. F. Izmaylov, J. L. Sonnenberg, D. Williams-Young, 
 F. Ding, F. Lipparini, F. Egidi, J. Goings, B. Peng, A. Petrone, 
 T. Henderson, D. Ranasinghe, V. G. Zakrzewski, J. Gao, N. Rega, 
 G. Zheng, W. Liang, M. Hada, M. Ehara, K. Toyota, R. Fukuda, 
 J. Hasegawa, M. Ishida, T. Nakajima, Y. Honda, O. Kitao, H. Nakai, 
 T. Vreven, K. Throssell, J. A. Montgomery, Jr., J. E. Peralta, 
 F. Ogliaro, M. J. Bearpark, J. J. Heyd, E. N. Brothers, K. N. Kudin, 
 V. N. Staroverov, T. A. Keith, R. Kobayashi, J. Normand, 
 K. Raghavachari, A. P. Rendell, J. C. Burant, S. S. Iyengar, 
 J. Tomasi, M. Cossi, J. M. Millam, M. Klene, C. Adamo, R. Cammi, 
 J. W. Ochterski, R. L. Martin, K. Morokuma, O. Farkas, 
 J. B. Foresman, and D. J. Fox, Gaussian, Inc., Wallingford CT, 2016.
 
 ******************************************
 Gaussian 16:  ES64L-G16RevB.01 20-Dec-2017
                 6-Mar-2022 
 ******************************************
 %nproc=28
 Will use up to   28 processors via shared memory.
 %mem=120GB
 %chk=hoono_r3_1p365431.chk
 ---------------------------------------
 #p freq mp2/aug-cc-pvtz density=current
 ---------------------------------------
 1/10=4,30=1,38=1/1,3;
 2/12=2,17=6,18=5,40=1/2;
 3/5=16,6=1,7=10,11=9,25=1,30=1,71=2,140=1/1,2,3;
 4//1;
 5/5=2,38=5,98=1/2;
 8/6=3,8=1,10=1,19=11,30=-1/1;
 9/15=3,16=-3/6;
 11/6=1,8=1,15=11,17=12,24=-1,27=1,28=-2,29=300,32=6,42=3/1,2,10;
 10/6=2,21=1/2;
 8/6=4,8=1,10=1,19=11,30=-1/11,4;
 10/5=1,20=4/2;
 11/12=2,14=11,16=1,17=2,28=-2,42=3,76=2/2,10,12;
 6/7=2,8=2,9=2,10=2,22=-1/1;
 7/8=1,10=1,12=2,25=1,44=2/1,2,3,16;
 1/10=4,30=1/3;
 99//99;
 Leave Link    1 at Sun Mar  6 19:08:04 2022, MaxMem= 16106127360 cpu:               2.4 elap:               0.1
 (Enter /sw/contrib/gaussian/g16/B01/g16/l101.exe)
 -----
 title
 -----
 Symbolic Z-matrix:
 Charge =  0 Multiplicity = 1
 H
 O                    1    r1
 O                    2    r2       1    a1
 N                    3    r3       2    a2       1    d1       0
 O                    4    r4       3    a3       2    d2       0
       Variables:
  r1                    0.98538                  
  r2                    1.42674                  
  r3                    1.36543                  
  r4                    1.19479                  
  a1                  100.63551                  
  a2                  113.13777                  
  a3                  114.33392                  
  d1                    0.                       
  d2                    0.                       
 
 ITRead=  0  0  0  0  0
 MicOpt= -1 -1 -1 -1 -1
 NAtoms=      5 NQM=        5 NQMF=       0 NMMI=      0 NMMIF=      0
                NMic=       0 NMicF=      0.
                    Isotopes and Nuclear Properties:
 (Nuclear quadrupole moments (NQMom) in fm**2, nuclear magnetic moments (NMagM)
  in nuclear magnetons)

  Atom         1           2           3           4           5
 IAtWgt=           1          16          16          14          16
 AtmWgt=   1.0078250  15.9949146  15.9949146  14.0030740  15.9949146
 NucSpn=           1           0           0           2           0
 AtZEff=  -0.0000000  -0.0000000  -0.0000000  -0.0000000  -0.0000000
 NQMom=    0.0000000   0.0000000   0.0000000   2.0440000   0.0000000
 NMagM=    2.7928460   0.0000000   0.0000000   0.4037610   0.0000000
 AtZNuc=   1.0000000   8.0000000   8.0000000   7.0000000   8.0000000
 Leave Link  101 at Sun Mar  6 19:08:04 2022, MaxMem= 16106127360 cpu:               2.3 elap:               0.1
 (Enter /sw/contrib/gaussian/g16/B01/g16/l103.exe)

 GradGradGradGradGradGradGradGradGradGradGradGradGradGradGradGradGradGrad
 Berny optimization.
 Initialization pass.
                       ----------------------------
                       !    Initial Parameters    !
                       ! (Angstroms and Degrees)  !
 ----------------------                            ----------------------
 !      Name          Value   Derivative information (Atomic Units)     !
 ------------------------------------------------------------------------
 !       r1          0.9854   calculate D2E/DX2 analytically            !
 !       r2          1.4267   calculate D2E/DX2 analytically            !
 !       r3          1.3654   calculate D2E/DX2 analytically            !
 !       r4          1.1948   calculate D2E/DX2 analytically            !
 !       a1        100.6355   calculate D2E/DX2 analytically            !
 !       a2        113.1378   calculate D2E/DX2 analytically            !
 !       a3        114.3339   calculate D2E/DX2 analytically            !
 !       d1          0.0      calculate D2E/DX2 analytically            !
 !       d2          0.0      calculate D2E/DX2 analytically            !
 ------------------------------------------------------------------------
 Trust Radius=3.00D-01 FncErr=1.00D-07 GrdErr=1.00D-07 EigMax=2.50D+02 EigMin=1.00D-04
 Number of steps in this run=      2 maximum allowed number of steps=      2.
 GradGradGradGradGradGradGradGradGradGradGradGradGradGradGradGradGradGrad

 Leave Link  103 at Sun Mar  6 19:08:05 2022, MaxMem= 16106127360 cpu:               1.2 elap:               0.1
 (Enter /sw/contrib/gaussian/g16/B01/g16/l202.exe)
                          Input orientation:                          
 ---------------------------------------------------------------------
 Center     Atomic      Atomic             Coordinates (Angstroms)
 Number     Number       Type             X           Y           Z
 ---------------------------------------------------------------------
      1          1           0        0.000000    0.000000    0.000000
      2          8           0        0.000000    0.000000    0.985377
      3          8           0        1.402227    0.000000    1.248696
      4          7           0        2.161281    0.000000    0.113690
      5          8           0        1.530036    0.000000   -0.900731
 ---------------------------------------------------------------------
                    Distance matrix (angstroms):
                    1          2          3          4          5
     1  H    0.000000
     2  O    0.985377   0.000000
     3  O    1.877627   1.426737   0.000000
     4  N    2.164269   2.330445   1.365431   0.000000
     5  O    1.775480   2.428665   2.153224   1.194788   0.000000
 Stoichiometry    HNO3
 Framework group  CS[SG(HNO3)]
 Deg. of freedom     7
 Full point group                 CS      NOp   2
 Largest Abelian subgroup         CS      NOp   2
 Largest concise Abelian subgroup C1      NOp   1
                         Standard orientation:                         
 ---------------------------------------------------------------------
 Center     Atomic      Atomic             Coordinates (Angstroms)
 Number     Number       Type             X           Y           Z
 ---------------------------------------------------------------------
      1          1           0        1.100410   -0.609486    0.000000
      2          8           0        1.312617    0.352769    0.000000
      3          8           0        0.000000    0.911888    0.000000
      4          7           0       -0.985674   -0.033019    0.000000
      5          8           0       -0.587703   -1.159579    0.000000
 ---------------------------------------------------------------------
 Rotational constants (GHZ):          21.3572368           8.2298611           5.9406669
 Leave Link  202 at Sun Mar  6 19:08:05 2022, MaxMem= 16106127360 cpu:               0.6 elap:               0.0
 (Enter /sw/contrib/gaussian/g16/B01/g16/l301.exe)
 Standard basis: Aug-CC-pVTZ (5D, 7F)
 Ernie: Thresh=  0.10000D-02 Tol=  0.10000D-05 Strict=F.
 Ernie:  12 primitive shells out of 131 were deleted.
 There are   166 symmetry adapted cartesian basis functions of A'  symmetry.
 There are    79 symmetry adapted cartesian basis functions of A"  symmetry.
 There are   136 symmetry adapted basis functions of A'  symmetry.
 There are    71 symmetry adapted basis functions of A"  symmetry.
   207 basis functions,   315 primitive gaussians,   245 cartesian basis functions
    16 alpha electrons       16 beta electrons
       nuclear repulsion energy       123.2795871087 Hartrees.
 IExCor=    0 DFT=F Ex=HF Corr=None ExCW=0 ScaHFX=  1.000000
 ScaDFX=  1.000000  1.000000  1.000000  1.000000 ScalE2=  1.000000  1.000000
 IRadAn=      5 IRanWt=     -1 IRanGd=            0 ICorTp=0 IEmpDi=  4
 NAtoms=    5 NActive=    5 NUniq=    5 SFac= 1.00D+00 NAtFMM=   60 NAOKFM=F Big=F
 Integral buffers will be    131072 words long.
 Raffenetti 1 integral format.
 Two-electron integral symmetry is turned on.
 Leave Link  301 at Sun Mar  6 19:08:05 2022, MaxMem= 16106127360 cpu:               2.9 elap:               0.2
 (Enter /sw/contrib/gaussian/g16/B01/g16/l302.exe)
 NPDir=0 NMtPBC=     1 NCelOv=     1 NCel=       1 NClECP=     1 NCelD=      1
         NCelK=      1 NCelE2=     1 NClLst=     1 CellRange=     0.0.
 One-electron integrals computed using PRISM.
 One-electron integral symmetry used in STVInt
 NBasis=   207 RedAO= T EigKep=  1.29D-04  NBF=   136    71
 NBsUse=   207 1.00D-06 EigRej= -1.00D+00 NBFU=   136    71
 Leave Link  302 at Sun Mar  6 19:08:05 2022, MaxMem= 16106127360 cpu:               4.0 elap:               0.2
 (Enter /sw/contrib/gaussian/g16/B01/g16/l303.exe)
 DipDrv:  MaxL=1.
 Leave Link  303 at Sun Mar  6 19:08:05 2022, MaxMem= 16106127360 cpu:               5.8 elap:               0.3
 (Enter /sw/contrib/gaussian/g16/B01/g16/l401.exe)
 ExpMin= 2.53D-02 ExpMax= 1.53D+04 ExpMxC= 5.22D+02 IAcc=3 IRadAn=         5 AccDes= 0.00D+00
 Harris functional with IExCor=  205 and IRadAn=       5 diagonalized for initial guess.
 HarFok:  IExCor=  205 AccDes= 0.00D+00 IRadAn=         5 IDoV= 1 UseB2=F ITyADJ=14
 ICtDFT=  3500011 ScaDFX=  1.000000  1.000000  1.000000  1.000000
 FoFCou: FMM=F IPFlag=           0 FMFlag=      100000 FMFlg1=           0
         NFxFlg=           0 DoJE=T BraDBF=F KetDBF=T FulRan=T
         wScrn=  0.000000 ICntrl=       500 IOpCl=  0 I1Cent=   200000004 NGrid=           0
         NMat0=    1 NMatS0=      1 NMatT0=    0 NMatD0=    1 NMtDS0=    0 NMtDT0=    0
 Petite list used in FoFCou.
 Harris En= -279.645705772359    
 JPrj=0 DoOrth=F DoCkMO=F.
 Initial guess orbital symmetries:
       Occupied  (A') (A') (A') (A') (A') (A') (A') (A') (A') (A')
                 (A") (A') (A") (A') (A") (A')
       Virtual   (A") (A') (A') (A') (A') (A") (A') (A') (A') (A')
                 (A") (A") (A') (A') (A') (A") (A') (A') (A") (A')
                 (A') (A') (A') (A') (A") (A') (A') (A') (A") (A')
                 (A') (A") (A") (A') (A') (A") (A') (A") (A') (A")
                 (A') (A") (A') (A") (A') (A') (A') (A") (A') (A')
                 (A') (A") (A') (A") (A') (A") (A') (A') (A') (A")
                 (A') (A') (A") (A') (A') (A') (A") (A") (A') (A')
                 (A") (A') (A") (A") (A') (A') (A") (A') (A') (A')
                 (A") (A') (A') (A") (A') (A") (A') (A") (A') (A')
                 (A') (A") (A') (A") (A') (A') (A") (A') (A") (A')
                 (A") (A') (A') (A") (A") (A') (A') (A') (A") (A')
                 (A") (A') (A') (A') (A") (A') (A') (A') (A") (A')
                 (A") (A') (A') (A") (A") (A") (A") (A') (A') (A')
                 (A') (A') (A') (A") (A') (A") (A') (A") (A') (A')
                 (A") (A") (A') (A') (A') (A") (A') (A') (A') (A")
                 (A') (A') (A') (A") (A') (A") (A") (A') (A') (A")
                 (A') (A") (A") (A') (A") (A') (A") (A') (A") (A')
                 (A") (A") (A") (A') (A") (A') (A') (A') (A") (A')
                 (A') (A') (A') (A') (A') (A') (A') (A') (A') (A')
                 (A')
 The electronic state of the initial guess is 1-A'.
 Leave Link  401 at Sun Mar  6 19:08:05 2022, MaxMem= 16106127360 cpu:               5.9 elap:               0.2
 (Enter /sw/contrib/gaussian/g16/B01/g16/l502.exe)
 Keep R1 ints in memory in symmetry-blocked form, NReq=348887737.
 FoFCou: FMM=F IPFlag=           0 FMFlag=           0 FMFlg1=           0
         NFxFlg=           0 DoJE=F BraDBF=F KetDBF=F FulRan=T
         wScrn=  0.000000 ICntrl=       600 IOpCl=  0 I1Cent=           0 NGrid=           0
         NMat0=    1 NMatS0=  21528 NMatT0=    0 NMatD0=    1 NMtDS0=    0 NMtDT0=    0
 Petite list used in FoFCou.
 Closed shell SCF:
 Using DIIS extrapolation, IDIIS=  1040.
 NGot= 16106127360 LenX= 15988850015 LenY= 15988789549
 Requested convergence on RMS density matrix=1.00D-08 within 128 cycles.
 Requested convergence on MAX density matrix=1.00D-06.
 Requested convergence on             energy=1.00D-06.
 No special actions if energy rises.

 Cycle   1  Pass 1  IDiag  1:
 E= -279.363934573475    
 DIIS: error= 2.73D-02 at cycle   1 NSaved=   1.
 NSaved= 1 IEnMin= 1 EnMin= -279.363934573475     IErMin= 1 ErrMin= 2.73D-02
 ErrMax= 2.73D-02  0.00D+00 EMaxC= 1.00D-01 BMatC= 4.53D-01 BMatP= 4.53D-01
 IDIUse=3 WtCom= 7.27D-01 WtEn= 2.73D-01
 Coeff-Com:  0.100D+01
 Coeff-En:   0.100D+01
 Coeff:      0.100D+01
 Gap=     0.503 Goal=   None    Shift=    0.000
 GapD=    0.503 DampG=2.000 DampE=0.500 DampFc=1.0000 IDamp=-1.
 RMSDP=1.69D-03 MaxDP=8.70D-02              OVMax= 1.25D-01

 Cycle   2  Pass 1  IDiag  1:
 E= -279.446069476547     Delta-E=       -0.082134903072 Rises=F Damp=F
 DIIS: error= 1.94D-02 at cycle   2 NSaved=   2.
 NSaved= 2 IEnMin= 2 EnMin= -279.446069476547     IErMin= 2 ErrMin= 1.94D-02
 ErrMax= 1.94D-02  0.00D+00 EMaxC= 1.00D-01 BMatC= 8.85D-02 BMatP= 4.53D-01
 IDIUse=3 WtCom= 8.06D-01 WtEn= 1.94D-01
 Coeff-Com:  0.222D+00 0.778D+00
 Coeff-En:   0.885D-01 0.912D+00
 Coeff:      0.196D+00 0.804D+00
 Gap=     0.563 Goal=   None    Shift=    0.000
 RMSDP=9.73D-04 MaxDP=3.67D-02 DE=-8.21D-02 OVMax= 9.24D-02

 Cycle   3  Pass 1  IDiag  1:
 E= -279.485438521833     Delta-E=       -0.039369045286 Rises=F Damp=F
 DIIS: error= 1.09D-02 at cycle   3 NSaved=   3.
 NSaved= 3 IEnMin= 3 EnMin= -279.485438521833     IErMin= 3 ErrMin= 1.09D-02
 ErrMax= 1.09D-02  0.00D+00 EMaxC= 1.00D-01 BMatC= 3.07D-02 BMatP= 8.85D-02
 IDIUse=3 WtCom= 8.91D-01 WtEn= 1.09D-01
 Coeff-Com: -0.350D-01 0.360D+00 0.675D+00
 Coeff-En:   0.000D+00 0.210D+00 0.790D+00
 Coeff:     -0.312D-01 0.344D+00 0.688D+00
 Gap=     0.543 Goal=   None    Shift=    0.000
 RMSDP=4.10D-04 MaxDP=1.55D-02 DE=-3.94D-02 OVMax= 3.97D-02

 Cycle   4  Pass 1  IDiag  1:
 E= -279.506435248010     Delta-E=       -0.020996726177 Rises=F Damp=F
 DIIS: error= 1.61D-03 at cycle   4 NSaved=   4.
 NSaved= 4 IEnMin= 4 EnMin= -279.506435248010     IErMin= 4 ErrMin= 1.61D-03
 ErrMax= 1.61D-03  0.00D+00 EMaxC= 1.00D-01 BMatC= 5.86D-04 BMatP= 3.07D-02
 IDIUse=3 WtCom= 9.84D-01 WtEn= 1.61D-02
 Coeff-Com: -0.116D-01 0.423D-01 0.149D+00 0.821D+00
 Coeff-En:   0.000D+00 0.000D+00 0.000D+00 0.100D+01
 Coeff:     -0.114D-01 0.416D-01 0.146D+00 0.824D+00
 Gap=     0.530 Goal=   None    Shift=    0.000
 RMSDP=9.81D-05 MaxDP=2.32D-03 DE=-2.10D-02 OVMax= 1.14D-02

 Cycle   5  Pass 1  IDiag  1:
 E= -279.507225888923     Delta-E=       -0.000790640913 Rises=F Damp=F
 DIIS: error= 1.07D-03 at cycle   5 NSaved=   5.
 NSaved= 5 IEnMin= 5 EnMin= -279.507225888923     IErMin= 5 ErrMin= 1.07D-03
 ErrMax= 1.07D-03  0.00D+00 EMaxC= 1.00D-01 BMatC= 9.83D-05 BMatP= 5.86D-04
 IDIUse=3 WtCom= 9.89D-01 WtEn= 1.07D-02
 Coeff-Com:  0.531D-02-0.643D-01-0.109D+00 0.600D-01 0.111D+01
 Coeff-En:   0.000D+00 0.000D+00 0.000D+00 0.000D+00 0.100D+01
 Coeff:      0.526D-02-0.636D-01-0.108D+00 0.594D-01 0.111D+01
 Gap=     0.533 Goal=   None    Shift=    0.000
 RMSDP=7.75D-05 MaxDP=2.04D-03 DE=-7.91D-04 OVMax= 1.25D-02

 Cycle   6  Pass 1  IDiag  1:
 E= -279.507567204013     Delta-E=       -0.000341315090 Rises=F Damp=F
 DIIS: error= 3.23D-04 at cycle   6 NSaved=   6.
 NSaved= 6 IEnMin= 6 EnMin= -279.507567204013     IErMin= 6 ErrMin= 3.23D-04
 ErrMax= 3.23D-04  0.00D+00 EMaxC= 1.00D-01 BMatC= 2.31D-05 BMatP= 9.83D-05
 IDIUse=3 WtCom= 9.97D-01 WtEn= 3.23D-03
 Coeff-Com:  0.184D-02-0.679D-02-0.177D-01-0.183D+00 0.290D-01 0.118D+01
 Coeff-En:   0.000D+00 0.000D+00 0.000D+00 0.000D+00 0.000D+00 0.100D+01
 Coeff:      0.184D-02-0.677D-02-0.176D-01-0.182D+00 0.289D-01 0.118D+01
 Gap=     0.534 Goal=   None    Shift=    0.000
 RMSDP=4.42D-05 MaxDP=1.01D-03 DE=-3.41D-04 OVMax= 5.76D-03

 Cycle   7  Pass 1  IDiag  1:
 E= -279.507645596050     Delta-E=       -0.000078392036 Rises=F Damp=F
 DIIS: error= 1.24D-04 at cycle   7 NSaved=   7.
 NSaved= 7 IEnMin= 7 EnMin= -279.507645596050     IErMin= 7 ErrMin= 1.24D-04
 ErrMax= 1.24D-04  0.00D+00 EMaxC= 1.00D-01 BMatC= 3.21D-06 BMatP= 2.31D-05
 IDIUse=3 WtCom= 9.99D-01 WtEn= 1.24D-03
 Coeff-Com: -0.110D-02 0.110D-01 0.246D-01 0.208D-01-0.178D+00-0.188D+00
 Coeff-Com:  0.131D+01
 Coeff-En:   0.000D+00 0.000D+00 0.000D+00 0.000D+00 0.000D+00 0.000D+00
 Coeff-En:   0.100D+01
 Coeff:     -0.110D-02 0.110D-01 0.245D-01 0.208D-01-0.177D+00-0.188D+00
 Coeff:      0.131D+01
 Gap=     0.534 Goal=   None    Shift=    0.000
 RMSDP=1.68D-05 MaxDP=4.92D-04 DE=-7.84D-05 OVMax= 2.26D-03

 Cycle   8  Pass 1  IDiag  1:
 E= -279.507656509249     Delta-E=       -0.000010913199 Rises=F Damp=F
 DIIS: error= 4.46D-05 at cycle   8 NSaved=   8.
 NSaved= 8 IEnMin= 8 EnMin= -279.507656509249     IErMin= 8 ErrMin= 4.46D-05
 ErrMax= 4.46D-05  0.00D+00 EMaxC= 1.00D-01 BMatC= 4.93D-07 BMatP= 3.21D-06
 IDIUse=1 WtCom= 1.00D+00 WtEn= 0.00D+00
 Coeff-Com: -0.501D-03 0.357D-02 0.864D-02 0.228D-01-0.521D-01-0.180D+00
 Coeff-Com:  0.333D+00 0.864D+00
 Coeff:     -0.501D-03 0.357D-02 0.864D-02 0.228D-01-0.521D-01-0.180D+00
 Coeff:      0.333D+00 0.864D+00
 Gap=     0.534 Goal=   None    Shift=    0.000
 RMSDP=4.79D-06 MaxDP=1.35D-04 DE=-1.09D-05 OVMax= 5.74D-04

 Cycle   9  Pass 1  IDiag  1:
 E= -279.507657635425     Delta-E=       -0.000001126176 Rises=F Damp=F
 DIIS: error= 2.38D-05 at cycle   9 NSaved=   9.
 NSaved= 9 IEnMin= 9 EnMin= -279.507657635425     IErMin= 9 ErrMin= 2.38D-05
 ErrMax= 2.38D-05  0.00D+00 EMaxC= 1.00D-01 BMatC= 1.11D-07 BMatP= 4.93D-07
 IDIUse=1 WtCom= 1.00D+00 WtEn= 0.00D+00
 Coeff-Com:  0.232D-03-0.244D-02-0.513D-02-0.522D-02 0.462D-01 0.475D-01
 Coeff-Com: -0.345D+00 0.811D-01 0.118D+01
 Coeff:      0.232D-03-0.244D-02-0.513D-02-0.522D-02 0.462D-01 0.475D-01
 Coeff:     -0.345D+00 0.811D-01 0.118D+01
 Gap=     0.534 Goal=   None    Shift=    0.000
 RMSDP=2.31D-06 MaxDP=6.27D-05 DE=-1.13D-06 OVMax= 2.46D-04

 Cycle  10  Pass 1  IDiag  1:
 E= -279.507657877718     Delta-E=       -0.000000242293 Rises=F Damp=F
 DIIS: error= 5.41D-06 at cycle  10 NSaved=  10.
 NSaved=10 IEnMin=10 EnMin= -279.507657877718     IErMin=10 ErrMin= 5.41D-06
 ErrMax= 5.41D-06  0.00D+00 EMaxC= 1.00D-01 BMatC= 8.13D-09 BMatP= 1.11D-07
 IDIUse=1 WtCom= 1.00D+00 WtEn= 0.00D+00
 Coeff-Com: -0.382D-04 0.491D-03 0.120D-02-0.191D-02-0.111D-01 0.529D-02
 Coeff-Com:  0.769D-01-0.715D-01-0.443D+00 0.144D+01
 Coeff:     -0.382D-04 0.491D-03 0.120D-02-0.191D-02-0.111D-01 0.529D-02
 Coeff:      0.769D-01-0.715D-01-0.443D+00 0.144D+01
 Gap=     0.534 Goal=   None    Shift=    0.000
 RMSDP=7.12D-07 MaxDP=2.52D-05 DE=-2.42D-07 OVMax= 7.75D-05

 Cycle  11  Pass 1  IDiag  1:
 E= -279.507657902740     Delta-E=       -0.000000025022 Rises=F Damp=F
 DIIS: error= 2.16D-06 at cycle  11 NSaved=  11.
 NSaved=11 IEnMin=11 EnMin= -279.507657902740     IErMin=11 ErrMin= 2.16D-06
 ErrMax= 2.16D-06  0.00D+00 EMaxC= 1.00D-01 BMatC= 7.73D-10 BMatP= 8.13D-09
 IDIUse=1 WtCom= 1.00D+00 WtEn= 0.00D+00
 Coeff-Com: -0.146D-04 0.142D-03 0.292D-03 0.941D-03-0.184D-02-0.723D-02
 Coeff-Com:  0.169D-01 0.206D-01-0.338D-01-0.363D+00 0.137D+01
 Coeff:     -0.146D-04 0.142D-03 0.292D-03 0.941D-03-0.184D-02-0.723D-02
 Coeff:      0.169D-01 0.206D-01-0.338D-01-0.363D+00 0.137D+01
 Gap=     0.534 Goal=   None    Shift=    0.000
 RMSDP=2.41D-07 MaxDP=8.96D-06 DE=-2.50D-08 OVMax= 2.85D-05

 Cycle  12  Pass 1  IDiag  1:
 E= -279.507657905575     Delta-E=       -0.000000002835 Rises=F Damp=F
 DIIS: error= 6.07D-07 at cycle  12 NSaved=  12.
 NSaved=12 IEnMin=12 EnMin= -279.507657905575     IErMin=12 ErrMin= 6.07D-07
 ErrMax= 6.07D-07  0.00D+00 EMaxC= 1.00D-01 BMatC= 7.36D-11 BMatP= 7.73D-10
 IDIUse=1 WtCom= 1.00D+00 WtEn= 0.00D+00
 Coeff-Com:  0.266D-05-0.439D-04-0.935D-04 0.979D-04 0.107D-02-0.472D-03
 Coeff-Com: -0.735D-02 0.678D-02 0.376D-01-0.922D-01-0.205D+00 0.126D+01
 Coeff:      0.266D-05-0.439D-04-0.935D-04 0.979D-04 0.107D-02-0.472D-03
 Coeff:     -0.735D-02 0.678D-02 0.376D-01-0.922D-01-0.205D+00 0.126D+01
 Gap=     0.534 Goal=   None    Shift=    0.000
 RMSDP=7.85D-08 MaxDP=2.50D-06 DE=-2.84D-09 OVMax= 8.89D-06

 Cycle  13  Pass 1  IDiag  1:
 E= -279.507657905831     Delta-E=       -0.000000000256 Rises=F Damp=F
 DIIS: error= 1.44D-07 at cycle  13 NSaved=  13.
 NSaved=13 IEnMin=13 EnMin= -279.507657905831     IErMin=13 ErrMin= 1.44D-07
 ErrMax= 1.44D-07  0.00D+00 EMaxC= 1.00D-01 BMatC= 5.92D-12 BMatP= 7.36D-11
 IDIUse=1 WtCom= 1.00D+00 WtEn= 0.00D+00
 Coeff-Com:  0.115D-05-0.101D-04-0.144D-04-0.117D-03 0.291D-04 0.886D-03
 Coeff-Com: -0.859D-03-0.263D-02-0.286D-02 0.537D-01-0.122D+00-0.149D+00
 Coeff-Com:  0.122D+01
 Coeff:      0.115D-05-0.101D-04-0.144D-04-0.117D-03 0.291D-04 0.886D-03
 Coeff:     -0.859D-03-0.263D-02-0.286D-02 0.537D-01-0.122D+00-0.149D+00
 Coeff:      0.122D+01
 Gap=     0.534 Goal=   None    Shift=    0.000
 RMSDP=2.02D-08 MaxDP=5.84D-07 DE=-2.56D-10 OVMax= 1.82D-06

 Cycle  14  Pass 1  IDiag  1:
 E= -279.507657905848     Delta-E=       -0.000000000017 Rises=F Damp=F
 DIIS: error= 3.60D-08 at cycle  14 NSaved=  14.
 NSaved=14 IEnMin=14 EnMin= -279.507657905848     IErMin=14 ErrMin= 3.60D-08
 ErrMax= 3.60D-08  0.00D+00 EMaxC= 1.00D-01 BMatC= 4.29D-13 BMatP= 5.92D-12
 IDIUse=1 WtCom= 1.00D+00 WtEn= 0.00D+00
 Coeff-Com: -0.305D-06 0.438D-05 0.861D-05-0.263D-05-0.107D-03 0.401D-04
 Coeff-Com:  0.658D-03-0.392D-03-0.336D-02 0.698D-02 0.169D-01-0.890D-01
 Coeff-Com: -0.149D-01 0.108D+01
 Coeff:     -0.305D-06 0.438D-05 0.861D-05-0.263D-05-0.107D-03 0.401D-04
 Coeff:      0.658D-03-0.392D-03-0.336D-02 0.698D-02 0.169D-01-0.890D-01
 Coeff:     -0.149D-01 0.108D+01
 Gap=     0.534 Goal=   None    Shift=    0.000
 RMSDP=4.01D-09 MaxDP=1.03D-07 DE=-1.71D-11 OVMax= 4.20D-07

 SCF Done:  E(RHF) =  -279.507657906     A.U. after   14 cycles
            NFock= 14  Conv=0.40D-08     -V/T= 2.0021
 KE= 2.789194343265D+02 PE=-9.074345994594D+02 EE= 2.257279201183D+02
 Leave Link  502 at Sun Mar  6 19:08:09 2022, MaxMem= 16106127360 cpu:              52.1 elap:               3.3
 (Enter /sw/contrib/gaussian/g16/B01/g16/l801.exe)
 ExpMin= 2.53D-02 ExpMax= 1.53D+04 ExpMxC= 5.22D+02 IAcc=3 IRadAn=         5 AccDes= 0.00D+00
 HarFok:  IExCor=  205 AccDes= 0.00D+00 IRadAn=         5 IDoV=-2 UseB2=F ITyADJ=14
 ICtDFT= 12500011 ScaDFX=  1.000000  1.000000  1.000000  1.000000
 Largest valence mixing into a core orbital is  2.06D-04
 Largest core mixing into a valence orbital is  3.02D-05
 Range of M.O.s used for correlation:     5   207
 NBasis=   207 NAE=    16 NBE=    16 NFC=     4 NFV=     0
 NROrb=    203 NOA=    12 NOB=    12 NVA=   191 NVB=   191

 **** Warning!!: The largest alpha MO coefficient is  0.15745216D+02

 Leave Link  801 at Sun Mar  6 19:08:09 2022, MaxMem= 16106127360 cpu:               4.8 elap:               0.3
 (Enter /sw/contrib/gaussian/g16/B01/g16/l906.exe)
 Frozen-core derivative calculation, NFC=   4 NFV=   0.
 FulOut=F Deriv=T AODrv=T NAtomX=     5
   MMem=           0  MDisk=          12 MDiskD=          12
  W3Min=      811440 MinDsk=     2425030 NBas6D=         245
 NBas2D=       30762    NTT=       30135    LW2=     7400000
    MDV= 16105571462 MDiskM=      328644 NBas2p=       30759
 Disk-based method using ON**2 memory for 12 occupieds at a time.
 Permanent disk used for amplitudes=    11516536 words.
 Estimated scratch disk usage=   321863743 words.
 IMap=   1   2   3   4   5   6   7   8   9  10  11  12  13  14  15  16
 Actual    scratch disk usage=   310892607 words.
 JobTyp=1 Pass  1:  I=   5 to  16 NPSUse= 28 ParTrn=T ParDer=T DoDerP=T.
 (rs|ai) integrals will be sorted in core.
 Spin components of T(2) and E(2):
     alpha-alpha T2 =       0.3462032160D-01 E2=     -0.1244359672D+00
     alpha-beta  T2 =       0.1834427340D+00 E2=     -0.6986219277D+00
     beta-beta   T2 =       0.3462032160D-01 E2=     -0.1244359672D+00
 The integrals were generated   1 times.
 ANorm=    0.1119233388D+01
 E2 =    -0.9474938621D+00 EUMP2 =    -0.28045515176796D+03
 Leave Link  906 at Sun Mar  6 19:09:47 2022, MaxMem= 16106127360 cpu:            2728.1 elap:              97.6
 (Enter /sw/contrib/gaussian/g16/B01/g16/l1101.exe)
 Using compressed Sx but separate Hx and Fx, NAtomX=     5.
 Will process      6 centers per pass.
 Leave Link 1101 at Sun Mar  6 19:09:47 2022, MaxMem= 16106127360 cpu:               5.6 elap:               0.2
 (Enter /sw/contrib/gaussian/g16/B01/g16/l1102.exe)
 Leave Link 1102 at Sun Mar  6 19:09:47 2022, MaxMem= 16106127360 cpu:               1.7 elap:               0.1
 (Enter /sw/contrib/gaussian/g16/B01/g16/l1110.exe)
 Forming Gx(P) for the SCF density, NAtomX=     5.
 Integral derivatives from FoFJK, PRISM(SPDF).
 Do as many integral derivatives as possible in FoFJK.
 G2DrvN: MDV=   16106126844.
 G2DrvN: will do     6 centers at a time, making    1 passes.
 Calling FoFCou, ICntrl=  3107 FMM=F I1Cent=   0 AccDes= 0.00D+00.
 FoFJK:  IHMeth= 1 ICntrl=    3107 DoSepK=F KAlg= 0 I1Cent=           0 FoldK=F
 IRaf=         0 NMat=       1 IRICut=       1 DoRegI=T DoRafI=F ISym2E= 1 IDoP0=0 IntGTp=1.
 FoFCou: FMM=F IPFlag=           0 FMFlag=      100000 FMFlg1=           0
         NFxFlg=           0 DoJE=F BraDBF=F KetDBF=F FulRan=T
         wScrn=  0.000000 ICntrl=      3107 IOpCl=  0 I1Cent=           0 NGrid=           0
         NMat0=    1 NMatS0=      1 NMatT0=    0 NMatD0=    1 NMtDS0=    0 NMtDT0=    0
 Petite list used in FoFCou.
 End of G2Drv F.D. properties file   721 does not exist.
 End of G2Drv F.D. properties file   722 does not exist.
 End of G2Drv F.D. properties file   788 does not exist.
 Leave Link 1110 at Sun Mar  6 19:09:50 2022, MaxMem= 16106127360 cpu:              86.8 elap:               3.1
 (Enter /sw/contrib/gaussian/g16/B01/g16/l1002.exe)
 Minotr:  Closed shell wavefunction.
          IDoAtm=11111
          Frozen-core window.
          Direct CPHF calculation.
          Differentiating once with respect to electric field.
                with respect to dipole field.
          Differentiating once with respect to nuclear coordinates.
          Requested convergence is 1.0D-08 RMS, and 1.0D-07 maximum.
          Secondary convergence is 1.0D-12 RMS, and 1.0D-12 maximum.
          NewPWx=T KeepS1=T KeepF1=T KeepIn=T MapXYZ=F SortEE=F KeepMc=T.
 Keep R1 ints in memory in symmetry-blocked form, NReq=348888983.
 FoFCou: FMM=F IPFlag=           0 FMFlag=           0 FMFlg1=           0
         NFxFlg=           0 DoJE=F BraDBF=F KetDBF=F FulRan=T
         wScrn=  0.000000 ICntrl=       600 IOpCl=  0 I1Cent=           0 NGrid=           0
         NMat0=    1 NMatS0=  21528 NMatT0=    0 NMatD0=    1 NMtDS0=    0 NMtDT0=    0
 Petite list used in FoFCou.
          MDV=   16106127360 using IRadAn=       1.
          Solving linear equations simultaneously, MaxMat=       0.
          There are    18 degrees of freedom in the 1st order CPHF.  IDoFFX=6 NUNeed=    18.
     15 vectors produced by pass  0 Test12= 1.70D-14 5.56D-09 XBig12= 7.82D+00 1.24D+00.
 AX will form    15 AO Fock derivatives at one time.
     15 vectors produced by pass  1 Test12= 1.70D-14 5.56D-09 XBig12= 1.33D+00 2.28D-01.
     15 vectors produced by pass  2 Test12= 1.70D-14 5.56D-09 XBig12= 6.39D-02 5.67D-02.
     15 vectors produced by pass  3 Test12= 1.70D-14 5.56D-09 XBig12= 1.78D-03 1.03D-02.
     15 vectors produced by pass  4 Test12= 1.70D-14 5.56D-09 XBig12= 3.91D-05 1.22D-03.
     15 vectors produced by pass  5 Test12= 1.70D-14 5.56D-09 XBig12= 5.39D-07 1.16D-04.
     15 vectors produced by pass  6 Test12= 1.70D-14 5.56D-09 XBig12= 4.25D-09 1.17D-05.
     14 vectors produced by pass  7 Test12= 1.70D-14 5.56D-09 XBig12= 3.25D-11 9.20D-07.
      3 vectors produced by pass  8 Test12= 1.70D-14 5.56D-09 XBig12= 2.23D-13 5.98D-08.
      1 vectors produced by pass  9 Test12= 1.70D-14 5.56D-09 XBig12= 1.48D-15 6.31D-09.
 InvSVY:  IOpt=1 It=  1 EMax= 8.88D-16
 Solved reduced A of dimension   123 with    15 vectors.
 FullF1:  Do perturbations      1 to      18.
 Saving first derivative matrices.
 End of Minotr F.D. properties file   721 does not exist.
 End of Minotr F.D. properties file   722 does not exist.
 End of Minotr F.D. properties file   788 does not exist.
 Leave Link 1002 at Sun Mar  6 19:09:53 2022, MaxMem= 16106127360 cpu:              77.1 elap:               2.9
 (Enter /sw/contrib/gaussian/g16/B01/g16/l811.exe)
 MDV= 16106127360.
 Form MO integral derivatives with frozen-active canonical formalism.
 MOERI=1 MOERIx=1 NAtoms=     5 NAtomX=     5.
 Discarding MO integrals.
 MO basis two electron integral derivatives will not be stored on disk.
 IAlg= 3 DoFC=T DoPWx=T Debug=F.
 Frozen-core window:  NFC=   4 NFV=   0.
 Reordered first order wavefunction length =     18678272
 In DefCFB: NBatch=  1 ICI= 16 ICA=191 LFMax= 96
            Large arrays: LIAPS=   619940160 LIARS=   288257200 words.
 In StABat: MaxSiz= 55 MinSiz= 25 NAtomB=  5
 DoIAMN: NPSUse= 28.
 Leave Link  811 at Sun Mar  6 19:11:14 2022, MaxMem= 16106127360 cpu:            2258.3 elap:              80.8
 (Enter /sw/contrib/gaussian/g16/B01/g16/l804.exe)
 Frozen-core window:  NFC=   4 NFV=   0.
 Closed-shell transformation, MDV= 16106127360 ITran=4 ISComp=1.
 Semi-Direct transformation.
 ModeAB=           2 MOrb=            16 LenV=   16104919771
 LASXX=     67341636 LTotXX=    67341636 LenRXX=    67341636
 LTotAB=    68301760 MaxLAS=    99807120 LenRXY=    99807120
 NonZer=   134683272 LenScr=   202817536 LnRSAI=           0
 LnScr1=           0 LExtra=           0 Total=    369966292
 MaxDsk=          -1 SrtSym=           F ITran=            4
 DoSDTr:  NPSUse= 28
 JobTyp=0 Pass  1:  I=   1 to  16.
 (rs|ai) integrals will be sorted in core.
 Complete sort for first half transformation.
 First half transformation complete.
 Begin second half transformation for I=  10.
 Begin second half transformation for I=  10.
 Complete sort for second half transformation.
 Second half transformation complete.
 Spin components of T(2) and E(2):
     alpha-alpha T2 =       0.3462032160D-01 E2=     -0.1244359672D+00
     alpha-beta  T2 =       0.1834427340D+00 E2=     -0.6986219277D+00
     beta-beta   T2 =       0.3462032160D-01 E2=     -0.1244359672D+00
 ANorm=    0.1582835037D+01
 E2 =    -0.9474938621D+00 EUMP2 =    -0.28045515176796D+03
 Leave Link  804 at Sun Mar  6 19:11:30 2022, MaxMem= 16106127360 cpu:             438.3 elap:              15.7
 (Enter /sw/contrib/gaussian/g16/B01/g16/l1002.exe)
 Minotr:  Closed shell wavefunction.
          Computing MP2/KS-MP2 derivatives.
          Using Z-Vector for PSCF gradient.
          Skipping F1 and S1 gradient terms here.
          IDoAtm=11111
          Frozen-core window.
          Using MO integrals in the linear equations.
          Forming densities via direct SCF.
          Differentiating once with respect to electric field.
                with respect to dipole field.
          Differentiating once with respect to nuclear coordinates.
          Using symmetry in CPHF.
          Requested convergence is 1.0D-10 RMS, and 1.0D-09 maximum.
          NewPWx=F KeepS1=T KeepF1=T KeepIn=T MapXYZ=F SortEE=F KeepMc=T.
          MDV=   16106127360 using IRadAn=       5.
          Solving linear equations separately, MaxMat=       0.
          There are     1 degrees of freedom in the 1st order CPHF.  IDoFFX=0 NUNeed=     1.
 FoFJK:  IHMeth= 1 ICntrl=       0 DoSepK=F KAlg= 0 I1Cent=           0 FoldK=F
 IRaf=         0 NMat=       1 IRICut=       1 DoRegI=T DoRafI=F ISym2E= 0 IDoP0=0 IntGTp=1.
 FoFCou: FMM=F IPFlag=           0 FMFlag=      100000 FMFlg1=           0
         NFxFlg=           0 DoJE=F BraDBF=F KetDBF=F FulRan=T
         wScrn=  0.000000 ICntrl=         0 IOpCl=  0 I1Cent=           0 NGrid=           0
         NMat0=    1 NMatS0=      1 NMatT0=    0 NMatD0=    1 NMtDS0=    0 NMtDT0=    0
 Symmetry not used in FoFCou.
 LinEq1:  Iter=  0 NonCon=     1 RMS=6.53D-03 Max=1.64D-01 NDo=     1
 LinEq1:  Iter=  1 NonCon=     1 RMS=1.95D-03 Max=3.00D-02 NDo=     1
 LinEq1:  Iter=  2 NonCon=     1 RMS=8.63D-04 Max=1.41D-02 NDo=     1
 LinEq1:  Iter=  3 NonCon=     1 RMS=3.66D-04 Max=7.96D-03 NDo=     1
 LinEq1:  Iter=  4 NonCon=     1 RMS=1.32D-04 Max=1.77D-03 NDo=     1
 LinEq1:  Iter=  5 NonCon=     1 RMS=7.33D-05 Max=1.33D-03 NDo=     1
 LinEq1:  Iter=  6 NonCon=     1 RMS=2.33D-05 Max=3.26D-04 NDo=     1
 LinEq1:  Iter=  7 NonCon=     1 RMS=7.73D-06 Max=1.06D-04 NDo=     1
 LinEq1:  Iter=  8 NonCon=     1 RMS=3.78D-06 Max=6.03D-05 NDo=     1
 LinEq1:  Iter=  9 NonCon=     1 RMS=9.95D-07 Max=1.12D-05 NDo=     1
 LinEq1:  Iter= 10 NonCon=     1 RMS=2.22D-07 Max=2.72D-06 NDo=     1
 LinEq1:  Iter= 11 NonCon=     1 RMS=4.82D-08 Max=7.66D-07 NDo=     1
 LinEq1:  Iter= 12 NonCon=     1 RMS=1.13D-08 Max=1.62D-07 NDo=     1
 LinEq1:  Iter= 13 NonCon=     1 RMS=1.98D-09 Max=2.28D-08 NDo=     1
 LinEq1:  Iter= 14 NonCon=     1 RMS=4.11D-10 Max=5.29D-09 NDo=     1
 LinEq1:  Iter= 15 NonCon=     0 RMS=8.39D-11 Max=8.49D-10 NDo=     1
 Linear equations converged to 1.000D-10 1.000D-09 after    15 iterations.
 End of Minotr F.D. properties file   721 does not exist.
 End of Minotr F.D. properties file   722 does not exist.
 End of Minotr F.D. properties file   788 does not exist.
 Leave Link 1002 at Sun Mar  6 19:11:32 2022, MaxMem= 16106127360 cpu:              65.3 elap:               2.4
 (Enter /sw/contrib/gaussian/g16/B01/g16/l1102.exe)
 Use density number 2.
 Symmetrizing basis deriv contribution to polar:
 IMax=3 JMax=2 DiffMx= 0.00D+00
 Leave Link 1102 at Sun Mar  6 19:11:32 2022, MaxMem= 16106127360 cpu:               1.6 elap:               0.1
 (Enter /sw/contrib/gaussian/g16/B01/g16/l1110.exe)
 Forming Gx(P) for generalized density number  2 NAtomX=     5.
 Integral derivatives from FoFJK, PRISM(SPDF).
 Do as many integral derivatives as possible in FoFJK.
 G2DrvN: MDV=   16106126844.
 G2DrvN: will do     6 centers at a time, making    1 passes.
 Calling FoFCou, ICntrl=  3107 FMM=F I1Cent=   0 AccDes= 0.00D+00.
 FoFJK:  IHMeth= 1 ICntrl=    3107 DoSepK=F KAlg= 0 I1Cent=           0 FoldK=F
 IRaf=         0 NMat=       1 IRICut=       1 DoRegI=T DoRafI=F ISym2E= 1 IDoP0=0 IntGTp=1.
 FoFCou: FMM=F IPFlag=           0 FMFlag=      100000 FMFlg1=           0
         NFxFlg=           0 DoJE=F BraDBF=F KetDBF=F FulRan=T
         wScrn=  0.000000 ICntrl=      3107 IOpCl=  0 I1Cent=           0 NGrid=           0
         NMat0=    1 NMatS0=      1 NMatT0=    0 NMatD0=    1 NMtDS0=    0 NMtDT0=    0
 Petite list used in FoFCou.
 End of G2Drv F.D. properties file   721 does not exist.
 End of G2Drv F.D. properties file   722 does not exist.
 End of G2Drv F.D. properties file   788 does not exist.
 Leave Link 1110 at Sun Mar  6 19:11:35 2022, MaxMem= 16106127360 cpu:              87.3 elap:               3.1
 (Enter /sw/contrib/gaussian/g16/B01/g16/l1112.exe)
 MP22nd: MDV=   16106127360
 This link is doing NAtomX=     5 total of    18 degrees of freedom.
 Using ON3 I/O method in MakUI.
 Frozen-core window:  NFC=   4 NFV=   0.
 Using Ix for Sx.
 Use MO integrals over full window.
 Using OV2 memory method for fx*t*t/D, MaxI=    16 DoOO2=F NP=  28.
 R2 and R3 integrals will be kept in memory, NReq=   915591705.
 FoFCou: FMM=F IPFlag=           0 FMFlag=           0 FMFlg1=           0
         NFxFlg=           0 DoJE=F BraDBF=F KetDBF=F FulRan=T
         wScrn=  0.000000 ICntrl=       600 IOpCl=  0 I1Cent=           0 NGrid=           0
         NMat0=    1 NMatS0=      1 NMatT0=    0 NMatD0=    1 NMtDS0=    0 NMtDT0=    0
 Symmetry not used in FoFCou.
 DD1Dir will call FoFMem   1 times, MxPair=       272
 NAB=   136 NAA=     0 NBB=     0.
 Symmetry is being used.
 FoFJK:  IHMeth= 1 ICntrl=       0 DoSepK=F KAlg= 0 I1Cent=           0 FoldK=F
 IRaf=         0 NMat=      18 IRICut=      45 DoRegI=T DoRafI=T ISym2E= 2 IDoP0=3 IntGTp=3.
 Discarding MO integrals.
 Leave Link 1112 at Sun Mar  6 19:12:07 2022, MaxMem= 16106127360 cpu:             878.5 elap:              31.6
 (Enter /sw/contrib/gaussian/g16/B01/g16/l601.exe)
 Copying SCF densities to generalized density rwf, IOpCl= 0 IROHF=0.

 **********************************************************************

            Population analysis using the MP2 Density.

 **********************************************************************

 Orbital symmetries:
       Occupied  (A') (A') (A') (A') (A') (A') (A') (A') (A') (A')
                 (A") (A') (A') (A") (A') (A")
       Virtual   (A') (A") (A') (A') (A") (A') (A') (A') (A") (A')
                 (A") (A') (A') (A') (A") (A') (A') (A") (A') (A')
                 (A') (A') (A') (A') (A") (A') (A') (A") (A') (A')
                 (A') (A") (A") (A') (A') (A') (A") (A') (A") (A')
                 (A") (A") (A') (A') (A") (A') (A') (A") (A') (A')
                 (A') (A") (A') (A') (A") (A') (A") (A') (A") (A')
                 (A') (A') (A") (A') (A') (A') (A") (A") (A') (A')
                 (A") (A') (A") (A") (A') (A') (A") (A') (A') (A')
                 (A") (A') (A') (A") (A') (A") (A") (A') (A') (A')
                 (A') (A') (A") (A") (A') (A') (A") (A") (A') (A")
                 (A') (A') (A") (A') (A") (A') (A') (A') (A") (A")
                 (A') (A') (A') (A') (A") (A') (A') (A') (A") (A')
                 (A") (A') (A") (A') (A") (A") (A') (A") (A') (A')
                 (A') (A') (A") (A') (A") (A') (A") (A') (A') (A')
                 (A") (A") (A') (A') (A') (A") (A') (A') (A') (A")
                 (A') (A') (A') (A") (A') (A") (A") (A') (A') (A")
                 (A') (A") (A') (A") (A") (A') (A") (A') (A") (A")
                 (A') (A") (A") (A') (A') (A") (A') (A') (A") (A')
                 (A') (A') (A') (A') (A') (A') (A') (A') (A') (A')
                 (A')
 The electronic state is 1-A'.
 Alpha  occ. eigenvalues --  -20.72243 -20.68358 -20.66916 -15.82409  -1.64838
 Alpha  occ. eigenvalues --   -1.50514  -1.29944  -0.95955  -0.83638  -0.76094
 Alpha  occ. eigenvalues --   -0.74363  -0.63797  -0.61820  -0.61691  -0.50482
 Alpha  occ. eigenvalues --   -0.49904
 Alpha virt. eigenvalues --    0.03500   0.06260   0.09515   0.10045   0.11971
 Alpha virt. eigenvalues --    0.12293   0.14887   0.15172   0.17744   0.18059
 Alpha virt. eigenvalues --    0.18967   0.21116   0.21664   0.24268   0.24642
 Alpha virt. eigenvalues --    0.26946   0.31356   0.31735   0.33850   0.34480
 Alpha virt. eigenvalues --    0.35222   0.39679   0.44950   0.48898   0.50522
 Alpha virt. eigenvalues --    0.51876   0.54581   0.56157   0.59989   0.62045
 Alpha virt. eigenvalues --    0.63985   0.69006   0.71508   0.72463   0.74388
 Alpha virt. eigenvalues --    0.76432   0.76783   0.79571   0.80778   0.83967
 Alpha virt. eigenvalues --    0.84264   0.85175   0.88630   0.90830   0.93237
 Alpha virt. eigenvalues --    0.94909   0.95265   1.01899   1.03290   1.06538
 Alpha virt. eigenvalues --    1.06689   1.09691   1.14518   1.15792   1.17144
 Alpha virt. eigenvalues --    1.22332   1.22684   1.24645   1.35502   1.35690
 Alpha virt. eigenvalues --    1.37278   1.46937   1.48578   1.50446   1.54213
 Alpha virt. eigenvalues --    1.59718   1.59910   1.60952   1.63416   1.69679
 Alpha virt. eigenvalues --    1.74050   1.80117   1.83224   1.88930   1.89612
 Alpha virt. eigenvalues --    1.93478   1.98142   1.99213   2.05297   2.12798
 Alpha virt. eigenvalues --    2.13255   2.16826   2.19002   2.24582   2.25985
 Alpha virt. eigenvalues --    2.29345   2.35408   2.36941   2.38582   2.40234
 Alpha virt. eigenvalues --    2.43930   2.47129   2.48181   2.52933   2.54436
 Alpha virt. eigenvalues --    2.55181   2.56206   2.62035   2.63179   2.67770
 Alpha virt. eigenvalues --    2.67965   2.75829   2.81347   2.82396   2.84025
 Alpha virt. eigenvalues --    2.92386   2.99411   3.05234   3.05439   3.11720
 Alpha virt. eigenvalues --    3.12021   3.17509   3.21377   3.31133   3.33497
 Alpha virt. eigenvalues --    3.37104   3.47562   3.69150   3.87711   3.93530
 Alpha virt. eigenvalues --    4.18693   4.22770   4.22995   4.27698   4.37223
 Alpha virt. eigenvalues --    4.50295   4.54129   4.55908   4.60268   4.69569
 Alpha virt. eigenvalues --    4.81208   4.91034   4.91678   4.94322   5.00805
 Alpha virt. eigenvalues --    5.00924   5.11407   5.13580   5.18100   5.25253
 Alpha virt. eigenvalues --    5.25989   5.32790   5.34590   5.36736   5.54868
 Alpha virt. eigenvalues --    5.64877   5.71193   5.89147   5.99465   6.26441
 Alpha virt. eigenvalues --    6.30176   6.37229   6.37911   6.59969   6.66252
 Alpha virt. eigenvalues --    6.66717   6.69736   6.73055   6.78991   6.80182
 Alpha virt. eigenvalues --    6.86342   6.98177   7.02063   7.06468   7.08037
 Alpha virt. eigenvalues --    7.13673   7.18028   7.18970   7.20240   7.24855
 Alpha virt. eigenvalues --    7.24992   7.27494   7.35477   7.40666   7.43921
 Alpha virt. eigenvalues --    7.44543   7.46286   7.57871   7.66781   7.68045
 Alpha virt. eigenvalues --    7.79958   7.89028   7.97513   8.08119   8.31049
 Alpha virt. eigenvalues --    8.50597   8.66348  13.71848  14.85177  15.17392
 Alpha virt. eigenvalues --   15.80841
          Condensed to atoms (all electrons):
               1          2          3          4          5
     1  H    0.577627   0.123131   0.024020   0.001644  -0.004462
     2  O    0.123131   8.396310  -0.230358  -0.002519  -0.010130
     3  O    0.024020  -0.230358   8.365715  -0.171978  -0.037624
     4  N    0.001644  -0.002519  -0.171978   7.146080  -0.121896
     5  O   -0.004462  -0.010130  -0.037624  -0.121896   8.374611
 Mulliken charges:
               1
     1  H    0.278040
     2  O   -0.276435
     3  O    0.050226
     4  N    0.148668
     5  O   -0.200500
 Sum of Mulliken charges =  -0.00000
 Mulliken charges with hydrogens summed into heavy atoms:
               1
     2  O    0.001606
     3  O    0.050226
     4  N    0.148668
     5  O   -0.200500
 APT charges:
               1
     1  H    0.275176
     2  O   -0.305260
     3  O   -0.290655
     4  N    0.626677
     5  O   -0.305939
 Sum of APT charges =  -0.00000
 APT charges with hydrogens summed into heavy atoms:
               1
     2  O   -0.030084
     3  O   -0.290655
     4  N    0.626677
     5  O   -0.305939
 Electronic spatial extent (au):  <R**2>=            205.5198
 Charge=             -0.0000 electrons
 Dipole moment (field-independent basis, Debye):
    X=              0.0889    Y=             -1.0224    Z=              0.0000  Tot=              1.0262
 Quadrupole moment (field-independent basis, Debye-Ang):
   XX=            -23.4326   YY=            -22.9074   ZZ=            -21.9077
   XY=             -2.0071   XZ=              0.0000   YZ=              0.0000
 Traceless Quadrupole moment (field-independent basis, Debye-Ang):
   XX=             -0.6833   YY=             -0.1582   ZZ=              0.8415
   XY=             -2.0071   XZ=              0.0000   YZ=              0.0000
 Octapole moment (field-independent basis, Debye-Ang**2):
  XXX=              2.6225  YYY=              0.3748  ZZZ=              0.0000  XYY=              2.4465
  XXY=             -2.7650  XXZ=              0.0000  XZZ=             -0.5729  YZZ=             -0.6458
  YYZ=              0.0000  XYZ=              0.0000
 Hexadecapole moment (field-independent basis, Debye-Ang**3):
 XXXX=           -126.4755 YYYY=            -93.5096 ZZZZ=            -17.9985 XXXY=            -21.0182
 XXXZ=              0.0000 YYYX=            -19.3867 YYYZ=              0.0000 ZZZX=              0.0000
 ZZZY=              0.0000 XXYY=            -35.3143 XXZZ=            -24.2258 YYZZ=            -18.3574
 XXYZ=              0.0000 YYXZ=              0.0000 ZZXY=             -5.7516
 N-N= 1.232795871087D+02 E-N=-9.081113381593D+02  KE= 2.802307869399D+02
 Symmetry A'   KE= 2.663783832141D+02
 Symmetry A"   KE= 1.385240372581D+01
  Exact polarizability:  30.840   4.026  29.625   0.000   0.000  17.567
 Approx polarizability:  24.439   0.448  27.420  -0.000  -0.000  15.488
 No NMR shielding tensors so no spin-rotation constants.
 Leave Link  601 at Sun Mar  6 19:12:07 2022, MaxMem= 16106127360 cpu:               7.0 elap:               0.3
 (Enter /sw/contrib/gaussian/g16/B01/g16/l701.exe)
 ... and contract with generalized density number  2.
 Compute integral second derivatives.
 Leave Link  701 at Sun Mar  6 19:12:08 2022, MaxMem= 16106127360 cpu:               5.9 elap:               0.2
 (Enter /sw/contrib/gaussian/g16/B01/g16/l702.exe)
 L702 exits ... SP integral derivatives will be done elsewhere.
 Leave Link  702 at Sun Mar  6 19:12:08 2022, MaxMem= 16106127360 cpu:               0.7 elap:               0.0
 (Enter /sw/contrib/gaussian/g16/B01/g16/l703.exe)
 Integral derivatives from FoFJK, PRISM(SPDF).
 Compute integral second derivatives, UseDBF=F ICtDFT=           0.
 Calling FoFJK, ICntrl=  10100127 FMM=F ISym2X=1 I1Cent= 0 IOpClX= 0 NMat=1 NMatS=1 NMatT=0.
 FoFJK:  IHMeth= 1 ICntrl=10100127 DoSepK=F KAlg= 0 I1Cent=           0 FoldK=F
 IRaf=         0 NMat=       1 IRICut=       1 DoRegI=T DoRafI=F ISym2E= 1 IDoP0=0 IntGTp=1.
 FoFCou: FMM=F IPFlag=           0 FMFlag=      100000 FMFlg1=         800
         NFxFlg=           0 DoJE=F BraDBF=F KetDBF=F FulRan=T
         wScrn=  0.000000 ICntrl=  10100127 IOpCl=  0 I1Cent=           0 NGrid=           0
         NMat0=    1 NMatS0=      1 NMatT0=    0 NMatD0=    1 NMtDS0=    0 NMtDT0=    0
 Petite list used in FoFCou.
 Leave Link  703 at Sun Mar  6 19:12:24 2022, MaxMem= 16106127360 cpu:             446.3 elap:              16.0
 (Enter /sw/contrib/gaussian/g16/B01/g16/l716.exe)
 Dipole        = 3.49772779D-02-4.02226714D-01 0.00000000D+00
 Polarizability= 3.08397453D+01 4.02560830D+00 2.96248284D+01
                 0.00000000D+00 0.00000000D+00 1.75674633D+01
 Full mass-weighted force constant matrix:
 Low frequencies ---  -59.7001  -50.5124  -40.1051   -0.0014    0.0013    0.0015
 Low frequencies ---  360.3878  409.7471  526.9320
 Diagonal vibrational polarizability:
        6.4191404       8.3663872      15.3828532
 Harmonic frequencies (cm**-1), IR intensities (KM/Mole), Raman scattering
 activities (A**4/AMU), depolarization ratios for plane and unpolarized
 incident light, reduced masses (AMU), force constants (mDyne/A),
 and normal coordinates:
                      1                      2                      3
                     A"                     A'                     A"
 Frequencies --    360.3851               409.7380               526.9014
 Red. masses --      1.6015                 6.9541                 2.7658
 Frc consts  --      0.1225                 0.6879                 0.4524
 IR Inten    --     61.6423                 7.4066                26.9285
  Atom  AN      X      Y      Z        X      Y      Z        X      Y      Z
     1   1    -0.00  -0.00   0.98    -0.74  -0.25  -0.00    -0.00  -0.00   0.93
     2   8    -0.00  -0.00  -0.11    -0.32  -0.31   0.00    -0.00  -0.00   0.05
     3   8    -0.00   0.00   0.12    -0.06   0.09  -0.00    -0.00   0.00  -0.18
     4   7     0.00   0.00  -0.11     0.05   0.08   0.00     0.00   0.00   0.26
     5   8     0.00   0.00   0.03     0.39   0.16   0.00     0.00   0.00  -0.16
                      4                      5                      6
                     A'                     A'                     A'
 Frequencies --    768.8518               838.0849               975.2596
 Red. masses --     13.2390                12.6593                 9.5567
 Frc consts  --      4.6110                 5.2389                 5.3555
 IR Inten    --    197.8004                36.3436                14.4955
  Atom  AN      X      Y      Z        X      Y      Z        X      Y      Z
     1   1    -0.37   0.02   0.00     0.41  -0.16  -0.00    -0.64   0.00  -0.00
     2   8    -0.01  -0.06  -0.00     0.54  -0.22   0.00     0.17  -0.16   0.00
     3   8     0.39   0.58   0.00    -0.39   0.02  -0.00    -0.35   0.40  -0.00
     4   7    -0.39  -0.45  -0.00    -0.43  -0.07   0.00     0.40   0.05   0.00
     5   8    -0.01  -0.13   0.00     0.20   0.27   0.00    -0.14  -0.28  -0.00
                      7                      8                      9
                     A'                     A'                     A'
 Frequencies --   1432.4993              1578.6453              3485.6602
 Red. masses --      1.2969                 6.7786                 1.0635
 Frc consts  --      1.5680                 9.9531                 7.6133
 IR Inten    --     81.1569               150.5439                45.5555
  Atom  AN      X      Y      Z        X      Y      Z        X      Y      Z
     1   1     0.97  -0.21   0.00     0.74  -0.17   0.00     0.16   0.99  -0.00
     2   8    -0.07  -0.05   0.00    -0.02  -0.02   0.00    -0.01  -0.06   0.00
     3   8    -0.03   0.06  -0.00     0.04   0.06  -0.00     0.00  -0.00  -0.00
     4   7     0.06  -0.05   0.00    -0.25   0.42   0.00    -0.00   0.00  -0.00
     5   8    -0.02   0.04  -0.00     0.15  -0.39  -0.00     0.00  -0.00   0.00

 -------------------
 - Thermochemistry -
 -------------------
 Temperature   298.150 Kelvin.  Pressure   1.00000 Atm.
 Atom     1 has atomic number  1 and mass   1.00783
 Atom     2 has atomic number  8 and mass  15.99491
 Atom     3 has atomic number  8 and mass  15.99491
 Atom     4 has atomic number  7 and mass  14.00307
 Atom     5 has atomic number  8 and mass  15.99491
 Molecular mass:    62.99564 amu.
 Principal axes and moments of inertia in atomic units:
                           1         2         3
     Eigenvalues --    84.50256 219.29182 303.79438
           X            0.80115  -0.59847   0.00000
           Y            0.59847   0.80115   0.00000
           Z            0.00000   0.00000   1.00000
 This molecule is an asymmetric top.
 Rotational symmetry number  1.
 Rotational temperatures (Kelvin)      1.02499     0.39497     0.28511
 Rotational constants (GHZ):          21.35724     8.22986     5.94067
 Zero-point vibrational energy      62062.4 (Joules/Mol)
                                   14.83327 (Kcal/Mol)
 Warning -- explicit consideration of   3 degrees of freedom as
           vibrations may cause significant error
 Vibrational temperatures:    518.51   589.52   758.09  1106.21  1205.82
          (Kelvin)           1403.18  2061.05  2271.32  5015.09
 
 Zero-point correction=                           0.023638 (Hartree/Particle)
 Thermal correction to Energy=                    0.027532
 Thermal correction to Enthalpy=                  0.028477
 Thermal correction to Gibbs Free Energy=        -0.002298
 Sum of electronic and zero-point Energies=           -280.431513
 Sum of electronic and thermal Energies=              -280.427619
 Sum of electronic and thermal Enthalpies=            -280.426675
 Sum of electronic and thermal Free Energies=         -280.457449
 
                     E (Thermal)             CV                S
                      KCal/Mol        Cal/Mol-Kelvin    Cal/Mol-Kelvin
 Total                   17.277             12.005             64.770
 Electronic               0.000              0.000              0.000
 Translational            0.889              2.981             38.341
 Rotational               0.889              2.981             23.247
 Vibrational             15.499              6.043              3.182
 Vibration     1          0.735              1.554              1.120
 Vibration     2          0.774              1.449              0.928
 Vibration     3          0.882              1.190              0.594
                       Q            Log10(Q)             Ln(Q)
 Total Bot       0.113989D+02          1.056862          2.433514
 Total V=0       0.850603D+12         11.929727         27.469212
 Vib (Bot)       0.215954D-10        -10.665640        -24.558543
 Vib (Bot)    1  0.508465D+00         -0.293739         -0.676358
 Vib (Bot)    2  0.431877D+00         -0.364639         -0.839613
 Vib (Bot)    3  0.304402D+00         -0.516553         -1.189406
 Vib (V=0)       0.161148D+01          0.207226          0.477155
 Vib (V=0)    1  0.121312D+01          0.083903          0.193194
 Vib (V=0)    2  0.116070D+01          0.064718          0.149019
 Vib (V=0)    3  0.108537D+01          0.035579          0.081923
 Electronic      0.100000D+01          0.000000          0.000000
 Translational   0.196526D+08          7.293420         16.793719
 Rotational      0.268585D+05          4.429082         10.198337
 
                                                                title
                                                             IR Spectrum
 
     3                                                                     1    1                                                    
     4                                                                     5    4                9    8 7        5    43             
     8                                                                     7    3                7    3 6        2    16             
     6                                                                     9    2                5    8 9        7    00             
 
     X                                                                     X    X                X    X X        X    XX             
     X                                                                     X    X                     X X        X     X             
     X                                                                     X    X                     X X        X     X             
     X                                                                     X    X                     X X              X             
     X                                                                     X    X                       X              X             
                                                                           X    X                       X              X             
                                                                           X    X                       X                            
                                                                           X    X                       X                            
                                                                           X                            X                            
                                                                           X                            X                            
                                                                           X                            X                            
                                                                           X                            X                            
                                                                           X                            X                            
                                                                           X                            X                            
                                                                           X                            X                            
                                                                                                        X                            
                                                                                                        X                            
                                                                                                        X                            
                                                                                                        X                            
                                                                                                        X                            
 
 ***** Axes restored to original set *****
 -------------------------------------------------------------------
 Center     Atomic                   Forces (Hartrees/Bohr)
 Number     Number              X              Y              Z
 -------------------------------------------------------------------
      1        1           0.000413652   -0.000000000   -0.000173077
      2        8          -0.001353491   -0.000000000    0.001459859
      3        8          -0.002423477   -0.000000000    0.004110426
      4        7           0.004484511   -0.000000000   -0.000548233
      5        8          -0.001121196   -0.000000000   -0.004848975
 -------------------------------------------------------------------
 Cartesian Forces:  Max     0.004848975 RMS     0.002192625
 -----------------------------------------------------------------------------------------------
                       Internal Coordinate Forces (Hartree/Bohr or radian)
  Cent   Atom   N1       Length/X         N2         Alpha/Y        N3         Beta/Z          J
 -----------------------------------------------------------------------------------------------
      1  H 
      2  O        1   0.000173(     1)
      3  O        2   0.000686(     2)      1  -0.000770(     5)
      4  N        3   0.006356(     3)      2   0.003107(     6)      1   0.000000(     8)     0
      5  O        4   0.004709(     4)      3   0.003635(     7)      2   0.000000(     9)     0
 -----------------------------------------------------------------------------------------------
 Internal  Forces:  Max     0.006356090 RMS     0.003100861
 Force constants in Cartesian coordinates: 
                1             2             3             4             5 
      1  0.719540D-01
      2  0.000000D+00  0.637875D-02
      3  0.253064D-01  0.000000D+00  0.436151D+00
      4 -0.523372D-01  0.000000D+00 -0.537715D-02  0.281565D+00
      5  0.000000D+00 -0.251673D-02  0.000000D+00  0.000000D+00  0.122913D-01
      6  0.310253D-01  0.000000D+00 -0.419056D+00 -0.143401D-01  0.000000D+00
      7 -0.246524D-01  0.000000D+00 -0.160436D-01 -0.167142D+00  0.000000D+00
      8  0.000000D+00 -0.426842D-02  0.000000D+00  0.000000D+00 -0.199051D-01
      9 -0.438137D-01  0.000000D+00 -0.203873D-01  0.108760D-01  0.000000D+00
     10 -0.585616D-02  0.000000D+00  0.622374D-02 -0.874391D-01  0.000000D+00
     11  0.000000D+00  0.815003D-02  0.000000D+00  0.000000D+00  0.207965D-01
     12 -0.195383D-01  0.000000D+00  0.123763D-01  0.126017D-01  0.000000D+00
     13  0.108917D-01  0.000000D+00 -0.101094D-01  0.253534D-01  0.000000D+00
     14  0.000000D+00 -0.774362D-02  0.000000D+00  0.000000D+00 -0.106659D-01
     15  0.702035D-02  0.000000D+00 -0.908384D-02 -0.376038D-02  0.000000D+00
                6             7             8             9            10 
      6  0.522997D+00
      7 -0.914204D-01  0.306319D+00
      8  0.000000D+00  0.000000D+00  0.410180D-01
      9 -0.977579D-01  0.723740D-01  0.000000D+00  0.340799D+00
     10  0.410406D-01 -0.148892D+00  0.000000D+00 -0.287969D-01  0.563577D+00
     11  0.000000D+00  0.000000D+00 -0.482567D-01  0.000000D+00  0.000000D+00
     12 -0.106389D-01  0.268021D-01  0.000000D+00 -0.451920D-01  0.237345D+00
     13  0.336947D-01  0.343679D-01  0.000000D+00 -0.106393D-01 -0.321390D+00
     14  0.000000D+00  0.000000D+00  0.314123D-01  0.000000D+00  0.000000D+00
     15  0.445614D-02  0.828787D-02  0.000000D+00 -0.177462D+00 -0.255812D+00
               11            12            13            14            15 
     11  0.566326D-01
     12  0.000000D+00  0.473755D+00
     13  0.000000D+00 -0.257210D+00  0.250777D+00
     14 -0.373224D-01  0.000000D+00  0.000000D+00  0.243196D-01
     15  0.000000D+00 -0.430300D+00  0.244265D+00  0.000000D+00  0.612390D+00
 Force constants in internal coordinates: 
                1             2             3             4             5 
      1  0.436151D+00
      2  0.227419D-01  0.257774D+00
      3  0.489690D-02  0.204536D-01  0.237898D+00
      4 -0.130536D-01  0.231154D-01  0.149016D+00  0.730593D+00
      5  0.475364D-01  0.552604D-01 -0.245882D-01  0.218142D-01  0.249815D+00
      6  0.121549D-01  0.243352D-01  0.100404D+00  0.101126D-01 -0.996131D-02
      7  0.854352D-02 -0.738289D-01  0.133593D+00  0.121015D+00 -0.232855D-01
      8  0.000000D+00  0.000000D+00  0.000000D+00  0.000000D+00  0.000000D+00
      9  0.000000D+00  0.000000D+00  0.000000D+00  0.000000D+00  0.000000D+00
                6             7             8             9 
      6  0.547032D+00
      7  0.785085D-01  0.686465D+00
      8  0.000000D+00  0.000000D+00  0.218152D-01
      9  0.000000D+00  0.000000D+00  0.291546D-01  0.110389D+00
 Leave Link  716 at Sun Mar  6 19:12:24 2022, MaxMem= 16106127360 cpu:               1.5 elap:               0.1
 (Enter /sw/contrib/gaussian/g16/B01/g16/l103.exe)

 GradGradGradGradGradGradGradGradGradGradGradGradGradGradGradGradGradGrad
 Berny optimization.
 Search for a local minimum.
 Step number   1 out of a maximum of    2
 All quantities printed in internal units (Hartrees-Bohrs-Radians)
 Second derivative matrix not updated -- analytic derivatives used.
 The second derivative matrix:
                          r1        r2        r3        r4        a1
           r1           0.43615
           r2           0.02274   0.25777
           r3           0.00490   0.02045   0.23790
           r4          -0.01305   0.02312   0.14902   0.73059
           a1           0.04754   0.05526  -0.02459   0.02181   0.24981
           a2           0.01215   0.02434   0.10040   0.01011  -0.00996
           a3           0.00854  -0.07383   0.13359   0.12102  -0.02329
           d1           0.00000   0.00000   0.00000   0.00000   0.00000
           d2           0.00000   0.00000   0.00000   0.00000   0.00000
                          a2        a3        d1        d2
           a2           0.54703
           a3           0.07851   0.68646
           d1           0.00000   0.00000   0.02182
           d2           0.00000   0.00000   0.02915   0.11039
 ITU=  0
     Eigenvalues ---    0.01308   0.11912   0.14148   0.20980   0.27237
     Eigenvalues ---    0.45038   0.52760   0.62990   0.91419
 Angle between quadratic step and forces=  43.56 degrees.
 Linear search not attempted -- first point.
 Variable       Old X    -DE/DX   Delta X   Delta X   Delta X     New X
                                 (Linear)    (Quad)   (Total)
    r1        1.86209   0.00017   0.00000   0.00018   0.00018   1.86227
    r2        2.69614   0.00069   0.00000   0.00063   0.00063   2.69677
    r3        2.58029   0.00636   0.00000   0.02535   0.02535   2.60564
    r4        2.25782   0.00471   0.00000   0.00126   0.00126   2.25908
    a1        1.75642  -0.00077   0.00000  -0.00083  -0.00083   1.75559
    a2        1.97463   0.00311   0.00000   0.00095   0.00095   1.97557
    a3        1.99550   0.00363   0.00000   0.00007   0.00007   1.99557
    d1        0.00000   0.00000   0.00000   0.00000   0.00000   0.00000
    d2        0.00000   0.00000   0.00000   0.00000   0.00000   0.00000
         Item               Value     Threshold  Converged?
 Maximum Force            0.006356     0.000450     NO 
 RMS     Force            0.003101     0.000300     NO 
 Maximum Displacement     0.025346     0.001800     NO 
 RMS     Displacement     0.008472     0.001200     NO 
 Predicted change in Energy=-8.566663D-05
                       ----------------------------
                       ! Non-Optimized Parameters !
                       ! (Angstroms and Degrees)  !
 ----------------------                            ----------------------
 !      Name          Value   Derivative information (Atomic Units)     !
 ------------------------------------------------------------------------
 !       r1          0.9855   -DE/DX =    0.0002                        !
 !       r2          1.4271   -DE/DX =    0.0007                        !
 !       r3          1.3788   -DE/DX =    0.0064                        !
 !       r4          1.1955   -DE/DX =    0.0047                        !
 !       a1        100.588    -DE/DX =   -0.0008                        !
 !       a2        113.192    -DE/DX =    0.0031                        !
 !       a3        114.3379   -DE/DX =    0.0036                        !
 !       d1          0.0      -DE/DX =    0.0                           !
 !       d2          0.0      -DE/DX =    0.0                           !
 ------------------------------------------------------------------------
 GradGradGradGradGradGradGradGradGradGradGradGradGradGradGradGradGradGrad

 Leave Link  103 at Sun Mar  6 19:12:24 2022, MaxMem= 16106127360 cpu:               2.3 elap:               0.1
 (Enter /sw/contrib/gaussian/g16/B01/g16/l9999.exe)

 ----------------------------------------------------------------------

 Electric dipole moment (input orientation):
 (Debye = 10**-18 statcoulomb cm , SI units = C m)
                  (au)            (Debye)         (10**-30 SI)
   Tot        0.403745D+00      0.102622D+01      0.342309D+01
   x         -0.120779D+00     -0.306989D+00     -0.102400D+01
   y          0.000000D+00      0.000000D+00      0.000000D+00
   z         -0.385256D+00     -0.979223D+00     -0.326634D+01

 Dipole polarizability, Alpha (input orientation).
 (esu units = cm**3 , SI units = C**2 m**2 J**-1)
 Alpha(0;0):
               (au)            (10**-24 esu)      (10**-40 SI)
   iso        0.260107D+02      0.385438D+01      0.428858D+01
   aniso      0.144956D+02      0.214802D+01      0.239000D+01
   xx         0.290902D+02      0.431072D+01      0.479633D+01
   yx         0.000000D+00      0.000000D+00      0.000000D+00
   yy         0.175675D+02      0.260323D+01      0.289648D+01
   zx        -0.390771D+01     -0.579062D+00     -0.644294D+00
   zy         0.000000D+00      0.000000D+00      0.000000D+00
   zz         0.313744D+02      0.464920D+01      0.517293D+01

 ----------------------------------------------------------------------

 Dipole orientation:
     1          0.00000000         -0.00000000         -0.00000000
     8         -0.55703762         -0.00000000         -1.77682178
     8          1.82258931         -0.00000000         -3.04432124
     7          3.83293228         -0.00000000         -1.42678525
     8          3.26813445          0.00000000          0.75925408

 Electric dipole moment (dipole orientation):
 (Debye = 10**-18 statcoulomb cm , SI units = C m)
                  (au)            (Debye)         (10**-30 SI)
   Tot        0.403745D+00      0.102622D+01      0.342309D+01
   x          0.000000D+00      0.000000D+00      0.000000D+00
   y          0.000000D+00      0.000000D+00      0.000000D+00
   z          0.403745D+00      0.102622D+01      0.342309D+01

 Dipole polarizability, Alpha (dipole orientation).
 (esu units = cm**3 , SI units = C**2 m**2 J**-1)
 Alpha(0;0):
               (au)            (10**-24 esu)      (10**-40 SI)
   iso        0.260107D+02      0.385438D+01      0.428858D+01
   aniso      0.144956D+02      0.214802D+01      0.239000D+01
   xx         0.315255D+02      0.467160D+01      0.519785D+01
   yx         0.000000D+00      0.000000D+00      0.000000D+00
   yy         0.175675D+02      0.260323D+01      0.289648D+01
   zx         0.386033D+01      0.572042D+00      0.636482D+00
   zy         0.000000D+00      0.000000D+00      0.000000D+00
   zz         0.289391D+02      0.428833D+01      0.477141D+01

 ----------------------------------------------------------------------
 1\1\GINC-N2228\Freq\RMP2-FC\Aug-CC-pVTZ\H1N1O3\CGAVINH\06-Mar-2022\1\\
 #p freq mp2/aug-cc-pvtz density=current\\title\\0,1\H\O,1,r1\O,2,r2,1,
 a1\N,3,r3,2,a2,1,d1,0\O,4,r4,3,a3,2,d2,0\\r1=0.98537664\r2=1.42673666\
 r3=1.36543118\r4=1.19478846\a1=100.6355057\a2=113.13777052\a3=114.3339
 2022\d1=0.\d2=0.\\Version=ES64L-G16RevB.01\State=1-A'\HF=-279.5076579\
 MP2=-280.4551518\RMSD=4.011e-09\RMSF=2.193e-03\ZeroPoint=0.0236383\The
 rmal=0.0275323\Dipole=-0.1207787,0.,-0.3852561\DipoleDeriv=0.3207662,0
 .,0.0366077,0.,0.2982599,0.,-0.026497,0.,0.2065027,-0.5337161,0.,0.283
 1922,0.,-0.2535063,0.,-0.1018289,0.,-0.1285576,0.0324665,0.,0.3267175,
 0.,-0.0007264,0.,0.4173323,0.,-0.9037041,0.181067,0.,-0.1392034,0.,0.0
 070787,0.,-0.6390468,0.,1.6918852,-0.0005836,0.,-0.5073141,0.,-0.05110
 59,0.,0.3500403,0.,-0.8661262\Polar=29.090203,0.,17.5674633,-3.9077068
 ,0.,31.3743706\Quadrupole=0.1376921,0.6256658,-0.7633578,0.,1.4359142,
 0.\PG=CS [SG(H1N1O3)]\NImag=0\\0.07195401,0.,0.00637875,0.02530640,0.,
 0.43615067,-0.05233716,0.,-0.00537715,0.28156476,0.,-0.00251673,0.,0.,
 0.01229127,0.03102525,0.,-0.41905586,-0.01434012,0.,0.52299653,-0.0246
 5243,0.,-0.01604362,-0.16714195,0.,-0.09142038,0.30631874,0.,-0.004268
 42,0.,0.,-0.01990513,0.,0.,0.04101803,-0.04381371,0.,-0.02038728,0.010
 87597,0.,-0.09775788,0.07237403,0.,0.34079950,-0.00585616,0.,0.0062237
 4,-0.08743907,0.,0.04104060,-0.14889228,0.,-0.02879694,0.56357720,0.,0
 .00815003,0.,0.,0.02079648,0.,0.,-0.04825674,0.,0.,0.05663260,-0.01953
 829,0.,0.01237631,0.01260168,0.,-0.01063893,0.02680210,0.,-0.04519196,
 0.23734495,0.,0.47375481,0.01089173,0.,-0.01010938,0.02535342,0.,0.033
 69465,0.03436792,0.,-0.01063934,-0.32138969,0.,-0.25721044,0.25077661,
 0.,-0.00774362,0.,0.,-0.01066589,0.,0.,0.03141226,0.,0.,-0.03732236,0.
 ,0.,0.02431961,0.00702035,0.,-0.00908384,-0.00376038,0.,0.00445614,0.0
 0828787,0.,-0.17746238,-0.25581235,0.,-0.43030023,0.24426451,0.,0.6123
 9032\\-0.00041365,0.,0.00017308,0.00135349,0.,-0.00145986,0.00242348,0
 .,-0.00411043,-0.00448451,0.,0.00054823,0.00112120,0.,0.00484897\\\@


      THE ONE-EYED VIEW OF OUR UNIVERSE SAYS YOU MUST NOT LOOK
      FAR AFIELD FOR PROBLEMS.  SUCH PROBLEMS MAY NEVER ARRIVE. 
      INSTEAD, TEND TO THE WOLF WITHIN YOUR FENCES.
      THE PACKS RANGING OUTSIDE MAY NOT EVEN EXIST.

                              -- THE AZHAR BOOK SHAMRA I:4
                                 CHILDREN OF DUNE, BY FRANK HERBERT
 Job cpu time:       0 days  1 hours 59 minutes 37.0 seconds.
 Elapsed time:       0 days  0 hours  4 minutes 19.4 seconds.
 File lengths (MBytes):  RWF=   7239 Int=      0 D2E=      0 Chk=      8 Scr=      1
 Normal termination of Gaussian 16 at Sun Mar  6 19:12:25 2022.
