title                                                                   
Freq      RMP2-FC                                                     Aug-CC-pVTZ         
Number of atoms                            I                5
Info1-9                                    I   N=           9
          33          24           0           0           0         100
           6           2           1
Full Title                                 C   N=           1
title       
Route                                      C   N=           4
#p freq mp2/aug-cc-pvtz density=current         
Charge                                     I                0
Multiplicity                               I                1
Number of electrons                        I               32
Number of alpha electrons                  I               16
Number of beta electrons                   I               16
Number of basis functions                  I              207
Number of independent functions            I              207
Number of point charges in /Mol/           I                0
Number of translation vectors              I                0
Atomic numbers                             I   N=           5
           1           8           8           7           8
Nuclear charges                            R   N=           5
  1.00000000E+00  8.00000000E+00  8.00000000E+00  7.00000000E+00  8.00000000E+00
Current cartesian coordinates              R   N=          15
  2.07824210E+00 -1.14696870E+00  0.00000000E+00  2.48003404E+00  6.71258399E-01
  0.00000000E+00 -1.05811631E-16  1.72890219E+00  0.00000000E+00 -1.88481232E+00
 -7.64065972E-02  0.00000000E+00 -1.09060352E+00 -2.18993373E+00  0.00000000E+00
Number of symbols in /Mol/                 I                0
Force Field                                I                0
Atom Types                                 C   N=           5
                                                            
Int Atom Types                             I   N=           5
           0           0           0           0           0
MM charges                                 R   N=           5
  0.00000000E+00  0.00000000E+00  0.00000000E+00  0.00000000E+00  0.00000000E+00
Integer atomic weights                     I   N=           5
           1          16          16          14          16
Real atomic weights                        R   N=           5
  1.00782504E+00  1.59949146E+01  1.59949146E+01  1.40030740E+01  1.59949146E+01
Atom fragment info                         I   N=           5
           0           0           0           0           0
Atom residue num                           I   N=           5
           0           0           0           0           0
Nuclear spins                              I   N=           5
           1           0           0           2           0
Nuclear ZEff                               R   N=           5
 -1.00000000E+00 -5.60000000E+00 -5.60000000E+00 -4.55000000E+00 -5.60000000E+00
Nuclear ZNuc                               R   N=           5
  1.00000000E+00  8.00000000E+00  8.00000000E+00  7.00000000E+00  8.00000000E+00
Nuclear QMom                               R   N=           5
  0.00000000E+00  0.00000000E+00  0.00000000E+00  2.04400000E+00  0.00000000E+00
Nuclear GFac                               R   N=           5
  2.79284600E+00  0.00000000E+00  0.00000000E+00  4.03761000E-01  0.00000000E+00
MicOpt                                     I   N=           5
          -1          -1          -1          -1          -1
Number of residues                         I                0
Number of secondary structures             I                0
SymInf integers                            I   N=          26
           1           2           1           1           1           1
           1          -1           0           0           0           0
           0           0           0           0           0           0
           0           0           0           0           0           0
           0           0
RotTr to input orientation                 R   N=          12
 -9.76443225E-01  0.00000000E+00  2.15774484E-01  2.15774484E-01  0.00000000E+00
  9.76443225E-01  0.00000000E+00  1.00000000E+00  0.00000000E+00  2.27677200E+00
  0.00000000E+00  6.71518199E-01
Number of contracted shells                I               65
Number of primitive shells                 I              119
Pure/Cartesian d shells                    I                0
Pure/Cartesian f shells                    I                0
Highest angular momentum                   I                3
Largest degree of contraction              I                7
Shell types                                I   N=          65
           0           0           0           0           1           1
           1          -2          -2           0           0           0
           0           0           1           1           1           1
          -2          -2          -2          -3          -3           0
           0           0           0           0           1           1
           1           1          -2          -2          -2          -3
          -3           0           0           0           0           0
           1           1           1           1          -2          -2
          -2          -3          -3           0           0           0
           0           0           1           1           1           1
          -2          -2          -2          -3          -3
Number of primitives per shell             I   N=          65
           3           1           1           1           1           1
           1           1           1           7           6           1
           1           1           3           1           1           1
           1           1           1           1           1           7
           6           1           1           1           3           1
           1           1           1           1           1           1
           1           7           6           1           1           1
           3           1           1           1           1           1
           1           1           1           7           6           1
           1           1           3           1           1           1
           1           1           1           1           1
Shell to atom map                          I   N=          65
           1           1           1           1           1           1
           1           1           1           2           2           2
           2           2           2           2           2           2
           2           2           2           2           2           3
           3           3           3           3           3           3
           3           3           3           3           3           3
           3           4           4           4           4           4
           4           4           4           4           4           4
           4           4           4           5           5           5
           5           5           5           5           5           5
           5           5           5           5           5
Primitive exponents                        R   N=         119
  3.38700000E+01  5.09500000E+00  1.15900000E+00  3.25800000E-01  1.02700000E-01
  2.52600000E-02  1.40700000E+00  3.88000000E-01  1.02000000E-01  1.05700000E+00
  2.47000000E-01  1.53300000E+04  2.29900000E+03  5.22400000E+02  1.47300000E+02
  4.75500000E+01  1.67600000E+01  6.20700000E+00  5.22400000E+02  1.47300000E+02
  4.75500000E+01  1.67600000E+01  6.20700000E+00  6.88200000E-01  1.75200000E+00
  2.38400000E-01  7.37600000E-02  3.44600000E+01  7.74900000E+00  2.28000000E+00
  7.15600000E-01  2.14000000E-01  5.97400000E-02  2.31400000E+00  6.45000000E-01
  2.14000000E-01  1.42800000E+00  5.00000000E-01  1.53300000E+04  2.29900000E+03
  5.22400000E+02  1.47300000E+02  4.75500000E+01  1.67600000E+01  6.20700000E+00
  5.22400000E+02  1.47300000E+02  4.75500000E+01  1.67600000E+01  6.20700000E+00
  6.88200000E-01  1.75200000E+00  2.38400000E-01  7.37600000E-02  3.44600000E+01
  7.74900000E+00  2.28000000E+00  7.15600000E-01  2.14000000E-01  5.97400000E-02
  2.31400000E+00  6.45000000E-01  2.14000000E-01  1.42800000E+00  5.00000000E-01
  1.14200000E+04  1.71200000E+03  3.89300000E+02  1.10000000E+02  3.55700000E+01
  1.25400000E+01  4.64400000E+00  3.89300000E+02  1.10000000E+02  3.55700000E+01
  1.25400000E+01  4.64400000E+00  5.11800000E-01  1.29300000E+00  1.78700000E-01
  5.76000000E-02  2.66300000E+01  5.94800000E+00  1.74200000E+00  5.55000000E-01
  1.72500000E-01  4.91000000E-02  1.65400000E+00  4.69000000E-01  1.51000000E-01
  1.09300000E+00  3.64000000E-01  1.53300000E+04  2.29900000E+03  5.22400000E+02
  1.47300000E+02  4.75500000E+01  1.67600000E+01  6.20700000E+00  5.22400000E+02
  1.47300000E+02  4.75500000E+01  1.67600000E+01  6.20700000E+00  6.88200000E-01
  1.75200000E+00  2.38400000E-01  7.37600000E-02  3.44600000E+01  7.74900000E+00
  2.28000000E+00  7.15600000E-01  2.14000000E-01  5.97400000E-02  2.31400000E+00
  6.45000000E-01  2.14000000E-01  1.42800000E+00  5.00000000E-01
Contraction coefficients                   R   N=         119
  2.54948632E-02  1.90362766E-01  8.52162022E-01  1.00000000E+00  1.00000000E+00
  1.00000000E+00  1.00000000E+00  1.00000000E+00  1.00000000E+00  1.00000000E+00
  1.00000000E+00  5.19808943E-04  4.02025621E-03  2.07128267E-02  8.10105536E-02
  2.35962985E-01  4.42653446E-01  3.57064423E-01 -4.42115008E-05 -1.22591041E-03
 -1.05517725E-02 -6.74452633E-02 -1.71198607E-01  1.07329856E+00  1.00000000E+00
  1.00000000E+00  1.00000000E+00  4.11634896E-02  2.57762836E-01  8.02419274E-01
  1.00000000E+00  1.00000000E+00  1.00000000E+00  1.00000000E+00  1.00000000E+00
  1.00000000E+00  1.00000000E+00  1.00000000E+00  5.19808943E-04  4.02025621E-03
  2.07128267E-02  8.10105536E-02  2.35962985E-01  4.42653446E-01  3.57064423E-01
 -4.42115008E-05 -1.22591041E-03 -1.05517725E-02 -6.74452633E-02 -1.71198607E-01
  1.07329856E+00  1.00000000E+00  1.00000000E+00  1.00000000E+00  4.11634896E-02
  2.57762836E-01  8.02419274E-01  1.00000000E+00  1.00000000E+00  1.00000000E+00
  1.00000000E+00  1.00000000E+00  1.00000000E+00  1.00000000E+00  1.00000000E+00
  5.34563860E-04  4.13435660E-03  2.12335358E-02  8.25006224E-02  2.38138871E-01
  4.42551547E-01  3.53757422E-01 -4.89867350E-05 -1.19527323E-03 -1.03490714E-02
 -6.48680190E-02 -1.71552477E-01  1.07289568E+00  1.00000000E+00  1.00000000E+00
  1.00000000E+00  3.98072123E-02  2.49002660E-01  8.10479727E-01  1.00000000E+00
  1.00000000E+00  1.00000000E+00  1.00000000E+00  1.00000000E+00  1.00000000E+00
  1.00000000E+00  1.00000000E+00  5.19808943E-04  4.02025621E-03  2.07128267E-02
  8.10105536E-02  2.35962985E-01  4.42653446E-01  3.57064423E-01 -4.42115008E-05
 -1.22591041E-03 -1.05517725E-02 -6.74452633E-02 -1.71198607E-01  1.07329856E+00
  1.00000000E+00  1.00000000E+00  1.00000000E+00  4.11634896E-02  2.57762836E-01
  8.02419274E-01  1.00000000E+00  1.00000000E+00  1.00000000E+00  1.00000000E+00
  1.00000000E+00  1.00000000E+00  1.00000000E+00  1.00000000E+00
Coordinates of each shell                  R   N=         195
  2.07824210E+00 -1.14696870E+00  0.00000000E+00  2.07824210E+00 -1.14696870E+00
  0.00000000E+00  2.07824210E+00 -1.14696870E+00  0.00000000E+00  2.07824210E+00
 -1.14696870E+00  0.00000000E+00  2.07824210E+00 -1.14696870E+00  0.00000000E+00
  2.07824210E+00 -1.14696870E+00  0.00000000E+00  2.07824210E+00 -1.14696870E+00
  0.00000000E+00  2.07824210E+00 -1.14696870E+00  0.00000000E+00  2.07824210E+00
 -1.14696870E+00  0.00000000E+00  2.48003404E+00  6.71258399E-01  0.00000000E+00
  2.48003404E+00  6.71258399E-01  0.00000000E+00  2.48003404E+00  6.71258399E-01
  0.00000000E+00  2.48003404E+00  6.71258399E-01  0.00000000E+00  2.48003404E+00
  6.71258399E-01  0.00000000E+00  2.48003404E+00  6.71258399E-01  0.00000000E+00
  2.48003404E+00  6.71258399E-01  0.00000000E+00  2.48003404E+00  6.71258399E-01
  0.00000000E+00  2.48003404E+00  6.71258399E-01  0.00000000E+00  2.48003404E+00
  6.71258399E-01  0.00000000E+00  2.48003404E+00  6.71258399E-01  0.00000000E+00
  2.48003404E+00  6.71258399E-01  0.00000000E+00  2.48003404E+00  6.71258399E-01
  0.00000000E+00  2.48003404E+00  6.71258399E-01  0.00000000E+00  2.60714078E-17
  1.72890219E+00  0.00000000E+00  2.60714078E-17  1.72890219E+00  0.00000000E+00
  2.60714078E-17  1.72890219E+00  0.00000000E+00  2.60714078E-17  1.72890219E+00
  0.00000000E+00  2.60714078E-17  1.72890219E+00  0.00000000E+00  2.60714078E-17
  1.72890219E+00  0.00000000E+00  2.60714078E-17  1.72890219E+00  0.00000000E+00
  2.60714078E-17  1.72890219E+00  0.00000000E+00  2.60714078E-17  1.72890219E+00
  0.00000000E+00  2.60714078E-17  1.72890219E+00  0.00000000E+00  2.60714078E-17
  1.72890219E+00  0.00000000E+00  2.60714078E-17  1.72890219E+00  0.00000000E+00
  2.60714078E-17  1.72890219E+00  0.00000000E+00  2.60714078E-17  1.72890219E+00
  0.00000000E+00 -1.88481232E+00 -7.64065972E-02  0.00000000E+00 -1.88481232E+00
 -7.64065972E-02  0.00000000E+00 -1.88481232E+00 -7.64065972E-02  0.00000000E+00
 -1.88481232E+00 -7.64065972E-02  0.00000000E+00 -1.88481232E+00 -7.64065972E-02
  0.00000000E+00 -1.88481232E+00 -7.64065972E-02  0.00000000E+00 -1.88481232E+00
 -7.64065972E-02  0.00000000E+00 -1.88481232E+00 -7.64065972E-02  0.00000000E+00
 -1.88481232E+00 -7.64065972E-02  0.00000000E+00 -1.88481232E+00 -7.64065972E-02
  0.00000000E+00 -1.88481232E+00 -7.64065972E-02  0.00000000E+00 -1.88481232E+00
 -7.64065972E-02  0.00000000E+00 -1.88481232E+00 -7.64065972E-02  0.00000000E+00
 -1.88481232E+00 -7.64065972E-02  0.00000000E+00 -1.09060352E+00 -2.18993373E+00
  0.00000000E+00 -1.09060352E+00 -2.18993373E+00  0.00000000E+00 -1.09060352E+00
 -2.18993373E+00  0.00000000E+00 -1.09060352E+00 -2.18993373E+00  0.00000000E+00
 -1.09060352E+00 -2.18993373E+00  0.00000000E+00 -1.09060352E+00 -2.18993373E+00
  0.00000000E+00 -1.09060352E+00 -2.18993373E+00  0.00000000E+00 -1.09060352E+00
 -2.18993373E+00  0.00000000E+00 -1.09060352E+00 -2.18993373E+00  0.00000000E+00
 -1.09060352E+00 -2.18993373E+00  0.00000000E+00 -1.09060352E+00 -2.18993373E+00
  0.00000000E+00 -1.09060352E+00 -2.18993373E+00  0.00000000E+00 -1.09060352E+00
 -2.18993373E+00  0.00000000E+00 -1.09060352E+00 -2.18993373E+00  0.00000000E+00
Num ILSW                                   I              100
ILSW                                       I   N=         100
           0           0           0           0           2           0
           0           0           0           0           0          -1
           5           0           0           0           2           0
           0           0           0           0           1           0
           1           0           0           0           0           0
           0           0      100000           0          -1           0
           0           0           0           0           0           0
           0           0           0           1           1           0
           0 -2000000000           1           0           0           0
           0           0           4          52           0           0
           0           0           0           0           0           0
           0           0           0           5           4           1
           0           0           0           0           0           0
           0           0           0           0           0           0
           0           0           0           0           0           0
           0           0           0           0           0           0
           0           0           0           0
Num RLSW                                   I               52
RLSW                                       R   N=          52
  1.00000000E+00  1.00000000E+00  1.00000000E+00  1.00000000E+00  1.00000000E+00
  0.00000000E+00  0.00000000E+00  1.00000000E+00  0.00000000E+00  0.00000000E+00
  0.00000000E+00  0.00000000E+00  1.00000000E+00  0.00000000E+00  0.00000000E+00
  0.00000000E+00  0.00000000E+00  1.00000000E+00  0.00000000E+00  0.00000000E+00
  0.00000000E+00  0.00000000E+00  1.00000000E+00  0.00000000E+00  0.00000000E+00
  0.00000000E+00  0.00000000E+00  1.00000000E+00  0.00000000E+00  0.00000000E+00
  0.00000000E+00  0.00000000E+00  1.00000000E+00  0.00000000E+00  0.00000000E+00
  0.00000000E+00  0.00000000E+00  0.00000000E+00  1.00000000E+00  1.00000000E+00
  0.00000000E+00  1.00000000E+00  0.00000000E+00  0.00000000E+00  0.00000000E+00
  0.00000000E+00  0.00000000E+00  0.00000000E+00  0.00000000E+00  0.00000000E+00
  0.00000000E+00  0.00000000E+00
MxBond                                     I                2
NBond                                      I   N=           5
           1           2           2           2           1
IBond                                      I   N=          10
           2           0           1           3           2           4
           3           5           4           0
RBond                                      R   N=          10
  1.00000000E+00  0.00000000E+00  1.00000000E+00  1.00000000E+00  1.00000000E+00
  1.00000000E+00  1.00000000E+00  2.00000000E+00  2.00000000E+00  0.00000000E+00
Virial Ratio                               R      2.002191452290149E+00
SCF Energy                                 R     -2.795062237822611E+02
MP2 Energy                                 R     -2.804551036139596E+02
Total Energy                               R     -2.804551036139596E+02
Post-SCF wavefunction norm                 R      1.583669522273359E+00
RMS Force                                  R      2.569480544333901E-03
RMS Density                                R      4.535308360399519E-09
NImag                                      I                0
Job Status                                 I                1
Nuclear derivative order                   I                2
External E-field                           R   N=          35
  0.00000000E+00  0.00000000E+00  0.00000000E+00  0.00000000E+00  0.00000000E+00
  0.00000000E+00  0.00000000E+00  0.00000000E+00  0.00000000E+00  0.00000000E+00
  0.00000000E+00  0.00000000E+00  0.00000000E+00  0.00000000E+00  0.00000000E+00
  0.00000000E+00  0.00000000E+00  0.00000000E+00  0.00000000E+00  0.00000000E+00
  0.00000000E+00  0.00000000E+00  0.00000000E+00  0.00000000E+00  0.00000000E+00
  0.00000000E+00  0.00000000E+00  0.00000000E+00  0.00000000E+00  0.00000000E+00
  0.00000000E+00  0.00000000E+00  0.00000000E+00  0.00000000E+00  0.00000000E+00
IOpCl                                      I                0
IROHF                                      I                0
Alpha Orbital Energies                     R   N=         207
 -2.07186106E+01 -2.06866650E+01 -2.06674991E+01 -1.58267706E+01 -1.64578569E+00
 -1.50350178E+00 -1.29327393E+00 -9.59980084E-01 -8.36280393E-01 -7.59169836E-01
 -7.40187190E-01 -6.35690145E-01 -6.17678996E-01 -6.17588013E-01 -5.06669908E-01
 -4.96859564E-01  3.51671918E-02  5.95749205E-02  9.51199704E-02  1.00193527E-01
  1.19686865E-01  1.22537451E-01  1.49673977E-01  1.52251411E-01  1.77350582E-01
  1.80309690E-01  1.90009204E-01  2.10912034E-01  2.16666365E-01  2.42429444E-01
  2.46358191E-01  2.69823476E-01  3.14130840E-01  3.18080859E-01  3.37882683E-01
  3.44418814E-01  3.47802624E-01  3.92512035E-01  4.51007914E-01  4.88700376E-01
  5.05690892E-01  5.17848038E-01  5.46169775E-01  5.60008999E-01  5.99064203E-01
  6.19454643E-01  6.37859766E-01  6.89929624E-01  7.16706126E-01  7.24612026E-01
  7.47349263E-01  7.62363887E-01  7.66970837E-01  7.95850045E-01  8.08257914E-01
  8.39363135E-01  8.43172506E-01  8.52477568E-01  8.85788192E-01  9.08927239E-01
  9.34267107E-01  9.46567599E-01  9.53705319E-01  1.01883145E+00  1.03287398E+00
  1.06674482E+00  1.07123231E+00  1.09748499E+00  1.14694162E+00  1.15709375E+00
  1.16725781E+00  1.22421327E+00  1.22790925E+00  1.24580967E+00  1.35624859E+00
  1.35679141E+00  1.37364386E+00  1.46727489E+00  1.48703024E+00  1.50291359E+00
  1.54343537E+00  1.59790192E+00  1.60323139E+00  1.60657229E+00  1.62953434E+00
  1.69603120E+00  1.74124555E+00  1.80064744E+00  1.83126697E+00  1.88921791E+00
  1.89446938E+00  1.93059791E+00  1.97822032E+00  1.99023972E+00  2.05449897E+00
  2.12733899E+00  2.13072073E+00  2.16719461E+00  2.18948019E+00  2.24541612E+00
  2.25943371E+00  2.29383517E+00  2.35259833E+00  2.37142259E+00  2.38553161E+00
  2.40330478E+00  2.43328624E+00  2.46907574E+00  2.47919741E+00  2.53243239E+00
  2.53919545E+00  2.55401359E+00  2.56065669E+00  2.62058750E+00  2.63175141E+00
  2.67636428E+00  2.67938176E+00  2.75354778E+00  2.81073667E+00  2.82433229E+00
  2.83831109E+00  2.91950948E+00  2.99614966E+00  3.04539320E+00  3.04787921E+00
  3.11289227E+00  3.12008680E+00  3.17770593E+00  3.21381206E+00  3.31174929E+00
  3.33000552E+00  3.36282977E+00  3.47390403E+00  3.67919125E+00  3.87024927E+00
  3.93703534E+00  4.18863992E+00  4.23014251E+00  4.23281499E+00  4.27117307E+00
  4.37454618E+00  4.49884441E+00  4.54702879E+00  4.55286933E+00  4.59861805E+00
  4.69599738E+00  4.81169665E+00  4.89300480E+00  4.91606831E+00  4.93837974E+00
  5.00268158E+00  5.00651455E+00  5.10590341E+00  5.13248460E+00  5.18345952E+00
  5.25331940E+00  5.26217748E+00  5.32085643E+00  5.34950074E+00  5.36718444E+00
  5.55205923E+00  5.64668778E+00  5.71178177E+00  5.89402834E+00  5.99238225E+00
  6.26569529E+00  6.29554073E+00  6.36327455E+00  6.37760915E+00  6.59786669E+00
  6.66092739E+00  6.67051744E+00  6.69653192E+00  6.72959902E+00  6.78507960E+00
  6.80195605E+00  6.86768113E+00  6.96618330E+00  7.02163786E+00  7.06634613E+00
  7.07997528E+00  7.13574722E+00  7.17449472E+00  7.19062013E+00  7.20450675E+00
  7.24765163E+00  7.25069868E+00  7.27328242E+00  7.35033198E+00  7.39174137E+00
  7.43384496E+00  7.44234016E+00  7.46471059E+00  7.56104076E+00  7.66351225E+00
  7.68510468E+00  7.79575750E+00  7.88429985E+00  7.95375643E+00  8.07734271E+00
  8.31046864E+00  8.49801294E+00  8.65262708E+00  1.36247076E+01  1.47634077E+01
  1.51117564E+01  1.58052115E+01
Alpha MO coefficients                      R   N=       42849
  6.29973921E-05  1.04501252E-05 -1.11494316E-03  1.62816076E-05 -5.08963044E-05
  4.17663054E-05  0.00000000E+00 -9.68703159E-05 -2.73187705E-04  0.00000000E+00
 -3.89612075E-06 -3.53550663E-04  0.00000000E+00  4.11532068E-05  0.00000000E+00
  0.00000000E+00 -2.50988022E-05  1.14732722E-05  2.32194438E-04  0.00000000E+00
  0.00000000E+00 -4.39246099E-05 -2.15367279E-04  3.09928768E-03 -9.58072816E-05
 -9.70305156E-05  3.49833358E-03  2.48061714E-03  1.01207432E-04 -5.43757922E-05
  0.00000000E+00 -7.21330424E-04  2.93848035E-04  0.00000000E+00 -1.94356665E-03
  1.13469796E-03  0.00000000E+00 -5.38867471E-04  3.89238852E-05  0.00000000E+00
  2.03931131E-05  0.00000000E+00  0.00000000E+00 -8.46400774E-06  4.41418487E-05
 -4.41024364E-04  0.00000000E+00  0.00000000E+00  4.20188909E-04 -6.67828465E-04
 -3.61863001E-04  0.00000000E+00  0.00000000E+00  5.32342123E-04 -7.52668690E-04
  0.00000000E+00  7.30819490E-05 -5.32408750E-05  0.00000000E+00  0.00000000E+00
 -2.60139759E-05  1.09072512E-04  0.00000000E+00  2.08143898E-04 -5.03509051E-05
  0.00000000E+00  0.00000000E+00 -1.64273616E-04  3.01786260E-04  9.76900712E-01
 -9.17671810E-03  4.34111545E-02  4.80178201E-04 -2.20522811E-03  4.29511881E-04
 -2.15099411E-03  0.00000000E+00 -3.00731553E-04  2.25629649E-03  0.00000000E+00
 -2.29109655E-03 -4.81426715E-04  0.00000000E+00 -2.21794681E-04  9.69849709E-05
  0.00000000E+00  6.45695220E-06  0.00000000E+00  0.00000000E+00 -5.46375811E-06
  3.81217712E-05  8.25955819E-04  0.00000000E+00  0.00000000E+00 -4.76956908E-04
 -1.64393833E-04 -1.45726782E-04  0.00000000E+00  0.00000000E+00 -5.55031783E-04
  3.53806933E-04  0.00000000E+00 -6.67003266E-06 -8.00084440E-05  0.00000000E+00
  0.00000000E+00 -8.52336729E-06  4.74932424E-05  0.00000000E+00  9.06972756E-05
  2.83811680E-06  0.00000000E+00  0.00000000E+00 -3.27049300E-04  3.86054100E-04
  1.04532687E-04  4.57261113E-04 -3.24447975E-04 -8.40336790E-04  3.41891953E-04
 -4.61906753E-05 -9.92353353E-05  0.00000000E+00  7.03464686E-04  1.10433928E-03
  0.00000000E+00 -7.19728459E-04 -5.73171957E-04  0.00000000E+00  2.00168416E-04
  2.15763638E-04  0.00000000E+00 -5.26458068E-05  0.00000000E+00  0.00000000E+00
  1.83722223E-05  9.40940122E-05 -4.16608125E-04  0.00000000E+00  0.00000000E+00
  6.08255326E-05  1.07197134E-03  2.63506048E-05  0.00000000E+00  0.00000000E+00
 -2.92161947E-04  3.48246273E-05  0.00000000E+00 -7.97253844E-05 -1.12167570E-04
  0.00000000E+00  0.00000000E+00 -9.52228456E-05  1.07064542E-04  0.00000000E+00
 -1.29060495E-04  4.28808574E-05  0.00000000E+00  0.00000000E+00  1.88117816E-05
  5.11593463E-04 -7.29616625E-04  6.52413238E-05 -6.79523408E-05  2.67007829E-04
 -1.80320349E-04 -2.73553279E-05 -3.94099520E-05  0.00000000E+00  1.60131349E-04
  2.55571626E-04  0.00000000E+00  4.74216288E-04  3.06754541E-04  0.00000000E+00
 -2.32287295E-04 -6.14729127E-05  0.00000000E+00 -1.40703370E-05  0.00000000E+00
  0.00000000E+00  1.81086883E-06  1.79524108E-05  5.25480499E-06  0.00000000E+00
  0.00000000E+00 -1.54432206E-04 -1.08161049E-05 -9.92267421E-06  0.00000000E+00
  0.00000000E+00 -1.65317585E-04 -7.41429440E-05  0.00000000E+00 -5.11164127E-06
 -6.87304995E-06  0.00000000E+00  0.00000000E+00 -1.96769984E-05  1.09840356E-05
  0.00000000E+00  3.93518278E-05  6.33624734E-05  0.00000000E+00  0.00000000E+00
  1.68044453E-04 -1.01493313E-04  3.68193841E-05  7.14632508E-05 -8.46169626E-05
 -2.93996190E-05  2.52688866E-05  1.67057766E-05  0.00000000E+00  2.21299423E-04
  3.55904028E-05  0.00000000E+00  1.10811792E-04  1.29829568E-05  0.00000000E+00
  9.35545481E-06  0.00000000E+00  0.00000000E+00 -6.17783221E-06  2.13540401E-05
  1.63061262E-05  0.00000000E+00  0.00000000E+00 -7.78278109E-05  7.47991312E-05
 -2.69258037E-04  3.69659944E-05 -1.46949147E-05 -5.36398908E-04  1.53442709E-04
  7.09359895E-06  1.33309316E-05  0.00000000E+00 -2.89290961E-06 -4.55276907E-05
  0.00000000E+00  1.79544579E-04  1.49677259E-04  0.00000000E+00 -4.15256610E-05
  5.27499698E-05  0.00000000E+00 -2.60588953E-06  0.00000000E+00  0.00000000E+00
 -7.83745487E-06 -1.01340334E-05  2.70942049E-05  0.00000000E+00  0.00000000E+00
  4.98421362E-05  1.06677080E-04  6.74902108E-05  0.00000000E+00  0.00000000E+00
 -3.08351061E-05 -8.30611105E-05  0.00000000E+00  7.41603007E-06  9.59152815E-06
  0.00000000E+00  0.00000000E+00 -5.77847006E-07 -2.72991790E-05  0.00000000E+00
 -1.61087484E-05 -4.06143403E-05  0.00000000E+00  0.00000000E+00 -1.22252414E-06
 -1.65985405E-05  7.60832854E-04  2.47989422E-05 -1.41690033E-05  2.82796959E-04
 -4.08458485E-04  1.53116357E-05  2.39748424E-05  0.00000000E+00 -6.12976080E-05
 -1.42023954E-04  0.00000000E+00  1.24186296E-04 -1.85159061E-04  0.00000000E+00
 -1.59371871E-04  1.41397467E-04  0.00000000E+00 -4.25531508E-06  0.00000000E+00
  0.00000000E+00 -3.16045978E-05 -8.67996501E-06 -4.67397036E-05  0.00000000E+00
  0.00000000E+00  9.56331378E-05  1.11719036E-04 -6.18043247E-05  0.00000000E+00
  0.00000000E+00  4.73963843E-05  3.26058040E-05  0.00000000E+00  1.91656546E-06
  7.56053656E-07  0.00000000E+00  0.00000000E+00 -9.91125613E-06 -4.13119403E-06
  0.00000000E+00  4.91125379E-06 -2.35481560E-05  0.00000000E+00  0.00000000E+00
  8.70328853E-05 -1.60973732E-04  2.36449905E-04  1.35082916E-03 -1.49352401E-04
 -7.18534693E-04  9.09356372E-04  6.25146912E-05 -7.22388936E-05  0.00000000E+00
  5.97727929E-04 -2.05897027E-03  0.00000000E+00  1.05970617E-04  4.83394162E-04
  0.00000000E+00  1.94022344E-04 -2.99744128E-04  0.00000000E+00 -1.27157136E-04
  0.00000000E+00  0.00000000E+00 -2.01031639E-04 -1.63504447E-04 -4.63028710E-04
  0.00000000E+00  0.00000000E+00 -5.69944335E-04 -9.23266593E-04 -4.31305206E-05
  0.00000000E+00  0.00000000E+00  6.53803074E-05  1.18220411E-04  0.00000000E+00
  7.28334748E-06  3.51881248E-05  0.00000000E+00  0.00000000E+00 -2.38764339E-05
 -4.70944745E-06  0.00000000E+00 -1.39411334E-04  1.60371200E-04  0.00000000E+00
  0.00000000E+00 -3.06246510E-04 -3.62733771E-05  9.76642686E-01 -9.88143099E-03
  4.35812905E-02  3.69276877E-03 -8.97336603E-04 -4.84079780E-04  2.11907482E-03
  0.00000000E+00  5.57528315E-04 -2.48806654E-03  0.00000000E+00 -9.89289706E-05
  8.34577497E-04  0.00000000E+00  1.00132430E-04 -6.42569942E-05  0.00000000E+00
 -1.94826484E-04  0.00000000E+00  0.00000000E+00 -7.28619686E-05 -4.33184524E-05
  4.08025355E-04  0.00000000E+00  0.00000000E+00  8.35849828E-04  5.08239110E-04
 -2.05652691E-04  0.00000000E+00  0.00000000E+00 -1.54965097E-04 -4.11193735E-05
  0.00000000E+00 -6.08070267E-06  7.00539471E-05  0.00000000E+00  0.00000000E+00
 -2.79152311E-05  9.56939674E-06  0.00000000E+00 -8.92543171E-05  8.99436573E-05
  0.00000000E+00  0.00000000E+00 -1.75947706E-04  1.93123719E-04  3.70256428E-04
  2.01671465E-03  1.42338842E-03 -1.52842535E-05  5.40202110E-05  2.67867351E-04
  0.00000000E+00  3.60019092E-04  1.02078891E-03  0.00000000E+00 -1.40915642E-04
  2.34127772E-04  0.00000000E+00 -2.48164784E-05  0.00000000E+00  0.00000000E+00
  3.41129768E-05 -3.06578312E-05 -2.19070467E-04  0.00000000E+00  0.00000000E+00
 -3.46040252E-04  4.12306270E-04  9.76833561E-01 -9.18793017E-03  4.34671906E-02
  1.10076868E-04 -1.91028216E-03 -2.04837249E-03 -8.17921651E-04  0.00000000E+00
  2.09024177E-03  7.55685665E-04  0.00000000E+00 -3.78271465E-04  6.37922966E-04
  0.00000000E+00  2.23059361E-04 -3.01749311E-04  0.00000000E+00  3.01190313E-05
  0.00000000E+00  0.00000000E+00 -7.49596609E-05  6.50007208E-05  7.66315642E-04
  0.00000000E+00  0.00000000E+00 -2.08280343E-04  3.53815371E-04 -2.40722848E-04
  0.00000000E+00  0.00000000E+00  3.26564685E-04 -4.48302475E-07  0.00000000E+00
 -8.11039087E-05  1.58710984E-06  0.00000000E+00  0.00000000E+00  1.49679856E-05