 Entering Gaussian System, Link 0=g16
 Input=hoono_r4_1p182894.gjf
 Output=hoono_r4_1p182894.log
 Initial command:
 /sw/contrib/gaussian/g16/B01/g16/l1.exe "/scr/Gau-25808.inp" -scrdir="/scr/"
 Entering Link 1 = /sw/contrib/gaussian/g16/B01/g16/l1.exe PID=     25809.
  
 Copyright (c) 1988-2017, Gaussian, Inc.  All Rights Reserved.
  
 This is part of the Gaussian(R) 16 program.  It is based on
 the Gaussian(R) 09 system (copyright 2009, Gaussian, Inc.),
 the Gaussian(R) 03 system (copyright 2003, Gaussian, Inc.),
 the Gaussian(R) 98 system (copyright 1998, Gaussian, Inc.),
 the Gaussian(R) 94 system (copyright 1995, Gaussian, Inc.),
 the Gaussian 92(TM) system (copyright 1992, Gaussian, Inc.),
 the Gaussian 90(TM) system (copyright 1990, Gaussian, Inc.),
 the Gaussian 88(TM) system (copyright 1988, Gaussian, Inc.),
 the Gaussian 86(TM) system (copyright 1986, Carnegie Mellon
 University), and the Gaussian 82(TM) system (copyright 1983,
 Carnegie Mellon University). Gaussian is a federally registered
 trademark of Gaussian, Inc.
  
 This software contains proprietary and confidential information,
 including trade secrets, belonging to Gaussian, Inc.
  
 This software is provided under written license and may be
 used, copied, transmitted, or stored only in accord with that
 written license.
  
 The following legend is applicable only to US Government
 contracts under FAR:
  
                    RESTRICTED RIGHTS LEGEND
  
 Use, reproduction and disclosure by the US Government is
 subject to restrictions as set forth in subparagraphs (a)
 and (c) of the Commercial Computer Software - Restricted
 Rights clause in FAR 52.227-19.
  
 Gaussian, Inc.
 340 Quinnipiac St., Bldg. 40, Wallingford CT 06492
  
  
 ---------------------------------------------------------------
 Warning -- This program may not be used in any manner that
 competes with the business of Gaussian, Inc. or will provide
 assistance to any competitor of Gaussian, Inc.  The licensee
 of this program is prohibited from giving any competitor of
 Gaussian, Inc. access to this program.  By using this program,
 the user acknowledges that Gaussian, Inc. is engaged in the
 business of creating and licensing software in the field of
 computational chemistry and represents and warrants to the
 licensee that it is not a competitor of Gaussian, Inc. and that
 it will not use this program in any manner prohibited above.
 ---------------------------------------------------------------
  

 Cite this work as:
 Gaussian 16, Revision B.01,
 M. J. Frisch, G. W. Trucks, H. B. Schlegel, G. E. Scuseria, 
 M. A. Robb, J. R. Cheeseman, G. Scalmani, V. Barone, 
 G. A. Petersson, H. Nakatsuji, X. Li, M. Caricato, A. V. Marenich, 
 J. Bloino, B. G. Janesko, R. Gomperts, B. Mennucci, H. P. Hratchian, 
 J. V. Ortiz, A. F. Izmaylov, J. L. Sonnenberg, D. Williams-Young, 
 F. Ding, F. Lipparini, F. Egidi, J. Goings, B. Peng, A. Petrone, 
 T. Henderson, D. Ranasinghe, V. G. Zakrzewski, J. Gao, N. Rega, 
 G. Zheng, W. Liang, M. Hada, M. Ehara, K. Toyota, R. Fukuda, 
 J. Hasegawa, M. Ishida, T. Nakajima, Y. Honda, O. Kitao, H. Nakai, 
 T. Vreven, K. Throssell, J. A. Montgomery, Jr., J. E. Peralta, 
 F. Ogliaro, M. J. Bearpark, J. J. Heyd, E. N. Brothers, K. N. Kudin, 
 V. N. Staroverov, T. A. Keith, R. Kobayashi, J. Normand, 
 K. Raghavachari, A. P. Rendell, J. C. Burant, S. S. Iyengar, 
 J. Tomasi, M. Cossi, J. M. Millam, M. Klene, C. Adamo, R. Cammi, 
 J. W. Ochterski, R. L. Martin, K. Morokuma, O. Farkas, 
 J. B. Foresman, and D. J. Fox, Gaussian, Inc., Wallingford CT, 2016.
 
 ******************************************
 Gaussian 16:  ES64L-G16RevB.01 20-Dec-2017
                 6-Mar-2022 
 ******************************************
 %nproc=28
 Will use up to   28 processors via shared memory.
 %mem=120GB
 %chk=hoono_r4_1p182894.chk
 ---------------------------------------
 #p freq mp2/aug-cc-pvtz density=current
 ---------------------------------------
 1/10=4,30=1,38=1/1,3;
 2/12=2,17=6,18=5,40=1/2;
 3/5=16,6=1,7=10,11=9,25=1,30=1,71=2,140=1/1,2,3;
 4//1;
 5/5=2,38=5,98=1/2;
 8/6=3,8=1,10=1,19=11,30=-1/1;
 9/15=3,16=-3/6;
 11/6=1,8=1,15=11,17=12,24=-1,27=1,28=-2,29=300,32=6,42=3/1,2,10;
 10/6=2,21=1/2;
 8/6=4,8=1,10=1,19=11,30=-1/11,4;
 10/5=1,20=4/2;
 11/12=2,14=11,16=1,17=2,28=-2,42=3,76=2/2,10,12;
 6/7=2,8=2,9=2,10=2,22=-1/1;
 7/8=1,10=1,12=2,25=1,44=2/1,2,3,16;
 1/10=4,30=1/3;
 99//99;
 Leave Link    1 at Sun Mar  6 19:17:34 2022, MaxMem= 16106127360 cpu:               3.0 elap:               0.1
 (Enter /sw/contrib/gaussian/g16/B01/g16/l101.exe)
 -----
 title
 -----
 Symbolic Z-matrix:
 Charge =  0 Multiplicity = 1
 H
 O                    1    r1
 O                    2    r2       1    a1
 N                    3    r3       2    a2       1    d1       0
 O                    4    r4       3    a3       2    d2       0
       Variables:
  r1                    0.98538                  
  r2                    1.42674                  
  r3                    1.38111                  
  r4                    1.18289                  
  a1                  100.63551                  
  a2                  113.13777                  
  a3                  114.33392                  
  d1                    0.                       
  d2                    0.                       
 
 ITRead=  0  0  0  0  0
 MicOpt= -1 -1 -1 -1 -1
 NAtoms=      5 NQM=        5 NQMF=       0 NMMI=      0 NMMIF=      0
                NMic=       0 NMicF=      0.
                    Isotopes and Nuclear Properties:
 (Nuclear quadrupole moments (NQMom) in fm**2, nuclear magnetic moments (NMagM)
  in nuclear magnetons)

  Atom         1           2           3           4           5
 IAtWgt=           1          16          16          14          16
 AtmWgt=   1.0078250  15.9949146  15.9949146  14.0030740  15.9949146
 NucSpn=           1           0           0           2           0
 AtZEff=  -0.0000000  -0.0000000  -0.0000000  -0.0000000  -0.0000000
 NQMom=    0.0000000   0.0000000   0.0000000   2.0440000   0.0000000
 NMagM=    2.7928460   0.0000000   0.0000000   0.4037610   0.0000000
 AtZNuc=   1.0000000   8.0000000   8.0000000   7.0000000   8.0000000
 Leave Link  101 at Sun Mar  6 19:17:34 2022, MaxMem= 16106127360 cpu:               2.2 elap:               0.1
 (Enter /sw/contrib/gaussian/g16/B01/g16/l103.exe)

 GradGradGradGradGradGradGradGradGradGradGradGradGradGradGradGradGradGrad
 Berny optimization.
 Initialization pass.
                       ----------------------------
                       !    Initial Parameters    !
                       ! (Angstroms and Degrees)  !
 ----------------------                            ----------------------
 !      Name          Value   Derivative information (Atomic Units)     !
 ------------------------------------------------------------------------
 !       r1          0.9854   calculate D2E/DX2 analytically            !
 !       r2          1.4267   calculate D2E/DX2 analytically            !
 !       r3          1.3811   calculate D2E/DX2 analytically            !
 !       r4          1.1829   calculate D2E/DX2 analytically            !
 !       a1        100.6355   calculate D2E/DX2 analytically            !
 !       a2        113.1378   calculate D2E/DX2 analytically            !
 !       a3        114.3339   calculate D2E/DX2 analytically            !
 !       d1          0.0      calculate D2E/DX2 analytically            !
 !       d2          0.0      calculate D2E/DX2 analytically            !
 ------------------------------------------------------------------------
 Trust Radius=3.00D-01 FncErr=1.00D-07 GrdErr=1.00D-07 EigMax=2.50D+02 EigMin=1.00D-04
 Number of steps in this run=      2 maximum allowed number of steps=      2.
 GradGradGradGradGradGradGradGradGradGradGradGradGradGradGradGradGradGrad

 Leave Link  103 at Sun Mar  6 19:17:34 2022, MaxMem= 16106127360 cpu:               1.7 elap:               0.1
 (Enter /sw/contrib/gaussian/g16/B01/g16/l202.exe)
                          Input orientation:                          
 ---------------------------------------------------------------------
 Center     Atomic      Atomic             Coordinates (Angstroms)
 Number     Number       Type             X           Y           Z
 ---------------------------------------------------------------------
      1          1           0        0.000000    0.000000    0.000000
      2          8           0        0.000000    0.000000    0.985377
      3          8           0        1.402227    0.000000    1.248696
      4          7           0        2.169996    0.000000    0.100659
      5          8           0        1.545035    0.000000   -0.903664
 ---------------------------------------------------------------------
                    Distance matrix (angstroms):
                    1          2          3          4          5
     1  H    0.000000
     2  O    0.985377   0.000000
     3  O    1.877627   1.426737   0.000000
     4  N    2.172329   2.343418   1.381108   0.000000
     5  O    1.789900   2.440411   2.157092   1.182895   0.000000
 Stoichiometry    HNO3
 Framework group  CS[SG(HNO3)]
 Deg. of freedom     7
 Full point group                 CS      NOp   2
 Largest Abelian subgroup         CS      NOp   2
 Largest concise Abelian subgroup C1      NOp   1
                         Standard orientation:                         
 ---------------------------------------------------------------------
 Center     Atomic      Atomic             Coordinates (Angstroms)
 Number     Number       Type             X           Y           Z
 ---------------------------------------------------------------------
      1          1           0        1.110860   -0.599570   -0.000000
      2          8           0        1.316436    0.364124    0.000000
      3          8           0        0.000000    0.914191    0.000000
      4          7           0       -0.990386   -0.048407    0.000000
      5          8           0       -0.588706   -1.161013   -0.000000
 ---------------------------------------------------------------------
 Rotational constants (GHZ):          21.5470494           8.1243450           5.8998125
 Leave Link  202 at Sun Mar  6 19:17:34 2022, MaxMem= 16106127360 cpu:               0.2 elap:               0.0
 (Enter /sw/contrib/gaussian/g16/B01/g16/l301.exe)
 Standard basis: Aug-CC-pVTZ (5D, 7F)
 Ernie: Thresh=  0.10000D-02 Tol=  0.10000D-05 Strict=F.
 Ernie:  12 primitive shells out of 131 were deleted.
 There are   166 symmetry adapted cartesian basis functions of A'  symmetry.
 There are    79 symmetry adapted cartesian basis functions of A"  symmetry.
 There are   136 symmetry adapted basis functions of A'  symmetry.
 There are    71 symmetry adapted basis functions of A"  symmetry.
   207 basis functions,   315 primitive gaussians,   245 cartesian basis functions
    16 alpha electrons       16 beta electrons
       nuclear repulsion energy       123.0913505501 Hartrees.
 IExCor=    0 DFT=F Ex=HF Corr=None ExCW=0 ScaHFX=  1.000000
 ScaDFX=  1.000000  1.000000  1.000000  1.000000 ScalE2=  1.000000  1.000000
 IRadAn=      5 IRanWt=     -1 IRanGd=            0 ICorTp=0 IEmpDi=  4
 NAtoms=    5 NActive=    5 NUniq=    5 SFac= 1.00D+00 NAtFMM=   60 NAOKFM=F Big=F
 Integral buffers will be    131072 words long.
 Raffenetti 1 integral format.
 Two-electron integral symmetry is turned on.
 Leave Link  301 at Sun Mar  6 19:17:34 2022, MaxMem= 16106127360 cpu:               2.3 elap:               0.1
 (Enter /sw/contrib/gaussian/g16/B01/g16/l302.exe)
 NPDir=0 NMtPBC=     1 NCelOv=     1 NCel=       1 NClECP=     1 NCelD=      1
         NCelK=      1 NCelE2=     1 NClLst=     1 CellRange=     0.0.
 One-electron integrals computed using PRISM.
 One-electron integral symmetry used in STVInt
 NBasis=   207 RedAO= T EigKep=  1.29D-04  NBF=   136    71
 NBsUse=   207 1.00D-06 EigRej= -1.00D+00 NBFU=   136    71
 Leave Link  302 at Sun Mar  6 19:17:34 2022, MaxMem= 16106127360 cpu:               4.5 elap:               0.2
 (Enter /sw/contrib/gaussian/g16/B01/g16/l303.exe)
 DipDrv:  MaxL=1.
 Leave Link  303 at Sun Mar  6 19:17:34 2022, MaxMem= 16106127360 cpu:               0.9 elap:               0.1
 (Enter /sw/contrib/gaussian/g16/B01/g16/l401.exe)
 ExpMin= 2.53D-02 ExpMax= 1.53D+04 ExpMxC= 5.22D+02 IAcc=3 IRadAn=         5 AccDes= 0.00D+00
 Harris functional with IExCor=  205 and IRadAn=       5 diagonalized for initial guess.
 HarFok:  IExCor=  205 AccDes= 0.00D+00 IRadAn=         5 IDoV= 1 UseB2=F ITyADJ=14
 ICtDFT=  3500011 ScaDFX=  1.000000  1.000000  1.000000  1.000000
 FoFCou: FMM=F IPFlag=           0 FMFlag=      100000 FMFlg1=           0
         NFxFlg=           0 DoJE=T BraDBF=F KetDBF=T FulRan=T
         wScrn=  0.000000 ICntrl=       500 IOpCl=  0 I1Cent=   200000004 NGrid=           0
         NMat0=    1 NMatS0=      1 NMatT0=    0 NMatD0=    1 NMtDS0=    0 NMtDT0=    0
 Petite list used in FoFCou.
 Harris En= -279.644720508998    
 JPrj=0 DoOrth=F DoCkMO=F.
 Initial guess orbital symmetries:
       Occupied  (A') (A') (A') (A') (A') (A') (A') (A') (A') (A')
                 (A") (A') (A") (A') (A") (A')
       Virtual   (A") (A') (A') (A') (A') (A") (A') (A') (A') (A')
                 (A") (A') (A") (A') (A') (A") (A') (A') (A") (A')
                 (A') (A') (A') (A') (A") (A') (A') (A") (A') (A')
                 (A') (A") (A") (A') (A') (A") (A') (A") (A') (A")
                 (A') (A") (A') (A") (A') (A') (A') (A") (A') (A')
                 (A') (A") (A') (A") (A') (A") (A') (A') (A') (A")
                 (A') (A') (A") (A') (A') (A') (A") (A") (A') (A')
                 (A") (A') (A") (A") (A') (A') (A") (A') (A') (A')
                 (A") (A') (A') (A") (A') (A") (A') (A") (A') (A')
                 (A') (A") (A') (A") (A') (A') (A") (A') (A") (A')
                 (A") (A') (A') (A") (A") (A') (A') (A') (A") (A')
                 (A") (A') (A') (A') (A") (A') (A') (A') (A") (A')
                 (A") (A') (A') (A") (A") (A") (A") (A') (A') (A')
                 (A') (A') (A') (A") (A') (A") (A") (A') (A') (A')
                 (A") (A") (A') (A') (A') (A") (A') (A') (A') (A")
                 (A') (A') (A') (A") (A') (A") (A") (A') (A') (A")
                 (A') (A") (A") (A') (A") (A') (A') (A") (A") (A')
                 (A") (A") (A") (A') (A') (A") (A') (A') (A") (A')
                 (A') (A') (A') (A') (A') (A') (A') (A') (A') (A')
                 (A')
 The electronic state of the initial guess is 1-A'.
 Leave Link  401 at Sun Mar  6 19:17:35 2022, MaxMem= 16106127360 cpu:               7.0 elap:               0.3
 (Enter /sw/contrib/gaussian/g16/B01/g16/l502.exe)
 Keep R1 ints in memory in symmetry-blocked form, NReq=348887737.
 FoFCou: FMM=F IPFlag=           0 FMFlag=           0 FMFlg1=           0
         NFxFlg=           0 DoJE=F BraDBF=F KetDBF=F FulRan=T
         wScrn=  0.000000 ICntrl=       600 IOpCl=  0 I1Cent=           0 NGrid=           0
         NMat0=    1 NMatS0=  21528 NMatT0=    0 NMatD0=    1 NMtDS0=    0 NMtDT0=    0
 Petite list used in FoFCou.
 Closed shell SCF:
 Using DIIS extrapolation, IDIIS=  1040.
 NGot= 16106127360 LenX= 15988850015 LenY= 15988789549
 Requested convergence on RMS density matrix=1.00D-08 within 128 cycles.
 Requested convergence on MAX density matrix=1.00D-06.
 Requested convergence on             energy=1.00D-06.
 No special actions if energy rises.

 Cycle   1  Pass 1  IDiag  1:
 E= -279.368189162612    
 DIIS: error= 2.72D-02 at cycle   1 NSaved=   1.
 NSaved= 1 IEnMin= 1 EnMin= -279.368189162612     IErMin= 1 ErrMin= 2.72D-02
 ErrMax= 2.72D-02  0.00D+00 EMaxC= 1.00D-01 BMatC= 4.48D-01 BMatP= 4.48D-01
 IDIUse=3 WtCom= 7.28D-01 WtEn= 2.72D-01
 Coeff-Com:  0.100D+01
 Coeff-En:   0.100D+01
 Coeff:      0.100D+01
 Gap=     0.502 Goal=   None    Shift=    0.000
 GapD=    0.502 DampG=2.000 DampE=0.500 DampFc=1.0000 IDamp=-1.
 RMSDP=1.66D-03 MaxDP=8.74D-02              OVMax= 1.18D-01

 Cycle   2  Pass 1  IDiag  1:
 E= -279.451520559130     Delta-E=       -0.083331396518 Rises=F Damp=F
 DIIS: error= 1.85D-02 at cycle   2 NSaved=   2.
 NSaved= 2 IEnMin= 2 EnMin= -279.451520559130     IErMin= 2 ErrMin= 1.85D-02
 ErrMax= 1.85D-02  0.00D+00 EMaxC= 1.00D-01 BMatC= 8.12D-02 BMatP= 4.48D-01
 IDIUse=3 WtCom= 8.15D-01 WtEn= 1.85D-01
 Coeff-Com:  0.210D+00 0.790D+00
 Coeff-En:   0.437D-01 0.956D+00
 Coeff:      0.180D+00 0.820D+00
 Gap=     0.560 Goal=   None    Shift=    0.000
 RMSDP=9.51D-04 MaxDP=3.71D-02 DE=-8.33D-02 OVMax= 8.70D-02

 Cycle   3  Pass 1  IDiag  1:
 E= -279.486408618276     Delta-E=       -0.034888059146 Rises=F Damp=F
 DIIS: error= 1.09D-02 at cycle   3 NSaved=   3.
 NSaved= 3 IEnMin= 3 EnMin= -279.486408618276     IErMin= 3 ErrMin= 1.09D-02
 ErrMax= 1.09D-02  0.00D+00 EMaxC= 1.00D-01 BMatC= 3.04D-02 BMatP= 8.12D-02
 IDIUse=3 WtCom= 8.91D-01 WtEn= 1.09D-01
 Coeff-Com: -0.345D-01 0.369D+00 0.665D+00
 Coeff-En:   0.000D+00 0.225D+00 0.775D+00
 Coeff:     -0.307D-01 0.354D+00 0.677D+00
 Gap=     0.541 Goal=   None    Shift=    0.000
 RMSDP=4.04D-04 MaxDP=1.53D-02 DE=-3.49D-02 OVMax= 3.73D-02

 Cycle   4  Pass 1  IDiag  1:
 E= -279.507046464259     Delta-E=       -0.020637845982 Rises=F Damp=F
 DIIS: error= 1.63D-03 at cycle   4 NSaved=   4.
 NSaved= 4 IEnMin= 4 EnMin= -279.507046464259     IErMin= 4 ErrMin= 1.63D-03
 ErrMax= 1.63D-03  0.00D+00 EMaxC= 1.00D-01 BMatC= 5.74D-04 BMatP= 3.04D-02
 IDIUse=3 WtCom= 9.84D-01 WtEn= 1.63D-02
 Coeff-Com: -0.118D-01 0.481D-01 0.152D+00 0.812D+00
 Coeff-En:   0.000D+00 0.000D+00 0.000D+00 0.100D+01
 Coeff:     -0.116D-01 0.473D-01 0.150D+00 0.815D+00
 Gap=     0.527 Goal=   None    Shift=    0.000
 RMSDP=9.72D-05 MaxDP=2.31D-03 DE=-2.06D-02 OVMax= 1.15D-02

 Cycle   5  Pass 1  IDiag  1:
 E= -279.507824358306     Delta-E=       -0.000777894047 Rises=F Damp=F
 DIIS: error= 1.07D-03 at cycle   5 NSaved=   5.
 NSaved= 5 IEnMin= 5 EnMin= -279.507824358306     IErMin= 5 ErrMin= 1.07D-03
 ErrMax= 1.07D-03  0.00D+00 EMaxC= 1.00D-01 BMatC= 9.88D-05 BMatP= 5.74D-04
 IDIUse=3 WtCom= 9.89D-01 WtEn= 1.07D-02
 Coeff-Com:  0.527D-02-0.662D-01-0.109D+00 0.607D-01 0.111D+01
 Coeff-En:   0.000D+00 0.000D+00 0.000D+00 0.000D+00 0.100D+01
 Coeff:      0.521D-02-0.655D-01-0.108D+00 0.601D-01 0.111D+01
 Gap=     0.531 Goal=   None    Shift=    0.000
 RMSDP=7.82D-05 MaxDP=2.08D-03 DE=-7.78D-04 OVMax= 1.26D-02

 Cycle   6  Pass 1  IDiag  1:
 E= -279.508171970475     Delta-E=       -0.000347612169 Rises=F Damp=F
 DIIS: error= 3.31D-04 at cycle   6 NSaved=   6.
 NSaved= 6 IEnMin= 6 EnMin= -279.508171970475     IErMin= 6 ErrMin= 3.31D-04
 ErrMax= 3.31D-04  0.00D+00 EMaxC= 1.00D-01 BMatC= 2.32D-05 BMatP= 9.88D-05
 IDIUse=3 WtCom= 9.97D-01 WtEn= 3.31D-03
 Coeff-Com:  0.187D-02-0.747D-02-0.181D-01-0.183D+00 0.175D-01 0.119D+01
 Coeff-En:   0.000D+00 0.000D+00 0.000D+00 0.000D+00 0.000D+00 0.100D+01
 Coeff:      0.186D-02-0.744D-02-0.180D-01-0.182D+00 0.175D-01 0.119D+01
 Gap=     0.531 Goal=   None    Shift=    0.000
 RMSDP=4.57D-05 MaxDP=1.05D-03 DE=-3.48D-04 OVMax= 5.94D-03

 Cycle   7  Pass 1  IDiag  1:
 E= -279.508254184019     Delta-E=       -0.000082213543 Rises=F Damp=F
 DIIS: error= 1.29D-04 at cycle   7 NSaved=   7.
 NSaved= 7 IEnMin= 7 EnMin= -279.508254184019     IErMin= 7 ErrMin= 1.29D-04
 ErrMax= 1.29D-04  0.00D+00 EMaxC= 1.00D-01 BMatC= 3.41D-06 BMatP= 2.32D-05
 IDIUse=3 WtCom= 9.99D-01 WtEn= 1.29D-03
 Coeff-Com: -0.108D-02 0.116D-01 0.249D-01 0.188D-01-0.184D+00-0.161D+00
 Coeff-Com:  0.129D+01
 Coeff-En:   0.000D+00 0.000D+00 0.000D+00 0.000D+00 0.000D+00 0.000D+00
 Coeff-En:   0.100D+01
 Coeff:     -0.108D-02 0.116D-01 0.249D-01 0.188D-01-0.184D+00-0.161D+00
 Coeff:      0.129D+01
 Gap=     0.532 Goal=   None    Shift=    0.000
 RMSDP=1.73D-05 MaxDP=4.95D-04 DE=-8.22D-05 OVMax= 2.26D-03

 Cycle   8  Pass 1  IDiag  1:
 E= -279.508265594479     Delta-E=       -0.000011410461 Rises=F Damp=F
 DIIS: error= 4.40D-05 at cycle   8 NSaved=   8.
 NSaved= 8 IEnMin= 8 EnMin= -279.508265594479     IErMin= 8 ErrMin= 4.40D-05
 ErrMax= 4.40D-05  0.00D+00 EMaxC= 1.00D-01 BMatC= 5.31D-07 BMatP= 3.41D-06
 IDIUse=1 WtCom= 1.00D+00 WtEn= 0.00D+00
 Coeff-Com: -0.538D-03 0.406D-02 0.940D-02 0.246D-01-0.568D-01-0.185D+00
 Coeff-Com:  0.346D+00 0.859D+00
 Coeff:     -0.538D-03 0.406D-02 0.940D-02 0.246D-01-0.568D-01-0.185D+00
 Coeff:      0.346D+00 0.859D+00
 Gap=     0.532 Goal=   None    Shift=    0.000
 RMSDP=5.07D-06 MaxDP=1.42D-04 DE=-1.14D-05 OVMax= 5.94D-04

 Cycle   9  Pass 1  IDiag  1:
 E= -279.508266800232     Delta-E=       -0.000001205753 Rises=F Damp=F
 DIIS: error= 2.32D-05 at cycle   9 NSaved=   9.
 NSaved= 9 IEnMin= 9 EnMin= -279.508266800232     IErMin= 9 ErrMin= 2.32D-05
 ErrMax= 2.32D-05  0.00D+00 EMaxC= 1.00D-01 BMatC= 1.05D-07 BMatP= 5.31D-07
 IDIUse=1 WtCom= 1.00D+00 WtEn= 0.00D+00
 Coeff-Com:  0.229D-03-0.251D-02-0.514D-02-0.542D-02 0.455D-01 0.473D-01
 Coeff-Com: -0.331D+00 0.484D-01 0.120D+01
 Coeff:      0.229D-03-0.251D-02-0.514D-02-0.542D-02 0.455D-01 0.473D-01
 Coeff:     -0.331D+00 0.484D-01 0.120D+01
 Gap=     0.532 Goal=   None    Shift=    0.000
 RMSDP=2.27D-06 MaxDP=6.09D-05 DE=-1.21D-06 OVMax= 2.37D-04

 Cycle  10  Pass 1  IDiag  1:
 E= -279.508267025999     Delta-E=       -0.000000225766 Rises=F Damp=F
 DIIS: error= 5.24D-06 at cycle  10 NSaved=  10.
 NSaved=10 IEnMin=10 EnMin= -279.508267025999     IErMin=10 ErrMin= 5.24D-06
 ErrMax= 5.24D-06  0.00D+00 EMaxC= 1.00D-01 BMatC= 6.83D-09 BMatP= 1.05D-07
 IDIUse=1 WtCom= 1.00D+00 WtEn= 0.00D+00
 Coeff-Com: -0.335D-04 0.457D-03 0.109D-02-0.168D-02-0.102D-01 0.497D-02
 Coeff-Com:  0.680D-01-0.560D-01-0.417D+00 0.141D+01
 Coeff:     -0.335D-04 0.457D-03 0.109D-02-0.168D-02-0.102D-01 0.497D-02
 Coeff:      0.680D-01-0.560D-01-0.417D+00 0.141D+01
 Gap=     0.532 Goal=   None    Shift=    0.000
 RMSDP=6.34D-07 MaxDP=2.38D-05 DE=-2.26D-07 OVMax= 6.61D-05

 Cycle  11  Pass 1  IDiag  1:
 E= -279.508267046130     Delta-E=       -0.000000020132 Rises=F Damp=F
 DIIS: error= 2.10D-06 at cycle  11 NSaved=  11.
 NSaved=11 IEnMin=11 EnMin= -279.508267046130     IErMin=11 ErrMin= 2.10D-06
 ErrMax= 2.10D-06  0.00D+00 EMaxC= 1.00D-01 BMatC= 6.66D-10 BMatP= 6.83D-09
 IDIUse=1 WtCom= 1.00D+00 WtEn= 0.00D+00
 Coeff-Com: -0.140D-04 0.138D-03 0.268D-03 0.911D-03-0.154D-02-0.708D-02
 Coeff-Com:  0.147D-01 0.215D-01-0.256D-01-0.394D+00 0.139D+01
 Coeff:     -0.140D-04 0.138D-03 0.268D-03 0.911D-03-0.154D-02-0.708D-02
 Coeff:      0.147D-01 0.215D-01-0.256D-01-0.394D+00 0.139D+01
 Gap=     0.532 Goal=   None    Shift=    0.000
 RMSDP=2.19D-07 MaxDP=7.93D-06 DE=-2.01D-08 OVMax= 2.51D-05

 Cycle  12  Pass 1  IDiag  1:
 E= -279.508267048525     Delta-E=       -0.000000002395 Rises=F Damp=F
 DIIS: error= 5.37D-07 at cycle  12 NSaved=  12.
 NSaved=12 IEnMin=12 EnMin= -279.508267048525     IErMin=12 ErrMin= 5.37D-07
 ErrMax= 5.37D-07  0.00D+00 EMaxC= 1.00D-01 BMatC= 6.31D-11 BMatP= 6.66D-10
 IDIUse=1 WtCom= 1.00D+00 WtEn= 0.00D+00
 Coeff-Com:  0.344D-05-0.510D-04-0.104D-03 0.114D-04 0.110D-02 0.423D-04
 Coeff-Com: -0.762D-02 0.401D-02 0.362D-01-0.602D-01-0.290D+00 0.132D+01
 Coeff:      0.344D-05-0.510D-04-0.104D-03 0.114D-04 0.110D-02 0.423D-04
 Coeff:     -0.762D-02 0.401D-02 0.362D-01-0.602D-01-0.290D+00 0.132D+01
 Gap=     0.532 Goal=   None    Shift=    0.000
 RMSDP=7.40D-08 MaxDP=2.31D-06 DE=-2.40D-09 OVMax= 8.17D-06

 Cycle  13  Pass 1  IDiag  1:
 E= -279.508267048747     Delta-E=       -0.000000000222 Rises=F Damp=F
 DIIS: error= 1.24D-07 at cycle  13 NSaved=  13.
 NSaved=13 IEnMin=13 EnMin= -279.508267048747     IErMin=13 ErrMin= 1.24D-07
 ErrMax= 1.24D-07  0.00D+00 EMaxC= 1.00D-01 BMatC= 4.22D-12 BMatP= 6.31D-11
 IDIUse=1 WtCom= 1.00D+00 WtEn= 0.00D+00
 Coeff-Com:  0.595D-06-0.396D-05-0.154D-05-0.907D-04-0.975D-04 0.733D-03
 Coeff-Com:  0.790D-04-0.244D-02-0.585D-02 0.521D-01-0.827D-01-0.234D+00
 Coeff-Com:  0.127D+01
 Coeff:      0.595D-06-0.396D-05-0.154D-05-0.907D-04-0.975D-04 0.733D-03
 Coeff:      0.790D-04-0.244D-02-0.585D-02 0.521D-01-0.827D-01-0.234D+00
 Coeff:      0.127D+01
 Gap=     0.532 Goal=   None    Shift=    0.000
 RMSDP=1.78D-08 MaxDP=4.96D-07 DE=-2.22D-10 OVMax= 1.63D-06

 Cycle  14  Pass 1  IDiag  1:
 E= -279.508267048760     Delta-E=       -0.000000000013 Rises=F Damp=F
 DIIS: error= 3.04D-08 at cycle  14 NSaved=  14.
 NSaved=14 IEnMin=14 EnMin= -279.508267048760     IErMin=14 ErrMin= 3.04D-08
 ErrMax= 3.04D-08  0.00D+00 EMaxC= 1.00D-01 BMatC= 2.89D-13 BMatP= 4.22D-12
 IDIUse=1 WtCom= 1.00D+00 WtEn= 0.00D+00
 Coeff-Com: -0.318D-06 0.421D-05 0.739D-05 0.791D-05-0.811D-04-0.386D-04
 Coeff-Com:  0.513D-03-0.122D-04-0.228D-02 0.128D-02 0.206D-01-0.561D-01
 Coeff-Com: -0.963D-01 0.113D+01
 Coeff:     -0.318D-06 0.421D-05 0.739D-05 0.791D-05-0.811D-04-0.386D-04
 Coeff:      0.513D-03-0.122D-04-0.228D-02 0.128D-02 0.206D-01-0.561D-01
 Coeff:     -0.963D-01 0.113D+01
 Gap=     0.532 Goal=   None    Shift=    0.000
 RMSDP=3.32D-09 MaxDP=8.82D-08 DE=-1.30D-11 OVMax= 3.62D-07

 SCF Done:  E(RHF) =  -279.508267049     A.U. after   14 cycles
            NFock= 14  Conv=0.33D-08     -V/T= 2.0020
 KE= 2.789393548553D+02 PE=-9.070910553930D+02 EE= 2.255520829389D+02
 Leave Link  502 at Sun Mar  6 19:17:38 2022, MaxMem= 16106127360 cpu:              55.6 elap:               3.6
 (Enter /sw/contrib/gaussian/g16/B01/g16/l801.exe)
 ExpMin= 2.53D-02 ExpMax= 1.53D+04 ExpMxC= 5.22D+02 IAcc=3 IRadAn=         5 AccDes= 0.00D+00
 HarFok:  IExCor=  205 AccDes= 0.00D+00 IRadAn=         5 IDoV=-2 UseB2=F ITyADJ=14
 ICtDFT= 12500011 ScaDFX=  1.000000  1.000000  1.000000  1.000000
 Largest valence mixing into a core orbital is  2.06D-04
 Largest core mixing into a valence orbital is  3.07D-05
 Range of M.O.s used for correlation:     5   207
 NBasis=   207 NAE=    16 NBE=    16 NFC=     4 NFV=     0
 NROrb=    203 NOA=    12 NOB=    12 NVA=   191 NVB=   191

 **** Warning!!: The largest alpha MO coefficient is  0.15777099D+02

 Leave Link  801 at Sun Mar  6 19:17:38 2022, MaxMem= 16106127360 cpu:               2.8 elap:               0.1
 (Enter /sw/contrib/gaussian/g16/B01/g16/l906.exe)
 Frozen-core derivative calculation, NFC=   4 NFV=   0.
 FulOut=F Deriv=T AODrv=T NAtomX=     5
   MMem=           0  MDisk=          12 MDiskD=          12
  W3Min=      811440 MinDsk=     2425030 NBas6D=         245
 NBas2D=       30762    NTT=       30135    LW2=     7400000
    MDV= 16105571518 MDiskM=      328644 NBas2p=       30759
 Disk-based method using ON**2 memory for 12 occupieds at a time.
 Permanent disk used for amplitudes=    11516536 words.
 Estimated scratch disk usage=   321863743 words.
 IMap=   1   2   3   4   5   6   7   8   9  10  11  12  13  14  15  16
 Actual    scratch disk usage=   310892607 words.
 JobTyp=1 Pass  1:  I=   5 to  16 NPSUse= 28 ParTrn=T ParDer=T DoDerP=T.
 (rs|ai) integrals will be sorted in core.
 Spin components of T(2) and E(2):
     alpha-alpha T2 =       0.3454249639D-01 E2=     -0.1242763563D+00
     alpha-beta  T2 =       0.1831777586D+00 E2=     -0.6982260539D+00
     beta-beta   T2 =       0.3454249639D-01 E2=     -0.1242763563D+00
 The integrals were generated   1 times.
 ANorm=    0.1119045464D+01
 E2 =    -0.9467787666D+00 EUMP2 =    -0.28045504581535D+03
 Leave Link  906 at Sun Mar  6 19:19:15 2022, MaxMem= 16106127360 cpu:            2707.3 elap:              96.8
 (Enter /sw/contrib/gaussian/g16/B01/g16/l1101.exe)
 Using compressed Sx but separate Hx and Fx, NAtomX=     5.
 Will process      6 centers per pass.
 Leave Link 1101 at Sun Mar  6 19:19:15 2022, MaxMem= 16106127360 cpu:               5.2 elap:               0.2
 (Enter /sw/contrib/gaussian/g16/B01/g16/l1102.exe)
 Leave Link 1102 at Sun Mar  6 19:19:15 2022, MaxMem= 16106127360 cpu:               0.5 elap:               0.0
 (Enter /sw/contrib/gaussian/g16/B01/g16/l1110.exe)
 Forming Gx(P) for the SCF density, NAtomX=     5.
 Integral derivatives from FoFJK, PRISM(SPDF).
 Do as many integral derivatives as possible in FoFJK.
 G2DrvN: MDV=   16106126844.
 G2DrvN: will do     6 centers at a time, making    1 passes.
 Calling FoFCou, ICntrl=  3107 FMM=F I1Cent=   0 AccDes= 0.00D+00.
 FoFJK:  IHMeth= 1 ICntrl=    3107 DoSepK=F KAlg= 0 I1Cent=           0 FoldK=F
 IRaf=         0 NMat=       1 IRICut=       1 DoRegI=T DoRafI=F ISym2E= 1 IDoP0=0 IntGTp=1.
 FoFCou: FMM=F IPFlag=           0 FMFlag=      100000 FMFlg1=           0
         NFxFlg=           0 DoJE=F BraDBF=F KetDBF=F FulRan=T
         wScrn=  0.000000 ICntrl=      3107 IOpCl=  0 I1Cent=           0 NGrid=           0
         NMat0=    1 NMatS0=      1 NMatT0=    0 NMatD0=    1 NMtDS0=    0 NMtDT0=    0
 Petite list used in FoFCou.
 End of G2Drv F.D. properties file   721 does not exist.
 End of G2Drv F.D. properties file   722 does not exist.
 End of G2Drv F.D. properties file   788 does not exist.
 Leave Link 1110 at Sun Mar  6 19:19:19 2022, MaxMem= 16106127360 cpu:              87.1 elap:               3.1
 (Enter /sw/contrib/gaussian/g16/B01/g16/l1002.exe)
 Minotr:  Closed shell wavefunction.
          IDoAtm=11111
          Frozen-core window.
          Direct CPHF calculation.
          Differentiating once with respect to electric field.
                with respect to dipole field.
          Differentiating once with respect to nuclear coordinates.
          Requested convergence is 1.0D-08 RMS, and 1.0D-07 maximum.
          Secondary convergence is 1.0D-12 RMS, and 1.0D-12 maximum.
          NewPWx=T KeepS1=T KeepF1=T KeepIn=T MapXYZ=F SortEE=F KeepMc=T.
 Keep R1 ints in memory in symmetry-blocked form, NReq=348888983.
 FoFCou: FMM=F IPFlag=           0 FMFlag=           0 FMFlg1=           0
         NFxFlg=           0 DoJE=F BraDBF=F KetDBF=F FulRan=T
         wScrn=  0.000000 ICntrl=       600 IOpCl=  0 I1Cent=           0 NGrid=           0
         NMat0=    1 NMatS0=  21528 NMatT0=    0 NMatD0=    1 NMtDS0=    0 NMtDT0=    0
 Petite list used in FoFCou.
          MDV=   16106127360 using IRadAn=       1.
          Solving linear equations simultaneously, MaxMat=       0.
          There are    18 degrees of freedom in the 1st order CPHF.  IDoFFX=6 NUNeed=    18.
     15 vectors produced by pass  0 Test12= 1.70D-14 5.56D-09 XBig12= 7.77D+00 1.19D+00.
 AX will form    15 AO Fock derivatives at one time.
     15 vectors produced by pass  1 Test12= 1.70D-14 5.56D-09 XBig12= 1.31D+00 2.19D-01.
     15 vectors produced by pass  2 Test12= 1.70D-14 5.56D-09 XBig12= 6.55D-02 5.66D-02.
     15 vectors produced by pass  3 Test12= 1.70D-14 5.56D-09 XBig12= 1.93D-03 1.09D-02.
     15 vectors produced by pass  4 Test12= 1.70D-14 5.56D-09 XBig12= 4.24D-05 1.20D-03.
     15 vectors produced by pass  5 Test12= 1.70D-14 5.56D-09 XBig12= 5.83D-07 1.24D-04.
     15 vectors produced by pass  6 Test12= 1.70D-14 5.56D-09 XBig12= 4.52D-09 1.33D-05.
     14 vectors produced by pass  7 Test12= 1.70D-14 5.56D-09 XBig12= 3.40D-11 7.90D-07.
      3 vectors produced by pass  8 Test12= 1.70D-14 5.56D-09 XBig12= 2.36D-13 6.07D-08.
      1 vectors produced by pass  9 Test12= 1.70D-14 5.56D-09 XBig12= 1.57D-15 7.40D-09.
 InvSVY:  IOpt=1 It=  1 EMax= 1.33D-15
 Solved reduced A of dimension   123 with    15 vectors.
 FullF1:  Do perturbations      1 to      18.
 Saving first derivative matrices.
 End of Minotr F.D. properties file   721 does not exist.
 End of Minotr F.D. properties file   722 does not exist.
 End of Minotr F.D. properties file   788 does not exist.
 Leave Link 1002 at Sun Mar  6 19:19:22 2022, MaxMem= 16106127360 cpu:              77.4 elap:               2.9
 (Enter /sw/contrib/gaussian/g16/B01/g16/l811.exe)
 MDV= 16106127360.
 Form MO integral derivatives with frozen-active canonical formalism.
 MOERI=1 MOERIx=1 NAtoms=     5 NAtomX=     5.
 Discarding MO integrals.
 MO basis two electron integral derivatives will not be stored on disk.
 IAlg= 3 DoFC=T DoPWx=T Debug=F.
 Frozen-core window:  NFC=   4 NFV=   0.
 Reordered first order wavefunction length =     18678272
 In DefCFB: NBatch=  1 ICI= 16 ICA=191 LFMax= 96
            Large arrays: LIAPS=   619940160 LIARS=   288257200 words.
 In StABat: MaxSiz= 55 MinSiz= 25 NAtomB=  5
 DoIAMN: NPSUse= 28.
 Leave Link  811 at Sun Mar  6 19:20:43 2022, MaxMem= 16106127360 cpu:            2280.1 elap:              81.6
 (Enter /sw/contrib/gaussian/g16/B01/g16/l804.exe)
 Frozen-core window:  NFC=   4 NFV=   0.
 Closed-shell transformation, MDV= 16106127360 ITran=4 ISComp=1.
 Semi-Direct transformation.
 ModeAB=           2 MOrb=            16 LenV=   16104919883
 LASXX=     67341636 LTotXX=    67341636 LenRXX=    67341636
 LTotAB=    68301760 MaxLAS=    99807120 LenRXY=    99807120
 NonZer=   134683272 LenScr=   202817536 LnRSAI=           0
 LnScr1=           0 LExtra=           0 Total=    369966292
 MaxDsk=          -1 SrtSym=           F ITran=            4
 DoSDTr:  NPSUse= 28
 JobTyp=0 Pass  1:  I=   1 to  16.
 (rs|ai) integrals will be sorted in core.
 Complete sort for first half transformation.
 First half transformation complete.
 Begin second half transformation for I=  10.
 Begin second half transformation for I=  10.
 Complete sort for second half transformation.
 Second half transformation complete.
 Spin components of T(2) and E(2):
     alpha-alpha T2 =       0.3454249639D-01 E2=     -0.1242763563D+00
     alpha-beta  T2 =       0.1831777586D+00 E2=     -0.6982260539D+00
     beta-beta   T2 =       0.3454249639D-01 E2=     -0.1242763563D+00
 ANorm=    0.1582569273D+01
 E2 =    -0.9467787666D+00 EUMP2 =    -0.28045504581535D+03
 Leave Link  804 at Sun Mar  6 19:20:59 2022, MaxMem= 16106127360 cpu:             428.3 elap:              15.3
 (Enter /sw/contrib/gaussian/g16/B01/g16/l1002.exe)
 Minotr:  Closed shell wavefunction.
          Computing MP2/KS-MP2 derivatives.
          Using Z-Vector for PSCF gradient.
          Skipping F1 and S1 gradient terms here.
          IDoAtm=11111
          Frozen-core window.
          Using MO integrals in the linear equations.
          Forming densities via direct SCF.
          Differentiating once with respect to electric field.
                with respect to dipole field.
          Differentiating once with respect to nuclear coordinates.
          Using symmetry in CPHF.
          Requested convergence is 1.0D-10 RMS, and 1.0D-09 maximum.
          NewPWx=F KeepS1=T KeepF1=T KeepIn=T MapXYZ=F SortEE=F KeepMc=T.
          MDV=   16106127360 using IRadAn=       5.
          Solving linear equations separately, MaxMat=       0.
          There are     1 degrees of freedom in the 1st order CPHF.  IDoFFX=0 NUNeed=     1.
 FoFJK:  IHMeth= 1 ICntrl=       0 DoSepK=F KAlg= 0 I1Cent=           0 FoldK=F
 IRaf=         0 NMat=       1 IRICut=       1 DoRegI=T DoRafI=F ISym2E= 0 IDoP0=0 IntGTp=1.
 FoFCou: FMM=F IPFlag=           0 FMFlag=      100000 FMFlg1=           0
         NFxFlg=           0 DoJE=F BraDBF=F KetDBF=F FulRan=T
         wScrn=  0.000000 ICntrl=         0 IOpCl=  0 I1Cent=           0 NGrid=           0
         NMat0=    1 NMatS0=      1 NMatT0=    0 NMatD0=    1 NMtDS0=    0 NMtDT0=    0
 Symmetry not used in FoFCou.
 LinEq1:  Iter=  0 NonCon=     1 RMS=6.52D-03 Max=1.71D-01 NDo=     1
 LinEq1:  Iter=  1 NonCon=     1 RMS=1.95D-03 Max=2.95D-02 NDo=     1
 LinEq1:  Iter=  2 NonCon=     1 RMS=8.61D-04 Max=1.37D-02 NDo=     1
 LinEq1:  Iter=  3 NonCon=     1 RMS=3.63D-04 Max=7.49D-03 NDo=     1
 LinEq1:  Iter=  4 NonCon=     1 RMS=1.31D-04 Max=1.61D-03 NDo=     1
 LinEq1:  Iter=  5 NonCon=     1 RMS=7.19D-05 Max=1.34D-03 NDo=     1
 LinEq1:  Iter=  6 NonCon=     1 RMS=2.34D-05 Max=3.46D-04 NDo=     1
 LinEq1:  Iter=  7 NonCon=     1 RMS=7.61D-06 Max=9.96D-05 NDo=     1
 LinEq1:  Iter=  8 NonCon=     1 RMS=3.74D-06 Max=5.59D-05 NDo=     1
 LinEq1:  Iter=  9 NonCon=     1 RMS=9.79D-07 Max=1.07D-05 NDo=     1
 LinEq1:  Iter= 10 NonCon=     1 RMS=2.18D-07 Max=2.70D-06 NDo=     1
 LinEq1:  Iter= 11 NonCon=     1 RMS=4.68D-08 Max=7.63D-07 NDo=     1
 LinEq1:  Iter= 12 NonCon=     1 RMS=1.10D-08 Max=1.64D-07 NDo=     1
 LinEq1:  Iter= 13 NonCon=     1 RMS=1.93D-09 Max=2.16D-08 NDo=     1
 LinEq1:  Iter= 14 NonCon=     1 RMS=4.04D-10 Max=5.34D-09 NDo=     1
 LinEq1:  Iter= 15 NonCon=     0 RMS=8.25D-11 Max=8.29D-10 NDo=     1
 Linear equations converged to 1.000D-10 1.000D-09 after    15 iterations.
 End of Minotr F.D. properties file   721 does not exist.
 End of Minotr F.D. properties file   722 does not exist.
 End of Minotr F.D. properties file   788 does not exist.
 Leave Link 1002 at Sun Mar  6 19:21:01 2022, MaxMem= 16106127360 cpu:              65.4 elap:               2.4
 (Enter /sw/contrib/gaussian/g16/B01/g16/l1102.exe)
 Use density number 2.
 Symmetrizing basis deriv contribution to polar:
 IMax=3 JMax=2 DiffMx= 0.00D+00
 Leave Link 1102 at Sun Mar  6 19:21:01 2022, MaxMem= 16106127360 cpu:               1.2 elap:               0.1
 (Enter /sw/contrib/gaussian/g16/B01/g16/l1110.exe)
 Forming Gx(P) for generalized density number  2 NAtomX=     5.
 Integral derivatives from FoFJK, PRISM(SPDF).
 Do as many integral derivatives as possible in FoFJK.
 G2DrvN: MDV=   16106126844.
 G2DrvN: will do     6 centers at a time, making    1 passes.
 Calling FoFCou, ICntrl=  3107 FMM=F I1Cent=   0 AccDes= 0.00D+00.
 FoFJK:  IHMeth= 1 ICntrl=    3107 DoSepK=F KAlg= 0 I1Cent=           0 FoldK=F
 IRaf=         0 NMat=       1 IRICut=       1 DoRegI=T DoRafI=F ISym2E= 1 IDoP0=0 IntGTp=1.
 FoFCou: FMM=F IPFlag=           0 FMFlag=      100000 FMFlg1=           0
         NFxFlg=           0 DoJE=F BraDBF=F KetDBF=F FulRan=T
         wScrn=  0.000000 ICntrl=      3107 IOpCl=  0 I1Cent=           0 NGrid=           0
         NMat0=    1 NMatS0=      1 NMatT0=    0 NMatD0=    1 NMtDS0=    0 NMtDT0=    0
 Petite list used in FoFCou.
 End of G2Drv F.D. properties file   721 does not exist.
 End of G2Drv F.D. properties file   722 does not exist.
 End of G2Drv F.D. properties file   788 does not exist.
 Leave Link 1110 at Sun Mar  6 19:21:04 2022, MaxMem= 16106127360 cpu:              89.0 elap:               3.2
 (Enter /sw/contrib/gaussian/g16/B01/g16/l1112.exe)
 MP22nd: MDV=   16106127360
 This link is doing NAtomX=     5 total of    18 degrees of freedom.
 Using ON3 I/O method in MakUI.
 Frozen-core window:  NFC=   4 NFV=   0.
 Using Ix for Sx.
 Use MO integrals over full window.
 Using OV2 memory method for fx*t*t/D, MaxI=    16 DoOO2=F NP=  28.
 R2 and R3 integrals will be kept in memory, NReq=   915591705.
 FoFCou: FMM=F IPFlag=           0 FMFlag=           0 FMFlg1=           0
         NFxFlg=           0 DoJE=F BraDBF=F KetDBF=F FulRan=T
         wScrn=  0.000000 ICntrl=       600 IOpCl=  0 I1Cent=           0 NGrid=           0
         NMat0=    1 NMatS0=      1 NMatT0=    0 NMatD0=    1 NMtDS0=    0 NMtDT0=    0
 Symmetry not used in FoFCou.
 DD1Dir will call FoFMem   1 times, MxPair=       272
 NAB=   136 NAA=     0 NBB=     0.
 Symmetry is being used.
 FoFJK:  IHMeth= 1 ICntrl=       0 DoSepK=F KAlg= 0 I1Cent=           0 FoldK=F
 IRaf=         0 NMat=      18 IRICut=      45 DoRegI=T DoRafI=T ISym2E= 2 IDoP0=3 IntGTp=3.
 Discarding MO integrals.
 Leave Link 1112 at Sun Mar  6 19:21:39 2022, MaxMem= 16106127360 cpu:             947.2 elap:              34.3
 (Enter /sw/contrib/gaussian/g16/B01/g16/l601.exe)
 Copying SCF densities to generalized density rwf, IOpCl= 0 IROHF=0.

 **********************************************************************

            Population analysis using the MP2 Density.

 **********************************************************************

 Orbital symmetries:
       Occupied  (A') (A') (A') (A') (A') (A') (A') (A') (A') (A')
                 (A") (A') (A") (A') (A') (A")
       Virtual   (A') (A") (A') (A') (A") (A') (A') (A') (A") (A')
                 (A") (A') (A') (A') (A") (A') (A') (A") (A') (A')
                 (A') (A') (A') (A') (A") (A') (A') (A") (A') (A')
                 (A') (A") (A") (A') (A') (A') (A") (A') (A") (A')
                 (A") (A") (A') (A') (A") (A') (A') (A") (A') (A')
                 (A') (A") (A') (A') (A") (A') (A") (A') (A") (A')
                 (A') (A') (A") (A') (A') (A') (A") (A") (A') (A')
                 (A") (A') (A") (A") (A') (A') (A") (A') (A') (A')
                 (A") (A') (A') (A") (A') (A") (A") (A') (A') (A')
                 (A') (A') (A") (A") (A') (A') (A") (A") (A') (A")
                 (A') (A') (A") (A') (A") (A') (A') (A') (A") (A')
                 (A") (A') (A') (A') (A") (A') (A') (A') (A") (A')
                 (A") (A") (A') (A') (A") (A") (A') (A") (A') (A')
                 (A') (A') (A") (A') (A') (A") (A") (A') (A') (A")
                 (A') (A") (A') (A') (A') (A") (A') (A') (A') (A")
                 (A') (A') (A') (A") (A") (A') (A") (A') (A') (A")
                 (A') (A") (A') (A") (A") (A') (A") (A') (A") (A')
                 (A") (A") (A") (A') (A') (A") (A') (A') (A") (A')
                 (A') (A') (A') (A') (A') (A') (A') (A') (A') (A')
                 (A')
 The electronic state is 1-A'.
 Alpha  occ. eigenvalues --  -20.71706 -20.68785 -20.66723 -15.82408  -1.65123
 Alpha  occ. eigenvalues --   -1.50777  -1.29258  -0.95858  -0.83727  -0.76154
 Alpha  occ. eigenvalues --   -0.74193  -0.63748  -0.62107  -0.61887  -0.50250
 Alpha  occ. eigenvalues --   -0.49672
 Alpha virt. eigenvalues --    0.03499   0.06396   0.09515   0.10049   0.11945
 Alpha virt. eigenvalues --    0.12272   0.14932   0.15207   0.17790   0.18025
 Alpha virt. eigenvalues --    0.18981   0.21101   0.21677   0.24369   0.24657
 Alpha virt. eigenvalues --    0.26934   0.31281   0.31663   0.33802   0.34474
 Alpha virt. eigenvalues --    0.34803   0.39311   0.44876   0.48929   0.50517
 Alpha virt. eigenvalues --    0.51918   0.54549   0.56058   0.60242   0.62233
 Alpha virt. eigenvalues --    0.64135   0.68771   0.71680   0.72466   0.74550
 Alpha virt. eigenvalues --    0.76318   0.76715   0.79609   0.80740   0.84123
 Alpha virt. eigenvalues --    0.84386   0.85196   0.88665   0.90851   0.93183
 Alpha virt. eigenvalues --    0.95049   0.95401   1.01880   1.03185   1.06267
 Alpha virt. eigenvalues --    1.06668   1.09559   1.14412   1.15668   1.17132
 Alpha virt. eigenvalues --    1.22392   1.22778   1.24683   1.35239   1.36082
 Alpha virt. eigenvalues --    1.37354   1.46884   1.48595   1.50508   1.54143
 Alpha virt. eigenvalues --    1.59665   1.59856   1.60728   1.63016   1.69824
 Alpha virt. eigenvalues --    1.74105   1.80305   1.82981   1.89192   1.89733
 Alpha virt. eigenvalues --    1.92704   1.98032   1.99030   2.04922   2.12671
 Alpha virt. eigenvalues --    2.13099   2.16633   2.18675   2.24400   2.25912
 Alpha virt. eigenvalues --    2.29511   2.35287   2.36770   2.38792   2.40620
 Alpha virt. eigenvalues --    2.43559   2.46830   2.48013   2.52882   2.53985
 Alpha virt. eigenvalues --    2.55284   2.56244   2.62025   2.63035   2.67650
 Alpha virt. eigenvalues --    2.67984   2.75904   2.81230   2.82090   2.84174
 Alpha virt. eigenvalues --    2.91984   2.98930   3.05251   3.05297   3.11691
 Alpha virt. eigenvalues --    3.11701   3.17622   3.21396   3.31116   3.33223
 Alpha virt. eigenvalues --    3.36289   3.47947   3.68783   3.87041   3.93031
 Alpha virt. eigenvalues --    4.18519   4.22489   4.22940   4.28890   4.37077
 Alpha virt. eigenvalues --    4.50389   4.52913   4.56859   4.60025   4.69757
 Alpha virt. eigenvalues --    4.81533   4.90065   4.91383   4.94618   4.99658
 Alpha virt. eigenvalues --    5.00468   5.10999   5.14088   5.18043   5.26028
 Alpha virt. eigenvalues --    5.26222   5.32139   5.35002   5.35655   5.53910
 Alpha virt. eigenvalues --    5.66299   5.71341   5.88653   6.00823   6.26655
 Alpha virt. eigenvalues --    6.29823   6.36353   6.37915   6.59980   6.66108
 Alpha virt. eigenvalues --    6.66133   6.69244   6.73136   6.79356   6.80533
 Alpha virt. eigenvalues --    6.86015   6.97185   7.02107   7.06769   7.08271
 Alpha virt. eigenvalues --    7.14474   7.18006   7.18384   7.20616   7.24977
 Alpha virt. eigenvalues --    7.25215   7.29174   7.35458   7.40293   7.43267
 Alpha virt. eigenvalues --    7.44639   7.47713   7.57996   7.66519   7.67301
 Alpha virt. eigenvalues --    7.80036   7.88756   7.95869   8.07999   8.30785
 Alpha virt. eigenvalues --    8.50159   8.65759  13.64216  14.83208  15.15894
 Alpha virt. eigenvalues --   16.06575
          Condensed to atoms (all electrons):
               1          2          3          4          5
     1  H    0.580089   0.124104   0.023931   0.000383  -0.005410
     2  O    0.124104   8.391318  -0.231376  -0.001268  -0.007742
     3  O    0.023931  -0.231376   8.380721  -0.170480  -0.037994
     4  N    0.000383  -0.001268  -0.170480   7.140424  -0.122611
     5  O   -0.005410  -0.007742  -0.037994  -0.122611   8.364373
 Mulliken charges:
               1
     1  H    0.276903
     2  O   -0.275036
     3  O    0.035199
     4  N    0.153552
     5  O   -0.190617
 Sum of Mulliken charges =  -0.00000
 Mulliken charges with hydrogens summed into heavy atoms:
               1
     2  O    0.001866
     3  O    0.035199
     4  N    0.153552
     5  O   -0.190617
 APT charges:
               1
     1  H    0.271120
     2  O   -0.303747
     3  O   -0.313816
     4  N    0.655997
     5  O   -0.309554
 Sum of APT charges =  -0.00000
 APT charges with hydrogens summed into heavy atoms:
               1
     2  O   -0.032627
     3  O   -0.313816
     4  N    0.655997
     5  O   -0.309554
 Electronic spatial extent (au):  <R**2>=            206.5506
 Charge=             -0.0000 electrons
 Dipole moment (field-independent basis, Debye):
    X=              0.0237    Y=             -1.1478    Z=             -0.0000  Tot=              1.1480
 Quadrupole moment (field-independent basis, Debye-Ang):
   XX=            -23.3570   YY=            -22.9254   ZZ=            -21.9097
   XY=             -1.9467   XZ=             -0.0000   YZ=             -0.0000
 Traceless Quadrupole moment (field-independent basis, Debye-Ang):
   XX=             -0.6263   YY=             -0.1947   ZZ=              0.8210
   XY=             -1.9467   XZ=             -0.0000   YZ=             -0.0000
 Octapole moment (field-independent basis, Debye-Ang**2):
  XXX=              2.4527  YYY=              0.1562  ZZZ=             -0.0000  XYY=              2.3279
  XXY=             -2.8732  XXZ=             -0.0000  XZZ=             -0.6245  YZZ=             -0.7445
  YYZ=             -0.0000  XYZ=              0.0000
 Hexadecapole moment (field-independent basis, Debye-Ang**3):
 XXXX=           -127.0710 YYYY=            -94.0173 ZZZZ=            -18.0099 XXXY=            -21.4878
 XXXZ=             -0.0000 YYYX=            -19.7440 YYYZ=             -0.0000 ZZZX=             -0.0000
 ZZZY=             -0.0000 XXYY=            -35.4477 XXZZ=            -24.3327 YYZZ=            -18.4410
 XXYZ=             -0.0000 YYXZ=             -0.0000 ZZXY=             -5.8929
 N-N= 1.230913505501D+02 E-N=-9.077670025669D+02  KE= 2.802502072786D+02
 Symmetry A'   KE= 2.663914411551D+02
 Symmetry A"   KE= 1.385876612350D+01
  Exact polarizability:  30.831   4.065  29.605  -0.000   0.000  17.587
 Approx polarizability:  24.488   0.542  27.353  -0.000   0.000  15.461
 No NMR shielding tensors so no spin-rotation constants.
 Leave Link  601 at Sun Mar  6 19:21:39 2022, MaxMem= 16106127360 cpu:               4.7 elap:               0.2
 (Enter /sw/contrib/gaussian/g16/B01/g16/l701.exe)
 ... and contract with generalized density number  2.
 Compute integral second derivatives.
 Leave Link  701 at Sun Mar  6 19:21:39 2022, MaxMem= 16106127360 cpu:               5.7 elap:               0.2
 (Enter /sw/contrib/gaussian/g16/B01/g16/l702.exe)
 L702 exits ... SP integral derivatives will be done elsewhere.
 Leave Link  702 at Sun Mar  6 19:21:39 2022, MaxMem= 16106127360 cpu:               0.5 elap:               0.0
 (Enter /sw/contrib/gaussian/g16/B01/g16/l703.exe)
 Integral derivatives from FoFJK, PRISM(SPDF).
 Compute integral second derivatives, UseDBF=F ICtDFT=           0.
 Calling FoFJK, ICntrl=  10100127 FMM=F ISym2X=1 I1Cent= 0 IOpClX= 0 NMat=1 NMatS=1 NMatT=0.
 FoFJK:  IHMeth= 1 ICntrl=10100127 DoSepK=F KAlg= 0 I1Cent=           0 FoldK=F
 IRaf=         0 NMat=       1 IRICut=       1 DoRegI=T DoRafI=F ISym2E= 1 IDoP0=0 IntGTp=1.
 FoFCou: FMM=F IPFlag=           0 FMFlag=      100000 FMFlg1=         800
         NFxFlg=           0 DoJE=F BraDBF=F KetDBF=F FulRan=T
         wScrn=  0.000000 ICntrl=  10100127 IOpCl=  0 I1Cent=           0 NGrid=           0
         NMat0=    1 NMatS0=      1 NMatT0=    0 NMatD0=    1 NMtDS0=    0 NMtDT0=    0
 Petite list used in FoFCou.
 Leave Link  703 at Sun Mar  6 19:21:55 2022, MaxMem= 16106127360 cpu:             444.1 elap:              15.9
 (Enter /sw/contrib/gaussian/g16/B01/g16/l716.exe)
 Dipole        = 9.30641043D-03-4.51560818D-01-5.39488351D-33
 Polarizability= 3.08305270D+01 4.06479245D+00 2.96052350D+01
                -1.83919035D-31 5.59259460D-31 1.75866190D+01
 Full mass-weighted force constant matrix:
 Low frequencies --- -112.1932  -65.6611  -29.0087   -0.0008    0.0011    0.0015
 Low frequencies ---  346.8153  395.6252  511.7664
 Diagonal vibrational polarizability:
        7.3052611      10.0568922      16.3486282
 Harmonic frequencies (cm**-1), IR intensities (KM/Mole), Raman scattering
 activities (A**4/AMU), depolarization ratios for plane and unpolarized
 incident light, reduced masses (AMU), force constants (mDyne/A),
 and normal coordinates:
                      1                      2                      3
                     A"                     A'                     A"
 Frequencies --    346.5859               395.5283               511.3496
 Red. masses --      1.6212                 7.1093                 2.7132
 Frc consts  --      0.1147                 0.6553                 0.4180
 IR Inten    --     60.0315                 7.2812                28.1736
  Atom  AN      X      Y      Z        X      Y      Z        X      Y      Z
     1   1     0.00   0.00   0.98    -0.73  -0.25   0.00     0.00   0.00   0.94
     2   8     0.00   0.00  -0.11    -0.32  -0.32  -0.00     0.00   0.00   0.05
     3   8     0.00  -0.00   0.12    -0.06   0.09   0.00    -0.00  -0.00  -0.17
     4   7    -0.00  -0.00  -0.12     0.05   0.08  -0.00    -0.00  -0.00   0.26
     5   8    -0.00  -0.00   0.03     0.39   0.17  -0.00    -0.00  -0.00  -0.16
                      4                      5                      6
                     A'                     A'                     A'
 Frequencies --    706.6463               836.5663               973.5505
 Red. masses --     13.5973                12.2602                 9.6518
 Frc consts  --      4.0004                 5.0553                 5.3898
 IR Inten    --    222.5141                26.0053                11.9044
  Atom  AN      X      Y      Z        X      Y      Z        X      Y      Z
     1   1    -0.33   0.00   0.00     0.45  -0.15  -0.00    -0.64  -0.01   0.00
     2   8     0.01  -0.08   0.00     0.53  -0.20  -0.00     0.19  -0.17  -0.00
     3   8     0.38   0.58  -0.00    -0.39  -0.03   0.00    -0.35   0.41   0.00
     4   7    -0.44  -0.46   0.00    -0.42  -0.04  -0.00     0.38   0.03  -0.00
     5   8     0.02  -0.10  -0.00     0.20   0.28   0.00    -0.13  -0.27   0.00
                      7                      8                      9
                     A'                     A'                     A'
 Frequencies --   1439.2905              1635.7975              3489.0102
 Red. masses --      1.2322                 9.0266                 1.0637
 Frc consts  --      1.5040                14.2310                 7.6293
 IR Inten    --     81.9162               161.2738                42.3767
  Atom  AN      X      Y      Z        X      Y      Z        X      Y      Z
     1   1     0.97  -0.20  -0.00    -0.63   0.15   0.00     0.15   0.99   0.00
     2   8    -0.06  -0.05  -0.00     0.01   0.01  -0.00    -0.01  -0.06  -0.00
     3   8    -0.02   0.06   0.00    -0.05  -0.06   0.00     0.00  -0.00   0.00
     4   7     0.05  -0.03  -0.00     0.30  -0.49   0.00    -0.00   0.00   0.00
     5   8    -0.02   0.03   0.00    -0.18   0.46  -0.00     0.00  -0.00  -0.00

 -------------------
 - Thermochemistry -
 -------------------
 Temperature   298.150 Kelvin.  Pressure   1.00000 Atm.
 Atom     1 has atomic number  1 and mass   1.00783
 Atom     2 has atomic number  8 and mass  15.99491
 Atom     3 has atomic number  8 and mass  15.99491
 Atom     4 has atomic number  7 and mass  14.00307
 Atom     5 has atomic number  8 and mass  15.99491
 Molecular mass:    62.99564 amu.
 Principal axes and moments of inertia in atomic units:
                           1         2         3
     Eigenvalues --    83.75816 222.13990 305.89806
           X            0.79946  -0.60072   0.00000
           Y            0.60072   0.79946   0.00000
           Z            0.00000  -0.00000   1.00000
 This molecule is an asymmetric top.
 Rotational symmetry number  1.
 Rotational temperatures (Kelvin)      1.03410     0.38991     0.28315
 Rotational constants (GHZ):          21.54705     8.12434     5.89981
 Zero-point vibrational energy      61813.0 (Joules/Mol)
                                   14.77366 (Kcal/Mol)
 Warning -- explicit consideration of   3 degrees of freedom as
           vibrations may cause significant error
 Vibrational temperatures:    498.66   569.08   735.72  1016.71  1203.63
          (Kelvin)           1400.72  2070.82  2353.55  5019.91
 
 Zero-point correction=                           0.023543 (Hartree/Particle)
 Thermal correction to Energy=                    0.027499
 Thermal correction to Enthalpy=                  0.028443
 Thermal correction to Gibbs Free Energy=        -0.002437
 Sum of electronic and zero-point Energies=           -280.431502
 Sum of electronic and thermal Energies=              -280.427547
 Sum of electronic and thermal Enthalpies=            -280.426603
 Sum of electronic and thermal Free Energies=         -280.457483
 
                     E (Thermal)             CV                S
                      KCal/Mol        Cal/Mol-Kelvin    Cal/Mol-Kelvin
 Total                   17.256             12.203             64.993
 Electronic               0.000              0.000              0.000
 Translational            0.889              2.981             38.341
 Rotational               0.889              2.981             23.258
 Vibrational             15.478              6.242              3.395
 Vibration     1          0.725              1.582              1.182
 Vibration     2          0.762              1.480              0.979
 Vibration     3          0.866              1.225              0.630
                       Q            Log10(Q)             Ln(Q)
 Total Bot       0.132159D+02          1.121095          2.581418
 Total V=0       0.891792D+12         11.950263         27.516498
 Vib (Bot)       0.249009D-10        -10.603785        -24.416117
 Vib (Bot)    1  0.533509D+00         -0.272858         -0.628279
 Vib (Bot)    2  0.452098D+00         -0.344767         -0.793856
 Vib (Bot)    3  0.318158D+00         -0.497357         -1.145206
 Vib (V=0)       0.168029D+01          0.225383          0.518963
 Vib (V=0)    1  0.123119D+01          0.090323          0.207977
 Vib (V=0)    2  0.117409D+01          0.069700          0.160490
 Vib (V=0)    3  0.109264D+01          0.038478          0.088599
 Electronic      0.100000D+01          0.000000          0.000000
 Translational   0.196526D+08          7.293420         16.793719
 Rotational      0.270060D+05          4.431461         10.203816
 
                                                                title
                                                             IR Spectrum
 
      3                                                                  1      1                                                    
      4                                                                  6      4                9    8    7      5   3 3            
      8                                                                  3      3                7    3    0      1   9 4            
      9                                                                  6      9                4    7    7      1   6 7            
 
      X                                                                  X      X                X    X    X      X   X X            
      X                                                                  X      X                     X    X      X     X            
      X                                                                  X      X                          X      X     X            
      X                                                                  X      X                          X            X            
                                                                         X      X                          X            X            
                                                                         X      X                          X                         
                                                                         X      X                          X                         
                                                                         X                                 X                         
                                                                         X                                 X                         
                                                                         X                                 X                         
                                                                         X                                 X                         
                                                                         X                                 X                         
                                                                         X                                 X                         
                                                                         X                                 X                         
                                                                                                           X                         
                                                                                                           X                         
                                                                                                           X                         
                                                                                                           X                         
                                                                                                           X                         
                                                                                                           X                         
 
 ***** Axes restored to original set *****
 -------------------------------------------------------------------
 Center     Atomic                   Forces (Hartrees/Bohr)
 Number     Number              X              Y              Z
 -------------------------------------------------------------------
      1        1          -0.000235440   -0.000000000    0.000251172
      2        8          -0.000398946   -0.000000000   -0.000354696
      3        8          -0.000487448   -0.000000000    0.003186021
      4        7           0.009280270    0.000000000    0.012160440
      5        8          -0.008158436   -0.000000000   -0.015242937
 -------------------------------------------------------------------
 Cartesian Forces:  Max     0.015242937 RMS     0.006020514
 -----------------------------------------------------------------------------------------------
                       Internal Coordinate Forces (Hartree/Bohr or radian)
  Cent   Atom   N1       Length/X         N2         Alpha/Y        N3         Beta/Z          J
 -----------------------------------------------------------------------------------------------
      1  H 
      2  O        1  -0.000251(     1)
      3  O        2   0.000643(     2)      1   0.000438(     5)
      4  N        3   0.003186(     3)      2   0.000480(     6)      1  -0.000000(     8)     0
      5  O        4   0.017252(     4)      3   0.002518(     7)      2  -0.000000(     9)     0
 -----------------------------------------------------------------------------------------------
 Internal  Forces:  Max     0.017252194 RMS     0.005916338
 Force constants in Cartesian coordinates: 
                1             2             3             4             5 
      1  0.722575D-01
      2  0.000000D+00  0.599561D-02
      3  0.239383D-01  0.000000D+00  0.437076D+00
      4 -0.518846D-01  0.000000D+00 -0.485957D-02  0.281287D+00
      5  0.000000D+00 -0.240199D-02  0.000000D+00  0.000000D+00  0.120646D-01
      6  0.321754D-01  0.000000D+00 -0.420692D+00 -0.119124D-01  0.000000D+00
      7 -0.251794D-01  0.000000D+00 -0.159417D-01 -0.171001D+00  0.000000D+00
      8  0.000000D+00 -0.425567D-02  0.000000D+00  0.000000D+00 -0.187932D-01
      9 -0.439648D-01  0.000000D+00 -0.196716D-01  0.100442D-01  0.000000D+00
     10 -0.577019D-02  0.000000D+00  0.656073D-02 -0.845137D-01  0.000000D+00
     11  0.000000D+00  0.811122D-02  0.000000D+00  0.000000D+00  0.199315D-01
     12 -0.194475D-01  0.000000D+00  0.117732D-01  0.110007D-01  0.000000D+00
     13  0.105767D-01  0.000000D+00 -0.969779D-02  0.261124D-01  0.000000D+00
     14  0.000000D+00 -0.744917D-02  0.000000D+00  0.000000D+00 -0.108009D-01
     15  0.729852D-02  0.000000D+00 -0.848531D-02 -0.427297D-02  0.000000D+00
                6             7             8             9            10 
      6  0.522296D+00
      7 -0.915198D-01  0.303165D+00
      8  0.000000D+00  0.000000D+00  0.396644D-01
      9 -0.967952D-01  0.828179D-01  0.000000D+00  0.318440D+00
     10  0.404694D-01 -0.145225D+00  0.000000D+00 -0.358456D-01  0.573464D+00
     11  0.000000D+00  0.000000D+00 -0.475060D-01  0.000000D+00  0.000000D+00
     12 -0.102357D-01  0.133871D-01  0.000000D+00 -0.203431D-01  0.275987D+00
     13  0.307874D-01  0.382409D-01  0.000000D+00 -0.130518D-01 -0.337955D+00
     14  0.000000D+00  0.000000D+00  0.308905D-01  0.000000D+00  0.000000D+00
     15  0.542708D-02  0.112565D-01  0.000000D+00 -0.181630D+00 -0.287171D+00
               11            12            13            14            15 
     11  0.506151D-01
     12  0.000000D+00  0.486046D+00
     13  0.000000D+00 -0.280927D+00  0.263025D+00
     14 -0.311519D-01  0.000000D+00  0.000000D+00  0.185114D-01
     15  0.000000D+00 -0.467240D+00  0.272889D+00  0.000000D+00  0.651929D+00
 Force constants in internal coordinates: 
                1             2             3             4             5 
      1  0.437076D+00
      2  0.217748D-01  0.259558D+00
      3  0.447700D-02  0.176307D-01  0.207997D+00
      4 -0.123280D-01  0.231529D-01  0.155564D+00  0.788194D+00
      5  0.443399D-01  0.565691D-01 -0.237800D-01  0.219441D-01  0.250076D+00
      6  0.104196D-01  0.221599D-01  0.924970D-01  0.102231D-01 -0.792341D-02
      7  0.838420D-02 -0.729778D-01  0.124311D+00  0.119378D+00 -0.213288D-01
      8  0.000000D+00  0.000000D+00  0.000000D+00  0.000000D+00  0.000000D+00
      9  0.000000D+00  0.000000D+00  0.000000D+00  0.000000D+00  0.000000D+00
                6             7             8             9 
      6  0.522365D+00
      7  0.614321D-01  0.671953D+00
      8  0.000000D+00  0.000000D+00  0.195498D-01
      9  0.000000D+00  0.000000D+00  0.277669D-01  0.107864D+00
 Leave Link  716 at Sun Mar  6 19:21:55 2022, MaxMem= 16106127360 cpu:               0.7 elap:               0.0
 (Enter /sw/contrib/gaussian/g16/B01/g16/l103.exe)

 GradGradGradGradGradGradGradGradGradGradGradGradGradGradGradGradGradGrad
 Berny optimization.
 Search for a local minimum.
 Step number   1 out of a maximum of    2
 All quantities printed in internal units (Hartrees-Bohrs-Radians)
 Second derivative matrix not updated -- analytic derivatives used.
 The second derivative matrix:
                          r1        r2        r3        r4        a1
           r1           0.43708
           r2           0.02177   0.25956
           r3           0.00448   0.01763   0.20800
           r4          -0.01233   0.02315   0.15556   0.78819
           a1           0.04434   0.05657  -0.02378   0.02194   0.25008
           a2           0.01042   0.02216   0.09250   0.01022  -0.00792
           a3           0.00838  -0.07298   0.12431   0.11938  -0.02133
           d1           0.00000   0.00000   0.00000  -0.00000  -0.00000
           d2           0.00000  -0.00000  -0.00000  -0.00000  -0.00000
                          a2        a3        d1        d2
           a2           0.52236
           a3           0.06143   0.67195
           d1           0.00000   0.00000   0.01955
           d2          -0.00000   0.00000   0.02777   0.10786
 ITU=  0
     Eigenvalues ---    0.01155   0.11587   0.12406   0.20405   0.27744
     Eigenvalues ---    0.44984   0.51773   0.63480   0.92929
 Angle between quadratic step and forces=  17.25 degrees.
 Linear search not attempted -- first point.
 Variable       Old X    -DE/DX   Delta X   Delta X   Delta X     New X
                                 (Linear)    (Quad)   (Total)
    r1        1.86209  -0.00025   0.00000   0.00007   0.00007   1.86216
    r2        2.69614   0.00064   0.00000   0.00069   0.00069   2.69684
    r3        2.60992   0.00319   0.00000  -0.00183  -0.00183   2.60809
    r4        2.23535   0.01725   0.00000   0.02221   0.02221   2.25756
    a1        1.75642   0.00044   0.00000  -0.00050  -0.00050   1.75592
    a2        1.97463   0.00048   0.00000   0.00075   0.00075   1.97538
    a3        1.99550   0.00252   0.00000   0.00013   0.00013   1.99563
    d1        0.00000  -0.00000   0.00000  -0.00000  -0.00000  -0.00000
    d2        0.00000  -0.00000   0.00000  -0.00000  -0.00000  -0.00000
         Item               Value     Threshold  Converged?
 Maximum Force            0.017252     0.000450     NO 
 RMS     Force            0.005916     0.000300     NO 
 Maximum Displacement     0.022214     0.001800     NO 
 RMS     Displacement     0.007440     0.001200     NO 
 Predicted change in Energy=-1.891589D-04
                       ----------------------------
                       ! Non-Optimized Parameters !
                       ! (Angstroms and Degrees)  !
 ----------------------                            ----------------------
 !      Name          Value   Derivative information (Atomic Units)     !
 ------------------------------------------------------------------------
 !       r1          0.9854   -DE/DX =   -0.0003                        !
 !       r2          1.4271   -DE/DX =    0.0006                        !
 !       r3          1.3801   -DE/DX =    0.0032                        !
 !       r4          1.1946   -DE/DX =    0.0173                        !
 !       a1        100.6066   -DE/DX =    0.0004                        !
 !       a2        113.1809   -DE/DX =    0.0005                        !
 !       a3        114.3413   -DE/DX =    0.0025                        !
 !       d1          0.0      -DE/DX =    0.0                           !
 !       d2          0.0      -DE/DX =    0.0                           !
 ------------------------------------------------------------------------
 GradGradGradGradGradGradGradGradGradGradGradGradGradGradGradGradGradGrad

 Leave Link  103 at Sun Mar  6 19:21:55 2022, MaxMem= 16106127360 cpu:               0.5 elap:               0.0
 (Enter /sw/contrib/gaussian/g16/B01/g16/l9999.exe)

 ----------------------------------------------------------------------

 Electric dipole moment (input orientation):
 (Debye = 10**-18 statcoulomb cm , SI units = C m)
                  (au)            (Debye)         (10**-30 SI)
   Tot        0.451657D+00      0.114800D+01      0.382931D+01
   x         -0.103309D+00     -0.262586D+00     -0.875894D+00
   y          0.000000D+00      0.000000D+00      0.000000D+00
   z         -0.439683D+00     -0.111756D+01     -0.372779D+01

 Dipole polarizability, Alpha (input orientation).
 (esu units = cm**3 , SI units = C**2 m**2 J**-1)
 Alpha(0;0):
               (au)            (10**-24 esu)      (10**-40 SI)
   iso        0.260075D+02      0.385391D+01      0.428805D+01
   aniso      0.144997D+02      0.214864D+01      0.239068D+01
   xx         0.291185D+02      0.431491D+01      0.480099D+01
   yx         0.000000D+00      0.000000D+00      0.000000D+00
   yy         0.175866D+02      0.260607D+01      0.289964D+01
   zx        -0.396095D+01     -0.586953D+00     -0.653073D+00
   zy         0.000000D+00      0.000000D+00      0.000000D+00
   zz         0.313173D+02      0.464074D+01      0.516352D+01

 ----------------------------------------------------------------------

 Dipole orientation:
     1          0.00000000          0.00000000         -0.00000000
     8         -0.42592435          0.00000000         -1.81272584
     8          2.03983237          0.00000000         -2.90324086
     7          3.94847438         -0.00000000         -1.12314452
     8          3.23289314         -0.00000000          0.99457107

 Electric dipole moment (dipole orientation):
 (Debye = 10**-18 statcoulomb cm , SI units = C m)
                  (au)            (Debye)         (10**-30 SI)
   Tot        0.451657D+00      0.114800D+01      0.382931D+01
   x          0.000000D+00      0.000000D+00      0.000000D+00
   y          0.000000D+00      0.000000D+00      0.000000D+00
   z          0.451657D+00      0.114800D+01      0.382931D+01

 Dipole polarizability, Alpha (dipole orientation).
 (esu units = cm**3 , SI units = C**2 m**2 J**-1)
 Alpha(0;0):
               (au)            (10**-24 esu)      (10**-40 SI)
   iso        0.260075D+02      0.385391D+01      0.428805D+01
   aniso      0.144997D+02      0.214864D+01      0.239068D+01
   xx         0.309975D+02      0.459335D+01      0.511079D+01
   yx         0.000000D+00      0.000000D+00      0.000000D+00
   yy         0.175866D+02      0.260607D+01      0.289964D+01
   zx         0.403610D+01      0.598088D+00      0.665463D+00
   zy         0.000000D+00      0.000000D+00      0.000000D+00
   zz         0.294383D+02      0.436230D+01      0.485372D+01

 ----------------------------------------------------------------------
 1\1\GINC-N2109\Freq\RMP2-FC\Aug-CC-pVTZ\H1N1O3\CGAVINH\06-Mar-2022\1\\
 #p freq mp2/aug-cc-pvtz density=current\\title\\0,1\H\O,1,r1\O,2,r2,1,
 a1\N,3,r3,2,a2,1,d1,0\O,4,r4,3,a3,2,d2,0\\r1=0.98537664\r2=1.42673666\
 r3=1.38110764\r4=1.18289465\a1=100.6355057\a2=113.13777052\a3=114.3339
 2022\d1=0.\d2=0.\\Version=ES64L-G16RevB.01\State=1-A'\HF=-279.508267\M
 P2=-280.4550458\RMSD=3.317e-09\RMSF=6.021e-03\ZeroPoint=0.0235433\Ther
 mal=0.0274989\Dipole=-0.1033094,0.,-0.4396828\DipoleDeriv=0.3165732,0.
 ,0.0375872,0.,0.2981073,0.,-0.0250411,0.,0.19868,-0.5274462,0.,0.27755
 14,0.,-0.2555209,0.,-0.1031577,0.,-0.128274,-0.0040009,0.,0.3442596,0.
 ,-0.0156404,0.,0.4416237,0.,-0.9218058,0.2030912,0.,-0.1270657,0.,0.01
 42328,0.,-0.6676702,0.,1.7506659,0.0117827,0.,-0.5323326,0.,-0.0411787
 ,0.,0.3542452,0.,-0.8992661\Polar=29.1184663,0.,17.586619,-3.9609544,0
 .,31.3172957\Quadrupole=0.1389524,0.6103877,-0.7493401,0.,1.3867898,0.
 \PG=CS [SG(H1N1O3)]\NImag=0\\0.07225753,0.,0.00599561,0.02393835,0.,0.
 43707603,-0.05188465,0.,-0.00485957,0.28128663,0.,-0.00240199,0.,0.,0.
 01206458,0.03217538,0.,-0.42069234,-0.01191239,0.,0.52229620,-0.025179
 40,0.,-0.01594172,-0.17100066,0.,-0.09151979,0.30316464,0.,-0.00425567
 ,0.,0.,-0.01879323,0.,0.,0.03966442,-0.04396479,0.,-0.01967162,0.01004
 422,0.,-0.09679523,0.08281790,0.,0.31844042,-0.00577019,0.,0.00656073,
 -0.08451368,0.,0.04046944,-0.14522548,0.,-0.03584557,0.57346416,0.,0.0
 0811122,0.,0.,0.01993152,0.,0.,-0.04750600,0.,0.,0.05061514,-0.0194474
 6,0.,0.01177325,0.01100071,0.,-0.01023570,0.01338707,0.,-0.02034310,0.
 27598674,0.,0.48604592,0.01057671,0.,-0.00969779,0.02611237,0.,0.03078
 736,0.03824091,0.,-0.01305175,-0.33795481,0.,-0.28092707,0.26302482,0.
 ,-0.00744917,0.,0.,-0.01080087,0.,0.,0.03089048,0.,0.,-0.03115188,0.,0
 .,0.01851144,0.00729852,0.,-0.00848531,-0.00427297,0.,0.00542708,0.011
 25654,0.,-0.18163046,-0.28717134,0.,-0.46724037,0.27288925,0.,0.651929
 06\\0.00023544,0.,-0.00025117,0.00039895,0.,0.00035470,0.00048745,0.,-
 0.00318602,-0.00928027,0.,-0.01216044,0.00815844,0.,0.01524294\\\@


 IN NATURE THERE ARE NEITHER REWARDS OR
 PUNISHMENTS -- THERE ARE CONSEQUENCES.

                            -- ROBERT GREEN INGERSOLL
 Job cpu time:       0 days  2 hours  0 minutes 27.8 seconds.
 Elapsed time:       0 days  0 hours  4 minutes 21.4 seconds.
 File lengths (MBytes):  RWF=   7239 Int=      0 D2E=      0 Chk=      8 Scr=      1
 Normal termination of Gaussian 16 at Sun Mar  6 19:21:56 2022.
