title                                                                   
Freq      RMP2-FC                                                     Aug-CC-pVTZ         
Number of atoms                            I                5
Info1-9                                    I   N=           9
          33          24           0           0           0         100
           6           2           1
Full Title                                 C   N=           1
title       
Route                                      C   N=           4
#p freq mp2/aug-cc-pvtz density=current         
Charge                                     I                0
Multiplicity                               I                1
Number of electrons                        I               32
Number of alpha electrons                  I               16
Number of beta electrons                   I               16
Number of basis functions                  I              207
Number of independent functions            I              207
Number of point charges in /Mol/           I                0
Number of translation vectors              I                0
Atomic numbers                             I   N=           5
           1           8           8           7           8
Nuclear charges                            R   N=           5
  1.00000000E+00  8.00000000E+00  8.00000000E+00  7.00000000E+00  8.00000000E+00
Current cartesian coordinates              R   N=          15
  2.03465380E+00 -1.11304418E+00  0.00000000E+00  2.48777269E+00  6.93075922E-01
  0.00000000E+00  1.70758537E-16  1.73238639E+00  0.00000000E+00 -1.87143645E+00
 -8.67845537E-02  0.00000000E+00 -1.10459752E+00 -2.21039530E+00  0.00000000E+00
Number of symbols in /Mol/                 I                0
Force Field                                I                0
Atom Types                                 C   N=           5
                                                            
Int Atom Types                             I   N=           5
           0           0           0           0           0
MM charges                                 R   N=           5
  0.00000000E+00  0.00000000E+00  0.00000000E+00  0.00000000E+00  0.00000000E+00
Integer atomic weights                     I   N=           5
           1          16          16          14          16
Real atomic weights                        R   N=           5
  1.00782504E+00  1.59949146E+01  1.59949146E+01  1.40030740E+01  1.59949146E+01
Atom fragment info                         I   N=           5
           0           0           0           0           0
Atom residue num                           I   N=           5
           0           0           0           0           0
Nuclear spins                              I   N=           5
           1           0           0           2           0
Nuclear ZEff                               R   N=           5
 -1.00000000E+00 -5.60000000E+00 -5.60000000E+00 -4.55000000E+00 -5.60000000E+00
Nuclear ZNuc                               R   N=           5
  1.00000000E+00  8.00000000E+00  8.00000000E+00  7.00000000E+00  8.00000000E+00
Nuclear QMom                               R   N=           5
  0.00000000E+00  0.00000000E+00  0.00000000E+00  2.04400000E+00  0.00000000E+00
Nuclear GFac                               R   N=           5
  2.79284600E+00  0.00000000E+00  0.00000000E+00  4.03761000E-01  0.00000000E+00
MicOpt                                     I   N=           5
          -1          -1          -1          -1          -1
Number of residues                         I                0
Number of secondary structures             I                0
SymInf integers                            I   N=          26
           1           2           1           1           1           1
           1          -1           0           0           0           0
           0           0           0           0           0           0
           0           0           0           0           0           0
           0           0
RotTr to input orientation                 R   N=          12
 -9.69941399E-01  0.00000000E+00  2.43338616E-01  2.43338616E-01  0.00000000E+00
  9.69941399E-01  0.00000000E+00  1.00000000E+00  0.00000000E+00  2.24434159E+00
  0.00000000E+00  5.84477786E-01
Number of contracted shells                I               65
Number of primitive shells                 I              119
Pure/Cartesian d shells                    I                0
Pure/Cartesian f shells                    I                0
Highest angular momentum                   I                3
Largest degree of contraction              I                7
Shell types                                I   N=          65
           0           0           0           0           1           1
           1          -2          -2           0           0           0
           0           0           1           1           1           1
          -2          -2          -2          -3          -3           0
           0           0           0           0           1           1
           1           1          -2          -2          -2          -3
          -3           0           0           0           0           0
           1           1           1           1          -2          -2
          -2          -3          -3           0           0           0
           0           0           1           1           1           1
          -2          -2          -2          -3          -3
Number of primitives per shell             I   N=          65
           3           1           1           1           1           1
           1           1           1           7           6           1
           1           1           3           1           1           1
           1           1           1           1           1           7
           6           1           1           1           3           1
           1           1           1           1           1           1
           1           7           6           1           1           1
           3           1           1           1           1           1
           1           1           1           7           6           1
           1           1           3           1           1           1
           1           1           1           1           1
Shell to atom map                          I   N=          65
           1           1           1           1           1           1
           1           1           1           2           2           2
           2           2           2           2           2           2
           2           2           2           2           2           3
           3           3           3           3           3           3
           3           3           3           3           3           3
           3           4           4           4           4           4
           4           4           4           4           4           4
           4           4           4           5           5           5
           5           5           5           5           5           5
           5           5           5           5           5
Primitive exponents                        R   N=         119
  3.38700000E+01  5.09500000E+00  1.15900000E+00  3.25800000E-01  1.02700000E-01
  2.52600000E-02  1.40700000E+00  3.88000000E-01  1.02000000E-01  1.05700000E+00
  2.47000000E-01  1.53300000E+04  2.29900000E+03  5.22400000E+02  1.47300000E+02
  4.75500000E+01  1.67600000E+01  6.20700000E+00  5.22400000E+02  1.47300000E+02
  4.75500000E+01  1.67600000E+01  6.20700000E+00  6.88200000E-01  1.75200000E+00
  2.38400000E-01  7.37600000E-02  3.44600000E+01  7.74900000E+00  2.28000000E+00
  7.15600000E-01  2.14000000E-01  5.97400000E-02  2.31400000E+00  6.45000000E-01
  2.14000000E-01  1.42800000E+00  5.00000000E-01  1.53300000E+04  2.29900000E+03
  5.22400000E+02  1.47300000E+02  4.75500000E+01  1.67600000E+01  6.20700000E+00
  5.22400000E+02  1.47300000E+02  4.75500000E+01  1.67600000E+01  6.20700000E+00
  6.88200000E-01  1.75200000E+00  2.38400000E-01  7.37600000E-02  3.44600000E+01
  7.74900000E+00  2.28000000E+00  7.15600000E-01  2.14000000E-01  5.97400000E-02
  2.31400000E+00  6.45000000E-01  2.14000000E-01  1.42800000E+00  5.00000000E-01
  1.14200000E+04  1.71200000E+03  3.89300000E+02  1.10000000E+02  3.55700000E+01
  1.25400000E+01  4.64400000E+00  3.89300000E+02  1.10000000E+02  3.55700000E+01
  1.25400000E+01  4.64400000E+00  5.11800000E-01  1.29300000E+00  1.78700000E-01
  5.76000000E-02  2.66300000E+01  5.94800000E+00  1.74200000E+00  5.55000000E-01
  1.72500000E-01  4.91000000E-02  1.65400000E+00  4.69000000E-01  1.51000000E-01
  1.09300000E+00  3.64000000E-01  1.53300000E+04  2.29900000E+03  5.22400000E+02
  1.47300000E+02  4.75500000E+01  1.67600000E+01  6.20700000E+00  5.22400000E+02
  1.47300000E+02  4.75500000E+01  1.67600000E+01  6.20700000E+00  6.88200000E-01
  1.75200000E+00  2.38400000E-01  7.37600000E-02  3.44600000E+01  7.74900000E+00
  2.28000000E+00  7.15600000E-01  2.14000000E-01  5.97400000E-02  2.31400000E+00
  6.45000000E-01  2.14000000E-01  1.42800000E+00  5.00000000E-01
Contraction coefficients                   R   N=         119
  2.54948632E-02  1.90362766E-01  8.52162022E-01  1.00000000E+00  1.00000000E+00
  1.00000000E+00  1.00000000E+00  1.00000000E+00  1.00000000E+00  1.00000000E+00
  1.00000000E+00  5.19808943E-04  4.02025621E-03  2.07128267E-02  8.10105536E-02
  2.35962985E-01  4.42653446E-01  3.57064423E-01 -4.42115008E-05 -1.22591041E-03
 -1.05517725E-02 -6.74452633E-02 -1.71198607E-01  1.07329856E+00  1.00000000E+00
  1.00000000E+00  1.00000000E+00  4.11634896E-02  2.57762836E-01  8.02419274E-01
  1.00000000E+00  1.00000000E+00  1.00000000E+00  1.00000000E+00  1.00000000E+00
  1.00000000E+00  1.00000000E+00  1.00000000E+00  5.19808943E-04  4.02025621E-03
  2.07128267E-02  8.10105536E-02  2.35962985E-01  4.42653446E-01  3.57064423E-01
 -4.42115008E-05 -1.22591041E-03 -1.05517725E-02 -6.74452633E-02 -1.71198607E-01
  1.07329856E+00  1.00000000E+00  1.00000000E+00  1.00000000E+00  4.11634896E-02
  2.57762836E-01  8.02419274E-01  1.00000000E+00  1.00000000E+00  1.00000000E+00
  1.00000000E+00  1.00000000E+00  1.00000000E+00  1.00000000E+00  1.00000000E+00
  5.34563860E-04  4.13435660E-03  2.12335358E-02  8.25006224E-02  2.38138871E-01
  4.42551547E-01  3.53757422E-01 -4.89867350E-05 -1.19527323E-03 -1.03490714E-02
 -6.48680190E-02 -1.71552477E-01  1.07289568E+00  1.00000000E+00  1.00000000E+00
  1.00000000E+00  3.98072123E-02  2.49002660E-01  8.10479727E-01  1.00000000E+00
  1.00000000E+00  1.00000000E+00  1.00000000E+00  1.00000000E+00  1.00000000E+00
  1.00000000E+00  1.00000000E+00  5.19808943E-04  4.02025621E-03  2.07128267E-02
  8.10105536E-02  2.35962985E-01  4.42653446E-01  3.57064423E-01 -4.42115008E-05
 -1.22591041E-03 -1.05517725E-02 -6.74452633E-02 -1.71198607E-01  1.07329856E+00
  1.00000000E+00  1.00000000E+00  1.00000000E+00  4.11634896E-02  2.57762836E-01
  8.02419274E-01  1.00000000E+00  1.00000000E+00  1.00000000E+00  1.00000000E+00
  1.00000000E+00  1.00000000E+00  1.00000000E+00  1.00000000E+00
Coordinates of each shell                  R   N=         195
  2.03465380E+00 -1.11304418E+00  0.00000000E+00  2.03465380E+00 -1.11304418E+00
  0.00000000E+00  2.03465380E+00 -1.11304418E+00  0.00000000E+00  2.03465380E+00
 -1.11304418E+00  0.00000000E+00  2.03465380E+00 -1.11304418E+00  0.00000000E+00
  2.03465380E+00 -1.11304418E+00  0.00000000E+00  2.03465380E+00 -1.11304418E+00
  0.00000000E+00  2.03465380E+00 -1.11304418E+00  0.00000000E+00  2.03465380E+00
 -1.11304418E+00  0.00000000E+00  2.48777269E+00  6.93075922E-01  0.00000000E+00
  2.48777269E+00  6.93075922E-01  0.00000000E+00  2.48777269E+00  6.93075922E-01
  0.00000000E+00  2.48777269E+00  6.93075922E-01  0.00000000E+00  2.48777269E+00
  6.93075922E-01  0.00000000E+00  2.48777269E+00  6.93075922E-01  0.00000000E+00
  2.48777269E+00  6.93075922E-01  0.00000000E+00  2.48777269E+00  6.93075922E-01
  0.00000000E+00  2.48777269E+00  6.93075922E-01  0.00000000E+00  2.48777269E+00
  6.93075922E-01  0.00000000E+00  2.48777269E+00  6.93075922E-01  0.00000000E+00
  2.48777269E+00  6.93075922E-01  0.00000000E+00  2.48777269E+00  6.93075922E-01
  0.00000000E+00  2.48777269E+00  6.93075922E-01  0.00000000E+00 -1.31759512E-17
  1.73238639E+00  0.00000000E+00 -1.31759512E-17  1.73238639E+00  0.00000000E+00
 -1.31759512E-17  1.73238639E+00  0.00000000E+00 -1.31759512E-17  1.73238639E+00
  0.00000000E+00 -1.31759512E-17  1.73238639E+00  0.00000000E+00 -1.31759512E-17
  1.73238639E+00  0.00000000E+00 -1.31759512E-17  1.73238639E+00  0.00000000E+00
 -1.31759512E-17  1.73238639E+00  0.00000000E+00 -1.31759512E-17  1.73238639E+00
  0.00000000E+00 -1.31759512E-17  1.73238639E+00  0.00000000E+00 -1.31759512E-17
  1.73238639E+00  0.00000000E+00 -1.31759512E-17  1.73238639E+00  0.00000000E+00
 -1.31759512E-17  1.73238639E+00  0.00000000E+00 -1.31759512E-17  1.73238639E+00
  0.00000000E+00 -1.87143645E+00 -8.67845537E-02  0.00000000E+00 -1.87143645E+00
 -8.67845537E-02  0.00000000E+00 -1.87143645E+00 -8.67845537E-02  0.00000000E+00
 -1.87143645E+00 -8.67845537E-02  0.00000000E+00 -1.87143645E+00 -8.67845537E-02
  0.00000000E+00 -1.87143645E+00 -8.67845537E-02  0.00000000E+00 -1.87143645E+00
 -8.67845537E-02  0.00000000E+00 -1.87143645E+00 -8.67845537E-02  0.00000000E+00
 -1.87143645E+00 -8.67845537E-02  0.00000000E+00 -1.87143645E+00 -8.67845537E-02
  0.00000000E+00 -1.87143645E+00 -8.67845537E-02  0.00000000E+00 -1.87143645E+00
 -8.67845537E-02  0.00000000E+00 -1.87143645E+00 -8.67845537E-02  0.00000000E+00
 -1.87143645E+00 -8.67845537E-02  0.00000000E+00 -1.10459752E+00 -2.21039530E+00
  0.00000000E+00 -1.10459752E+00 -2.21039530E+00  0.00000000E+00 -1.10459752E+00
 -2.21039530E+00  0.00000000E+00 -1.10459752E+00 -2.21039530E+00  0.00000000E+00
 -1.10459752E+00 -2.21039530E+00  0.00000000E+00 -1.10459752E+00 -2.21039530E+00
  0.00000000E+00 -1.10459752E+00 -2.21039530E+00  0.00000000E+00 -1.10459752E+00
 -2.21039530E+00  0.00000000E+00 -1.10459752E+00 -2.21039530E+00  0.00000000E+00
 -1.10459752E+00 -2.21039530E+00  0.00000000E+00 -1.10459752E+00 -2.21039530E+00
  0.00000000E+00 -1.10459752E+00 -2.21039530E+00  0.00000000E+00 -1.10459752E+00
 -2.21039530E+00  0.00000000E+00 -1.10459752E+00 -2.21039530E+00  0.00000000E+00
Num ILSW                                   I              100
ILSW                                       I   N=         100
           0           0           0           0           2           0
           0           0           0           0           0          -1
           5           0           0           0           2           0
           0           0           0           0           1           0
           1           0           0           0           0           0
           0           0      100000           0          -1           0
           0           0           0           0           0           0
           0           0           0           1           1           0
           0 -2000000000           1           0           0           0
           0           0           4          52           0           0
           0           0           0           0           0           0
           0           0           0           5           4           1
           0           0           0           0           0           0
           0           0           0           0           0           0
           0           0           0           0           0           0
           0           0           0           0           0           0
           0           0           0           0
Num RLSW                                   I               52
RLSW                                       R   N=          52
  1.00000000E+00  1.00000000E+00  1.00000000E+00  1.00000000E+00  1.00000000E+00
  0.00000000E+00  0.00000000E+00  1.00000000E+00  0.00000000E+00  0.00000000E+00
  0.00000000E+00  0.00000000E+00  1.00000000E+00  0.00000000E+00  0.00000000E+00
  0.00000000E+00  0.00000000E+00  1.00000000E+00  0.00000000E+00  0.00000000E+00
  0.00000000E+00  0.00000000E+00  1.00000000E+00  0.00000000E+00  0.00000000E+00
  0.00000000E+00  0.00000000E+00  1.00000000E+00  0.00000000E+00  0.00000000E+00
  0.00000000E+00  0.00000000E+00  1.00000000E+00  0.00000000E+00  0.00000000E+00
  0.00000000E+00  0.00000000E+00  0.00000000E+00  1.00000000E+00  1.00000000E+00
  0.00000000E+00  1.00000000E+00  0.00000000E+00  0.00000000E+00  0.00000000E+00
  0.00000000E+00  0.00000000E+00  0.00000000E+00  0.00000000E+00  0.00000000E+00
  0.00000000E+00  0.00000000E+00
MxBond                                     I                2
NBond                                      I   N=           5
           1           2           2           2           1
IBond                                      I   N=          10
           2           0           1           3           2           4
           3           5           4           0
RBond                                      R   N=          10
  1.00000000E+00  0.00000000E+00  1.00000000E+00  1.00000000E+00  1.00000000E+00
  1.00000000E+00  1.00000000E+00  2.00000000E+00  2.00000000E+00  0.00000000E+00
Virial Ratio                               R      2.002192866594258E+00
SCF Energy                                 R     -2.795058172488026E+02
MP2 Energy                                 R     -2.804550788999019E+02
Total Energy                               R     -2.804550788999019E+02
Post-SCF wavefunction norm                 R      1.583823764719542E+00
RMS Force                                  R      1.941339762773545E-03
RMS Density                                R      4.499282878977175E-09
NImag                                      I                0
Job Status                                 I                1
Nuclear derivative order                   I                2
External E-field                           R   N=          35
  0.00000000E+00  0.00000000E+00  0.00000000E+00  0.00000000E+00  0.00000000E+00
  0.00000000E+00  0.00000000E+00  0.00000000E+00  0.00000000E+00  0.00000000E+00
  0.00000000E+00  0.00000000E+00  0.00000000E+00  0.00000000E+00  0.00000000E+00
  0.00000000E+00  0.00000000E+00  0.00000000E+00  0.00000000E+00  0.00000000E+00
  0.00000000E+00  0.00000000E+00  0.00000000E+00  0.00000000E+00  0.00000000E+00
  0.00000000E+00  0.00000000E+00  0.00000000E+00  0.00000000E+00  0.00000000E+00
  0.00000000E+00  0.00000000E+00  0.00000000E+00  0.00000000E+00  0.00000000E+00
IOpCl                                      I                0
IROHF                                      I                0
Alpha Orbital Energies                     R   N=         207
 -2.07195946E+01 -2.06885219E+01 -2.06687000E+01 -1.58270470E+01 -1.64596619E+00
 -1.50633868E+00 -1.29390971E+00 -9.60331417E-01 -8.36519866E-01 -7.59739878E-01
 -7.40771362E-01 -6.38172047E-01 -6.19255442E-01 -6.18819112E-01 -5.06043996E-01
 -4.97720418E-01  3.54452869E-02  5.93695534E-02  9.49950575E-02  1.00285145E-01
  1.19319309E-01  1.22609377E-01  1.49304094E-01  1.53097848E-01  1.77342279E-01
  1.79675067E-01  1.89598078E-01  2.10784735E-01  2.17004731E-01  2.42219569E-01
  2.46302385E-01  2.68473497E-01  3.13716934E-01  3.18068025E-01  3.37639305E-01
  3.43996477E-01  3.48373267E-01  3.92821975E-01  4.50146142E-01  4.91893051E-01
  5.05735558E-01  5.18045415E-01  5.42588020E-01  5.60406222E-01  5.96916418E-01
  6.20809336E-01  6.38596572E-01  6.91459625E-01  7.15976848E-01  7.23831030E-01
  7.41841601E-01  7.65042641E-01  7.66995529E-01  7.95580974E-01  8.06333222E-01
  8.37310750E-01  8.43226338E-01  8.53202129E-01  8.84957254E-01  9.08346764E-01
  9.28829807E-01  9.49420407E-01  9.53008092E-01  1.01968536E+00  1.03615274E+00
  1.06775369E+00  1.06996392E+00  1.09721443E+00  1.14628653E+00  1.15610158E+00
  1.16969741E+00  1.22140165E+00  1.22833448E+00  1.24923293E+00  1.34806561E+00
  1.36115274E+00  1.36979437E+00  1.46837180E+00  1.48425471E+00  1.50213635E+00
  1.54692745E+00  1.59722627E+00  1.59801705E+00  1.60309725E+00  1.62962862E+00
  1.69410257E+00  1.74929329E+00  1.80040349E+00  1.82878536E+00  1.88756730E+00
  1.91054513E+00  1.93435580E+00  1.97889901E+00  1.98809890E+00  2.05305909E+00
  2.12562886E+00  2.13443438E+00  2.16971992E+00  2.19159852E+00  2.24221121E+00
  2.26073644E+00  2.29794296E+00  2.35679007E+00  2.36791586E+00  2.39028783E+00
  2.40411781E+00  2.43625747E+00  2.46960491E+00  2.48058774E+00  2.53134184E+00
  2.54188861E+00  2.54772089E+00  2.56116249E+00  2.61697397E+00  2.63239875E+00
  2.67206382E+00  2.67537779E+00  2.75210841E+00  2.80250252E+00  2.81187035E+00
  2.85274119E+00  2.91699998E+00  2.98631771E+00  3.04791262E+00  3.05027350E+00
  3.11788029E+00  3.12495539E+00  3.18002216E+00  3.22444931E+00  3.31344566E+00
  3.33154102E+00  3.35711697E+00  3.48436289E+00  3.67730355E+00  3.87115328E+00
  3.94493510E+00  4.18973273E+00  4.22110445E+00  4.22711137E+00  4.26882987E+00
  4.36784258E+00  4.49729196E+00  4.53146818E+00  4.55481624E+00  4.61354564E+00
  4.68969278E+00  4.81295503E+00  4.89780072E+00  4.91544540E+00  4.93669382E+00
  4.99879818E+00  5.00473407E+00  5.10838704E+00  5.13349764E+00  5.17639562E+00
  5.25391238E+00  5.25422136E+00  5.31823565E+00  5.34356950E+00  5.38153235E+00
  5.54567037E+00  5.64430692E+00  5.71056334E+00  5.89699105E+00  5.99566165E+00
  6.26508593E+00  6.30029682E+00  6.35405582E+00  6.37403703E+00  6.60295879E+00
  6.65321475E+00  6.66454716E+00  6.69260751E+00  6.72422805E+00  6.79378258E+00
  6.80838491E+00  6.84994428E+00  6.96902506E+00  7.03773791E+00  7.06642169E+00
  7.07431967E+00  7.12620809E+00  7.17518072E+00  7.18084865E+00  7.20729690E+00
  7.24734669E+00  7.25100869E+00  7.27336685E+00  7.35165621E+00  7.40318231E+00
  7.43751266E+00  7.44121607E+00  7.46524788E+00  7.55946559E+00  7.66308750E+00
  7.67854105E+00  7.79735062E+00  7.89086392E+00  7.95230585E+00  8.08364134E+00
  8.32319202E+00  8.49482625E+00  8.65201565E+00  1.36249369E+01  1.47899986E+01
  1.51222820E+01  1.58145876E+01
Alpha MO coefficients                      R   N=       42849
  7.10405076E-05 -4.95241413E-06 -1.07168843E-03  1.32531463E-05 -3.90607395E-05
  3.97892082E-05  0.00000000E+00 -5.53520157E-05 -2.54006457E-04  0.00000000E+00
  1.27859439E-05 -3.20445244E-04  0.00000000E+00  4.17522018E-05  0.00000000E+00
  0.00000000E+00 -2.86285458E-05  2.99121917E-05  2.21036744E-04  0.00000000E+00
  0.00000000E+00 -6.07938976E-05 -2.09745014E-04  3.10863211E-03 -1.02401430E-04
 -9.53580453E-05  3.42832173E-03  2.39565706E-03  1.03691998E-04 -5.44064322E-05
  0.00000000E+00 -7.29766299E-04  3.08125498E-04  0.00000000E+00 -1.95067511E-03
  1.09655653E-03  0.00000000E+00 -5.32721309E-04  4.22903020E-05  0.00000000E+00
  2.07709225E-05  0.00000000E+00  0.00000000E+00 -8.88056616E-06  4.11316742E-05
 -4.38009665E-04  0.00000000E+00  0.00000000E+00  4.38229884E-04 -6.47267759E-04
 -3.57434959E-04  0.00000000E+00  0.00000000E+00  5.23875392E-04 -7.18118586E-04
  0.00000000E+00  7.36123688E-05 -5.32217536E-05  0.00000000E+00  0.00000000E+00
 -2.77091537E-05  1.05510422E-04  0.00000000E+00  2.11994848E-04 -4.91383688E-05
  0.00000000E+00  0.00000000E+00 -1.61357752E-04  2.93896722E-04  9.76900962E-01
 -9.17812419E-03  4.34095542E-02  5.52712760E-04 -2.18388454E-03  4.51622009E-04
 -2.14900326E-03  0.00000000E+00 -3.19973439E-04  2.25154358E-03  0.00000000E+00
 -2.25843237E-03 -5.11332229E-04  0.00000000E+00 -2.09659724E-04  9.37003147E-05
  0.00000000E+00  6.13047589E-06  0.00000000E+00  0.00000000E+00 -5.76714650E-06
  3.55999371E-05  8.23584397E-04  0.00000000E+00  0.00000000E+00 -4.68767203E-04
 -1.75658722E-04 -1.42838915E-04  0.00000000E+00  0.00000000E+00 -5.52867197E-04
  3.41712378E-04  0.00000000E+00 -6.59275576E-06 -7.99195291E-05  0.00000000E+00
  0.00000000E+00 -8.48235142E-06  4.79277553E-05  0.00000000E+00  9.19639425E-05
  2.21054061E-06  0.00000000E+00  0.00000000E+00 -3.36182456E-04  3.76630406E-04
  1.04078746E-04  4.56340066E-04 -3.22300563E-04 -8.52132694E-04  3.72163167E-04
 -4.38444345E-05 -1.00383894E-04  0.00000000E+00  6.93490118E-04  1.11168947E-03
  0.00000000E+00 -7.82318323E-04 -6.21789752E-04  0.00000000E+00  1.94150566E-04
  2.13794952E-04  0.00000000E+00 -5.24612265E-05  0.00000000E+00  0.00000000E+00
  1.87183746E-05  9.35168515E-05 -4.13507831E-04  0.00000000E+00  0.00000000E+00
  3.88984159E-05  1.07985009E-03  2.54840360E-05  0.00000000E+00  0.00000000E+00
 -3.24012470E-04  4.37658944E-05  0.00000000E+00 -7.80688184E-05 -1.13815074E-04
  0.00000000E+00  0.00000000E+00 -9.67128921E-05  1.06479124E-04  0.00000000E+00
 -1.25575155E-04  4.63939947E-05  0.00000000E+00  0.00000000E+00  1.30996276E-05
  5.17676287E-04 -7.41475435E-04  4.28893266E-05 -7.25258968E-05  2.72449489E-04
 -1.68095360E-04 -2.97493175E-05 -4.15910607E-05  0.00000000E+00  1.71564872E-04
  2.53820152E-04  0.00000000E+00  5.36682636E-04  3.52891425E-04  0.00000000E+00
 -2.07410151E-04 -6.23156362E-05  0.00000000E+00 -1.25406759E-05  0.00000000E+00
  0.00000000E+00  2.84345823E-06  1.50584514E-05 -4.69650657E-06  0.00000000E+00
  0.00000000E+00 -1.61161275E-04  9.84973335E-06 -1.81027874E-05  0.00000000E+00
  0.00000000E+00 -1.82512228E-04 -3.64423726E-05  0.00000000E+00 -6.51906631E-06
 -9.03367930E-06  0.00000000E+00  0.00000000E+00 -1.99698538E-05  9.34778614E-06
  0.00000000E+00  4.12392086E-05  6.03890877E-05  0.00000000E+00  0.00000000E+00
  1.53385798E-04 -1.02654853E-04  3.37489760E-05  6.58256268E-06 -3.78240102E-05
 -3.02559843E-05  2.58971638E-05  1.20552050E-05  0.00000000E+00  2.48721432E-04
  4.48154244E-05  0.00000000E+00  1.25665754E-04  3.75892314E-05  0.00000000E+00
  9.66591515E-06  0.00000000E+00  0.00000000E+00 -5.20430962E-06  2.04331427E-05
  3.03913735E-06  0.00000000E+00  0.00000000E+00 -9.03264532E-05  8.75225320E-05
 -2.57282217E-04  2.30585361E-05 -1.43590124E-05 -5.85565634E-04  1.04058261E-04
  7.71935232E-06  1.30101929E-05  0.00000000E+00 -9.08497654E-07 -3.77469013E-05
  0.00000000E+00  1.87646549E-04  8.14790314E-05  0.00000000E+00 -3.67740194E-05
  5.59419888E-05  0.00000000E+00 -1.44864885E-06  0.00000000E+00  0.00000000E+00
 -8.41064046E-06 -1.26774384E-05  2.19669453E-05  0.00000000E+00  0.00000000E+00
  5.17732857E-05  1.14353384E-04  6.03498733E-05  0.00000000E+00  0.00000000E+00
 -4.48569052E-05 -4.76187511E-05  0.00000000E+00  7.50427937E-06  9.52747621E-06
  0.00000000E+00  0.00000000E+00 -1.20934676E-06 -2.59565163E-05  0.00000000E+00
 -1.24489117E-05 -3.48790584E-05  0.00000000E+00  0.00000000E+00  4.96455580E-07
 -2.30085756E-05  7.68538765E-04  1.95632891E-05 -1.79377603E-05  3.34598186E-04
 -3.74475646E-04  1.64774965E-05  2.76601484E-05  0.00000000E+00 -6.61602058E-05
 -1.55982108E-04  0.00000000E+00  1.99735662E-04 -2.14316714E-04  0.00000000E+00
 -1.54671573E-04  1.38962556E-04  0.00000000E+00 -3.95009153E-06  0.00000000E+00
  0.00000000E+00 -2.96764130E-05 -1.00054879E-05 -5.28210645E-05  0.00000000E+00
  0.00000000E+00  8.08583888E-05  1.22726770E-04 -6.86593480E-05  0.00000000E+00
  0.00000000E+00  4.34001023E-05  2.46896599E-05  0.00000000E+00  3.01382224E-06
  3.12361118E-06  0.00000000E+00  0.00000000E+00 -7.96910186E-06 -2.72790557E-06
  0.00000000E+00  3.27545997E-06 -2.43232003E-05  0.00000000E+00  0.00000000E+00
  9.95627367E-05 -1.53934373E-04  2.36770552E-04  1.35617983E-03 -1.46007655E-04
 -7.29326024E-04  9.10651730E-04  6.32268856E-05 -7.12413788E-05  0.00000000E+00
  5.72350944E-04 -2.08263100E-03  0.00000000E+00  9.70596224E-05  5.35408610E-04
  0.00000000E+00  1.86434636E-04 -3.06325991E-04  0.00000000E+00 -1.27811035E-04
  0.00000000E+00  0.00000000E+00 -2.03942739E-04 -1.58364863E-04 -4.58517437E-04
  0.00000000E+00  0.00000000E+00 -6.00543518E-04 -9.25969886E-04 -4.31894030E-05
  0.00000000E+00  0.00000000E+00  5.49902621E-05  1.30629325E-04  0.00000000E+00
  8.61125824E-06  3.68886695E-05  0.00000000E+00  0.00000000E+00 -2.45160953E-05
 -4.46646379E-06  0.00000000E+00 -1.36522308E-04  1.57028870E-04  0.00000000E+00
  0.00000000E+00 -3.17756976E-04 -3.91865529E-05  9.76645551E-01 -9.88486235E-03
  4.35757120E-02  3.71141436E-03 -8.96278323E-04 -4.42463426E-04  2.13423303E-03
  0.00000000E+00  5.12669387E-04 -2.50844515E-03  0.00000000E+00 -9.91205329E-05
  8.40455959E-04  0.00000000E+00  1.06079675E-04 -6.48366908E-05  0.00000000E+00
 -1.93037746E-04  0.00000000E+00  0.00000000E+00 -7.47878287E-05 -4.35881533E-05
  4.08801105E-04  0.00000000E+00  0.00000000E+00  8.59092896E-04  4.84719207E-04
 -2.01030039E-04  0.00000000E+00  0.00000000E+00 -1.57666921E-04 -3.71034015E-05
  0.00000000E+00 -5.68925841E-06  7.03099932E-05  0.00000000E+00  0.00000000E+00
 -2.72709308E-05  1.08733327E-05  0.00000000E+00 -8.70037474E-05  9.08694513E-05
  0.00000000E+00  0.00000000E+00 -1.71782715E-04  2.05671631E-04  3.67442460E-04
  1.84205765E-03  1.56556350E-03 -1.86798644E-05  5.18942949E-05  2.66255301E-04
  0.00000000E+00  4.27998719E-04  9.86298494E-04  0.00000000E+00 -1.53428599E-04
  2.22165665E-04  0.00000000E+00 -2.35874548E-05  0.00000000E+00  0.00000000E+00
  2.74591988E-05 -3.66994328E-05 -2.57419737E-04  0.00000000E+00  0.00000000E+00
 -3.25591415E-04  4.78243629E-04  9.76834523E-01 -9.20224041E-03  4.34594140E-02
  1.46476931E-04 -1.95460712E-03 -2.05534069E-03 -8.02235776E-04  0.00000000E+00
  2.09766119E-03  7.47632762E-04  0.00000000E+00 -3.86976365E-04  5.33451447E-04
  0.00000000E+00  2.38895071E-04 -2.81112470E-04  0.00000000E+00  3.26951717E-05
  0.00000000E+00  0.00000000E+00 -6.90908546E-05  7.01495983E-05  7.58003084E-04
  0.00000000E+00  0.00000000E+00 -2.31426883E-04  3.30950022E-04 -2.42427695E-04
  0.00000000E+00  0.00000000E+00  3.05730733E-04  4.59585988E-05  0.00000000E+00
 -8.11786016E-05  1.98416370E-06  0.00000000E+00  0.00000000E+00  1.46673422E-05