 Entering Gaussian System, Link 0=g16
 Input=hoono_a1_94p96802.gjf
 Output=hoono_a1_94p96802.log
 Initial command:
 /sw/contrib/gaussian/g16/B01/g16/l1.exe "/scr/Gau-29998.inp" -scrdir="/scr/"
 Entering Link 1 = /sw/contrib/gaussian/g16/B01/g16/l1.exe PID=     29999.
  
 Copyright (c) 1988-2017, Gaussian, Inc.  All Rights Reserved.
  
 This is part of the Gaussian(R) 16 program.  It is based on
 the Gaussian(R) 09 system (copyright 2009, Gaussian, Inc.),
 the Gaussian(R) 03 system (copyright 2003, Gaussian, Inc.),
 the Gaussian(R) 98 system (copyright 1998, Gaussian, Inc.),
 the Gaussian(R) 94 system (copyright 1995, Gaussian, Inc.),
 the Gaussian 92(TM) system (copyright 1992, Gaussian, Inc.),
 the Gaussian 90(TM) system (copyright 1990, Gaussian, Inc.),
 the Gaussian 88(TM) system (copyright 1988, Gaussian, Inc.),
 the Gaussian 86(TM) system (copyright 1986, Carnegie Mellon
 University), and the Gaussian 82(TM) system (copyright 1983,
 Carnegie Mellon University). Gaussian is a federally registered
 trademark of Gaussian, Inc.
  
 This software contains proprietary and confidential information,
 including trade secrets, belonging to Gaussian, Inc.
  
 This software is provided under written license and may be
 used, copied, transmitted, or stored only in accord with that
 written license.
  
 The following legend is applicable only to US Government
 contracts under FAR:
  
                    RESTRICTED RIGHTS LEGEND
  
 Use, reproduction and disclosure by the US Government is
 subject to restrictions as set forth in subparagraphs (a)
 and (c) of the Commercial Computer Software - Restricted
 Rights clause in FAR 52.227-19.
  
 Gaussian, Inc.
 340 Quinnipiac St., Bldg. 40, Wallingford CT 06492
  
  
 ---------------------------------------------------------------
 Warning -- This program may not be used in any manner that
 competes with the business of Gaussian, Inc. or will provide
 assistance to any competitor of Gaussian, Inc.  The licensee
 of this program is prohibited from giving any competitor of
 Gaussian, Inc. access to this program.  By using this program,
 the user acknowledges that Gaussian, Inc. is engaged in the
 business of creating and licensing software in the field of
 computational chemistry and represents and warrants to the
 licensee that it is not a competitor of Gaussian, Inc. and that
 it will not use this program in any manner prohibited above.
 ---------------------------------------------------------------
  

 Cite this work as:
 Gaussian 16, Revision B.01,
 M. J. Frisch, G. W. Trucks, H. B. Schlegel, G. E. Scuseria, 
 M. A. Robb, J. R. Cheeseman, G. Scalmani, V. Barone, 
 G. A. Petersson, H. Nakatsuji, X. Li, M. Caricato, A. V. Marenich, 
 J. Bloino, B. G. Janesko, R. Gomperts, B. Mennucci, H. P. Hratchian, 
 J. V. Ortiz, A. F. Izmaylov, J. L. Sonnenberg, D. Williams-Young, 
 F. Ding, F. Lipparini, F. Egidi, J. Goings, B. Peng, A. Petrone, 
 T. Henderson, D. Ranasinghe, V. G. Zakrzewski, J. Gao, N. Rega, 
 G. Zheng, W. Liang, M. Hada, M. Ehara, K. Toyota, R. Fukuda, 
 J. Hasegawa, M. Ishida, T. Nakajima, Y. Honda, O. Kitao, H. Nakai, 
 T. Vreven, K. Throssell, J. A. Montgomery, Jr., J. E. Peralta, 
 F. Ogliaro, M. J. Bearpark, J. J. Heyd, E. N. Brothers, K. N. Kudin, 
 V. N. Staroverov, T. A. Keith, R. Kobayashi, J. Normand, 
 K. Raghavachari, A. P. Rendell, J. C. Burant, S. S. Iyengar, 
 J. Tomasi, M. Cossi, J. M. Millam, M. Klene, C. Adamo, R. Cammi, 
 J. W. Ochterski, R. L. Martin, K. Morokuma, O. Farkas, 
 J. B. Foresman, and D. J. Fox, Gaussian, Inc., Wallingford CT, 2016.
 
 ******************************************
 Gaussian 16:  ES64L-G16RevB.01 20-Dec-2017
                21-Feb-2022 
 ******************************************
 %nproc=28
 Will use up to   28 processors via shared memory.
 %mem=120GB
 %chk=hoono_a1_94p96802.chk
 ---------------------------------------
 #p freq mp2/aug-cc-pvtz density=current
 ---------------------------------------
 1/10=4,30=1,38=1/1,3;
 2/12=2,17=6,18=5,40=1/2;
 3/5=16,6=1,7=10,11=9,25=1,30=1,71=2,140=1/1,2,3;
 4//1;
 5/5=2,38=5,98=1/2;
 8/6=3,8=1,10=1,19=11,30=-1/1;
 9/15=3,16=-3/6;
 11/6=1,8=1,15=11,17=12,24=-1,27=1,28=-2,29=300,32=6,42=3/1,2,10;
 10/6=2,21=1/2;
 8/6=4,8=1,10=1,19=11,30=-1/11,4;
 10/5=1,20=4/2;
 11/12=2,14=11,16=1,17=2,28=-2,42=3,76=2/2,10,12;
 6/7=2,8=2,9=2,10=2,22=-1/1;
 7/8=1,10=1,12=2,25=1,44=2/1,2,3,16;
 1/10=4,30=1/3;
 99//99;
 Leave Link    1 at Mon Feb 21 20:38:35 2022, MaxMem= 16106127360 cpu:               2.1 elap:               0.1
 (Enter /sw/contrib/gaussian/g16/B01/g16/l101.exe)
 -----
 title
 -----
 Symbolic Z-matrix:
 Charge =  0 Multiplicity = 1
 H
 O                    1    r1
 O                    2    r2       1    a1
 N                    3    r3       2    a2       1    d1       0
 O                    4    r4       3    a3       2    d2       0
       Variables:
  r1                    0.96898                  
  r2                    1.45492                  
  r3                    1.45878                  
  r4                    1.17073                  
  a1                   94.96802                  
  a2                  102.29752                  
  a3                  109.06955                  
  d1                  180.                       
  d2                  180.                       
 
 ITRead=  0  0  0  0  0
 MicOpt= -1 -1 -1 -1 -1
 NAtoms=      5 NQM=        5 NQMF=       0 NMMI=      0 NMMIF=      0
                NMic=       0 NMicF=      0.
                    Isotopes and Nuclear Properties:
 (Nuclear quadrupole moments (NQMom) in fm**2, nuclear magnetic moments (NMagM)
  in nuclear magnetons)

  Atom         1           2           3           4           5
 IAtWgt=           1          16          16          14          16
 AtmWgt=   1.0078250  15.9949146  15.9949146  14.0030740  15.9949146
 NucSpn=           1           0           0           2           0
 AtZEff=  -0.0000000  -0.0000000  -0.0000000  -0.0000000  -0.0000000
 NQMom=    0.0000000   0.0000000   0.0000000   2.0440000   0.0000000
 NMagM=    2.7928460   0.0000000   0.0000000   0.4037610   0.0000000
 AtZNuc=   1.0000000   8.0000000   8.0000000   7.0000000   8.0000000
 Leave Link  101 at Mon Feb 21 20:38:35 2022, MaxMem= 16106127360 cpu:               3.0 elap:               0.1
 (Enter /sw/contrib/gaussian/g16/B01/g16/l103.exe)

 GradGradGradGradGradGradGradGradGradGradGradGradGradGradGradGradGradGrad
 Berny optimization.
 Initialization pass.
                       ----------------------------
                       !    Initial Parameters    !
                       ! (Angstroms and Degrees)  !
 ----------------------                            ----------------------
 !      Name          Value   Derivative information (Atomic Units)     !
 ------------------------------------------------------------------------
 !       r1          0.969    calculate D2E/DX2 analytically            !
 !       r2          1.4549   calculate D2E/DX2 analytically            !
 !       r3          1.4588   calculate D2E/DX2 analytically            !
 !       r4          1.1707   calculate D2E/DX2 analytically            !
 !       a1         94.968    calculate D2E/DX2 analytically            !
 !       a2        102.2975   calculate D2E/DX2 analytically            !
 !       a3        109.0696   calculate D2E/DX2 analytically            !
 !       d1        180.0      calculate D2E/DX2 analytically            !
 !       d2        180.0      calculate D2E/DX2 analytically            !
 ------------------------------------------------------------------------
 Trust Radius=3.00D-01 FncErr=1.00D-07 GrdErr=1.00D-07 EigMax=2.50D+02 EigMin=1.00D-04
 Number of steps in this run=      2 maximum allowed number of steps=      2.
 GradGradGradGradGradGradGradGradGradGradGradGradGradGradGradGradGradGrad

 Leave Link  103 at Mon Feb 21 20:38:35 2022, MaxMem= 16106127360 cpu:               0.5 elap:               0.0
 (Enter /sw/contrib/gaussian/g16/B01/g16/l202.exe)
                          Input orientation:                          
 ---------------------------------------------------------------------
 Center     Atomic      Atomic             Coordinates (Angstroms)
 Number     Number       Type             X           Y           Z
 ---------------------------------------------------------------------
      1          1           0        0.000000    0.000000    0.000000
      2          8           0        0.000000    0.000000    0.968976
      3          8           0        1.449453    0.000000    1.094971
      4          7           0        1.635558    0.000000    2.541835
      5          8           0        2.781796    0.000000    2.780046
 ---------------------------------------------------------------------
                    Distance matrix (angstroms):
                    1          2          3          4          5
     1  H    0.000000
     2  O    0.968976   0.000000
     3  O    1.816556   1.454919   0.000000
     4  N    3.022578   2.269127   1.458784   0.000000
     5  O    3.932816   3.319392   2.148165   1.170729   0.000000
 Stoichiometry    HNO3
 Framework group  CS[SG(HNO3)]
 Deg. of freedom     7
 Full point group                 CS      NOp   2
 Largest Abelian subgroup         CS      NOp   2
 Largest concise Abelian subgroup C1      NOp   1
                         Standard orientation:                         
 ---------------------------------------------------------------------
 Center     Atomic      Atomic             Coordinates (Angstroms)
 Number     Number       Type             X           Y           Z
 ---------------------------------------------------------------------
      1          1           0        1.502719    1.693549    0.000000
      2          8           0        1.453957    0.725801    0.000000
      3          8           0       -0.000000    0.672906    0.000000
      4          7           0       -0.258679   -0.762760   -0.000000
      5          8           0       -1.415453   -0.942986   -0.000000
 ---------------------------------------------------------------------
 Rotational constants (GHZ):          54.7898237           5.0188287           4.5976749
 Leave Link  202 at Mon Feb 21 20:38:35 2022, MaxMem= 16106127360 cpu:               0.7 elap:               0.1
 (Enter /sw/contrib/gaussian/g16/B01/g16/l301.exe)
 Standard basis: Aug-CC-pVTZ (5D, 7F)
 Ernie: Thresh=  0.10000D-02 Tol=  0.10000D-05 Strict=F.
 Ernie:  12 primitive shells out of 131 were deleted.
 There are   166 symmetry adapted cartesian basis functions of A'  symmetry.
 There are    79 symmetry adapted cartesian basis functions of A"  symmetry.
 There are   136 symmetry adapted basis functions of A'  symmetry.
 There are    71 symmetry adapted basis functions of A"  symmetry.
   207 basis functions,   315 primitive gaussians,   245 cartesian basis functions
    16 alpha electrons       16 beta electrons
       nuclear repulsion energy       116.9338880428 Hartrees.
 IExCor=    0 DFT=F Ex=HF Corr=None ExCW=0 ScaHFX=  1.000000
 ScaDFX=  1.000000  1.000000  1.000000  1.000000 ScalE2=  1.000000  1.000000
 IRadAn=      5 IRanWt=     -1 IRanGd=            0 ICorTp=0 IEmpDi=  4
 NAtoms=    5 NActive=    5 NUniq=    5 SFac= 1.00D+00 NAtFMM=   60 NAOKFM=F Big=F
 Integral buffers will be    131072 words long.
 Raffenetti 1 integral format.
 Two-electron integral symmetry is turned on.
 Leave Link  301 at Mon Feb 21 20:38:35 2022, MaxMem= 16106127360 cpu:               2.6 elap:               0.1
 (Enter /sw/contrib/gaussian/g16/B01/g16/l302.exe)
 NPDir=0 NMtPBC=     1 NCelOv=     1 NCel=       1 NClECP=     1 NCelD=      1
         NCelK=      1 NCelE2=     1 NClLst=     1 CellRange=     0.0.
 One-electron integrals computed using PRISM.
 One-electron integral symmetry used in STVInt
 NBasis=   207 RedAO= T EigKep=  1.81D-04  NBF=   136    71
 NBsUse=   207 1.00D-06 EigRej= -1.00D+00 NBFU=   136    71
 Leave Link  302 at Mon Feb 21 20:38:35 2022, MaxMem= 16106127360 cpu:               5.1 elap:               0.2
 (Enter /sw/contrib/gaussian/g16/B01/g16/l303.exe)
 DipDrv:  MaxL=1.
 Leave Link  303 at Mon Feb 21 20:38:35 2022, MaxMem= 16106127360 cpu:               0.8 elap:               0.1
 (Enter /sw/contrib/gaussian/g16/B01/g16/l401.exe)
 ExpMin= 2.53D-02 ExpMax= 1.53D+04 ExpMxC= 5.22D+02 IAcc=3 IRadAn=         5 AccDes= 0.00D+00
 Harris functional with IExCor=  205 and IRadAn=       5 diagonalized for initial guess.
 HarFok:  IExCor=  205 AccDes= 0.00D+00 IRadAn=         5 IDoV= 1 UseB2=F ITyADJ=14
 ICtDFT=  3500011 ScaDFX=  1.000000  1.000000  1.000000  1.000000
 FoFCou: FMM=F IPFlag=           0 FMFlag=      100000 FMFlg1=           0
         NFxFlg=           0 DoJE=T BraDBF=F KetDBF=T FulRan=T
         wScrn=  0.000000 ICntrl=       500 IOpCl=  0 I1Cent=   200000004 NGrid=           0
         NMat0=    1 NMatS0=      1 NMatT0=    0 NMatD0=    1 NMtDS0=    0 NMtDT0=    0
 Petite list used in FoFCou.
 Harris En= -279.627934843936    
 JPrj=0 DoOrth=F DoCkMO=F.
 Initial guess orbital symmetries:
       Occupied  (A') (A') (A') (A') (A') (A') (A') (A') (A') (A')
                 (A") (A') (A') (A") (A") (A')
       Virtual   (A") (A') (A') (A') (A') (A') (A") (A') (A') (A')
                 (A") (A') (A") (A') (A') (A") (A') (A") (A') (A')
                 (A') (A') (A') (A') (A') (A") (A') (A") (A') (A')
                 (A") (A') (A") (A') (A') (A") (A') (A") (A') (A')
                 (A") (A') (A") (A') (A") (A') (A') (A') (A") (A")
                 (A') (A') (A') (A') (A") (A') (A") (A') (A") (A')
                 (A') (A') (A") (A') (A') (A") (A') (A") (A') (A')
                 (A") (A') (A') (A") (A") (A') (A') (A") (A') (A')
                 (A') (A") (A') (A") (A') (A") (A') (A") (A') (A')
                 (A') (A") (A') (A") (A') (A") (A") (A') (A') (A")
                 (A') (A') (A") (A') (A') (A') (A") (A') (A") (A')
                 (A") (A') (A') (A') (A") (A') (A') (A') (A") (A')
                 (A") (A') (A') (A") (A") (A') (A") (A') (A") (A')
                 (A') (A') (A') (A") (A") (A') (A") (A') (A') (A')
                 (A') (A") (A") (A') (A') (A") (A') (A') (A') (A')
                 (A') (A") (A') (A") (A') (A") (A') (A") (A") (A')
                 (A') (A") (A') (A") (A') (A") (A") (A") (A') (A')
                 (A") (A') (A") (A') (A") (A') (A") (A") (A') (A')
                 (A') (A') (A') (A') (A') (A') (A') (A') (A') (A')
                 (A')
 The electronic state of the initial guess is 1-A'.
 Leave Link  401 at Mon Feb 21 20:38:36 2022, MaxMem= 16106127360 cpu:               6.3 elap:               0.3
 (Enter /sw/contrib/gaussian/g16/B01/g16/l502.exe)
 Keep R1 ints in memory in symmetry-blocked form, NReq=348887737.
 FoFCou: FMM=F IPFlag=           0 FMFlag=           0 FMFlg1=           0
         NFxFlg=           0 DoJE=F BraDBF=F KetDBF=F FulRan=T
         wScrn=  0.000000 ICntrl=       600 IOpCl=  0 I1Cent=           0 NGrid=           0
         NMat0=    1 NMatS0=  21528 NMatT0=    0 NMatD0=    1 NMtDS0=    0 NMtDT0=    0
 Petite list used in FoFCou.
 Closed shell SCF:
 Using DIIS extrapolation, IDIIS=  1040.
 NGot= 16106127360 LenX= 15988850015 LenY= 15988789549
 Requested convergence on RMS density matrix=1.00D-08 within 128 cycles.
 Requested convergence on MAX density matrix=1.00D-06.
 Requested convergence on             energy=1.00D-06.
 No special actions if energy rises.

 Cycle   1  Pass 1  IDiag  1:
 E= -279.369857226487    
 DIIS: error= 2.82D-02 at cycle   1 NSaved=   1.
 NSaved= 1 IEnMin= 1 EnMin= -279.369857226487     IErMin= 1 ErrMin= 2.82D-02
 ErrMax= 2.82D-02  0.00D+00 EMaxC= 1.00D-01 BMatC= 4.38D-01 BMatP= 4.38D-01
 IDIUse=3 WtCom= 7.18D-01 WtEn= 2.82D-01
 Coeff-Com:  0.100D+01
 Coeff-En:   0.100D+01
 Coeff:      0.100D+01
 Gap=     0.513 Goal=   None    Shift=    0.000
 GapD=    0.513 DampG=2.000 DampE=0.500 DampFc=1.0000 IDamp=-1.
 RMSDP=1.63D-03 MaxDP=9.96D-02              OVMax= 1.13D-01

 Cycle   2  Pass 1  IDiag  1:
 E= -279.451671605051     Delta-E=       -0.081814378564 Rises=F Damp=F
 DIIS: error= 1.79D-02 at cycle   2 NSaved=   2.
 NSaved= 2 IEnMin= 2 EnMin= -279.451671605051     IErMin= 2 ErrMin= 1.79D-02
 ErrMax= 1.79D-02  0.00D+00 EMaxC= 1.00D-01 BMatC= 7.20D-02 BMatP= 4.38D-01
 IDIUse=3 WtCom= 8.21D-01 WtEn= 1.79D-01
 Coeff-Com:  0.195D+00 0.805D+00
 Coeff-En:   0.000D+00 0.100D+01
 Coeff:      0.160D+00 0.840D+00
 Gap=     0.530 Goal=   None    Shift=    0.000
 RMSDP=9.01D-04 MaxDP=3.74D-02 DE=-8.18D-02 OVMax= 6.92D-02

 Cycle   3  Pass 1  IDiag  1:
 E= -279.480836886524     Delta-E=       -0.029165281473 Rises=F Damp=F
 DIIS: error= 1.04D-02 at cycle   3 NSaved=   3.
 NSaved= 3 IEnMin= 3 EnMin= -279.480836886524     IErMin= 3 ErrMin= 1.04D-02
 ErrMax= 1.04D-02  0.00D+00 EMaxC= 1.00D-01 BMatC= 2.88D-02 BMatP= 7.20D-02
 IDIUse=3 WtCom= 8.96D-01 WtEn= 1.04D-01
 Coeff-Com: -0.331D-01 0.378D+00 0.655D+00
 Coeff-En:   0.000D+00 0.241D+00 0.759D+00
 Coeff:     -0.296D-01 0.364D+00 0.665D+00
 Gap=     0.511 Goal=   None    Shift=    0.000
 RMSDP=3.77D-04 MaxDP=1.55D-02 DE=-2.92D-02 OVMax= 3.82D-02

 Cycle   4  Pass 1  IDiag  1:
 E= -279.499990762473     Delta-E=       -0.019153875949 Rises=F Damp=F
 DIIS: error= 1.28D-03 at cycle   4 NSaved=   4.
 NSaved= 4 IEnMin= 4 EnMin= -279.499990762473     IErMin= 4 ErrMin= 1.28D-03
 ErrMax= 1.28D-03  0.00D+00 EMaxC= 1.00D-01 BMatC= 4.95D-04 BMatP= 2.88D-02
 IDIUse=3 WtCom= 9.87D-01 WtEn= 1.28D-02
 Coeff-Com: -0.117D-01 0.573D-01 0.158D+00 0.796D+00
 Coeff-En:   0.000D+00 0.000D+00 0.000D+00 0.100D+01
 Coeff:     -0.115D-01 0.565D-01 0.156D+00 0.799D+00
 Gap=     0.502 Goal=   None    Shift=    0.000
 RMSDP=9.06D-05 MaxDP=2.79D-03 DE=-1.92D-02 OVMax= 1.12D-02

 Cycle   5  Pass 1  IDiag  1:
 E= -279.500669312671     Delta-E=       -0.000678550199 Rises=F Damp=F
 DIIS: error= 7.15D-04 at cycle   5 NSaved=   5.
 NSaved= 5 IEnMin= 5 EnMin= -279.500669312671     IErMin= 5 ErrMin= 7.15D-04
 ErrMax= 7.15D-04  0.00D+00 EMaxC= 1.00D-01 BMatC= 8.76D-05 BMatP= 4.95D-04
 IDIUse=3 WtCom= 9.93D-01 WtEn= 7.15D-03
 Coeff-Com:  0.615D-02-0.725D-01-0.118D+00 0.214D-01 0.116D+01
 Coeff-En:   0.000D+00 0.000D+00 0.000D+00 0.000D+00 0.100D+01
 Coeff:      0.611D-02-0.720D-01-0.117D+00 0.213D-01 0.116D+01
 Gap=     0.502 Goal=   None    Shift=    0.000
 RMSDP=7.65D-05 MaxDP=2.10D-03 DE=-6.79D-04 OVMax= 1.11D-02

 Cycle   6  Pass 1  IDiag  1:
 E= -279.500985608866     Delta-E=       -0.000316296195 Rises=F Damp=F
 DIIS: error= 2.95D-04 at cycle   6 NSaved=   6.
 NSaved= 6 IEnMin= 6 EnMin= -279.500985608866     IErMin= 6 ErrMin= 2.95D-04
 ErrMax= 2.95D-04  0.00D+00 EMaxC= 1.00D-01 BMatC= 1.68D-05 BMatP= 8.76D-05
 IDIUse=3 WtCom= 9.97D-01 WtEn= 2.95D-03
 Coeff-Com:  0.665D-03 0.717D-03 0.300D-02-0.129D+00-0.218D+00 0.134D+01
 Coeff-En:   0.000D+00 0.000D+00 0.000D+00 0.000D+00 0.000D+00 0.100D+01
 Coeff:      0.663D-03 0.715D-03 0.299D-02-0.128D+00-0.217D+00 0.134D+01
 Gap=     0.503 Goal=   None    Shift=    0.000
 RMSDP=4.52D-05 MaxDP=1.25D-03 DE=-3.16D-04 OVMax= 5.53D-03

 Cycle   7  Pass 1  IDiag  1:
 E= -279.501058337888     Delta-E=       -0.000072729021 Rises=F Damp=F
 DIIS: error= 1.28D-04 at cycle   7 NSaved=   7.
 NSaved= 7 IEnMin= 7 EnMin= -279.501058337888     IErMin= 7 ErrMin= 1.28D-04
 ErrMax= 1.28D-04  0.00D+00 EMaxC= 1.00D-01 BMatC= 4.80D-06 BMatP= 1.68D-05
 IDIUse=3 WtCom= 9.99D-01 WtEn= 1.28D-03
 Coeff-Com: -0.944D-03 0.137D-01 0.268D-01-0.267D-01-0.294D+00 0.416D+00
 Coeff-Com:  0.865D+00
 Coeff-En:   0.000D+00 0.000D+00 0.000D+00 0.000D+00 0.000D+00 0.000D+00
 Coeff-En:   0.100D+01
 Coeff:     -0.943D-03 0.137D-01 0.267D-01-0.266D-01-0.294D+00 0.415D+00
 Coeff:      0.866D+00
 Gap=     0.503 Goal=   None    Shift=    0.000
 RMSDP=1.34D-05 MaxDP=3.79D-04 DE=-7.27D-05 OVMax= 1.57D-03

 Cycle   8  Pass 1  IDiag  1:
 E= -279.501067565697     Delta-E=       -0.000009227810 Rises=F Damp=F
 DIIS: error= 5.65D-05 at cycle   8 NSaved=   8.
 NSaved= 8 IEnMin= 8 EnMin= -279.501067565697     IErMin= 8 ErrMin= 5.65D-05
 ErrMax= 5.65D-05  0.00D+00 EMaxC= 1.00D-01 BMatC= 6.07D-07 BMatP= 4.80D-06
 IDIUse=1 WtCom= 1.00D+00 WtEn= 0.00D+00
 Coeff-Com: -0.451D-03 0.347D-02 0.763D-02 0.275D-01-0.415D-01-0.195D+00
 Coeff-Com:  0.145D+00 0.105D+01
 Coeff:     -0.451D-03 0.347D-02 0.763D-02 0.275D-01-0.415D-01-0.195D+00
 Coeff:      0.145D+00 0.105D+01
 Gap=     0.502 Goal=   None    Shift=    0.000
 RMSDP=7.07D-06 MaxDP=2.06D-04 DE=-9.23D-06 OVMax= 7.61D-04

 Cycle   9  Pass 1  IDiag  1:
 E= -279.501069398048     Delta-E=       -0.000001832350 Rises=F Damp=F
 DIIS: error= 1.52D-05 at cycle   9 NSaved=   9.
 NSaved= 9 IEnMin= 9 EnMin= -279.501069398048     IErMin= 9 ErrMin= 1.52D-05
 ErrMax= 1.52D-05  0.00D+00 EMaxC= 1.00D-01 BMatC= 6.84D-08 BMatP= 6.07D-07
 IDIUse=1 WtCom= 1.00D+00 WtEn= 0.00D+00
 Coeff-Com:  0.123D-03-0.173D-02-0.307D-02-0.202D-02 0.343D-01-0.461D-03
 Coeff-Com: -0.159D+00-0.115D+00 0.125D+01
 Coeff:      0.123D-03-0.173D-02-0.307D-02-0.202D-02 0.343D-01-0.461D-03
 Coeff:     -0.159D+00-0.115D+00 0.125D+01
 Gap=     0.502 Goal=   None    Shift=    0.000
 RMSDP=1.94D-06 MaxDP=6.63D-05 DE=-1.83D-06 OVMax= 1.76D-04

 Cycle  10  Pass 1  IDiag  1:
 E= -279.501069558168     Delta-E=       -0.000000160121 Rises=F Damp=F
 DIIS: error= 4.46D-06 at cycle  10 NSaved=  10.
 NSaved=10 IEnMin=10 EnMin= -279.501069558168     IErMin=10 ErrMin= 4.46D-06
 ErrMax= 4.46D-06  0.00D+00 EMaxC= 1.00D-01 BMatC= 5.59D-09 BMatP= 6.84D-08
 IDIUse=1 WtCom= 1.00D+00 WtEn= 0.00D+00
 Coeff-Com:  0.308D-04-0.241D-03-0.318D-03-0.270D-02 0.160D-02 0.195D-01
 Coeff-Com: -0.110D-01-0.757D-01-0.812D-01 0.115D+01
 Coeff:      0.308D-04-0.241D-03-0.318D-03-0.270D-02 0.160D-02 0.195D-01
 Coeff:     -0.110D-01-0.757D-01-0.812D-01 0.115D+01
 Gap=     0.502 Goal=   None    Shift=    0.000
 RMSDP=5.05D-07 MaxDP=2.11D-05 DE=-1.60D-07 OVMax= 4.20D-05

 Cycle  11  Pass 1  IDiag  1:
 E= -279.501069570759     Delta-E=       -0.000000012591 Rises=F Damp=F
 DIIS: error= 2.05D-06 at cycle  11 NSaved=  11.
 NSaved=11 IEnMin=11 EnMin= -279.501069570759     IErMin=11 ErrMin= 2.05D-06
 ErrMax= 2.05D-06  0.00D+00 EMaxC= 1.00D-01 BMatC= 6.64D-10 BMatP= 5.59D-09
 IDIUse=1 WtCom= 1.00D+00 WtEn= 0.00D+00
 Coeff-Com: -0.214D-04 0.245D-03 0.488D-03 0.525D-03-0.431D-02-0.340D-02
 Coeff-Com:  0.196D-01 0.328D-01-0.139D+00-0.179D+00 0.127D+01
 Coeff:     -0.214D-04 0.245D-03 0.488D-03 0.525D-03-0.431D-02-0.340D-02
 Coeff:      0.196D-01 0.328D-01-0.139D+00-0.179D+00 0.127D+01
 Gap=     0.502 Goal=   None    Shift=    0.000
 RMSDP=1.79D-07 MaxDP=6.56D-06 DE=-1.26D-08 OVMax= 1.74D-05

 Cycle  12  Pass 1  IDiag  1:
 E= -279.501069572576     Delta-E=       -0.000000001817 Rises=F Damp=F
 DIIS: error= 5.91D-07 at cycle  12 NSaved=  12.
 NSaved=12 IEnMin=12 EnMin= -279.501069572576     IErMin=12 ErrMin= 5.91D-07
 ErrMax= 5.91D-07  0.00D+00 EMaxC= 1.00D-01 BMatC= 7.16D-11 BMatP= 6.64D-10
 IDIUse=1 WtCom= 1.00D+00 WtEn= 0.00D+00
 Coeff-Com:  0.125D-05-0.292D-04-0.631D-04 0.185D-03 0.108D-02-0.229D-02
 Coeff-Com: -0.408D-02 0.532D-02 0.417D-01-0.114D+00-0.277D+00 0.135D+01
 Coeff:      0.125D-05-0.292D-04-0.631D-04 0.185D-03 0.108D-02-0.229D-02
 Coeff:     -0.408D-02 0.532D-02 0.417D-01-0.114D+00-0.277D+00 0.135D+01
 Gap=     0.502 Goal=   None    Shift=    0.000
 RMSDP=7.17D-08 MaxDP=2.84D-06 DE=-1.82D-09 OVMax= 6.67D-06

 Cycle  13  Pass 1  IDiag  1:
 E= -279.501069572805     Delta-E=       -0.000000000229 Rises=F Damp=F
 DIIS: error= 1.66D-07 at cycle  13 NSaved=  13.
 NSaved=13 IEnMin=13 EnMin= -279.501069572805     IErMin=13 ErrMin= 1.66D-07
 ErrMax= 1.66D-07  0.00D+00 EMaxC= 1.00D-01 BMatC= 4.00D-12 BMatP= 7.16D-11
 IDIUse=1 WtCom= 1.00D+00 WtEn= 0.00D+00
 Coeff-Com:  0.127D-05-0.139D-04-0.222D-04-0.883D-04 0.122D-03 0.743D-03
 Coeff-Com: -0.728D-03-0.334D-02 0.497D-03 0.411D-01-0.354D-01-0.326D+00
 Coeff-Com:  0.132D+01
 Coeff:      0.127D-05-0.139D-04-0.222D-04-0.883D-04 0.122D-03 0.743D-03
 Coeff:     -0.728D-03-0.334D-02 0.497D-03 0.411D-01-0.354D-01-0.326D+00
 Coeff:      0.132D+01
 Gap=     0.502 Goal=   None    Shift=    0.000
 RMSDP=1.91D-08 MaxDP=5.59D-07 DE=-2.29D-10 OVMax= 1.55D-06

 Cycle  14  Pass 1  IDiag  1:
 E= -279.501069572817     Delta-E=       -0.000000000012 Rises=F Damp=F
 DIIS: error= 2.42D-08 at cycle  14 NSaved=  14.
 NSaved=14 IEnMin=14 EnMin= -279.501069572817     IErMin=14 ErrMin= 2.42D-08
 ErrMax= 2.42D-08  0.00D+00 EMaxC= 1.00D-01 BMatC= 1.94D-13 BMatP= 4.00D-12
 IDIUse=1 WtCom= 1.00D+00 WtEn= 0.00D+00
 Coeff-Com: -0.187D-06 0.308D-05 0.551D-05 0.440D-05-0.819D-04 0.466D-04
 Coeff-Com:  0.264D-03 0.237D-03-0.242D-02 0.145D-02 0.168D-01-0.257D-01
 Coeff-Com: -0.198D+00 0.121D+01
 Coeff:     -0.187D-06 0.308D-05 0.551D-05 0.440D-05-0.819D-04 0.466D-04
 Coeff:      0.264D-03 0.237D-03-0.242D-02 0.145D-02 0.168D-01-0.257D-01
 Coeff:     -0.198D+00 0.121D+01
 Gap=     0.502 Goal=   None    Shift=    0.000
 RMSDP=3.76D-09 MaxDP=9.09D-08 DE=-1.17D-11 OVMax= 3.38D-07

 SCF Done:  E(RHF) =  -279.501069573     A.U. after   14 cycles
            NFock= 14  Conv=0.38D-08     -V/T= 2.0023
 KE= 2.788553193729D+02 PE=-8.951939396230D+02 EE= 2.199036626345D+02
 Leave Link  502 at Mon Feb 21 20:38:39 2022, MaxMem= 16106127360 cpu:              56.4 elap:               3.6
 (Enter /sw/contrib/gaussian/g16/B01/g16/l801.exe)
 ExpMin= 2.53D-02 ExpMax= 1.53D+04 ExpMxC= 5.22D+02 IAcc=3 IRadAn=         5 AccDes= 0.00D+00
 HarFok:  IExCor=  205 AccDes= 0.00D+00 IRadAn=         5 IDoV=-2 UseB2=F ITyADJ=14
 ICtDFT= 12500011 ScaDFX=  1.000000  1.000000  1.000000  1.000000
 Largest valence mixing into a core orbital is  2.08D-04
 Largest core mixing into a valence orbital is  3.63D-05
 Range of M.O.s used for correlation:     5   207
 NBasis=   207 NAE=    16 NBE=    16 NFC=     4 NFV=     0
 NROrb=    203 NOA=    12 NOB=    12 NVA=   191 NVB=   191

 **** Warning!!: The largest alpha MO coefficient is  0.17107310D+02

 Leave Link  801 at Mon Feb 21 20:38:39 2022, MaxMem= 16106127360 cpu:               2.1 elap:               0.1
 (Enter /sw/contrib/gaussian/g16/B01/g16/l906.exe)
 Frozen-core derivative calculation, NFC=   4 NFV=   0.
 FulOut=F Deriv=T AODrv=T NAtomX=     5
   MMem=           0  MDisk=          12 MDiskD=          12
  W3Min=      811440 MinDsk=     2425030 NBas6D=         245
 NBas2D=       30762    NTT=       30135    LW2=     7400000
    MDV= 16105574269 MDiskM=      328644 NBas2p=       30702
 Disk-based method using ON**2 memory for 12 occupieds at a time.
 Permanent disk used for amplitudes=    11516536 words.
 Estimated scratch disk usage=   321251614 words.
 IMap=   1   2   3   4   5   6   7   8   9  10  11  12  13  14  15  16
 Actual    scratch disk usage=   310331678 words.
 JobTyp=1 Pass  1:  I=   5 to  16 NPSUse= 28 ParTrn=T ParDer=T DoDerP=T.
 (rs|ai) integrals will be sorted in core.
 Spin components of T(2) and E(2):
     alpha-alpha T2 =       0.3405375717D-01 E2=     -0.1224774397D+00
     alpha-beta  T2 =       0.1869695863D+00 E2=     -0.7004854260D+00
     beta-beta   T2 =       0.3405375717D-01 E2=     -0.1224774397D+00
 The integrals were generated   1 times.
 ANorm=    0.1120302236D+01
 E2 =    -0.9454403054D+00 EUMP2 =    -0.28044650987824D+03
 Leave Link  906 at Mon Feb 21 20:40:16 2022, MaxMem= 16106127360 cpu:            2707.0 elap:              96.8
 (Enter /sw/contrib/gaussian/g16/B01/g16/l1101.exe)
 Using compressed Sx but separate Hx and Fx, NAtomX=     5.
 Will process      6 centers per pass.
 Leave Link 1101 at Mon Feb 21 20:40:16 2022, MaxMem= 16106127360 cpu:               5.1 elap:               0.2
 (Enter /sw/contrib/gaussian/g16/B01/g16/l1102.exe)
 Leave Link 1102 at Mon Feb 21 20:40:16 2022, MaxMem= 16106127360 cpu:               0.5 elap:               0.0
 (Enter /sw/contrib/gaussian/g16/B01/g16/l1110.exe)
 Forming Gx(P) for the SCF density, NAtomX=     5.
 Integral derivatives from FoFJK, PRISM(SPDF).
 Do as many integral derivatives as possible in FoFJK.
 G2DrvN: MDV=   16106126844.
 G2DrvN: will do     6 centers at a time, making    1 passes.
 Calling FoFCou, ICntrl=  3107 FMM=F I1Cent=   0 AccDes= 0.00D+00.
 FoFJK:  IHMeth= 1 ICntrl=    3107 DoSepK=F KAlg= 0 I1Cent=           0 FoldK=F
 IRaf=         0 NMat=       1 IRICut=       1 DoRegI=T DoRafI=F ISym2E= 1 IDoP0=0 IntGTp=1.
 FoFCou: FMM=F IPFlag=           0 FMFlag=      100000 FMFlg1=           0
         NFxFlg=           0 DoJE=F BraDBF=F KetDBF=F FulRan=T
         wScrn=  0.000000 ICntrl=      3107 IOpCl=  0 I1Cent=           0 NGrid=           0
         NMat0=    1 NMatS0=      1 NMatT0=    0 NMatD0=    1 NMtDS0=    0 NMtDT0=    0
 Petite list used in FoFCou.
 End of G2Drv F.D. properties file   721 does not exist.
 End of G2Drv F.D. properties file   722 does not exist.
 End of G2Drv F.D. properties file   788 does not exist.
 Leave Link 1110 at Mon Feb 21 20:40:19 2022, MaxMem= 16106127360 cpu:              82.9 elap:               3.0
 (Enter /sw/contrib/gaussian/g16/B01/g16/l1002.exe)
 Minotr:  Closed shell wavefunction.
          IDoAtm=11111
          Frozen-core window.
          Direct CPHF calculation.
          Differentiating once with respect to electric field.
                with respect to dipole field.
          Differentiating once with respect to nuclear coordinates.
          Requested convergence is 1.0D-08 RMS, and 1.0D-07 maximum.
          Secondary convergence is 1.0D-12 RMS, and 1.0D-12 maximum.
          NewPWx=T KeepS1=T KeepF1=T KeepIn=T MapXYZ=F SortEE=F KeepMc=T.
 Keep R1 ints in memory in symmetry-blocked form, NReq=348888983.
 FoFCou: FMM=F IPFlag=           0 FMFlag=           0 FMFlg1=           0
         NFxFlg=           0 DoJE=F BraDBF=F KetDBF=F FulRan=T
         wScrn=  0.000000 ICntrl=       600 IOpCl=  0 I1Cent=           0 NGrid=           0
         NMat0=    1 NMatS0=  21528 NMatT0=    0 NMatD0=    1 NMtDS0=    0 NMtDT0=    0
 Petite list used in FoFCou.
          MDV=   16106127360 using IRadAn=       1.
          Solving linear equations simultaneously, MaxMat=       0.
          There are    18 degrees of freedom in the 1st order CPHF.  IDoFFX=6 NUNeed=    18.
     15 vectors produced by pass  0 Test12= 1.70D-14 5.56D-09 XBig12= 8.28D+00 1.07D+00.
 AX will form    15 AO Fock derivatives at one time.
     15 vectors produced by pass  1 Test12= 1.70D-14 5.56D-09 XBig12= 1.35D+00 2.68D-01.
     15 vectors produced by pass  2 Test12= 1.70D-14 5.56D-09 XBig12= 1.40D-01 9.66D-02.
     15 vectors produced by pass  3 Test12= 1.70D-14 5.56D-09 XBig12= 4.90D-03 1.10D-02.
     15 vectors produced by pass  4 Test12= 1.70D-14 5.56D-09 XBig12= 9.97D-05 1.96D-03.
     15 vectors produced by pass  5 Test12= 1.70D-14 5.56D-09 XBig12= 1.44D-06 1.89D-04.
     15 vectors produced by pass  6 Test12= 1.70D-14 5.56D-09 XBig12= 1.14D-08 1.43D-05.
     12 vectors produced by pass  7 Test12= 1.70D-14 5.56D-09 XBig12= 8.28D-11 1.32D-06.
      3 vectors produced by pass  8 Test12= 1.70D-14 5.56D-09 XBig12= 5.68D-13 1.21D-07.
      2 vectors produced by pass  9 Test12= 1.70D-14 5.56D-09 XBig12= 3.70D-15 1.07D-08.
 InvSVY:  IOpt=1 It=  1 EMax= 1.11D-15
 Solved reduced A of dimension   122 with    15 vectors.
 FullF1:  Do perturbations      1 to      18.
 Saving first derivative matrices.
 End of Minotr F.D. properties file   721 does not exist.
 End of Minotr F.D. properties file   722 does not exist.
 End of Minotr F.D. properties file   788 does not exist.
 Leave Link 1002 at Mon Feb 21 20:40:22 2022, MaxMem= 16106127360 cpu:              80.1 elap:               2.9
 (Enter /sw/contrib/gaussian/g16/B01/g16/l811.exe)
 MDV= 16106127360.
 Form MO integral derivatives with frozen-active canonical formalism.
 MOERI=1 MOERIx=1 NAtoms=     5 NAtomX=     5.
 Discarding MO integrals.
 MO basis two electron integral derivatives will not be stored on disk.
 IAlg= 3 DoFC=T DoPWx=T Debug=F.
 Frozen-core window:  NFC=   4 NFV=   0.
 Reordered first order wavefunction length =     18678272
 In DefCFB: NBatch=  1 ICI= 16 ICA=191 LFMax= 96
            Large arrays: LIAPS=   619940160 LIARS=   288257200 words.
 In StABat: MaxSiz= 55 MinSiz= 25 NAtomB=  5
 DoIAMN: NPSUse= 28.
 Leave Link  811 at Mon Feb 21 20:41:42 2022, MaxMem= 16106127360 cpu:            2211.0 elap:              79.2
 (Enter /sw/contrib/gaussian/g16/B01/g16/l804.exe)
 Frozen-core window:  NFC=   4 NFV=   0.
 Closed-shell transformation, MDV= 16106127360 ITran=4 ISComp=1.
 Semi-Direct transformation.
 ModeAB=           2 MOrb=            16 LenV=   16104923023
 LASXX=     67341636 LTotXX=    67341636 LenRXX=    67341636
 LTotAB=    68301760 MaxLAS=    99807120 LenRXY=    99807120
 NonZer=   134683272 LenScr=   202817536 LnRSAI=           0
 LnScr1=           0 LExtra=           0 Total=    369966292
 MaxDsk=          -1 SrtSym=           F ITran=            4
 DoSDTr:  NPSUse= 28
 JobTyp=0 Pass  1:  I=   1 to  16.
 (rs|ai) integrals will be sorted in core.
 Complete sort for first half transformation.
 First half transformation complete.
 Begin second half transformation for I=  10.
 Begin second half transformation for I=  10.
 Complete sort for second half transformation.
 Second half transformation complete.
 Spin components of T(2) and E(2):
     alpha-alpha T2 =       0.3405375717D-01 E2=     -0.1224774397D+00
     alpha-beta  T2 =       0.1869695863D+00 E2=     -0.7004854260D+00
     beta-beta   T2 =       0.3405375717D-01 E2=     -0.1224774397D+00
 ANorm=    0.1584346617D+01
 E2 =    -0.9454403054D+00 EUMP2 =    -0.28044650987824D+03
 Leave Link  804 at Mon Feb 21 20:41:57 2022, MaxMem= 16106127360 cpu:             438.2 elap:              15.7
 (Enter /sw/contrib/gaussian/g16/B01/g16/l1002.exe)
 Minotr:  Closed shell wavefunction.
          Computing MP2/KS-MP2 derivatives.
          Using Z-Vector for PSCF gradient.
          Skipping F1 and S1 gradient terms here.
          IDoAtm=11111
          Frozen-core window.
          Using MO integrals in the linear equations.
          Forming densities via direct SCF.
          Differentiating once with respect to electric field.
                with respect to dipole field.
          Differentiating once with respect to nuclear coordinates.
          Using symmetry in CPHF.
          Requested convergence is 1.0D-10 RMS, and 1.0D-09 maximum.
          NewPWx=F KeepS1=T KeepF1=T KeepIn=T MapXYZ=F SortEE=F KeepMc=T.
          MDV=   16106127360 using IRadAn=       5.
          Solving linear equations separately, MaxMat=       0.
          There are     1 degrees of freedom in the 1st order CPHF.  IDoFFX=0 NUNeed=     1.
 FoFJK:  IHMeth= 1 ICntrl=       0 DoSepK=F KAlg= 0 I1Cent=           0 FoldK=F
 IRaf=         0 NMat=       1 IRICut=       1 DoRegI=T DoRafI=F ISym2E= 0 IDoP0=0 IntGTp=1.
 FoFCou: FMM=F IPFlag=           0 FMFlag=      100000 FMFlg1=           0
         NFxFlg=           0 DoJE=F BraDBF=F KetDBF=F FulRan=T
         wScrn=  0.000000 ICntrl=         0 IOpCl=  0 I1Cent=           0 NGrid=           0
         NMat0=    1 NMatS0=      1 NMatT0=    0 NMatD0=    1 NMtDS0=    0 NMtDT0=    0
 Symmetry not used in FoFCou.
 LinEq1:  Iter=  0 NonCon=     1 RMS=5.96D-03 Max=1.32D-01 NDo=     1
 LinEq1:  Iter=  1 NonCon=     1 RMS=1.90D-03 Max=3.82D-02 NDo=     1
 LinEq1:  Iter=  2 NonCon=     1 RMS=8.68D-04 Max=1.45D-02 NDo=     1
 LinEq1:  Iter=  3 NonCon=     1 RMS=3.86D-04 Max=7.75D-03 NDo=     1
 LinEq1:  Iter=  4 NonCon=     1 RMS=1.19D-04 Max=1.92D-03 NDo=     1
 LinEq1:  Iter=  5 NonCon=     1 RMS=4.46D-05 Max=7.14D-04 NDo=     1
 LinEq1:  Iter=  6 NonCon=     1 RMS=2.00D-05 Max=2.33D-04 NDo=     1
 LinEq1:  Iter=  7 NonCon=     1 RMS=8.09D-06 Max=1.58D-04 NDo=     1
 LinEq1:  Iter=  8 NonCon=     1 RMS=3.46D-06 Max=3.37D-05 NDo=     1
 LinEq1:  Iter=  9 NonCon=     1 RMS=9.46D-07 Max=1.31D-05 NDo=     1
 LinEq1:  Iter= 10 NonCon=     1 RMS=1.86D-07 Max=2.05D-06 NDo=     1
 LinEq1:  Iter= 11 NonCon=     1 RMS=3.48D-08 Max=3.51D-07 NDo=     1
 LinEq1:  Iter= 12 NonCon=     1 RMS=8.37D-09 Max=1.27D-07 NDo=     1
 LinEq1:  Iter= 13 NonCon=     1 RMS=1.50D-09 Max=2.51D-08 NDo=     1
 LinEq1:  Iter= 14 NonCon=     1 RMS=2.72D-10 Max=3.83D-09 NDo=     1
 LinEq1:  Iter= 15 NonCon=     0 RMS=4.95D-11 Max=5.55D-10 NDo=     1
 Linear equations converged to 1.000D-10 1.000D-09 after    15 iterations.
 End of Minotr F.D. properties file   721 does not exist.
 End of Minotr F.D. properties file   722 does not exist.
 End of Minotr F.D. properties file   788 does not exist.
 Leave Link 1002 at Mon Feb 21 20:42:00 2022, MaxMem= 16106127360 cpu:              63.8 elap:               2.3
 (Enter /sw/contrib/gaussian/g16/B01/g16/l1102.exe)
 Use density number 2.
 Symmetrizing basis deriv contribution to polar:
 IMax=3 JMax=2 DiffMx= 0.00D+00
 Leave Link 1102 at Mon Feb 21 20:42:00 2022, MaxMem= 16106127360 cpu:               3.3 elap:               0.2
 (Enter /sw/contrib/gaussian/g16/B01/g16/l1110.exe)
 Forming Gx(P) for generalized density number  2 NAtomX=     5.
 Integral derivatives from FoFJK, PRISM(SPDF).
 Do as many integral derivatives as possible in FoFJK.
 G2DrvN: MDV=   16106126844.
 G2DrvN: will do     6 centers at a time, making    1 passes.
 Calling FoFCou, ICntrl=  3107 FMM=F I1Cent=   0 AccDes= 0.00D+00.
 FoFJK:  IHMeth= 1 ICntrl=    3107 DoSepK=F KAlg= 0 I1Cent=           0 FoldK=F
 IRaf=         0 NMat=       1 IRICut=       1 DoRegI=T DoRafI=F ISym2E= 1 IDoP0=0 IntGTp=1.
 FoFCou: FMM=F IPFlag=           0 FMFlag=      100000 FMFlg1=           0
         NFxFlg=           0 DoJE=F BraDBF=F KetDBF=F FulRan=T
         wScrn=  0.000000 ICntrl=      3107 IOpCl=  0 I1Cent=           0 NGrid=           0
         NMat0=    1 NMatS0=      1 NMatT0=    0 NMatD0=    1 NMtDS0=    0 NMtDT0=    0
 Petite list used in FoFCou.
 End of G2Drv F.D. properties file   721 does not exist.
 End of G2Drv F.D. properties file   722 does not exist.
 End of G2Drv F.D. properties file   788 does not exist.
 Leave Link 1110 at Mon Feb 21 20:42:03 2022, MaxMem= 16106127360 cpu:              83.4 elap:               3.0
 (Enter /sw/contrib/gaussian/g16/B01/g16/l1112.exe)
 MP22nd: MDV=   16106127360
 This link is doing NAtomX=     5 total of    18 degrees of freedom.
 Using ON3 I/O method in MakUI.
 Frozen-core window:  NFC=   4 NFV=   0.
 Using Ix for Sx.
 Use MO integrals over full window.
 Using OV2 memory method for fx*t*t/D, MaxI=    16 DoOO2=F NP=  28.
 R2 and R3 integrals will be kept in memory, NReq=   915591705.
 FoFCou: FMM=F IPFlag=           0 FMFlag=           0 FMFlg1=           0
         NFxFlg=           0 DoJE=F BraDBF=F KetDBF=F FulRan=T
         wScrn=  0.000000 ICntrl=       600 IOpCl=  0 I1Cent=           0 NGrid=           0
         NMat0=    1 NMatS0=      1 NMatT0=    0 NMatD0=    1 NMtDS0=    0 NMtDT0=    0
 Symmetry not used in FoFCou.
 DD1Dir will call FoFMem   1 times, MxPair=       272
 NAB=   136 NAA=     0 NBB=     0.
 Symmetry is being used.
 FoFJK:  IHMeth= 1 ICntrl=       0 DoSepK=F KAlg= 0 I1Cent=           0 FoldK=F
 IRaf=         0 NMat=      18 IRICut=      45 DoRegI=T DoRafI=T ISym2E= 2 IDoP0=3 IntGTp=3.
 Discarding MO integrals.
 Leave Link 1112 at Mon Feb 21 20:42:36 2022, MaxMem= 16106127360 cpu:             927.7 elap:              33.5
 (Enter /sw/contrib/gaussian/g16/B01/g16/l601.exe)
 Copying SCF densities to generalized density rwf, IOpCl= 0 IROHF=0.

 **********************************************************************

            Population analysis using the MP2 Density.

 **********************************************************************

 Orbital symmetries:
       Occupied  (A') (A') (A') (A') (A') (A') (A') (A') (A') (A')
                 (A") (A') (A") (A') (A") (A')
       Virtual   (A') (A") (A') (A') (A") (A') (A') (A') (A") (A')
                 (A") (A') (A') (A') (A") (A') (A') (A") (A') (A')
                 (A') (A') (A') (A') (A") (A') (A') (A") (A') (A')
                 (A") (A') (A") (A') (A") (A') (A') (A') (A") (A")
                 (A') (A') (A") (A') (A') (A") (A') (A') (A") (A')
                 (A") (A') (A') (A') (A") (A') (A") (A') (A") (A')
                 (A') (A') (A") (A') (A') (A") (A') (A") (A') (A')
                 (A") (A') (A') (A") (A") (A') (A') (A") (A') (A')
                 (A') (A") (A') (A") (A') (A") (A') (A") (A') (A')
                 (A") (A') (A') (A") (A') (A") (A') (A") (A') (A')
                 (A") (A') (A") (A') (A') (A") (A') (A') (A") (A')
                 (A") (A') (A') (A') (A") (A') (A') (A') (A") (A')
                 (A") (A') (A") (A') (A') (A") (A") (A') (A") (A')
                 (A') (A') (A') (A") (A") (A") (A') (A') (A') (A')
                 (A") (A') (A") (A') (A') (A") (A') (A') (A') (A')
                 (A") (A') (A') (A") (A') (A") (A') (A") (A") (A')
                 (A') (A") (A') (A') (A") (A") (A") (A') (A") (A')
                 (A") (A') (A") (A') (A") (A') (A") (A") (A') (A')
                 (A') (A') (A') (A') (A') (A') (A') (A') (A') (A')
                 (A')
 The electronic state is 1-A'.
 Alpha  occ. eigenvalues --  -20.69061 -20.68427 -20.66096 -15.81279  -1.62417
 Alpha  occ. eigenvalues --   -1.49741  -1.25400  -0.94823  -0.77416  -0.75748
 Alpha  occ. eigenvalues --   -0.71210  -0.67859  -0.62093  -0.59183  -0.48555
 Alpha  occ. eigenvalues --   -0.47254
 Alpha virt. eigenvalues --    0.02993   0.07155   0.08591   0.10162   0.13382
 Alpha virt. eigenvalues --    0.13410   0.14415   0.15468   0.17817   0.19390
 Alpha virt. eigenvalues --    0.19957   0.20641   0.22066   0.23528   0.23734
 Alpha virt. eigenvalues --    0.26492   0.29344   0.30368   0.31124   0.34320
 Alpha virt. eigenvalues --    0.35012   0.38732   0.42407   0.43091   0.52777
 Alpha virt. eigenvalues --    0.52945   0.55794   0.58096   0.62615   0.63804
 Alpha virt. eigenvalues --    0.67469   0.68495   0.70653   0.70950   0.72814
 Alpha virt. eigenvalues --    0.72934   0.74436   0.79401   0.79531   0.81200
 Alpha virt. eigenvalues --    0.81231   0.82894   0.86754   0.90858   0.92060
 Alpha virt. eigenvalues --    0.92790   0.95411   0.97599   0.98660   1.01778
 Alpha virt. eigenvalues --    1.05140   1.05434   1.08276   1.11721   1.14477
 Alpha virt. eigenvalues --    1.19047   1.22103   1.23663   1.33975   1.35194
 Alpha virt. eigenvalues --    1.38566   1.45838   1.48687   1.50511   1.53700
 Alpha virt. eigenvalues --    1.56635   1.57947   1.60949   1.66167   1.67116
 Alpha virt. eigenvalues --    1.70309   1.79898   1.83044   1.83653   1.87701
 Alpha virt. eigenvalues --    1.91154   1.95441   1.99475   2.00319   2.07957
 Alpha virt. eigenvalues --    2.12845   2.13210   2.14966   2.22733   2.26183
 Alpha virt. eigenvalues --    2.26397   2.29147   2.31356   2.34202   2.38669
 Alpha virt. eigenvalues --    2.42875   2.43550   2.45295   2.46233   2.48099
 Alpha virt. eigenvalues --    2.49880   2.59117   2.59990   2.61860   2.62740
 Alpha virt. eigenvalues --    2.63534   2.66474   2.75803   2.82745   2.84326
 Alpha virt. eigenvalues --    2.87760   2.89139   2.92948   2.95236   3.02405
 Alpha virt. eigenvalues --    3.06952   3.11970   3.20996   3.22286   3.31339
 Alpha virt. eigenvalues --    3.34325   3.51894   3.63725   3.83664   3.83971
 Alpha virt. eigenvalues --    4.14555   4.17493   4.18330   4.25889   4.34350
 Alpha virt. eigenvalues --    4.39730   4.46105   4.53036   4.65783   4.73866
 Alpha virt. eigenvalues --    4.80156   4.82339   4.82869   4.89552   5.02538
 Alpha virt. eigenvalues --    5.07678   5.10113   5.13389   5.17224   5.25360
 Alpha virt. eigenvalues --    5.26942   5.30619   5.32835   5.35906   5.60041
 Alpha virt. eigenvalues --    5.67346   5.76336   5.84650   5.95835   6.17701
 Alpha virt. eigenvalues --    6.31234   6.32978   6.39357   6.49388   6.50517
 Alpha virt. eigenvalues --    6.61549   6.66775   6.70401   6.76024   6.76273
 Alpha virt. eigenvalues --    6.83541   6.89949   7.02837   7.04686   7.05679
 Alpha virt. eigenvalues --    7.08881   7.12560   7.13948   7.18249   7.22767
 Alpha virt. eigenvalues --    7.24145   7.30091   7.32413   7.35156   7.39982
 Alpha virt. eigenvalues --    7.45535   7.48487   7.60679   7.62154   7.62632
 Alpha virt. eigenvalues --    7.66765   7.79974   7.88716   8.09449   8.32000
 Alpha virt. eigenvalues --    8.38923   8.54208  13.38943  14.38706  15.19284
 Alpha virt. eigenvalues --   16.15471
          Condensed to atoms (all electrons):
               1          2          3          4          5
     1  H    0.585269   0.130246   0.018928   0.011954  -0.000498
     2  O    0.130246   8.323016  -0.177695  -0.088887   0.015349
     3  O    0.018928  -0.177695   8.478304  -0.131874  -0.038378
     4  N    0.011954  -0.088887  -0.131874   6.973398  -0.055277
     5  O   -0.000498   0.015349  -0.038378  -0.055277   8.272278
 Mulliken charges:
               1
     1  H    0.254102
     2  O   -0.202029
     3  O   -0.149285
     4  N    0.290686
     5  O   -0.193474
 Sum of Mulliken charges =  -0.00000
 Mulliken charges with hydrogens summed into heavy atoms:
               1
     2  O    0.052072
     3  O   -0.149285
     4  N    0.290686
     5  O   -0.193474
 APT charges:
               1
     1  H    0.300156
     2  O   -0.285459
     3  O   -0.497495
     4  N    0.874830
     5  O   -0.392033
 Sum of APT charges =  -0.00000
 APT charges with hydrogens summed into heavy atoms:
               1
     2  O    0.014698
     3  O   -0.497495
     4  N    0.874830
     5  O   -0.392033
 Electronic spatial extent (au):  <R**2>=            252.5930
 Charge=             -0.0000 electrons
 Dipole moment (field-independent basis, Debye):
    X=              0.4469    Y=              1.3547    Z=              0.0000  Tot=              1.4265
 Quadrupole moment (field-independent basis, Debye-Ang):
   XX=            -22.6860   YY=            -18.5925   ZZ=            -22.0059
   XY=              3.0976   XZ=              0.0000   YZ=             -0.0000
 Traceless Quadrupole moment (field-independent basis, Debye-Ang):
   XX=             -1.5912   YY=              2.5023   ZZ=             -0.9111
   XY=              3.0976   XZ=              0.0000   YZ=             -0.0000
 Octapole moment (field-independent basis, Debye-Ang**2):
  XXX=              2.3082  YYY=             11.4032  ZZZ=             -0.0000  XYY=              7.6698
  XXY=              6.1125  XXZ=              0.0000  XZZ=             -1.5740  YZZ=             -0.8557
  YYZ=              0.0000  XYZ=              0.0000
 Hexadecapole moment (field-independent basis, Debye-Ang**3):
 XXXX=           -158.7776 YYYY=            -89.8702 ZZZZ=            -18.2285 XXXY=            -37.7564
 XXXZ=             -0.0000 YYYX=            -31.0693 YYYZ=             -0.0000 ZZZX=             -0.0000
 ZZZY=             -0.0000 XXYY=            -34.7090 XXZZ=            -30.7230 YYZZ=            -20.7309
 XXYZ=             -0.0000 YYXZ=             -0.0000 ZZXY=            -15.0444
 N-N= 1.169338880428D+02 E-N=-8.959780218191D+02  KE= 2.802075516101D+02
 Symmetry A'   KE= 2.662345965347D+02
 Symmetry A"   KE= 1.397295507545D+01
  Exact polarizability:  33.857   9.387  30.250   0.000   0.000  17.904
 Approx polarizability:  28.993   5.038  23.547   0.000   0.000  15.509
 No NMR shielding tensors so no spin-rotation constants.
 Leave Link  601 at Mon Feb 21 20:42:37 2022, MaxMem= 16106127360 cpu:               4.6 elap:               0.2
 (Enter /sw/contrib/gaussian/g16/B01/g16/l701.exe)
 ... and contract with generalized density number  2.
 Compute integral second derivatives.
 Leave Link  701 at Mon Feb 21 20:42:37 2022, MaxMem= 16106127360 cpu:               5.7 elap:               0.2
 (Enter /sw/contrib/gaussian/g16/B01/g16/l702.exe)
 L702 exits ... SP integral derivatives will be done elsewhere.
 Leave Link  702 at Mon Feb 21 20:42:37 2022, MaxMem= 16106127360 cpu:               0.5 elap:               0.0
 (Enter /sw/contrib/gaussian/g16/B01/g16/l703.exe)
 Integral derivatives from FoFJK, PRISM(SPDF).
 Compute integral second derivatives, UseDBF=F ICtDFT=           0.
 Calling FoFJK, ICntrl=  10100127 FMM=F ISym2X=1 I1Cent= 0 IOpClX= 0 NMat=1 NMatS=1 NMatT=0.
 FoFJK:  IHMeth= 1 ICntrl=10100127 DoSepK=F KAlg= 0 I1Cent=           0 FoldK=F
 IRaf=         0 NMat=       1 IRICut=       1 DoRegI=T DoRafI=F ISym2E= 1 IDoP0=0 IntGTp=1.
 FoFCou: FMM=F IPFlag=           0 FMFlag=      100000 FMFlg1=         800
         NFxFlg=           0 DoJE=F BraDBF=F KetDBF=F FulRan=T
         wScrn=  0.000000 ICntrl=  10100127 IOpCl=  0 I1Cent=           0 NGrid=           0
         NMat0=    1 NMatS0=      1 NMatT0=    0 NMatD0=    1 NMtDS0=    0 NMtDT0=    0
 Petite list used in FoFCou.
 Leave Link  703 at Mon Feb 21 20:42:52 2022, MaxMem= 16106127360 cpu:             421.6 elap:              15.1
 (Enter /sw/contrib/gaussian/g16/B01/g16/l716.exe)
 Dipole        = 1.75811057D-01 5.32999637D-01 1.27882139D-32
 Polarizability= 3.38573727D+01 9.38716721D+00 3.02497036D+01
                 1.52224795D-31 7.10344126D-31 1.79038695D+01
 Full mass-weighted force constant matrix:
 Low frequencies --- -259.9216  -30.5244  -26.8120   -0.0019    0.0009    0.0014
 Low frequencies ---   96.1517  225.3826  336.7958
 ******    1 imaginary frequencies (negative Signs) ****** 
 Diagonal vibrational polarizability:
       13.9248985      25.0519498      51.3874937
 Harmonic frequencies (cm**-1), IR intensities (KM/Mole), Raman scattering
 activities (A**4/AMU), depolarization ratios for plane and unpolarized
 incident light, reduced masses (AMU), force constants (mDyne/A),
 and normal coordinates:
                      1                      2                      3
                     A"                     A"                     A'
 Frequencies --   -253.8625               225.2113               336.7803
 Red. masses --      1.1110                13.9297                 8.7494
 Frc consts  --      0.0422                 0.4163                 0.5847
 IR Inten    --    122.9672                 0.0740                 5.7488
  Atom  AN      X      Y      Z        X      Y      Z        X      Y      Z
     1   1     0.00  -0.00   1.00     0.00  -0.00  -0.29     0.55  -0.41   0.00
     2   8     0.00  -0.00  -0.05     0.00  -0.00  -0.38    -0.08  -0.38   0.00
     3   8     0.00   0.00  -0.05    -0.00   0.00   0.36    -0.15   0.44  -0.00
     4   7    -0.00  -0.00   0.04    -0.00   0.00   0.62     0.04   0.25  -0.00
     5   8    -0.00  -0.00   0.01     0.00  -0.00  -0.51     0.16  -0.26   0.00
                      4                      5                      6
                     A'                     A'                     A'
 Frequencies --    453.3929               787.6840               970.6598
 Red. masses --     12.5639                12.9144                15.8283
 Frc consts  --      1.5217                 4.7210                 8.7865
 IR Inten    --    197.3774               168.9699                24.5538
  Atom  AN      X      Y      Z        X      Y      Z        X      Y      Z
     1   1     0.38   0.21   0.00    -0.36   0.16  -0.00    -0.03  -0.03  -0.00
     2   8     0.33   0.22   0.00     0.41   0.08   0.00    -0.53   0.03   0.00
     3   8     0.18   0.43  -0.00    -0.05  -0.27  -0.00     0.76  -0.02  -0.00
     4   7    -0.35  -0.42  -0.00    -0.14   0.62  -0.00    -0.12   0.24  -0.00
     5   8    -0.22  -0.30   0.00    -0.21  -0.37   0.00    -0.12  -0.22   0.00
                      7                      8                      9
                     A'                     A'                     A'
 Frequencies --   1387.1939              1677.9354              3777.7680
 Red. masses --      1.1289                12.8742                 1.0668
 Frc consts  --      1.2799                21.3560                 8.9704
 IR Inten    --    163.7828               136.3119                79.4877
  Atom  AN      X      Y      Z        X      Y      Z        X      Y      Z
     1   1     1.00  -0.01   0.00    -0.38  -0.01  -0.00     0.06   1.00  -0.00
     2   8    -0.02   0.05   0.00    -0.00  -0.04  -0.00    -0.01  -0.06  -0.00
     3   8    -0.03  -0.05  -0.00     0.00   0.15   0.00     0.00   0.00   0.00
     4   7     0.02   0.01  -0.00     0.69  -0.05   0.00    -0.00  -0.00   0.00
     5   8    -0.03  -0.01   0.00    -0.59  -0.07  -0.00     0.00   0.00  -0.00

 -------------------
 - Thermochemistry -
 -------------------
 Temperature   298.150 Kelvin.  Pressure   1.00000 Atm.
 Atom     1 has atomic number  1 and mass   1.00783
 Atom     2 has atomic number  8 and mass  15.99491
 Atom     3 has atomic number  8 and mass  15.99491
 Atom     4 has atomic number  7 and mass  14.00307
 Atom     5 has atomic number  8 and mass  15.99491
 Molecular mass:    62.99564 amu.
 Principal axes and moments of inertia in atomic units:
                           1         2         3
     Eigenvalues --    32.93935 359.59410 392.53345
           X            0.80863  -0.58832   0.00000
           Y            0.58832   0.80863   0.00000
           Z            0.00000  -0.00000   1.00000
 This molecule is an asymmetric top.
 Rotational symmetry number  1.
 Rotational temperatures (Kelvin)      2.62950     0.24087     0.22065
 Rotational constants (GHZ):          54.78982     5.01883     4.59767
    1 imaginary frequencies ignored.
 Zero-point vibrational energy      57520.2 (Joules/Mol)
                                   13.74766 (Kcal/Mol)
 Warning -- explicit consideration of   3 degrees of freedom as
           vibrations may cause significant error
 Vibrational temperatures:    324.03   484.55   652.33  1133.30  1396.56
          (Kelvin)           1995.86  2414.17  5435.37
 
 Zero-point correction=                           0.021908 (Hartree/Particle)
 Thermal correction to Energy=                    0.026034
 Thermal correction to Enthalpy=                  0.026978
 Thermal correction to Gibbs Free Energy=        -0.004226
 Sum of electronic and zero-point Energies=           -280.424602
 Sum of electronic and thermal Energies=              -280.420476
 Sum of electronic and thermal Enthalpies=            -280.419532
 Sum of electronic and thermal Free Energies=         -280.450736
 
                     E (Thermal)             CV                S
                      KCal/Mol        Cal/Mol-Kelvin    Cal/Mol-Kelvin
 Total                   16.336             11.952             65.675
 Electronic               0.000              0.000              0.000
 Translational            0.889              2.981             38.341
 Rotational               0.889              2.981             23.057
 Vibrational             14.559              5.990              4.277
 Vibration     1          0.650              1.803              1.917
 Vibration     2          0.717              1.602              1.227
 Vibration     3          0.812              1.353              0.786
                       Q            Log10(Q)             Ln(Q)
 Total Bot       0.878895D+02          1.943937          4.476081
 Total V=0       0.104964D+13         12.021040         27.679467
 Vib (Bot)       0.183219D-09         -9.737030        -22.420341
 Vib (Bot)    1  0.876364D+00         -0.057316         -0.131974
 Vib (Bot)    2  0.552471D+00         -0.257690         -0.593354
 Vib (Bot)    3  0.377187D+00         -0.423443         -0.975014
 Vib (V=0)       0.218813D+01          0.340072          0.783046
 Vib (V=0)    1  0.150897D+01          0.178680          0.411425
 Vib (V=0)    2  0.124513D+01          0.095216          0.219243
 Vib (V=0)    3  0.112631D+01          0.051660          0.118951
 Electronic      0.100000D+01          0.000000          0.000000
 Translational   0.196526D+08          7.293420         16.793719
 Rotational      0.244089D+05          4.387548         10.102702
 
                                                                title
                                                             IR Spectrum
 
     3                                                                      1         1                                              
     7                                                                      6         3             9     7          4   3   2       
     7                                                                      7         8             7     8          5   3   2       
     8                                                                      8         7             1     8          3   7   5       
 
     X                                                                      X         X             X     X          X   X   X       
     X                                                                      X         X             X     X          X               
     X                                                                      X         X                   X          X               
     X                                                                      X         X                   X          X               
     X                                                                      X         X                   X          X               
     X                                                                      X         X                   X          X               
     X                                                                      X         X                   X          X               
     X                                                                      X         X                   X          X               
                                                                            X         X                   X          X               
                                                                            X         X                   X          X               
                                                                            X         X                   X          X               
                                                                            X         X                   X          X               
                                                                            X         X                   X          X               
                                                                            X         X                   X          X               
                                                                                      X                   X          X               
                                                                                      X                   X          X               
                                                                                      X                   X          X               
                                                                                                                     X               
                                                                                                                     X               
                                                                                                                     X               
 
 ***** Axes restored to original set *****
 -------------------------------------------------------------------
 Center     Atomic                   Forces (Hartrees/Bohr)
 Number     Number              X              Y              Z
 -------------------------------------------------------------------
      1        1          -0.005457277   -0.000000000   -0.000501349
      2        8           0.002897867   -0.000000000   -0.003880029
      3        8           0.001716139    0.000000000    0.004436215
      4        7           0.000355215   -0.000000000   -0.000583878
      5        8           0.000488056    0.000000000    0.000529042
 -------------------------------------------------------------------
 Cartesian Forces:  Max     0.005457277 RMS     0.002267095
 -----------------------------------------------------------------------------------------------
                       Internal Coordinate Forces (Hartree/Bohr or radian)
  Cent   Atom   N1       Length/X         N2         Alpha/Y        N3         Beta/Z          J
 -----------------------------------------------------------------------------------------------
      1  H 
      2  O        1   0.000501(     1)
      3  O        2   0.002929(     2)      1   0.009993(     5)
      4  N        3   0.000053(     3)      2   0.001399(     6)      1  -0.000000(     8)     0
      5  O        4   0.000585(     4)      3   0.000926(     7)      2   0.000000(     9)     0
 -----------------------------------------------------------------------------------------------
 Internal  Forces:  Max     0.009992821 RMS     0.003525275
 Force constants in Cartesian coordinates: 
                1             2             3             4             5 
      1  0.666968D-01
      2  0.000000D+00 -0.214125D-02
      3  0.965450D-02  0.000000D+00  0.512243D+00
      4 -0.312413D-01  0.000000D+00 -0.192976D-01  0.272906D+00
      5  0.000000D+00  0.664343D-03  0.000000D+00  0.000000D+00  0.568300D-02
      6  0.446005D-01  0.000000D+00 -0.506710D+00  0.323648D-01  0.000000D+00
      7 -0.246964D-01  0.000000D+00  0.115590D-01 -0.222347D+00  0.000000D+00
      8  0.000000D+00  0.300427D-02  0.000000D+00  0.000000D+00 -0.769907D-02
      9 -0.534439D-01  0.000000D+00 -0.213767D-02 -0.169349D-01  0.000000D+00
     10 -0.964681D-02  0.000000D+00 -0.525774D-02 -0.182942D-01  0.000000D+00
     11  0.000000D+00 -0.242733D-02  0.000000D+00  0.000000D+00 -0.511738D-02
     12  0.477349D-02  0.000000D+00 -0.463809D-02  0.145143D-01  0.000000D+00
     13 -0.111237D-02  0.000000D+00  0.334182D-02 -0.102368D-02  0.000000D+00
     14  0.000000D+00  0.899960D-03  0.000000D+00  0.000000D+00  0.646911D-02
     15 -0.558452D-02  0.000000D+00  0.124242D-02 -0.106466D-01  0.000000D+00
                6             7             8             9            10 
      6  0.585933D+00
      7 -0.173016D-01  0.349861D+00
      8  0.000000D+00  0.000000D+00  0.357659D-02
      9 -0.733818D-01  0.342428D-01  0.000000D+00  0.177500D+00
     10 -0.510753D-01 -0.679063D-01  0.000000D+00  0.174007D+00  0.825964D+00
     11  0.000000D+00  0.000000D+00  0.802875D-02  0.000000D+00  0.000000D+00
     12  0.176283D-01  0.610926D-01  0.000000D+00 -0.921259D-01 -0.457550D-01
     13 -0.858836D-02 -0.349112D-01  0.000000D+00 -0.137871D+00 -0.730117D+00
     14  0.000000D+00  0.000000D+00 -0.691054D-02  0.000000D+00  0.000000D+00
     15 -0.234694D-01 -0.895927D-01  0.000000D+00 -0.985490D-02 -0.719193D-01
               11            12            13            14            15 
     11  0.914187D-02
     12  0.000000D+00  0.190535D+00
     13  0.000000D+00 -0.346254D-01  0.767164D+00
     14 -0.962591D-02  0.000000D+00  0.000000D+00  0.916738D-02
     15  0.000000D+00 -0.111399D+00  0.177743D+00  0.000000D+00  0.143481D+00
 Force constants in internal coordinates: 
                1             2             3             4             5 
      1  0.512243D+00
      2 -0.912765D-02  0.287294D+00
      3  0.361235D-02  0.227606D-02  0.118009D+00
      4 -0.352471D-02  0.621018D-02  0.152828D+00  0.812162D+00
      5  0.122211D-01  0.732820D-01  0.398646D-02  0.407489D-02  0.224548D+00
      6  0.523109D-02  0.592646D-01  0.424335D-01  0.210985D-01  0.321101D-01
      7 -0.118685D-02  0.380327D-01  0.321413D-01  0.853735D-01  0.212344D-01
      8  0.000000D+00  0.000000D+00  0.000000D+00  0.000000D+00  0.000000D+00
      9  0.000000D+00  0.000000D+00  0.000000D+00  0.000000D+00  0.000000D+00
                6             7             8             9 
      6  0.283069D+00
      7  0.960283D-01  0.483327D+00
      8  0.000000D+00  0.000000D+00 -0.707589D-02
      9  0.000000D+00  0.000000D+00 -0.343195D-02  0.409514D-01
 Leave Link  716 at Mon Feb 21 20:42:52 2022, MaxMem= 16106127360 cpu:               0.8 elap:               0.1
 (Enter /sw/contrib/gaussian/g16/B01/g16/l103.exe)

 GradGradGradGradGradGradGradGradGradGradGradGradGradGradGradGradGradGrad
 Berny optimization.
 Search for a local minimum.
 Step number   1 out of a maximum of    2
 All quantities printed in internal units (Hartrees-Bohrs-Radians)
 Second derivative matrix not updated -- analytic derivatives used.
 The second derivative matrix:
                          r1        r2        r3        r4        a1
           r1           0.51224
           r2          -0.00913   0.28729
           r3           0.00361   0.00228   0.11801
           r4          -0.00352   0.00621   0.15283   0.81216
           a1           0.01222   0.07328   0.00399   0.00407   0.22455
           a2           0.00523   0.05926   0.04243   0.02110   0.03211
           a3          -0.00119   0.03803   0.03214   0.08537   0.02123
           d1           0.00000  -0.00000  -0.00000  -0.00000  -0.00000
           d2          -0.00000   0.00000   0.00000   0.00000   0.00000
                          a2        a3        d1        d2
           a2           0.28307
           a3           0.09603   0.48333
           d1          -0.00000  -0.00000  -0.00708
           d2          -0.00000  -0.00000  -0.00343   0.04095
 ITU=  0
     Eigenvalues ---   -0.00732   0.04120   0.07851   0.17523   0.22841
     Eigenvalues ---    0.33481   0.51267   0.51968   0.87133
 Eigenvalue     1 is  -7.32D-03 should be greater than     0.000000 Eigenvector:
                          d1        d2        a3        a2        r3
   1                    0.99748   0.07092   0.00000   0.00000  -0.00000
                          r4        a1        r2        r1
   1                    0.00000  -0.00000   0.00000  -0.00000
 Angle between quadratic step and forces=  20.53 degrees.
 Linear search not attempted -- first point.
 Variable       Old X    -DE/DX   Delta X   Delta X   Delta X     New X
                                 (Linear)    (Quad)   (Total)
    r1        1.83110   0.00050   0.00000  -0.00010  -0.00010   1.83100
    r2        2.74940   0.00293   0.00000  -0.00135  -0.00135   2.74805
    r3        2.75670   0.00005   0.00000  -0.00242  -0.00242   2.75428
    r4        2.21236   0.00059   0.00000   0.00095   0.00095   2.21331
    a1        1.65750   0.00999   0.00000   0.04492   0.04492   1.70242
    a2        1.78543   0.00140   0.00000   0.00044   0.00044   1.78587
    a3        1.90362   0.00093   0.00000  -0.00005  -0.00005   1.90358
    d1        3.14159  -0.00000   0.00000  -0.00000   0.00000   3.14159
    d2        3.14159   0.00000   0.00000  -0.00000   0.00000   3.14159
         Item               Value     Threshold  Converged?
 Maximum Force            0.009993     0.000450     NO 
 RMS     Force            0.003525     0.000300     NO 
 Maximum Displacement     0.044915     0.001800     NO 
 RMS     Displacement     0.015004     0.001200     NO 
 Predicted change in Energy=-2.229127D-04
                       ----------------------------
                       ! Non-Optimized Parameters !
                       ! (Angstroms and Degrees)  !
 ----------------------                            ----------------------
 !      Name          Value   Derivative information (Atomic Units)     !
 ------------------------------------------------------------------------
 !       r1          0.9689   -DE/DX =    0.0005                        !
 !       r2          1.4542   -DE/DX =    0.0029                        !
 !       r3          1.4575   -DE/DX =    0.0001                        !
 !       r4          1.1712   -DE/DX =    0.0006                        !
 !       a1         97.5415   -DE/DX =    0.01                          !
 !       a2        102.3226   -DE/DX =    0.0014                        !
 !       a3        109.0669   -DE/DX =    0.0009                        !
 !       d1        180.0      -DE/DX =    0.0                           !
 !       d2        180.0      -DE/DX =    0.0                           !
 ------------------------------------------------------------------------
 GradGradGradGradGradGradGradGradGradGradGradGradGradGradGradGradGradGrad

 Leave Link  103 at Mon Feb 21 20:42:52 2022, MaxMem= 16106127360 cpu:               2.0 elap:               0.1
 (Enter /sw/contrib/gaussian/g16/B01/g16/l9999.exe)

 ----------------------------------------------------------------------

 Electric dipole moment (input orientation):
 (Debye = 10**-18 statcoulomb cm , SI units = C m)
                  (au)            (Debye)         (10**-30 SI)
   Tot        0.561247D+00      0.142655D+01      0.475845D+01
   x         -0.148766D+00     -0.378126D+00     -0.126129D+01
   y          0.000000D+00      0.000000D+00      0.000000D+00
   z         -0.541172D+00     -0.137552D+01     -0.458824D+01

 Dipole polarizability, Alpha (input orientation).
 (esu units = cm**3 , SI units = C**2 m**2 J**-1)
 Alpha(0;0):
               (au)            (10**-24 esu)      (10**-40 SI)
   iso        0.273370D+02      0.405092D+01      0.450726D+01
   aniso      0.217791D+02      0.322734D+01      0.359090D+01
   xx         0.329047D+02      0.487597D+01      0.542524D+01
   yx         0.000000D+00      0.000000D+00      0.000000D+00
   yy         0.179039D+02      0.265308D+01      0.295195D+01
   zx         0.952094D+01      0.141086D+01      0.156979D+01
   zy         0.000000D+00      0.000000D+00      0.000000D+00
   zz         0.312024D+02      0.462372D+01      0.514458D+01

 ----------------------------------------------------------------------

 Dipole orientation:
     1          0.00000000          0.00000000         -0.00000000
     8         -0.48535776          0.00000000         -1.76560168
     8          2.09262727          0.00000000         -2.72121050
     7          1.70700379          0.00000000         -5.45080798
     8          3.67628242          0.00000000         -6.45900671

 Electric dipole moment (dipole orientation):
 (Debye = 10**-18 statcoulomb cm , SI units = C m)
                  (au)            (Debye)         (10**-30 SI)
   Tot        0.561247D+00      0.142655D+01      0.475845D+01
   x          0.000000D+00      0.000000D+00      0.000000D+00
   y          0.000000D+00      0.000000D+00      0.000000D+00
   z          0.561247D+00      0.142655D+01      0.475845D+01

 Dipole polarizability, Alpha (dipole orientation).
 (esu units = cm**3 , SI units = C**2 m**2 J**-1)
 Alpha(0;0):
               (au)            (10**-24 esu)      (10**-40 SI)
   iso        0.273370D+02      0.405092D+01      0.450726D+01
   aniso      0.217791D+02      0.322734D+01      0.359090D+01
   xx         0.279183D+02      0.413706D+01      0.460310D+01
   yx         0.000000D+00      0.000000D+00      0.000000D+00
   yy         0.179039D+02      0.265308D+01      0.295195D+01
   zx        -0.861814D+01     -0.127708D+01     -0.142094D+01
   zy         0.000000D+00      0.000000D+00      0.000000D+00
   zz         0.361888D+02      0.536263D+01      0.596673D+01

 ----------------------------------------------------------------------
 1\1\GINC-N2129\Freq\RMP2-FC\Aug-CC-pVTZ\H1N1O3\CGAVINH\21-Feb-2022\1\\
 #p freq mp2/aug-cc-pvtz density=current\\title\\0,1\H\O,1,r1\O,2,r2,1,
 a1\N,3,r3,2,a2,1,d1,0\O,4,r4,3,a3,2,d2,0\\r1=0.96897556\r2=1.45491931\
 r3=1.45878406\r4=1.17072885\a1=94.9680226\a2=102.29752444\a3=109.06955
 123\d1=180.\d2=180.\\Version=ES64L-G16RevB.01\State=1-A'\HF=-279.50106
 96\MP2=-280.4465099\RMSD=3.765e-09\RMSF=2.267e-03\ZeroPoint=0.0219083\
 Thermal=0.0260337\Dipole=-0.1487662,0.,-0.5411717\DipoleDeriv=0.276976
 7,0.,0.0577819,0.,0.352439,0.,0.0771552,0.,0.2710526,-0.3465115,0.,-0.
 2089871,0.,-0.3088251,0.,-0.0909786,0.,-0.2010391,-0.0756003,0.,0.0898
 987,0.,-0.0889536,0.,-0.8166839,0.,-1.3279307,0.9788752,0.,0.9382527,0
 .,0.0662299,0.,0.9495564,0.,1.5793864,-0.8337401,0.,-0.8769461,0.,-0.0
 208902,0.,-0.1190491,0.,-0.3214692\Polar=32.9046544,0.,17.9038695,9.52
 09416,0.,31.2024219\Quadrupole=-1.4068012,-0.6773468,2.084148,0.,2.138
 3663,0.\PG=CS [SG(H1N1O3)]\NImag=1\\0.06669679,0.,-0.00214125,0.009654
 50,0.,0.51224345,-0.03124126,0.,-0.01929756,0.27290643,0.,0.00066434,0
 .,0.,0.00568300,0.04460047,0.,-0.50671011,0.03236479,0.,0.58593305,-0.
 02469636,0.,0.01155898,-0.22234731,0.,-0.01730156,0.34986112,0.,0.0030
 0427,0.,0.,-0.00769907,0.,0.,0.00357659,-0.05344394,0.,-0.00213767,-0.
 01693493,0.,-0.07338183,0.03424276,0.,0.17750031,-0.00964681,0.,-0.005
 25774,-0.01829418,0.,-0.05107534,-0.06790628,0.,0.17400731,0.82596423,
 0.,-0.00242733,0.,0.,-0.00511738,0.,0.,0.00802875,0.,0.,0.00914187,0.0
 0477349,0.,-0.00463809,0.01451433,0.,0.01762832,0.06109257,0.,-0.09212
 591,-0.04575498,0.,0.19053509,-0.00111237,0.,0.00334182,-0.00102368,0.
 ,-0.00858836,-0.03491117,0.,-0.13787120,-0.73011696,0.,-0.03462541,0.7
 6716418,0.,0.00089996,0.,0.,0.00646911,0.,0.,-0.00691054,0.,0.,-0.0096
 2591,0.,0.,0.00916738,-0.00558452,0.,0.00124242,-0.01064663,0.,-0.0234
 6944,-0.08959274,0.,-0.00985490,-0.07191926,0.,-0.11139941,0.17774315,
 0.,0.14348133\\0.00545728,0.,0.00050135,-0.00289787,0.,0.00388003,-0.0
 0171614,0.,-0.00443621,-0.00035521,0.,0.00058388,-0.00048806,0.,-0.000
 52904\\\@


 REALITY IS FOR PEOPLE WHO CAN'T FACE SCIENCE FICTION.
 Job cpu time:       0 days  1 hours 58 minutes 39.3 seconds.
 Elapsed time:       0 days  0 hours  4 minutes 17.4 seconds.
 File lengths (MBytes):  RWF=   7239 Int=      0 D2E=      0 Chk=      8 Scr=      1
 Normal termination of Gaussian 16 at Mon Feb 21 20:42:53 2022.
