 Entering Gaussian System, Link 0=g16
 Input=hoono_a2_112p3802.gjf
 Output=hoono_a2_112p3802.log
 Initial command:
 /sw/contrib/gaussian/g16/B01/g16/l1.exe "/scr/Gau-13609.inp" -scrdir="/scr/"
 Entering Link 1 = /sw/contrib/gaussian/g16/B01/g16/l1.exe PID=     13610.
  
 Copyright (c) 1988-2017, Gaussian, Inc.  All Rights Reserved.
  
 This is part of the Gaussian(R) 16 program.  It is based on
 the Gaussian(R) 09 system (copyright 2009, Gaussian, Inc.),
 the Gaussian(R) 03 system (copyright 2003, Gaussian, Inc.),
 the Gaussian(R) 98 system (copyright 1998, Gaussian, Inc.),
 the Gaussian(R) 94 system (copyright 1995, Gaussian, Inc.),
 the Gaussian 92(TM) system (copyright 1992, Gaussian, Inc.),
 the Gaussian 90(TM) system (copyright 1990, Gaussian, Inc.),
 the Gaussian 88(TM) system (copyright 1988, Gaussian, Inc.),
 the Gaussian 86(TM) system (copyright 1986, Carnegie Mellon
 University), and the Gaussian 82(TM) system (copyright 1983,
 Carnegie Mellon University). Gaussian is a federally registered
 trademark of Gaussian, Inc.
  
 This software contains proprietary and confidential information,
 including trade secrets, belonging to Gaussian, Inc.
  
 This software is provided under written license and may be
 used, copied, transmitted, or stored only in accord with that
 written license.
  
 The following legend is applicable only to US Government
 contracts under FAR:
  
                    RESTRICTED RIGHTS LEGEND
  
 Use, reproduction and disclosure by the US Government is
 subject to restrictions as set forth in subparagraphs (a)
 and (c) of the Commercial Computer Software - Restricted
 Rights clause in FAR 52.227-19.
  
 Gaussian, Inc.
 340 Quinnipiac St., Bldg. 40, Wallingford CT 06492
  
  
 ---------------------------------------------------------------
 Warning -- This program may not be used in any manner that
 competes with the business of Gaussian, Inc. or will provide
 assistance to any competitor of Gaussian, Inc.  The licensee
 of this program is prohibited from giving any competitor of
 Gaussian, Inc. access to this program.  By using this program,
 the user acknowledges that Gaussian, Inc. is engaged in the
 business of creating and licensing software in the field of
 computational chemistry and represents and warrants to the
 licensee that it is not a competitor of Gaussian, Inc. and that
 it will not use this program in any manner prohibited above.
 ---------------------------------------------------------------
  

 Cite this work as:
 Gaussian 16, Revision B.01,
 M. J. Frisch, G. W. Trucks, H. B. Schlegel, G. E. Scuseria, 
 M. A. Robb, J. R. Cheeseman, G. Scalmani, V. Barone, 
 G. A. Petersson, H. Nakatsuji, X. Li, M. Caricato, A. V. Marenich, 
 J. Bloino, B. G. Janesko, R. Gomperts, B. Mennucci, H. P. Hratchian, 
 J. V. Ortiz, A. F. Izmaylov, J. L. Sonnenberg, D. Williams-Young, 
 F. Ding, F. Lipparini, F. Egidi, J. Goings, B. Peng, A. Petrone, 
 T. Henderson, D. Ranasinghe, V. G. Zakrzewski, J. Gao, N. Rega, 
 G. Zheng, W. Liang, M. Hada, M. Ehara, K. Toyota, R. Fukuda, 
 J. Hasegawa, M. Ishida, T. Nakajima, Y. Honda, O. Kitao, H. Nakai, 
 T. Vreven, K. Throssell, J. A. Montgomery, Jr., J. E. Peralta, 
 F. Ogliaro, M. J. Bearpark, J. J. Heyd, E. N. Brothers, K. N. Kudin, 
 V. N. Staroverov, T. A. Keith, R. Kobayashi, J. Normand, 
 K. Raghavachari, A. P. Rendell, J. C. Burant, S. S. Iyengar, 
 J. Tomasi, M. Cossi, J. M. Millam, M. Klene, C. Adamo, R. Cammi, 
 J. W. Ochterski, R. L. Martin, K. Morokuma, O. Farkas, 
 J. B. Foresman, and D. J. Fox, Gaussian, Inc., Wallingford CT, 2016.
 
 ******************************************
 Gaussian 16:  ES64L-G16RevB.01 20-Dec-2017
                 6-Mar-2022 
 ******************************************
 %nproc=28
 Will use up to   28 processors via shared memory.
 %mem=120GB
 %chk=hoono_a2_112p3802.chk
 ---------------------------------------
 #p freq mp2/aug-cc-pvtz density=current
 ---------------------------------------
 1/10=4,30=1,38=1/1,3;
 2/12=2,17=6,18=5,40=1/2;
 3/5=16,6=1,7=10,11=9,25=1,30=1,71=2,140=1/1,2,3;
 4//1;
 5/5=2,38=5,98=1/2;
 8/6=3,8=1,10=1,19=11,30=-1/1;
 9/15=3,16=-3/6;
 11/6=1,8=1,15=11,17=12,24=-1,27=1,28=-2,29=300,32=6,42=3/1,2,10;
 10/6=2,21=1/2;
 8/6=4,8=1,10=1,19=11,30=-1/11,4;
 10/5=1,20=4/2;
 11/12=2,14=11,16=1,17=2,28=-2,42=3,76=2/2,10,12;
 6/7=2,8=2,9=2,10=2,22=-1/1;
 7/8=1,10=1,12=2,25=1,44=2/1,2,3,16;
 1/10=4,30=1/3;
 99//99;
 Leave Link    1 at Sun Mar  6 19:33:59 2022, MaxMem= 16106127360 cpu:               2.1 elap:               0.1
 (Enter /sw/contrib/gaussian/g16/B01/g16/l101.exe)
 -----
 title
 -----
 Symbolic Z-matrix:
 Charge =  0 Multiplicity = 1
 H
 O                    1    r1
 O                    2    r2       1    a1
 N                    3    r3       2    a2       1    d1       0
 O                    4    r4       3    a3       2    d2       0
       Variables:
  r1                    0.98538                  
  r2                    1.42674                  
  r3                    1.38111                  
  r4                    1.19479                  
  a1                  100.63551                  
  a2                  112.38023                  
  a3                  114.33392                  
  d1                    0.                       
  d2                    0.                       
 
 ITRead=  0  0  0  0  0
 MicOpt= -1 -1 -1 -1 -1
 NAtoms=      5 NQM=        5 NQMF=       0 NMMI=      0 NMMIF=      0
                NMic=       0 NMicF=      0.
                    Isotopes and Nuclear Properties:
 (Nuclear quadrupole moments (NQMom) in fm**2, nuclear magnetic moments (NMagM)
  in nuclear magnetons)

  Atom         1           2           3           4           5
 IAtWgt=           1          16          16          14          16
 AtmWgt=   1.0078250  15.9949146  15.9949146  14.0030740  15.9949146
 NucSpn=           1           0           0           2           0
 AtZEff=  -0.0000000  -0.0000000  -0.0000000  -0.0000000  -0.0000000
 NQMom=    0.0000000   0.0000000   0.0000000   2.0440000   0.0000000
 NMagM=    2.7928460   0.0000000   0.0000000   0.4037610   0.0000000
 AtZNuc=   1.0000000   8.0000000   8.0000000   7.0000000   8.0000000
 Leave Link  101 at Sun Mar  6 19:33:59 2022, MaxMem= 16106127360 cpu:               2.3 elap:               0.1
 (Enter /sw/contrib/gaussian/g16/B01/g16/l103.exe)

 GradGradGradGradGradGradGradGradGradGradGradGradGradGradGradGradGradGrad
 Berny optimization.
 Initialization pass.
                       ----------------------------
                       !    Initial Parameters    !
                       ! (Angstroms and Degrees)  !
 ----------------------                            ----------------------
 !      Name          Value   Derivative information (Atomic Units)     !
 ------------------------------------------------------------------------
 !       r1          0.9854   calculate D2E/DX2 analytically            !
 !       r2          1.4267   calculate D2E/DX2 analytically            !
 !       r3          1.3811   calculate D2E/DX2 analytically            !
 !       r4          1.1948   calculate D2E/DX2 analytically            !
 !       a1        100.6355   calculate D2E/DX2 analytically            !
 !       a2        112.3802   calculate D2E/DX2 analytically            !
 !       a3        114.3339   calculate D2E/DX2 analytically            !
 !       d1          0.0      calculate D2E/DX2 analytically            !
 !       d2          0.0      calculate D2E/DX2 analytically            !
 ------------------------------------------------------------------------
 Trust Radius=3.00D-01 FncErr=1.00D-07 GrdErr=1.00D-07 EigMax=2.50D+02 EigMin=1.00D-04
 Number of steps in this run=      2 maximum allowed number of steps=      2.
 GradGradGradGradGradGradGradGradGradGradGradGradGradGradGradGradGradGrad

 Leave Link  103 at Sun Mar  6 19:33:59 2022, MaxMem= 16106127360 cpu:               0.8 elap:               0.1
 (Enter /sw/contrib/gaussian/g16/B01/g16/l202.exe)
                          Input orientation:                          
 ---------------------------------------------------------------------
 Center     Atomic      Atomic             Coordinates (Angstroms)
 Number     Number       Type             X           Y           Z
 ---------------------------------------------------------------------
      1          1           0        0.000000    0.000000    0.000000
      2          8           0        0.000000    0.000000    0.985377
      3          8           0        1.402227    0.000000    1.248696
      4          7           0        2.154750    0.000000    0.090608
      5          8           0        1.510149    0.000000   -0.915378
 ---------------------------------------------------------------------
                    Distance matrix (angstroms):
                    1          2          3          4          5
     1  H    0.000000
     2  O    0.985377   0.000000
     3  O    1.877627   1.426737   0.000000
     4  N    2.156654   2.333144   1.381108   0.000000
     5  O    1.765918   2.427637   2.166763   1.194788   0.000000
 Stoichiometry    HNO3
 Framework group  CS[SG(HNO3)]
 Deg. of freedom     7
 Full point group                 CS      NOp   2
 Largest Abelian subgroup         CS      NOp   2
 Largest concise Abelian subgroup C1      NOp   1
                         Standard orientation:                         
 ---------------------------------------------------------------------
 Center     Atomic      Atomic             Coordinates (Angstroms)
 Number     Number       Type             X           Y           Z
 ---------------------------------------------------------------------
      1          1           0        1.093178   -0.604796    0.000000
      2          8           0        1.309949    0.356441   -0.000000
      3          8           0       -0.000000    0.921783   -0.000000
      4          7           0       -0.988854   -0.042388    0.000000
      5          8           0       -0.581349   -1.165535    0.000000
 ---------------------------------------------------------------------
 Rotational constants (GHZ):          21.2112152           8.1983336           5.9129305
 Leave Link  202 at Sun Mar  6 19:33:59 2022, MaxMem= 16106127360 cpu:               0.3 elap:               0.0
 (Enter /sw/contrib/gaussian/g16/B01/g16/l301.exe)
 Standard basis: Aug-CC-pVTZ (5D, 7F)
 Ernie: Thresh=  0.10000D-02 Tol=  0.10000D-05 Strict=F.
 Ernie:  12 primitive shells out of 131 were deleted.
 There are   166 symmetry adapted cartesian basis functions of A'  symmetry.
 There are    79 symmetry adapted cartesian basis functions of A"  symmetry.
 There are   136 symmetry adapted basis functions of A'  symmetry.
 There are    71 symmetry adapted basis functions of A"  symmetry.
   207 basis functions,   315 primitive gaussians,   245 cartesian basis functions
    16 alpha electrons       16 beta electrons
       nuclear repulsion energy       122.9451128875 Hartrees.
 IExCor=    0 DFT=F Ex=HF Corr=None ExCW=0 ScaHFX=  1.000000
 ScaDFX=  1.000000  1.000000  1.000000  1.000000 ScalE2=  1.000000  1.000000
 IRadAn=      5 IRanWt=     -1 IRanGd=            0 ICorTp=0 IEmpDi=  4
 NAtoms=    5 NActive=    5 NUniq=    5 SFac= 1.00D+00 NAtFMM=   60 NAOKFM=F Big=F
 Integral buffers will be    131072 words long.
 Raffenetti 1 integral format.
 Two-electron integral symmetry is turned on.
 Leave Link  301 at Sun Mar  6 19:33:59 2022, MaxMem= 16106127360 cpu:               2.4 elap:               0.1
 (Enter /sw/contrib/gaussian/g16/B01/g16/l302.exe)
 NPDir=0 NMtPBC=     1 NCelOv=     1 NCel=       1 NClECP=     1 NCelD=      1
         NCelK=      1 NCelE2=     1 NClLst=     1 CellRange=     0.0.
 One-electron integrals computed using PRISM.
 One-electron integral symmetry used in STVInt
 NBasis=   207 RedAO= T EigKep=  1.31D-04  NBF=   136    71
 NBsUse=   207 1.00D-06 EigRej= -1.00D+00 NBFU=   136    71
 Leave Link  302 at Sun Mar  6 19:33:59 2022, MaxMem= 16106127360 cpu:               4.6 elap:               0.2
 (Enter /sw/contrib/gaussian/g16/B01/g16/l303.exe)
 DipDrv:  MaxL=1.
 Leave Link  303 at Sun Mar  6 19:34:00 2022, MaxMem= 16106127360 cpu:               2.1 elap:               0.1
 (Enter /sw/contrib/gaussian/g16/B01/g16/l401.exe)
 ExpMin= 2.53D-02 ExpMax= 1.53D+04 ExpMxC= 5.22D+02 IAcc=3 IRadAn=         5 AccDes= 0.00D+00
 Harris functional with IExCor=  205 and IRadAn=       5 diagonalized for initial guess.
 HarFok:  IExCor=  205 AccDes= 0.00D+00 IRadAn=         5 IDoV= 1 UseB2=F ITyADJ=14
 ICtDFT=  3500011 ScaDFX=  1.000000  1.000000  1.000000  1.000000
 FoFCou: FMM=F IPFlag=           0 FMFlag=      100000 FMFlg1=           0
         NFxFlg=           0 DoJE=T BraDBF=F KetDBF=T FulRan=T
         wScrn=  0.000000 ICntrl=       500 IOpCl=  0 I1Cent=   200000004 NGrid=           0
         NMat0=    1 NMatS0=      1 NMatT0=    0 NMatD0=    1 NMtDS0=    0 NMtDT0=    0
 Petite list used in FoFCou.
 Harris En= -279.645154298576    
 JPrj=0 DoOrth=F DoCkMO=F.
 Initial guess orbital symmetries:
       Occupied  (A') (A') (A') (A') (A') (A') (A') (A') (A') (A')
                 (A") (A') (A') (A") (A") (A')
       Virtual   (A") (A') (A') (A') (A') (A") (A') (A') (A') (A')
                 (A") (A') (A") (A') (A') (A") (A') (A') (A") (A')
                 (A') (A') (A') (A') (A") (A') (A') (A') (A") (A')
                 (A') (A") (A") (A') (A') (A") (A') (A") (A') (A")
                 (A') (A") (A') (A") (A') (A') (A') (A") (A') (A')
                 (A') (A") (A') (A") (A') (A") (A') (A') (A') (A")
                 (A') (A') (A") (A') (A') (A') (A") (A") (A') (A')
                 (A") (A') (A") (A") (A') (A') (A") (A') (A') (A')
                 (A") (A') (A') (A") (A') (A") (A') (A") (A') (A')
                 (A') (A") (A') (A") (A') (A') (A") (A') (A") (A')
                 (A") (A') (A') (A") (A") (A') (A') (A') (A") (A')
                 (A") (A') (A') (A') (A") (A') (A') (A') (A") (A')
                 (A") (A') (A') (A") (A") (A") (A") (A') (A') (A')
                 (A') (A') (A') (A") (A') (A") (A') (A") (A') (A')
                 (A") (A") (A') (A') (A') (A") (A') (A') (A') (A")
                 (A') (A') (A') (A") (A') (A") (A") (A') (A') (A")
                 (A') (A") (A") (A') (A") (A') (A") (A') (A") (A')
                 (A") (A") (A") (A') (A") (A') (A') (A') (A") (A')
                 (A') (A') (A') (A') (A') (A') (A') (A') (A') (A')
                 (A')
 The electronic state of the initial guess is 1-A'.
 Leave Link  401 at Sun Mar  6 19:34:00 2022, MaxMem= 16106127360 cpu:               6.9 elap:               0.3
 (Enter /sw/contrib/gaussian/g16/B01/g16/l502.exe)
 Keep R1 ints in memory in symmetry-blocked form, NReq=348887737.
 FoFCou: FMM=F IPFlag=           0 FMFlag=           0 FMFlg1=           0
         NFxFlg=           0 DoJE=F BraDBF=F KetDBF=F FulRan=T
         wScrn=  0.000000 ICntrl=       600 IOpCl=  0 I1Cent=           0 NGrid=           0
         NMat0=    1 NMatS0=  21528 NMatT0=    0 NMatD0=    1 NMtDS0=    0 NMtDT0=    0
 Petite list used in FoFCou.
 Closed shell SCF:
 Using DIIS extrapolation, IDIIS=  1040.
 NGot= 16106127360 LenX= 15988850015 LenY= 15988789549
 Requested convergence on RMS density matrix=1.00D-08 within 128 cycles.
 Requested convergence on MAX density matrix=1.00D-06.
 Requested convergence on             energy=1.00D-06.
 No special actions if energy rises.

 Cycle   1  Pass 1  IDiag  1:
 E= -279.363825915988    
 DIIS: error= 2.74D-02 at cycle   1 NSaved=   1.
 NSaved= 1 IEnMin= 1 EnMin= -279.363825915988     IErMin= 1 ErrMin= 2.74D-02
 ErrMax= 2.74D-02  0.00D+00 EMaxC= 1.00D-01 BMatC= 4.51D-01 BMatP= 4.51D-01
 IDIUse=3 WtCom= 7.26D-01 WtEn= 2.74D-01
 Coeff-Com:  0.100D+01
 Coeff-En:   0.100D+01
 Coeff:      0.100D+01
 Gap=     0.498 Goal=   None    Shift=    0.000
 GapD=    0.498 DampG=2.000 DampE=0.500 DampFc=1.0000 IDamp=-1.
 RMSDP=1.68D-03 MaxDP=8.80D-02              OVMax= 1.23D-01

 Cycle   2  Pass 1  IDiag  1:
 E= -279.445946891360     Delta-E=       -0.082120975371 Rises=F Damp=F
 DIIS: error= 1.95D-02 at cycle   2 NSaved=   2.
 NSaved= 2 IEnMin= 2 EnMin= -279.445946891360     IErMin= 2 ErrMin= 1.95D-02
 ErrMax= 1.95D-02  0.00D+00 EMaxC= 1.00D-01 BMatC= 8.61D-02 BMatP= 4.51D-01
 IDIUse=3 WtCom= 8.05D-01 WtEn= 1.95D-01
 Coeff-Com:  0.219D+00 0.781D+00
 Coeff-En:   0.775D-01 0.922D+00
 Coeff:      0.191D+00 0.809D+00
 Gap=     0.563 Goal=   None    Shift=    0.000
 RMSDP=9.69D-04 MaxDP=3.70D-02 DE=-8.21D-02 OVMax= 9.13D-02

 Cycle   3  Pass 1  IDiag  1:
 E= -279.483789911589     Delta-E=       -0.037843020229 Rises=F Damp=F
 DIIS: error= 1.11D-02 at cycle   3 NSaved=   3.
 NSaved= 3 IEnMin= 3 EnMin= -279.483789911589     IErMin= 3 ErrMin= 1.11D-02
 ErrMax= 1.11D-02  0.00D+00 EMaxC= 1.00D-01 BMatC= 3.10D-02 BMatP= 8.61D-02
 IDIUse=3 WtCom= 8.89D-01 WtEn= 1.11D-01
 Coeff-Com: -0.347D-01 0.364D+00 0.670D+00
 Coeff-En:   0.000D+00 0.218D+00 0.782D+00
 Coeff:     -0.308D-01 0.348D+00 0.683D+00
 Gap=     0.542 Goal=   None    Shift=    0.000
 RMSDP=4.11D-04 MaxDP=1.58D-02 DE=-3.78D-02 OVMax= 3.88D-02

 Cycle   4  Pass 1  IDiag  1:
 E= -279.504940276731     Delta-E=       -0.021150365142 Rises=F Damp=F
 DIIS: error= 1.66D-03 at cycle   4 NSaved=   4.
 NSaved= 4 IEnMin= 4 EnMin= -279.504940276731     IErMin= 4 ErrMin= 1.66D-03
 ErrMax= 1.66D-03  0.00D+00 EMaxC= 1.00D-01 BMatC= 6.03D-04 BMatP= 3.10D-02
 IDIUse=3 WtCom= 9.83D-01 WtEn= 1.66D-02
 Coeff-Com: -0.120D-01 0.475D-01 0.155D+00 0.810D+00
 Coeff-En:   0.000D+00 0.000D+00 0.000D+00 0.100D+01
 Coeff:     -0.118D-01 0.467D-01 0.152D+00 0.813D+00
 Gap=     0.528 Goal=   None    Shift=    0.000
 RMSDP=9.88D-05 MaxDP=2.29D-03 DE=-2.12D-02 OVMax= 1.17D-02

 Cycle   5  Pass 1  IDiag  1:
 E= -279.505752897940     Delta-E=       -0.000812621209 Rises=F Damp=F
 DIIS: error= 1.10D-03 at cycle   5 NSaved=   5.
 NSaved= 5 IEnMin= 5 EnMin= -279.505752897940     IErMin= 5 ErrMin= 1.10D-03
 ErrMax= 1.10D-03  0.00D+00 EMaxC= 1.00D-01 BMatC= 1.03D-04 BMatP= 6.03D-04
 IDIUse=3 WtCom= 9.89D-01 WtEn= 1.10D-02
 Coeff-Com:  0.539D-02-0.660D-01-0.111D+00 0.582D-01 0.111D+01
 Coeff-En:   0.000D+00 0.000D+00 0.000D+00 0.000D+00 0.100D+01
 Coeff:      0.533D-02-0.653D-01-0.110D+00 0.575D-01 0.111D+01
 Gap=     0.532 Goal=   None    Shift=    0.000
 RMSDP=7.99D-05 MaxDP=2.11D-03 DE=-8.13D-04 OVMax= 1.29D-02

 Cycle   6  Pass 1  IDiag  1:
 E= -279.506115893167     Delta-E=       -0.000362995227 Rises=F Damp=F
 DIIS: error= 3.35D-04 at cycle   6 NSaved=   6.
 NSaved= 6 IEnMin= 6 EnMin= -279.506115893167     IErMin= 6 ErrMin= 3.35D-04
 ErrMax= 3.35D-04  0.00D+00 EMaxC= 1.00D-01 BMatC= 2.39D-05 BMatP= 1.03D-04
 IDIUse=3 WtCom= 9.97D-01 WtEn= 3.35D-03
 Coeff-Com:  0.189D-02-0.709D-02-0.179D-01-0.182D+00 0.112D-01 0.119D+01
 Coeff-En:   0.000D+00 0.000D+00 0.000D+00 0.000D+00 0.000D+00 0.100D+01
 Coeff:      0.188D-02-0.706D-02-0.178D-01-0.181D+00 0.112D-01 0.119D+01
 Gap=     0.532 Goal=   None    Shift=    0.000
 RMSDP=4.66D-05 MaxDP=1.07D-03 DE=-3.63D-04 OVMax= 6.10D-03

 Cycle   7  Pass 1  IDiag  1:
 E= -279.506201386510     Delta-E=       -0.000085493343 Rises=F Damp=F
 DIIS: error= 1.24D-04 at cycle   7 NSaved=   7.
 NSaved= 7 IEnMin= 7 EnMin= -279.506201386510     IErMin= 7 ErrMin= 1.24D-04
 ErrMax= 1.24D-04  0.00D+00 EMaxC= 1.00D-01 BMatC= 3.52D-06 BMatP= 2.39D-05
 IDIUse=3 WtCom= 9.99D-01 WtEn= 1.24D-03
 Coeff-Com: -0.109D-02 0.114D-01 0.249D-01 0.169D-01-0.180D+00-0.153D+00
 Coeff-Com:  0.128D+01
 Coeff-En:   0.000D+00 0.000D+00 0.000D+00 0.000D+00 0.000D+00 0.000D+00
 Coeff-En:   0.100D+01
 Coeff:     -0.109D-02 0.113D-01 0.249D-01 0.169D-01-0.180D+00-0.153D+00
 Coeff:      0.128D+01
 Gap=     0.533 Goal=   None    Shift=    0.000
 RMSDP=1.74D-05 MaxDP=5.10D-04 DE=-8.55D-05 OVMax= 2.32D-03

 Cycle   8  Pass 1  IDiag  1:
 E= -279.506213232299     Delta-E=       -0.000011845789 Rises=F Damp=F
 DIIS: error= 4.67D-05 at cycle   8 NSaved=   8.
 NSaved= 8 IEnMin= 8 EnMin= -279.506213232299     IErMin= 8 ErrMin= 4.67D-05
 ErrMax= 4.67D-05  0.00D+00 EMaxC= 1.00D-01 BMatC= 5.91D-07 BMatP= 3.52D-06
 IDIUse=1 WtCom= 1.00D+00 WtEn= 0.00D+00
 Coeff-Com: -0.556D-03 0.407D-02 0.965D-02 0.247D-01-0.563D-01-0.192D+00
 Coeff-Com:  0.355D+00 0.856D+00
 Coeff:     -0.556D-03 0.407D-02 0.965D-02 0.247D-01-0.563D-01-0.192D+00
 Coeff:      0.355D+00 0.856D+00
 Gap=     0.533 Goal=   None    Shift=    0.000
 RMSDP=5.38D-06 MaxDP=1.51D-04 DE=-1.18D-05 OVMax= 6.38D-04

 Cycle   9  Pass 1  IDiag  1:
 E= -279.506214581901     Delta-E=       -0.000001349602 Rises=F Damp=F
 DIIS: error= 2.37D-05 at cycle   9 NSaved=   9.
 NSaved= 9 IEnMin= 9 EnMin= -279.506214581901     IErMin= 9 ErrMin= 2.37D-05
 ErrMax= 2.37D-05  0.00D+00 EMaxC= 1.00D-01 BMatC= 1.15D-07 BMatP= 5.91D-07
 IDIUse=1 WtCom= 1.00D+00 WtEn= 0.00D+00
 Coeff-Com:  0.239D-03-0.253D-02-0.528D-02-0.557D-02 0.465D-01 0.486D-01
 Coeff-Com: -0.339D+00 0.347D-01 0.122D+01
 Coeff:      0.239D-03-0.253D-02-0.528D-02-0.557D-02 0.465D-01 0.486D-01
 Coeff:     -0.339D+00 0.347D-01 0.122D+01
 Gap=     0.533 Goal=   None    Shift=    0.000
 RMSDP=2.44D-06 MaxDP=6.63D-05 DE=-1.35D-06 OVMax= 2.57D-04

 Cycle  10  Pass 1  IDiag  1:
 E= -279.506214840766     Delta-E=       -0.000000258865 Rises=F Damp=F
 DIIS: error= 5.50D-06 at cycle  10 NSaved=  10.
 NSaved=10 IEnMin=10 EnMin= -279.506214840766     IErMin=10 ErrMin= 5.50D-06
 ErrMax= 5.50D-06  0.00D+00 EMaxC= 1.00D-01 BMatC= 8.09D-09 BMatP= 1.15D-07
 IDIUse=1 WtCom= 1.00D+00 WtEn= 0.00D+00
 Coeff-Com: -0.362D-04 0.469D-03 0.114D-02-0.186D-02-0.105D-01 0.582D-02
 Coeff-Com:  0.695D-01-0.540D-01-0.423D+00 0.141D+01
 Coeff:     -0.362D-04 0.469D-03 0.114D-02-0.186D-02-0.105D-01 0.582D-02
 Coeff:      0.695D-01-0.540D-01-0.423D+00 0.141D+01
 Gap=     0.533 Goal=   None    Shift=    0.000
 RMSDP=6.90D-07 MaxDP=2.47D-05 DE=-2.59D-07 OVMax= 7.49D-05

 Cycle  11  Pass 1  IDiag  1:
 E= -279.506214865057     Delta-E=       -0.000000024291 Rises=F Damp=F
 DIIS: error= 2.18D-06 at cycle  11 NSaved=  11.
 NSaved=11 IEnMin=11 EnMin= -279.506214865057     IErMin=11 ErrMin= 2.18D-06
 ErrMax= 2.18D-06  0.00D+00 EMaxC= 1.00D-01 BMatC= 8.55D-10 BMatP= 8.09D-09
 IDIUse=1 WtCom= 1.00D+00 WtEn= 0.00D+00
 Coeff-Com: -0.174D-04 0.179D-03 0.378D-03 0.849D-03-0.247D-02-0.713D-02
 Coeff-Com:  0.211D-01 0.179D-01-0.619D-01-0.293D+00 0.132D+01
 Coeff:     -0.174D-04 0.179D-03 0.378D-03 0.849D-03-0.247D-02-0.713D-02
 Coeff:      0.211D-01 0.179D-01-0.619D-01-0.293D+00 0.132D+01
 Gap=     0.533 Goal=   None    Shift=    0.000
 RMSDP=2.42D-07 MaxDP=9.00D-06 DE=-2.43D-08 OVMax= 2.84D-05

 Cycle  12  Pass 1  IDiag  1:
 E= -279.506214868079     Delta-E=       -0.000000003022 Rises=F Damp=F
 DIIS: error= 7.67D-07 at cycle  12 NSaved=  12.
 NSaved=12 IEnMin=12 EnMin= -279.506214868079     IErMin=12 ErrMin= 7.67D-07
 ErrMax= 7.67D-07  0.00D+00 EMaxC= 1.00D-01 BMatC= 9.36D-11 BMatP= 8.55D-10
 IDIUse=1 WtCom= 1.00D+00 WtEn= 0.00D+00
 Coeff-Com:  0.235D-05-0.434D-04-0.958D-04 0.167D-03 0.115D-02-0.100D-02
 Coeff-Com: -0.720D-02 0.742D-02 0.423D-01-0.130D+00-0.159D+00 0.125D+01
 Coeff:      0.235D-05-0.434D-04-0.958D-04 0.167D-03 0.115D-02-0.100D-02
 Coeff:     -0.720D-02 0.742D-02 0.423D-01-0.130D+00-0.159D+00 0.125D+01
 Gap=     0.533 Goal=   None    Shift=    0.000
 RMSDP=8.72D-08 MaxDP=2.87D-06 DE=-3.02D-09 OVMax= 1.02D-05

 Cycle  13  Pass 1  IDiag  1:
 E= -279.506214868407     Delta-E=       -0.000000000328 Rises=F Damp=F
 DIIS: error= 1.68D-07 at cycle  13 NSaved=  13.
 NSaved=13 IEnMin=13 EnMin= -279.506214868407     IErMin=13 ErrMin= 1.68D-07
 ErrMax= 1.68D-07  0.00D+00 EMaxC= 1.00D-01 BMatC= 8.02D-12 BMatP= 9.36D-11
 IDIUse=1 WtCom= 1.00D+00 WtEn= 0.00D+00
 Coeff-Com:  0.140D-05-0.136D-04-0.205D-04-0.123D-03 0.718D-04 0.956D-03
 Coeff-Com: -0.128D-02-0.251D-02-0.111D-02 0.547D-01-0.131D+00-0.157D+00
 Coeff-Com:  0.124D+01
 Coeff:      0.140D-05-0.136D-04-0.205D-04-0.123D-03 0.718D-04 0.956D-03
 Coeff:     -0.128D-02-0.251D-02-0.111D-02 0.547D-01-0.131D+00-0.157D+00
 Coeff:      0.124D+01
 Gap=     0.533 Goal=   None    Shift=    0.000
 RMSDP=2.37D-08 MaxDP=7.09D-07 DE=-3.28D-10 OVMax= 2.18D-06

 Cycle  14  Pass 1  IDiag  1:
 E= -279.506214868429     Delta-E=       -0.000000000023 Rises=F Damp=F
 DIIS: error= 4.13D-08 at cycle  14 NSaved=  14.
 NSaved=14 IEnMin=14 EnMin= -279.506214868429     IErMin=14 ErrMin= 4.13D-08
 ErrMax= 4.13D-08  0.00D+00 EMaxC= 1.00D-01 BMatC= 5.17D-13 BMatP= 8.02D-12
 IDIUse=1 WtCom= 1.00D+00 WtEn= 0.00D+00
 Coeff-Com: -0.289D-06 0.441D-05 0.894D-05-0.540D-05-0.115D-03 0.741D-04
 Coeff-Com:  0.649D-03-0.367D-03-0.370D-02 0.874D-02 0.168D-01-0.888D-01
 Coeff-Com: -0.323D-01 0.110D+01
 Coeff:     -0.289D-06 0.441D-05 0.894D-05-0.540D-05-0.115D-03 0.741D-04
 Coeff:      0.649D-03-0.367D-03-0.370D-02 0.874D-02 0.168D-01-0.888D-01
 Coeff:     -0.323D-01 0.110D+01
 Gap=     0.533 Goal=   None    Shift=    0.000
 RMSDP=4.59D-09 MaxDP=1.15D-07 DE=-2.25D-11 OVMax= 4.53D-07

 SCF Done:  E(RHF) =  -279.506214868     A.U. after   14 cycles
            NFock= 14  Conv=0.46D-08     -V/T= 2.0022
 KE= 2.788907753399D+02 PE=-9.067550382400D+02 EE= 2.254129351442D+02
 Leave Link  502 at Sun Mar  6 19:34:04 2022, MaxMem= 16106127360 cpu:              71.9 elap:               4.3
 (Enter /sw/contrib/gaussian/g16/B01/g16/l801.exe)
 ExpMin= 2.53D-02 ExpMax= 1.53D+04 ExpMxC= 5.22D+02 IAcc=3 IRadAn=         5 AccDes= 0.00D+00
 HarFok:  IExCor=  205 AccDes= 0.00D+00 IRadAn=         5 IDoV=-2 UseB2=F ITyADJ=14
 ICtDFT= 12500011 ScaDFX=  1.000000  1.000000  1.000000  1.000000
 Largest valence mixing into a core orbital is  2.07D-04
 Largest core mixing into a valence orbital is  3.11D-05
 Range of M.O.s used for correlation:     5   207
 NBasis=   207 NAE=    16 NBE=    16 NFC=     4 NFV=     0
 NROrb=    203 NOA=    12 NOB=    12 NVA=   191 NVB=   191

 **** Warning!!: The largest alpha MO coefficient is  0.16959814D+02

 Leave Link  801 at Sun Mar  6 19:34:04 2022, MaxMem= 16106127360 cpu:               2.2 elap:               0.1
 (Enter /sw/contrib/gaussian/g16/B01/g16/l906.exe)
 Frozen-core derivative calculation, NFC=   4 NFV=   0.
 FulOut=F Deriv=T AODrv=T NAtomX=     5
   MMem=           0  MDisk=          12 MDiskD=          12
  W3Min=      811440 MinDsk=     2425030 NBas6D=         245
 NBas2D=       30762    NTT=       30135    LW2=     7400000
    MDV= 16105571504 MDiskM=      328644 NBas2p=       30759
 Disk-based method using ON**2 memory for 12 occupieds at a time.
 Permanent disk used for amplitudes=    11516536 words.
 Estimated scratch disk usage=   321863743 words.
 IMap=   1   2   3   4   5   6   7   8   9  10  11  12  13  14  15  16
 Actual    scratch disk usage=   310892607 words.
 JobTyp=1 Pass  1:  I=   5 to  16 NPSUse= 28 ParTrn=T ParDer=T DoDerP=T.
 (rs|ai) integrals will be sorted in core.
 Spin components of T(2) and E(2):
     alpha-alpha T2 =       0.3480758867D-01 E2=     -0.1246062248D+00
     alpha-beta  T2 =       0.1844526216D+00 E2=     -0.6997629311D+00
     beta-beta   T2 =       0.3480758867D-01 E2=     -0.1246062248D+00
 The integrals were generated   1 times.
 ANorm=    0.1119851686D+01
 E2 =    -0.9489753807D+00 EUMP2 =    -0.28045519024912D+03
 Leave Link  906 at Sun Mar  6 19:35:41 2022, MaxMem= 16106127360 cpu:            2707.7 elap:              96.8
 (Enter /sw/contrib/gaussian/g16/B01/g16/l1101.exe)
 Using compressed Sx but separate Hx and Fx, NAtomX=     5.
 Will process      6 centers per pass.
 Leave Link 1101 at Sun Mar  6 19:35:41 2022, MaxMem= 16106127360 cpu:               5.4 elap:               0.2
 (Enter /sw/contrib/gaussian/g16/B01/g16/l1102.exe)
 Leave Link 1102 at Sun Mar  6 19:35:41 2022, MaxMem= 16106127360 cpu:               1.7 elap:               0.1
 (Enter /sw/contrib/gaussian/g16/B01/g16/l1110.exe)
 Forming Gx(P) for the SCF density, NAtomX=     5.
 Integral derivatives from FoFJK, PRISM(SPDF).
 Do as many integral derivatives as possible in FoFJK.
 G2DrvN: MDV=   16106126844.
 G2DrvN: will do     6 centers at a time, making    1 passes.
 Calling FoFCou, ICntrl=  3107 FMM=F I1Cent=   0 AccDes= 0.00D+00.
 FoFJK:  IHMeth= 1 ICntrl=    3107 DoSepK=F KAlg= 0 I1Cent=           0 FoldK=F
 IRaf=         0 NMat=       1 IRICut=       1 DoRegI=T DoRafI=F ISym2E= 1 IDoP0=0 IntGTp=1.
 FoFCou: FMM=F IPFlag=           0 FMFlag=      100000 FMFlg1=           0
         NFxFlg=           0 DoJE=F BraDBF=F KetDBF=F FulRan=T
         wScrn=  0.000000 ICntrl=      3107 IOpCl=  0 I1Cent=           0 NGrid=           0
         NMat0=    1 NMatS0=      1 NMatT0=    0 NMatD0=    1 NMtDS0=    0 NMtDT0=    0
 Petite list used in FoFCou.
 End of G2Drv F.D. properties file   721 does not exist.
 End of G2Drv F.D. properties file   722 does not exist.
 End of G2Drv F.D. properties file   788 does not exist.
 Leave Link 1110 at Sun Mar  6 19:35:45 2022, MaxMem= 16106127360 cpu:              86.6 elap:               3.1
 (Enter /sw/contrib/gaussian/g16/B01/g16/l1002.exe)
 Minotr:  Closed shell wavefunction.
          IDoAtm=11111
          Frozen-core window.
          Direct CPHF calculation.
          Differentiating once with respect to electric field.
                with respect to dipole field.
          Differentiating once with respect to nuclear coordinates.
          Requested convergence is 1.0D-08 RMS, and 1.0D-07 maximum.
          Secondary convergence is 1.0D-12 RMS, and 1.0D-12 maximum.
          NewPWx=T KeepS1=T KeepF1=T KeepIn=T MapXYZ=F SortEE=F KeepMc=T.
 Keep R1 ints in memory in symmetry-blocked form, NReq=348888983.
 FoFCou: FMM=F IPFlag=           0 FMFlag=           0 FMFlg1=           0
         NFxFlg=           0 DoJE=F BraDBF=F KetDBF=F FulRan=T
         wScrn=  0.000000 ICntrl=       600 IOpCl=  0 I1Cent=           0 NGrid=           0
         NMat0=    1 NMatS0=  21528 NMatT0=    0 NMatD0=    1 NMtDS0=    0 NMtDT0=    0
 Petite list used in FoFCou.
          MDV=   16106127360 using IRadAn=       1.
          Solving linear equations simultaneously, MaxMat=       0.
          There are    18 degrees of freedom in the 1st order CPHF.  IDoFFX=6 NUNeed=    18.
     15 vectors produced by pass  0 Test12= 1.70D-14 5.56D-09 XBig12= 7.91D+00 1.22D+00.
 AX will form    15 AO Fock derivatives at one time.
     15 vectors produced by pass  1 Test12= 1.70D-14 5.56D-09 XBig12= 1.36D+00 2.30D-01.
     15 vectors produced by pass  2 Test12= 1.70D-14 5.56D-09 XBig12= 6.57D-02 5.69D-02.
     15 vectors produced by pass  3 Test12= 1.70D-14 5.56D-09 XBig12= 1.88D-03 1.03D-02.
     15 vectors produced by pass  4 Test12= 1.70D-14 5.56D-09 XBig12= 3.94D-05 1.23D-03.
     15 vectors produced by pass  5 Test12= 1.70D-14 5.56D-09 XBig12= 5.38D-07 1.17D-04.
     15 vectors produced by pass  6 Test12= 1.70D-14 5.56D-09 XBig12= 4.27D-09 1.21D-05.
     14 vectors produced by pass  7 Test12= 1.70D-14 5.56D-09 XBig12= 3.36D-11 7.41D-07.
      3 vectors produced by pass  8 Test12= 1.70D-14 5.56D-09 XBig12= 2.38D-13 5.96D-08.
      1 vectors produced by pass  9 Test12= 1.70D-14 5.56D-09 XBig12= 1.62D-15 6.86D-09.
 InvSVY:  IOpt=1 It=  1 EMax= 1.11D-15
 Solved reduced A of dimension   123 with    15 vectors.
 FullF1:  Do perturbations      1 to      18.
 Saving first derivative matrices.
 End of Minotr F.D. properties file   721 does not exist.
 End of Minotr F.D. properties file   722 does not exist.
 End of Minotr F.D. properties file   788 does not exist.
 Leave Link 1002 at Sun Mar  6 19:35:48 2022, MaxMem= 16106127360 cpu:              77.9 elap:               2.9
 (Enter /sw/contrib/gaussian/g16/B01/g16/l811.exe)
 MDV= 16106127360.
 Form MO integral derivatives with frozen-active canonical formalism.
 MOERI=1 MOERIx=1 NAtoms=     5 NAtomX=     5.
 Discarding MO integrals.
 MO basis two electron integral derivatives will not be stored on disk.
 IAlg= 3 DoFC=T DoPWx=T Debug=F.
 Frozen-core window:  NFC=   4 NFV=   0.
 Reordered first order wavefunction length =     18678272
 In DefCFB: NBatch=  1 ICI= 16 ICA=191 LFMax= 96
            Large arrays: LIAPS=   619940160 LIARS=   288257200 words.
 In StABat: MaxSiz= 55 MinSiz= 25 NAtomB=  5
 DoIAMN: NPSUse= 28.
 Leave Link  811 at Sun Mar  6 19:37:08 2022, MaxMem= 16106127360 cpu:            2253.0 elap:              80.6
 (Enter /sw/contrib/gaussian/g16/B01/g16/l804.exe)
 Frozen-core window:  NFC=   4 NFV=   0.
 Closed-shell transformation, MDV= 16106127360 ITran=4 ISComp=1.
 Semi-Direct transformation.
 ModeAB=           2 MOrb=            16 LenV=   16104919855
 LASXX=     67341636 LTotXX=    67341636 LenRXX=    67341636
 LTotAB=    68301760 MaxLAS=    99807120 LenRXY=    99807120
 NonZer=   134683272 LenScr=   202817536 LnRSAI=           0
 LnScr1=           0 LExtra=           0 Total=    369966292
 MaxDsk=          -1 SrtSym=           F ITran=            4
 DoSDTr:  NPSUse= 28
 JobTyp=0 Pass  1:  I=   1 to  16.
 (rs|ai) integrals will be sorted in core.
 Complete sort for first half transformation.
 First half transformation complete.
 Begin second half transformation for I=  10.
 Begin second half transformation for I=  10.
 Complete sort for second half transformation.
 Second half transformation complete.
 Spin components of T(2) and E(2):
     alpha-alpha T2 =       0.3480758867D-01 E2=     -0.1246062248D+00
     alpha-beta  T2 =       0.1844526216D+00 E2=     -0.6997629311D+00
     beta-beta   T2 =       0.3480758867D-01 E2=     -0.1246062248D+00
 ANorm=    0.1583709442D+01
 E2 =    -0.9489753807D+00 EUMP2 =    -0.28045519024912D+03
 Leave Link  804 at Sun Mar  6 19:37:24 2022, MaxMem= 16106127360 cpu:             432.3 elap:              15.5
 (Enter /sw/contrib/gaussian/g16/B01/g16/l1002.exe)
 Minotr:  Closed shell wavefunction.
          Computing MP2/KS-MP2 derivatives.
          Using Z-Vector for PSCF gradient.
          Skipping F1 and S1 gradient terms here.
          IDoAtm=11111
          Frozen-core window.
          Using MO integrals in the linear equations.
          Forming densities via direct SCF.
          Differentiating once with respect to electric field.
                with respect to dipole field.
          Differentiating once with respect to nuclear coordinates.
          Using symmetry in CPHF.
          Requested convergence is 1.0D-10 RMS, and 1.0D-09 maximum.
          NewPWx=F KeepS1=T KeepF1=T KeepIn=T MapXYZ=F SortEE=F KeepMc=T.
          MDV=   16106127360 using IRadAn=       5.
          Solving linear equations separately, MaxMat=       0.
          There are     1 degrees of freedom in the 1st order CPHF.  IDoFFX=0 NUNeed=     1.
 FoFJK:  IHMeth= 1 ICntrl=       0 DoSepK=F KAlg= 0 I1Cent=           0 FoldK=F
 IRaf=         0 NMat=       1 IRICut=       1 DoRegI=T DoRafI=F ISym2E= 0 IDoP0=0 IntGTp=1.
 FoFCou: FMM=F IPFlag=           0 FMFlag=      100000 FMFlg1=           0
         NFxFlg=           0 DoJE=F BraDBF=F KetDBF=F FulRan=T
         wScrn=  0.000000 ICntrl=         0 IOpCl=  0 I1Cent=           0 NGrid=           0
         NMat0=    1 NMatS0=      1 NMatT0=    0 NMatD0=    1 NMtDS0=    0 NMtDT0=    0
 Symmetry not used in FoFCou.
 LinEq1:  Iter=  0 NonCon=     1 RMS=6.60D-03 Max=1.71D-01 NDo=     1
 LinEq1:  Iter=  1 NonCon=     1 RMS=2.00D-03 Max=3.06D-02 NDo=     1
 LinEq1:  Iter=  2 NonCon=     1 RMS=8.90D-04 Max=1.43D-02 NDo=     1
 LinEq1:  Iter=  3 NonCon=     1 RMS=3.79D-04 Max=8.09D-03 NDo=     1
 LinEq1:  Iter=  4 NonCon=     1 RMS=1.37D-04 Max=1.66D-03 NDo=     1
 LinEq1:  Iter=  5 NonCon=     1 RMS=7.62D-05 Max=1.39D-03 NDo=     1
 LinEq1:  Iter=  6 NonCon=     1 RMS=2.43D-05 Max=2.92D-04 NDo=     1
 LinEq1:  Iter=  7 NonCon=     1 RMS=8.28D-06 Max=1.13D-04 NDo=     1
 LinEq1:  Iter=  8 NonCon=     1 RMS=4.01D-06 Max=6.16D-05 NDo=     1
 LinEq1:  Iter=  9 NonCon=     1 RMS=1.04D-06 Max=1.14D-05 NDo=     1
 LinEq1:  Iter= 10 NonCon=     1 RMS=2.33D-07 Max=2.85D-06 NDo=     1
 LinEq1:  Iter= 11 NonCon=     1 RMS=5.02D-08 Max=7.41D-07 NDo=     1
 LinEq1:  Iter= 12 NonCon=     1 RMS=1.18D-08 Max=1.59D-07 NDo=     1
 LinEq1:  Iter= 13 NonCon=     1 RMS=2.08D-09 Max=2.38D-08 NDo=     1
 LinEq1:  Iter= 14 NonCon=     1 RMS=4.35D-10 Max=5.69D-09 NDo=     1
 LinEq1:  Iter= 15 NonCon=     0 RMS=8.88D-11 Max=9.60D-10 NDo=     1
 Linear equations converged to 1.000D-10 1.000D-09 after    15 iterations.
 End of Minotr F.D. properties file   721 does not exist.
 End of Minotr F.D. properties file   722 does not exist.
 End of Minotr F.D. properties file   788 does not exist.
 Leave Link 1002 at Sun Mar  6 19:37:26 2022, MaxMem= 16106127360 cpu:              66.1 elap:               2.4
 (Enter /sw/contrib/gaussian/g16/B01/g16/l1102.exe)
 Use density number 2.
 Symmetrizing basis deriv contribution to polar:
 IMax=3 JMax=2 DiffMx= 0.00D+00
 Leave Link 1102 at Sun Mar  6 19:37:26 2022, MaxMem= 16106127360 cpu:               1.6 elap:               0.1
 (Enter /sw/contrib/gaussian/g16/B01/g16/l1110.exe)
 Forming Gx(P) for generalized density number  2 NAtomX=     5.
 Integral derivatives from FoFJK, PRISM(SPDF).
 Do as many integral derivatives as possible in FoFJK.
 G2DrvN: MDV=   16106126844.
 G2DrvN: will do     6 centers at a time, making    1 passes.
 Calling FoFCou, ICntrl=  3107 FMM=F I1Cent=   0 AccDes= 0.00D+00.
 FoFJK:  IHMeth= 1 ICntrl=    3107 DoSepK=F KAlg= 0 I1Cent=           0 FoldK=F
 IRaf=         0 NMat=       1 IRICut=       1 DoRegI=T DoRafI=F ISym2E= 1 IDoP0=0 IntGTp=1.
 FoFCou: FMM=F IPFlag=           0 FMFlag=      100000 FMFlg1=           0
         NFxFlg=           0 DoJE=F BraDBF=F KetDBF=F FulRan=T
         wScrn=  0.000000 ICntrl=      3107 IOpCl=  0 I1Cent=           0 NGrid=           0
         NMat0=    1 NMatS0=      1 NMatT0=    0 NMatD0=    1 NMtDS0=    0 NMtDT0=    0
 Petite list used in FoFCou.
 End of G2Drv F.D. properties file   721 does not exist.
 End of G2Drv F.D. properties file   722 does not exist.
 End of G2Drv F.D. properties file   788 does not exist.
 Leave Link 1110 at Sun Mar  6 19:37:29 2022, MaxMem= 16106127360 cpu:              87.4 elap:               3.2
 (Enter /sw/contrib/gaussian/g16/B01/g16/l1112.exe)
 MP22nd: MDV=   16106127360
 This link is doing NAtomX=     5 total of    18 degrees of freedom.
 Using ON3 I/O method in MakUI.
 Frozen-core window:  NFC=   4 NFV=   0.
 Using Ix for Sx.
 Use MO integrals over full window.
 Using OV2 memory method for fx*t*t/D, MaxI=    16 DoOO2=F NP=  28.
 R2 and R3 integrals will be kept in memory, NReq=   915591705.
 FoFCou: FMM=F IPFlag=           0 FMFlag=           0 FMFlg1=           0
         NFxFlg=           0 DoJE=F BraDBF=F KetDBF=F FulRan=T
         wScrn=  0.000000 ICntrl=       600 IOpCl=  0 I1Cent=           0 NGrid=           0
         NMat0=    1 NMatS0=      1 NMatT0=    0 NMatD0=    1 NMtDS0=    0 NMtDT0=    0
 Symmetry not used in FoFCou.
 DD1Dir will call FoFMem   1 times, MxPair=       272
 NAB=   136 NAA=     0 NBB=     0.
 Symmetry is being used.
 FoFJK:  IHMeth= 1 ICntrl=       0 DoSepK=F KAlg= 0 I1Cent=           0 FoldK=F
 IRaf=         0 NMat=      18 IRICut=      45 DoRegI=T DoRafI=T ISym2E= 2 IDoP0=3 IntGTp=3.
 Discarding MO integrals.
 Leave Link 1112 at Sun Mar  6 19:38:00 2022, MaxMem= 16106127360 cpu:             838.6 elap:              30.2
 (Enter /sw/contrib/gaussian/g16/B01/g16/l601.exe)
 Copying SCF densities to generalized density rwf, IOpCl= 0 IROHF=0.

 **********************************************************************

            Population analysis using the MP2 Density.

 **********************************************************************

 Orbital symmetries:
       Occupied  (A') (A') (A') (A') (A') (A') (A') (A') (A') (A')
                 (A") (A') (A') (A") (A') (A")
       Virtual   (A') (A") (A') (A') (A") (A') (A') (A') (A") (A')
                 (A") (A') (A') (A') (A") (A') (A') (A") (A') (A')
                 (A') (A') (A') (A') (A") (A') (A') (A") (A') (A')
                 (A') (A") (A") (A') (A') (A') (A") (A') (A") (A')
                 (A") (A") (A') (A') (A") (A') (A') (A") (A') (A')
                 (A') (A") (A') (A') (A") (A') (A") (A') (A') (A")
                 (A') (A') (A") (A') (A') (A") (A') (A") (A') (A')
                 (A") (A') (A") (A") (A') (A') (A") (A') (A') (A')
                 (A") (A') (A') (A") (A') (A") (A") (A') (A') (A')
                 (A') (A') (A") (A") (A') (A') (A") (A") (A') (A")
                 (A') (A') (A") (A') (A") (A') (A') (A') (A") (A")
                 (A') (A') (A') (A') (A") (A') (A') (A') (A") (A')
                 (A") (A') (A") (A') (A") (A") (A') (A") (A') (A')
                 (A') (A') (A") (A') (A') (A") (A") (A') (A') (A')
                 (A") (A") (A') (A') (A') (A") (A') (A') (A') (A")
                 (A') (A') (A') (A") (A') (A") (A") (A') (A') (A")
                 (A') (A") (A') (A") (A") (A') (A") (A') (A") (A")
                 (A') (A") (A") (A') (A') (A") (A') (A') (A") (A')
                 (A') (A') (A') (A') (A') (A') (A') (A') (A') (A')
                 (A')
 The electronic state is 1-A'.
 Alpha  occ. eigenvalues --  -20.72071 -20.68771 -20.66722 -15.82602  -1.64538
 Alpha  occ. eigenvalues --   -1.50505  -1.29374  -0.96048  -0.83624  -0.75932
 Alpha  occ. eigenvalues --   -0.74057  -0.63638  -0.61931  -0.61811  -0.50521
 Alpha  occ. eigenvalues --   -0.49774
 Alpha virt. eigenvalues --    0.03522   0.05991   0.09507   0.10012   0.11970
 Alpha virt. eigenvalues --    0.12269   0.14963   0.15248   0.17745   0.18013
 Alpha virt. eigenvalues --    0.18969   0.21099   0.21671   0.24345   0.24627
 Alpha virt. eigenvalues --    0.26910   0.31381   0.31787   0.33813   0.34280
 Alpha virt. eigenvalues --    0.34648   0.39342   0.45022   0.48917   0.50529
 Alpha virt. eigenvalues --    0.51796   0.54519   0.56090   0.59834   0.62006
 Alpha virt. eigenvalues --    0.63898   0.69013   0.71675   0.72373   0.74413
 Alpha virt. eigenvalues --    0.76516   0.76777   0.79583   0.80759   0.83876
 Alpha virt. eigenvalues --    0.84277   0.85203   0.88533   0.90843   0.93188
 Alpha virt. eigenvalues --    0.94762   0.95466   1.01822   1.03377   1.06656
 Alpha virt. eigenvalues --    1.06901   1.09728   1.14699   1.15650   1.16970
 Alpha virt. eigenvalues --    1.22264   1.22857   1.24540   1.35612   1.35757
 Alpha virt. eigenvalues --    1.37032   1.46908   1.48552   1.50385   1.54447
 Alpha virt. eigenvalues --    1.59690   1.59947   1.60587   1.63129   1.69580
 Alpha virt. eigenvalues --    1.74100   1.80030   1.82890   1.88815   1.89828
 Alpha virt. eigenvalues --    1.93140   1.97994   1.99139   2.05261   2.12191
 Alpha virt. eigenvalues --    2.13218   2.16679   2.19037   2.24484   2.26134
 Alpha virt. eigenvalues --    2.29347   2.35626   2.36990   2.38518   2.40427
 Alpha virt. eigenvalues --    2.43552   2.47036   2.48161   2.53134   2.54003
 Alpha virt. eigenvalues --    2.55136   2.56005   2.61834   2.63213   2.67470
 Alpha virt. eigenvalues --    2.67759   2.75513   2.80969   2.82168   2.83942
 Alpha virt. eigenvalues --    2.92127   2.98584   3.04782   3.05449   3.11286
 Alpha virt. eigenvalues --    3.11922   3.18262   3.21437   3.30910   3.33222
 Alpha virt. eigenvalues --    3.35760   3.48146   3.67463   3.87035   3.93858
 Alpha virt. eigenvalues --    4.18885   4.22652   4.22990   4.27404   4.37302
 Alpha virt. eigenvalues --    4.49797   4.54628   4.55556   4.60032   4.69022
 Alpha virt. eigenvalues --    4.80832   4.89686   4.91498   4.94294   4.99913
 Alpha virt. eigenvalues --    5.00481   5.10610   5.13681   5.17762   5.25276
 Alpha virt. eigenvalues --    5.25884   5.31878   5.35156   5.37211   5.54384
 Alpha virt. eigenvalues --    5.64443   5.70793   5.89094   5.99551   6.26327
 Alpha virt. eigenvalues --    6.29546   6.36092   6.37615   6.59943   6.66064
 Alpha virt. eigenvalues --    6.66490   6.69424   6.72470   6.79469   6.80449
 Alpha virt. eigenvalues --    6.85442   6.96837   7.02030   7.06633   7.07963
 Alpha virt. eigenvalues --    7.13975   7.17498   7.18669   7.20479   7.24671
 Alpha virt. eigenvalues --    7.24774   7.27254   7.35217   7.39801   7.43010
 Alpha virt. eigenvalues --    7.44175   7.46297   7.56335   7.66244   7.67630
 Alpha virt. eigenvalues --    7.79407   7.88560   7.95704   8.07868   8.31161
 Alpha virt. eigenvalues --    8.50459   8.65055  13.62905  14.74615  15.12362
 Alpha virt. eigenvalues --   15.79779
          Condensed to atoms (all electrons):
               1          2          3          4          5
     1  H    0.581233   0.122751   0.023838   0.000720  -0.004044
     2  O    0.122751   8.392440  -0.228182  -0.000839  -0.010975
     3  O    0.023838  -0.228182   8.369569  -0.170195  -0.032757
     4  N    0.000720  -0.000839  -0.170195   7.137499  -0.122697
     5  O   -0.004044  -0.010975  -0.032757  -0.122697   8.364020
 Mulliken charges:
               1
     1  H    0.275503
     2  O   -0.275195
     3  O    0.037727
     4  N    0.155512
     5  O   -0.193547
 Sum of Mulliken charges =  -0.00000
 Mulliken charges with hydrogens summed into heavy atoms:
               1
     2  O    0.000308
     3  O    0.037727
     4  N    0.155512
     5  O   -0.193547
 APT charges:
               1
     1  H    0.273835
     2  O   -0.302633
     3  O   -0.309301
     4  N    0.640652
     5  O   -0.302553
 Sum of APT charges =  -0.00000
 APT charges with hydrogens summed into heavy atoms:
               1
     2  O   -0.028798
     3  O   -0.309301
     4  N    0.640652
     5  O   -0.302553
 Electronic spatial extent (au):  <R**2>=            206.2034
 Charge=             -0.0000 electrons
 Dipole moment (field-independent basis, Debye):
    X=              0.0277    Y=             -1.0869    Z=              0.0000  Tot=              1.0873
 Quadrupole moment (field-independent basis, Debye-Ang):
   XX=            -23.4401   YY=            -22.8900   ZZ=            -21.9306
   XY=             -1.9573   XZ=              0.0000   YZ=              0.0000
 Traceless Quadrupole moment (field-independent basis, Debye-Ang):
   XX=             -0.6866   YY=             -0.1364   ZZ=              0.8229
   XY=             -1.9573   XZ=              0.0000   YZ=              0.0000
 Octapole moment (field-independent basis, Debye-Ang**2):
  XXX=              2.4758  YYY=              0.2563  ZZZ=              0.0000  XYY=              2.3610
  XXY=             -2.7741  XXZ=              0.0000  XZZ=             -0.5854  YZZ=             -0.7002
  YYZ=             -0.0000  XYZ=             -0.0000
 Hexadecapole moment (field-independent basis, Debye-Ang**3):
 XXXX=           -126.2875 YYYY=            -94.5267 ZZZZ=            -18.0404 XXXY=            -21.1253
 XXXZ=              0.0000 YYYX=            -19.4445 YYYZ=              0.0000 ZZZX=              0.0000
 ZZZY=              0.0000 XXYY=            -35.3895 XXZZ=            -24.1797 YYZZ=            -18.5452
 XXYZ=              0.0000 YYXZ=              0.0000 ZZXY=             -5.7878
 N-N= 1.229451128875D+02 E-N=-9.074414392419D+02  KE= 2.802071525835D+02
 Symmetry A'   KE= 2.663591807072D+02
 Symmetry A"   KE= 1.384797187631D+01
  Exact polarizability:  30.776   4.071  29.803  -0.000  -0.000  17.605
 Approx polarizability:  24.470   0.454  27.669  -0.000  -0.000  15.506
 No NMR shielding tensors so no spin-rotation constants.
 Leave Link  601 at Sun Mar  6 19:38:00 2022, MaxMem= 16106127360 cpu:               4.9 elap:               0.2
 (Enter /sw/contrib/gaussian/g16/B01/g16/l701.exe)
 ... and contract with generalized density number  2.
 Compute integral second derivatives.
 Leave Link  701 at Sun Mar  6 19:38:00 2022, MaxMem= 16106127360 cpu:               5.6 elap:               0.2
 (Enter /sw/contrib/gaussian/g16/B01/g16/l702.exe)
 L702 exits ... SP integral derivatives will be done elsewhere.
 Leave Link  702 at Sun Mar  6 19:38:00 2022, MaxMem= 16106127360 cpu:               0.7 elap:               0.0
 (Enter /sw/contrib/gaussian/g16/B01/g16/l703.exe)
 Integral derivatives from FoFJK, PRISM(SPDF).
 Compute integral second derivatives, UseDBF=F ICtDFT=           0.
 Calling FoFJK, ICntrl=  10100127 FMM=F ISym2X=1 I1Cent= 0 IOpClX= 0 NMat=1 NMatS=1 NMatT=0.
 FoFJK:  IHMeth= 1 ICntrl=10100127 DoSepK=F KAlg= 0 I1Cent=           0 FoldK=F
 IRaf=         0 NMat=       1 IRICut=       1 DoRegI=T DoRafI=F ISym2E= 1 IDoP0=0 IntGTp=1.
 FoFCou: FMM=F IPFlag=           0 FMFlag=      100000 FMFlg1=         800
         NFxFlg=           0 DoJE=F BraDBF=F KetDBF=F FulRan=T
         wScrn=  0.000000 ICntrl=  10100127 IOpCl=  0 I1Cent=           0 NGrid=           0
         NMat0=    1 NMatS0=      1 NMatT0=    0 NMatD0=    1 NMtDS0=    0 NMtDT0=    0
 Petite list used in FoFCou.
 Leave Link  703 at Sun Mar  6 19:38:16 2022, MaxMem= 16106127360 cpu:             446.1 elap:              16.0
 (Enter /sw/contrib/gaussian/g16/B01/g16/l716.exe)
 Dipole        = 1.08838916D-02-4.27638320D-01 6.68105128D-35
 Polarizability= 3.07762601D+01 4.07083034D+00 2.98033306D+01
                -7.46458761D-33-1.03566013D-32 1.76045828D+01
 Full mass-weighted force constant matrix:
 Low frequencies ---  -36.0832  -21.5775   -0.0011   -0.0009    0.0010   32.3815
 Low frequencies ---  352.8816  413.5449  527.0106
 Diagonal vibrational polarizability:
        7.1386223       9.9243499      15.9366147
 Harmonic frequencies (cm**-1), IR intensities (KM/Mole), Raman scattering
 activities (A**4/AMU), depolarization ratios for plane and unpolarized
 incident light, reduced masses (AMU), force constants (mDyne/A),
 and normal coordinates:
                      1                      2                      3
                     A"                     A'                     A"
 Frequencies --    352.8295               413.5449               526.9923
 Red. masses --      1.5607                 7.1051                 2.8892
 Frc consts  --      0.1145                 0.7159                 0.4728
 IR Inten    --     62.4047                 7.8162                25.2459
  Atom  AN      X      Y      Z        X      Y      Z        X      Y      Z
     1   1    -0.00  -0.00   0.98    -0.73  -0.25  -0.00    -0.00  -0.00   0.93
     2   8    -0.00  -0.00  -0.11    -0.33  -0.31   0.00    -0.00  -0.00   0.05
     3   8    -0.00  -0.00   0.12    -0.06   0.08   0.00    -0.00   0.00  -0.18
     4   7     0.00   0.00  -0.11     0.05   0.09  -0.00     0.00   0.00   0.27
     5   8     0.00   0.00   0.03     0.39   0.17   0.00     0.00   0.00  -0.17
                      4                      5                      6
                     A'                     A'                     A'
 Frequencies --    710.2437               838.0338               970.7335
 Red. masses --     13.4128                12.4846                 9.8935
 Frc consts  --      3.9864                 5.1659                 5.4929
 IR Inten    --    214.9206                32.1048                12.6320
  Atom  AN      X      Y      Z        X      Y      Z        X      Y      Z
     1   1    -0.35   0.01   0.00     0.43  -0.16  -0.00    -0.62  -0.00  -0.00
     2   8    -0.02  -0.08  -0.00     0.53  -0.21   0.00     0.19  -0.17  -0.00
     3   8     0.38   0.58   0.00    -0.39  -0.01   0.00    -0.36   0.41   0.00
     4   7    -0.40  -0.46   0.00    -0.43  -0.06  -0.00     0.39   0.05  -0.00
     5   8     0.01  -0.10  -0.00     0.20   0.28   0.00    -0.13  -0.28   0.00
                      7                      8                      9
                     A'                     A'                     A'
 Frequencies --   1436.1789              1573.4086              3481.7996
 Red. masses --      1.3207                 5.9418                 1.0636
 Frc consts  --      1.6050                 8.6666                 7.5971
 IR Inten    --     81.1452               148.7418                45.4422
  Atom  AN      X      Y      Z        X      Y      Z        X      Y      Z
     1   1     0.97  -0.21   0.00    -0.78   0.18  -0.00     0.16   0.98  -0.00
     2   8    -0.07  -0.05   0.00     0.02   0.02   0.00    -0.01  -0.06   0.00
     3   8    -0.03   0.06  -0.00    -0.03  -0.06  -0.00     0.00  -0.00  -0.00
     4   7     0.07  -0.06   0.00     0.24  -0.38  -0.00    -0.00   0.00  -0.00
     5   8    -0.03   0.05  -0.00    -0.14   0.36   0.00     0.00  -0.00   0.00

 -------------------
 - Thermochemistry -
 -------------------
 Temperature   298.150 Kelvin.  Pressure   1.00000 Atm.
 Atom     1 has atomic number  1 and mass   1.00783
 Atom     2 has atomic number  8 and mass  15.99491
 Atom     3 has atomic number  8 and mass  15.99491
 Atom     4 has atomic number  7 and mass  14.00307
 Atom     5 has atomic number  8 and mass  15.99491
 Molecular mass:    62.99564 amu.
 Principal axes and moments of inertia in atomic units:
                           1         2         3
     Eigenvalues --    85.08429 220.13513 305.21942
           X            0.79504  -0.60655   0.00000
           Y            0.60655   0.79504   0.00000
           Z            0.00000  -0.00000   1.00000
 This molecule is an asymmetric top.
 Rotational symmetry number  1.
 Rotational temperatures (Kelvin)      1.01798     0.39346     0.28378
 Rotational constants (GHZ):          21.21122     8.19833     5.91293
 Zero-point vibrational energy      61630.2 (Joules/Mol)
                                   14.72997 (Kcal/Mol)
 Warning -- explicit consideration of   3 degrees of freedom as
           vibrations may cause significant error
 Vibrational temperatures:    507.64   595.00   758.22  1021.88  1205.74
          (Kelvin)           1396.67  2066.34  2263.78  5009.53
 
 Zero-point correction=                           0.023474 (Hartree/Particle)
 Thermal correction to Energy=                    0.027394
 Thermal correction to Enthalpy=                  0.028338
 Thermal correction to Gibbs Free Energy=        -0.002482
 Sum of electronic and zero-point Energies=           -280.431717
 Sum of electronic and thermal Energies=              -280.427797
 Sum of electronic and thermal Enthalpies=            -280.426852
 Sum of electronic and thermal Free Energies=         -280.457672
 
                     E (Thermal)             CV                S
                      KCal/Mol        Cal/Mol-Kelvin    Cal/Mol-Kelvin
 Total                   17.190             12.124             64.866
 Electronic               0.000              0.000              0.000
 Translational            0.889              2.981             38.341
 Rotational               0.889              2.981             23.262
 Vibrational             15.412              6.162              3.264
 Vibration     1          0.729              1.569              1.154
 Vibration     2          0.777              1.441              0.914
 Vibration     3          0.882              1.190              0.594
                       Q            Log10(Q)             Ln(Q)
 Total Bot       0.138596D+02          1.141751          2.628978
 Total V=0       0.868751D+12         11.938895         27.490323
 Vib (Bot)       0.260561D-10        -10.584090        -24.370768
 Vib (Bot)    1  0.521951D+00         -0.282371         -0.650182
 Vib (Bot)    2  0.426680D+00         -0.369897         -0.851720
 Vib (Bot)    3  0.304324D+00         -0.516664         -1.189663
 Vib (V=0)       0.163326D+01          0.213055          0.490577
 Vib (V=0)    1  0.122279D+01          0.087354          0.201139
 Vib (V=0)    2  0.115731D+01          0.063450          0.146098
 Vib (V=0)    3  0.108533D+01          0.035562          0.081885
 Electronic      0.100000D+01          0.000000          0.000000
 Translational   0.196526D+08          7.293420         16.793719
 Rotational      0.270658D+05          4.432421         10.206027
 
                                                                title
                                                             IR Spectrum
 
     3                                                                     1    1                                                    
     4                                                                     5    4                9    8    7     5   4  3            
     8                                                                     7    3                7    3    1     2   1  5            
     2                                                                     3    6                1    8    0     7   4  3            
 
     X                                                                     X    X                X    X    X     X   X  X            
     X                                                                     X    X                     X    X     X      X            
     X                                                                     X    X                     X    X            X            
     X                                                                     X    X                          X            X            
                                                                           X    X                          X            X            
                                                                           X    X                          X            X            
                                                                           X    X                          X                         
                                                                           X    X                          X                         
                                                                           X                               X                         
                                                                           X                               X                         
                                                                           X                               X                         
                                                                           X                               X                         
                                                                           X                               X                         
                                                                           X                               X                         
                                                                                                           X                         
                                                                                                           X                         
                                                                                                           X                         
                                                                                                           X                         
                                                                                                           X                         
                                                                                                           X                         
 
 ***** Axes restored to original set *****
 -------------------------------------------------------------------
 Center     Atomic                   Forces (Hartrees/Bohr)
 Number     Number              X              Y              Z
 -------------------------------------------------------------------
      1        1           0.000072958   -0.000000000   -0.000180873
      2        8          -0.001034111    0.000000000    0.002838358
      3        8          -0.001726981    0.000000000   -0.003140117
      4        7           0.002616476   -0.000000000    0.001039760
      5        8           0.000071658   -0.000000000   -0.000557128
 -------------------------------------------------------------------
 Cartesian Forces:  Max     0.003140117 RMS     0.001420072
 -----------------------------------------------------------------------------------------------
                       Internal Coordinate Forces (Hartree/Bohr or radian)
  Cent   Atom   N1       Length/X         N2         Alpha/Y        N3         Beta/Z          J
 -----------------------------------------------------------------------------------------------
      1  H 
      2  O        1   0.000181(     1)
      3  O        2   0.000454(     2)      1  -0.000136(     5)
      4  N        3   0.001060(     3)      2   0.007384(     6)      1  -0.000000(     8)     0
      5  O        4   0.000430(     4)      3   0.000815(     7)      2  -0.000000(     9)     0
 -----------------------------------------------------------------------------------------------
 Internal  Forces:  Max     0.007384104 RMS     0.002511205
 Force constants in Cartesian coordinates: 
                1             2             3             4             5 
      1  0.728972D-01
      2  0.000000D+00  0.614204D-02
      3  0.247900D-01  0.000000D+00  0.435201D+00
      4 -0.520669D-01  0.000000D+00 -0.463377D-02  0.282135D+00
      5  0.000000D+00 -0.227029D-02  0.000000D+00  0.000000D+00  0.120976D-01
      6  0.313051D-01  0.000000D+00 -0.418373D+00 -0.153956D-01  0.000000D+00
      7 -0.249592D-01  0.000000D+00 -0.163768D-01 -0.169501D+00  0.000000D+00
      8  0.000000D+00 -0.440558D-02  0.000000D+00  0.000000D+00 -0.199071D-01
      9 -0.429880D-01  0.000000D+00 -0.205991D-01  0.116342D-01  0.000000D+00
     10 -0.665973D-02  0.000000D+00  0.657685D-02 -0.855985D-01  0.000000D+00
     11  0.000000D+00  0.827319D-02  0.000000D+00  0.000000D+00  0.205391D-01
     12 -0.201276D-01  0.000000D+00  0.127377D-01  0.127136D-01  0.000000D+00
     13  0.107887D-01  0.000000D+00 -0.103563D-01  0.250314D-01  0.000000D+00
     14  0.000000D+00 -0.773935D-02  0.000000D+00  0.000000D+00 -0.104593D-01
     15  0.702047D-02  0.000000D+00 -0.896618D-02 -0.431840D-02  0.000000D+00
                6             7             8             9            10 
      6  0.522777D+00
      7 -0.909235D-01  0.303287D+00
      8  0.000000D+00  0.000000D+00  0.426181D-01
      9 -0.951090D-01  0.812582D-01  0.000000D+00  0.313217D+00
     10  0.408565D-01 -0.143783D+00  0.000000D+00 -0.334497D-01  0.564173D+00
     11  0.000000D+00  0.000000D+00 -0.484062D-01  0.000000D+00  0.000000D+00
     12 -0.129122D-01  0.182020D-01  0.000000D+00 -0.233591D-01  0.242269D+00
     13  0.341575D-01  0.349564D-01  0.000000D+00 -0.164547D-01 -0.328132D+00
     14  0.000000D+00  0.000000D+00  0.301007D-01  0.000000D+00  0.000000D+00
     15  0.361742D-02  0.784003D-02  0.000000D+00 -0.174150D+00 -0.256253D+00
               11            12            13            14            15 
     11  0.572490D-01
     12  0.000000D+00  0.441640D+00
     13  0.000000D+00 -0.253057D+00  0.257355D+00
     14 -0.376551D-01  0.000000D+00  0.000000D+00  0.257530D-01
     15  0.000000D+00 -0.418106D+00  0.245711D+00  0.000000D+00  0.597605D+00
 Force constants in internal coordinates: 
                1             2             3             4             5 
      1  0.435201D+00
      2  0.229157D-01  0.259565D+00
      3  0.522177D-02  0.183218D-01  0.211311D+00
      4 -0.131367D-01  0.227681D-01  0.149048D+00  0.721799D+00
      5  0.462341D-01  0.573997D-01 -0.246544D-01  0.218453D-01  0.253099D+00
      6  0.116736D-01  0.274105D-01  0.103803D+00  0.105008D-01 -0.438524D-02
      7  0.876579D-02 -0.732440D-01  0.128740D+00  0.116795D+00 -0.222674D-01
      8  0.000000D+00  0.000000D+00  0.000000D+00  0.000000D+00  0.000000D+00
      9  0.000000D+00  0.000000D+00  0.000000D+00  0.000000D+00  0.000000D+00
                6             7             8             9 
      6  0.557605D+00
      7  0.826478D-01  0.679796D+00
      8  0.000000D+00  0.000000D+00  0.209213D-01
      9  0.000000D+00  0.000000D+00  0.291385D-01  0.109493D+00
 Leave Link  716 at Sun Mar  6 19:38:16 2022, MaxMem= 16106127360 cpu:               0.8 elap:               0.1
 (Enter /sw/contrib/gaussian/g16/B01/g16/l103.exe)

 GradGradGradGradGradGradGradGradGradGradGradGradGradGradGradGradGradGrad
 Berny optimization.
 Search for a local minimum.
 Step number   1 out of a maximum of    2
 All quantities printed in internal units (Hartrees-Bohrs-Radians)
 Second derivative matrix not updated -- analytic derivatives used.
 The second derivative matrix:
                          r1        r2        r3        r4        a1
           r1           0.43520
           r2           0.02292   0.25957
           r3           0.00522   0.01832   0.21131
           r4          -0.01314   0.02277   0.14905   0.72180
           a1           0.04623   0.05740  -0.02465   0.02185   0.25310
           a2           0.01167   0.02741   0.10380   0.01050  -0.00439
           a3           0.00877  -0.07324   0.12874   0.11680  -0.02227
           d1          -0.00000  -0.00000  -0.00000   0.00000   0.00000
           d2          -0.00000   0.00000   0.00000   0.00000   0.00000
                          a2        a3        d1        d2
           a2           0.55760
           a3           0.08265   0.67980
           d1          -0.00000   0.00000   0.02092
           d2          -0.00000  -0.00000   0.02914   0.10949
 ITU=  0
     Eigenvalues ---    0.01220   0.11822   0.12364   0.20461   0.27624
     Eigenvalues ---    0.44913   0.53246   0.63005   0.90224
 Angle between quadratic step and forces=  19.45 degrees.
 Linear search not attempted -- first point.
 Variable       Old X    -DE/DX   Delta X   Delta X   Delta X     New X
                                 (Linear)    (Quad)   (Total)
    r1        1.86209   0.00018   0.00000   0.00016   0.00016   1.86226
    r2        2.69614   0.00045   0.00000   0.00051   0.00051   2.69665
    r3        2.60992   0.00106   0.00000  -0.00240  -0.00240   2.60751
    r4        2.25782   0.00043   0.00000   0.00093   0.00093   2.25875
    a1        1.75642  -0.00014   0.00000  -0.00077  -0.00077   1.75565
    a2        1.96141   0.00738   0.00000   0.01366   0.01366   1.97506
    a3        1.99550   0.00081   0.00000  -0.00014  -0.00014   1.99536
    d1        0.00000  -0.00000   0.00000  -0.00000  -0.00000  -0.00000
    d2        0.00000  -0.00000   0.00000  -0.00000  -0.00000  -0.00000
         Item               Value     Threshold  Converged?
 Maximum Force            0.007384     0.000450     NO 
 RMS     Force            0.002511     0.000300     NO 
 Maximum Displacement     0.013658     0.001800     NO 
 RMS     Displacement     0.004644     0.001200     NO 
 Predicted change in Energy=-4.947968D-05
                       ----------------------------
                       ! Non-Optimized Parameters !
                       ! (Angstroms and Degrees)  !
 ----------------------                            ----------------------
 !      Name          Value   Derivative information (Atomic Units)     !
 ------------------------------------------------------------------------
 !       r1          0.9855   -DE/DX =    0.0002                        !
 !       r2          1.427    -DE/DX =    0.0005                        !
 !       r3          1.3798   -DE/DX =    0.0011                        !
 !       r4          1.1953   -DE/DX =    0.0004                        !
 !       a1        100.5912   -DE/DX =   -0.0001                        !
 !       a2        113.1628   -DE/DX =    0.0074                        !
 !       a3        114.326    -DE/DX =    0.0008                        !
 !       d1          0.0      -DE/DX =    0.0                           !
 !       d2          0.0      -DE/DX =    0.0                           !
 ------------------------------------------------------------------------
 GradGradGradGradGradGradGradGradGradGradGradGradGradGradGradGradGradGrad

 Leave Link  103 at Sun Mar  6 19:38:16 2022, MaxMem= 16106127360 cpu:               0.5 elap:               0.0
 (Enter /sw/contrib/gaussian/g16/B01/g16/l9999.exe)

 ----------------------------------------------------------------------

 Electric dipole moment (input orientation):
 (Debye = 10**-18 statcoulomb cm , SI units = C m)
                  (au)            (Debye)         (10**-30 SI)
   Tot        0.427777D+00      0.108730D+01      0.362684D+01
   x         -0.104693D+00     -0.266102D+00     -0.887621D+00
   y          0.000000D+00      0.000000D+00      0.000000D+00
   z         -0.414768D+00     -0.105423D+01     -0.351655D+01

 Dipole polarizability, Alpha (input orientation).
 (esu units = cm**3 , SI units = C**2 m**2 J**-1)
 Alpha(0;0):
               (au)            (10**-24 esu)      (10**-40 SI)
   iso        0.260614D+02      0.386190D+01      0.429694D+01
   aniso      0.145375D+02      0.215424D+01      0.239691D+01
   xx         0.289820D+02      0.429469D+01      0.477848D+01
   yx         0.000000D+00      0.000000D+00      0.000000D+00
   yy         0.176046D+02      0.260873D+01      0.290260D+01
   zx        -0.388561D+01     -0.575787D+00     -0.640650D+00
   zy         0.000000D+00      0.000000D+00      0.000000D+00
   zz         0.315976D+02      0.468228D+01      0.520974D+01

 ----------------------------------------------------------------------

 Dipole orientation:
     1          0.00000000         -0.00000000          0.00000000
     8         -0.45572204         -0.00000000         -1.80546502
     8          1.99173952         -0.00000000         -2.93644296
     7          3.90615523          0.00000000         -1.16255745
     8          3.19033267          0.00000000          0.97878853

 Electric dipole moment (dipole orientation):
 (Debye = 10**-18 statcoulomb cm , SI units = C m)
                  (au)            (Debye)         (10**-30 SI)
   Tot        0.427777D+00      0.108730D+01      0.362684D+01
   x          0.000000D+00      0.000000D+00      0.000000D+00
   y          0.000000D+00      0.000000D+00      0.000000D+00
   z          0.427777D+00      0.108730D+01      0.362684D+01

 Dipole polarizability, Alpha (dipole orientation).
 (esu units = cm**3 , SI units = C**2 m**2 J**-1)
 Alpha(0;0):
               (au)            (10**-24 esu)      (10**-40 SI)
   iso        0.260614D+02      0.386190D+01      0.429694D+01
   aniso      0.145375D+02      0.215424D+01      0.239691D+01
   xx         0.309827D+02      0.459116D+01      0.510836D+01
   yx         0.000000D+00      0.000000D+00      0.000000D+00
   yy         0.176046D+02      0.260873D+01      0.290260D+01
   zx         0.404081D+01      0.598787D+00      0.666240D+00
   zy         0.000000D+00      0.000000D+00      0.000000D+00
   zz         0.295969D+02      0.438581D+01      0.487987D+01

 ----------------------------------------------------------------------
 1\1\GINC-N2174\Freq\RMP2-FC\Aug-CC-pVTZ\H1N1O3\CGAVINH\06-Mar-2022\1\\
 #p freq mp2/aug-cc-pvtz density=current\\title\\0,1\H\O,1,r1\O,2,r2,1,
 a1\N,3,r3,2,a2,1,d1,0\O,4,r4,3,a3,2,d2,0\\r1=0.98537664\r2=1.42673666\
 r3=1.38110764\r4=1.19478846\a1=100.6355057\a2=112.38023235\a3=114.3339
 2022\d1=0.\d2=0.\\Version=ES64L-G16RevB.01\State=1-A'\HF=-279.5062149\
 MP2=-280.4551902\RMSD=4.590e-09\RMSF=1.420e-03\ZeroPoint=0.0234737\The
 rmal=0.0273937\Dipole=-0.1046926,0.,-0.4147679\DipoleDeriv=0.3189317,0
 .,0.0349077,0.,0.2967901,0.,-0.0295564,0.,0.2057829,-0.5218196,0.,0.28
 31608,0.,-0.2552479,0.,-0.0989374,0.,-0.1308308,0.0099756,0.,0.3248427
 ,0.,-0.007478,0.,0.4312787,0.,-0.9303996,0.1899436,0.,-0.1198862,0.,0.
 0101251,0.,-0.6442023,0.,1.7218868,0.0029686,0.,-0.523025,0.,-0.044189
 3,0.,0.3414174,0.,-0.8664393\Polar=28.981983,0.,17.6045828,-3.8856061,
 0.,31.5976077\Quadrupole=0.1339155,0.6118357,-0.7457512,0.,1.4021149,0
 .\PG=CS [SG(H1N1O3)]\NImag=0\\0.07289720,0.,0.00614204,0.02479001,0.,0
 .43520058,-0.05206695,0.,-0.00463377,0.28213477,0.,-0.00227029,0.,0.,0
 .01209758,0.03130510,0.,-0.41837297,-0.01539562,0.,0.52277676,-0.02495
 920,0.,-0.01637682,-0.16950069,0.,-0.09092345,0.30328676,0.,-0.0044055
 8,0.,0.,-0.01990707,0.,0.,0.04261812,-0.04298801,0.,-0.02059911,0.0116
 3415,0.,-0.09510903,0.08125825,0.,0.31321716,-0.00665973,0.,0.00657685
 ,-0.08559854,0.,0.04085645,-0.14378324,0.,-0.03344974,0.56417339,0.,0.
 00827319,0.,0.,0.02053912,0.,0.,-0.04840621,0.,0.,0.05724895,-0.020127
 58,0.,0.01273768,0.01271364,0.,-0.01291219,0.01820200,0.,-0.02335913,0
 .24226913,0.,0.44164009,0.01078868,0.,-0.01035627,0.02503142,0.,0.0341
 5752,0.03495638,0.,-0.01645465,-0.32813188,0.,-0.25305719,0.25735540,0
 .,-0.00773935,0.,0.,-0.01045933,0.,0.,0.03010075,0.,0.,-0.03765506,0.,
 0.,0.02575300,0.00702047,0.,-0.00896618,-0.00431840,0.,0.00361742,0.00
 784003,0.,-0.17414990,-0.25625269,0.,-0.41810645,0.24571059,0.,0.59760
 510\\-0.00007296,0.,0.00018087,0.00103411,0.,-0.00283836,0.00172698,0.
 ,0.00314012,-0.00261648,0.,-0.00103976,-0.00007166,0.,0.00055713\\\@


 YOU SHOULDN'T LET PEOPLE DRIVE YOU CRAZY
 WHEN YOU KNOW IT'S WITHIN WALKING DISTANCE.
 Job cpu time:       0 days  1 hours 58 minutes 33.8 seconds.
 Elapsed time:       0 days  0 hours  4 minutes 17.3 seconds.
 File lengths (MBytes):  RWF=   7239 Int=      0 D2E=      0 Chk=      8 Scr=      1
 Normal termination of Gaussian 16 at Sun Mar  6 19:38:17 2022.
