title                                                                   
Freq      RMP2-FC                                                     Aug-CC-pVTZ         
Number of atoms                            I                5
Info1-9                                    I   N=           9
          33          24           0           0           0         100
           6           2           1
Full Title                                 C   N=           1
title       
Route                                      C   N=           4
#p freq mp2/aug-cc-pvtz density=current         
Charge                                     I                0
Multiplicity                               I                1
Number of electrons                        I               32
Number of alpha electrons                  I               16
Number of beta electrons                   I               16
Number of basis functions                  I              207
Number of independent functions            I              207
Number of point charges in /Mol/           I                0
Number of translation vectors              I                0
Atomic numbers                             I   N=           5
           1           8           8           7           8
Nuclear charges                            R   N=           5
  1.00000000E+00  8.00000000E+00  8.00000000E+00  7.00000000E+00  8.00000000E+00
Current cartesian coordinates              R   N=          15
  2.93046219E+00  3.21691440E+00  5.35975344E-32  2.74778798E+00  1.36498284E+00
 -8.19902425E-33 -2.42485401E-17  1.27087526E+00 -9.29783905E-33 -4.94608448E-01
 -1.44109272E+00 -3.22472508E-32 -2.68131336E+00 -1.77701627E+00 -8.81871816E-32
Number of symbols in /Mol/                 I                0
Force Field                                I                0
Atom Types                                 C   N=           5
                                                            
Int Atom Types                             I   N=           5
           0           0           0           0           0
MM charges                                 R   N=           5
  0.00000000E+00  0.00000000E+00  0.00000000E+00  0.00000000E+00  0.00000000E+00
Integer atomic weights                     I   N=           5
           1          16          16          14          16
Real atomic weights                        R   N=           5
  1.00782504E+00  1.59949146E+01  1.59949146E+01  1.40030740E+01  1.59949146E+01
Atom fragment info                         I   N=           5
           0           0           0           0           0
Atom residue num                           I   N=           5
           0           0           0           0           0
Nuclear spins                              I   N=           5
           1           0           0           2           0
Nuclear ZEff                               R   N=           5
 -1.00000000E+00 -5.60000000E+00 -5.60000000E+00 -4.55000000E+00 -5.60000000E+00
Nuclear ZNuc                               R   N=           5
  1.00000000E+00  8.00000000E+00  8.00000000E+00  7.00000000E+00  8.00000000E+00
Nuclear QMom                               R   N=           5
  0.00000000E+00  0.00000000E+00  0.00000000E+00  2.04400000E+00  0.00000000E+00
Nuclear GFac                               R   N=           5
  2.79284600E+00  0.00000000E+00  0.00000000E+00  4.03761000E-01  0.00000000E+00
MicOpt                                     I   N=           5
          -1          -1          -1          -1          -1
Number of residues                         I                0
Number of secondary structures             I                0
SymInf integers                            I   N=          26
           1           2           1           1           1           1
           1          -1           0           0           0           0
           0           0           0           0           0           0
           0           0           0           0           0           0
           0           0
RotTr to input orientation                 R   N=          12
 -9.95170308E-01 -9.83984143E-17 -9.81634256E-02  9.81634256E-02 -7.29064462E-17
 -9.95170308E-01  9.07664337E-17 -1.00000000E+00  8.22134559E-17  2.60052562E+00
  0.00000000E+00  3.48904191E+00
Number of contracted shells                I               65
Number of primitive shells                 I              119
Pure/Cartesian d shells                    I                0
Pure/Cartesian f shells                    I                0
Highest angular momentum                   I                3
Largest degree of contraction              I                7
Shell types                                I   N=          65
           0           0           0           0           1           1
           1          -2          -2           0           0           0
           0           0           1           1           1           1
          -2          -2          -2          -3          -3           0
           0           0           0           0           1           1
           1           1          -2          -2          -2          -3
          -3           0           0           0           0           0
           1           1           1           1          -2          -2
          -2          -3          -3           0           0           0
           0           0           1           1           1           1
          -2          -2          -2          -3          -3
Number of primitives per shell             I   N=          65
           3           1           1           1           1           1
           1           1           1           7           6           1
           1           1           3           1           1           1
           1           1           1           1           1           7
           6           1           1           1           3           1
           1           1           1           1           1           1
           1           7           6           1           1           1
           3           1           1           1           1           1
           1           1           1           7           6           1
           1           1           3           1           1           1
           1           1           1           1           1
Shell to atom map                          I   N=          65
           1           1           1           1           1           1
           1           1           1           2           2           2
           2           2           2           2           2           2
           2           2           2           2           2           3
           3           3           3           3           3           3
           3           3           3           3           3           3
           3           4           4           4           4           4
           4           4           4           4           4           4
           4           4           4           5           5           5
           5           5           5           5           5           5
           5           5           5           5           5
Primitive exponents                        R   N=         119
  3.38700000E+01  5.09500000E+00  1.15900000E+00  3.25800000E-01  1.02700000E-01
  2.52600000E-02  1.40700000E+00  3.88000000E-01  1.02000000E-01  1.05700000E+00
  2.47000000E-01  1.53300000E+04  2.29900000E+03  5.22400000E+02  1.47300000E+02
  4.75500000E+01  1.67600000E+01  6.20700000E+00  5.22400000E+02  1.47300000E+02
  4.75500000E+01  1.67600000E+01  6.20700000E+00  6.88200000E-01  1.75200000E+00
  2.38400000E-01  7.37600000E-02  3.44600000E+01  7.74900000E+00  2.28000000E+00
  7.15600000E-01  2.14000000E-01  5.97400000E-02  2.31400000E+00  6.45000000E-01
  2.14000000E-01  1.42800000E+00  5.00000000E-01  1.53300000E+04  2.29900000E+03
  5.22400000E+02  1.47300000E+02  4.75500000E+01  1.67600000E+01  6.20700000E+00
  5.22400000E+02  1.47300000E+02  4.75500000E+01  1.67600000E+01  6.20700000E+00
  6.88200000E-01  1.75200000E+00  2.38400000E-01  7.37600000E-02  3.44600000E+01
  7.74900000E+00  2.28000000E+00  7.15600000E-01  2.14000000E-01  5.97400000E-02
  2.31400000E+00  6.45000000E-01  2.14000000E-01  1.42800000E+00  5.00000000E-01
  1.14200000E+04  1.71200000E+03  3.89300000E+02  1.10000000E+02  3.55700000E+01
  1.25400000E+01  4.64400000E+00  3.89300000E+02  1.10000000E+02  3.55700000E+01
  1.25400000E+01  4.64400000E+00  5.11800000E-01  1.29300000E+00  1.78700000E-01
  5.76000000E-02  2.66300000E+01  5.94800000E+00  1.74200000E+00  5.55000000E-01
  1.72500000E-01  4.91000000E-02  1.65400000E+00  4.69000000E-01  1.51000000E-01
  1.09300000E+00  3.64000000E-01  1.53300000E+04  2.29900000E+03  5.22400000E+02
  1.47300000E+02  4.75500000E+01  1.67600000E+01  6.20700000E+00  5.22400000E+02
  1.47300000E+02  4.75500000E+01  1.67600000E+01  6.20700000E+00  6.88200000E-01
  1.75200000E+00  2.38400000E-01  7.37600000E-02  3.44600000E+01  7.74900000E+00
  2.28000000E+00  7.15600000E-01  2.14000000E-01  5.97400000E-02  2.31400000E+00
  6.45000000E-01  2.14000000E-01  1.42800000E+00  5.00000000E-01
Contraction coefficients                   R   N=         119
  2.54948632E-02  1.90362766E-01  8.52162022E-01  1.00000000E+00  1.00000000E+00
  1.00000000E+00  1.00000000E+00  1.00000000E+00  1.00000000E+00  1.00000000E+00
  1.00000000E+00  5.19808943E-04  4.02025621E-03  2.07128267E-02  8.10105536E-02
  2.35962985E-01  4.42653446E-01  3.57064423E-01 -4.42115008E-05 -1.22591041E-03
 -1.05517725E-02 -6.74452633E-02 -1.71198607E-01  1.07329856E+00  1.00000000E+00
  1.00000000E+00  1.00000000E+00  4.11634896E-02  2.57762836E-01  8.02419274E-01
  1.00000000E+00  1.00000000E+00  1.00000000E+00  1.00000000E+00  1.00000000E+00
  1.00000000E+00  1.00000000E+00  1.00000000E+00  5.19808943E-04  4.02025621E-03
  2.07128267E-02  8.10105536E-02  2.35962985E-01  4.42653446E-01  3.57064423E-01
 -4.42115008E-05 -1.22591041E-03 -1.05517725E-02 -6.74452633E-02 -1.71198607E-01
  1.07329856E+00  1.00000000E+00  1.00000000E+00  1.00000000E+00  4.11634896E-02
  2.57762836E-01  8.02419274E-01  1.00000000E+00  1.00000000E+00  1.00000000E+00
  1.00000000E+00  1.00000000E+00  1.00000000E+00  1.00000000E+00  1.00000000E+00
  5.34563860E-04  4.13435660E-03  2.12335358E-02  8.25006224E-02  2.38138871E-01
  4.42551547E-01  3.53757422E-01 -4.89867350E-05 -1.19527323E-03 -1.03490714E-02
 -6.48680190E-02 -1.71552477E-01  1.07289568E+00  1.00000000E+00  1.00000000E+00
  1.00000000E+00  3.98072123E-02  2.49002660E-01  8.10479727E-01  1.00000000E+00
  1.00000000E+00  1.00000000E+00  1.00000000E+00  1.00000000E+00  1.00000000E+00
  1.00000000E+00  1.00000000E+00  5.19808943E-04  4.02025621E-03  2.07128267E-02
  8.10105536E-02  2.35962985E-01  4.42653446E-01  3.57064423E-01 -4.42115008E-05
 -1.22591041E-03 -1.05517725E-02 -6.74452633E-02 -1.71198607E-01  1.07329856E+00
  1.00000000E+00  1.00000000E+00  1.00000000E+00  4.11634896E-02  2.57762836E-01
  8.02419274E-01  1.00000000E+00  1.00000000E+00  1.00000000E+00  1.00000000E+00
  1.00000000E+00  1.00000000E+00  1.00000000E+00  1.00000000E+00
Coordinates of each shell                  R   N=         195
  2.93046219E+00  3.21691440E+00 -3.44251330E-33  2.93046219E+00  3.21691440E+00
 -3.44251330E-33  2.93046219E+00  3.21691440E+00 -3.44251330E-33  2.93046219E+00
  3.21691440E+00 -3.44251330E-33  2.93046219E+00  3.21691440E+00 -3.44251330E-33
  2.93046219E+00  3.21691440E+00 -3.44251330E-33  2.93046219E+00  3.21691440E+00
 -3.44251330E-33  2.93046219E+00  3.21691440E+00 -3.44251330E-33  2.93046219E+00
  3.21691440E+00 -3.44251330E-33  2.74778798E+00  1.36498284E+00  6.90047024E-33
  2.74778798E+00  1.36498284E+00  6.90047024E-33  2.74778798E+00  1.36498284E+00
  6.90047024E-33  2.74778798E+00  1.36498284E+00  6.90047024E-33  2.74778798E+00
  1.36498284E+00  6.90047024E-33  2.74778798E+00  1.36498284E+00  6.90047024E-33
  2.74778798E+00  1.36498284E+00  6.90047024E-33  2.74778798E+00  1.36498284E+00
  6.90047024E-33  2.74778798E+00  1.36498284E+00  6.90047024E-33  2.74778798E+00
  1.36498284E+00  6.90047024E-33  2.74778798E+00  1.36498284E+00  6.90047024E-33
  2.74778798E+00  1.36498284E+00  6.90047024E-33  2.74778798E+00  1.36498284E+00
  6.90047024E-33  2.74778798E+00  1.36498284E+00  6.90047024E-33  3.25121766E-17
  1.27087526E+00 -7.79454557E-33  3.25121766E-17  1.27087526E+00 -7.79454557E-33
  3.25121766E-17  1.27087526E+00 -7.79454557E-33  3.25121766E-17  1.27087526E+00
 -7.79454557E-33  3.25121766E-17  1.27087526E+00 -7.79454557E-33  3.25121766E-17
  1.27087526E+00 -7.79454557E-33  3.25121766E-17  1.27087526E+00 -7.79454557E-33
  3.25121766E-17  1.27087526E+00 -7.79454557E-33  3.25121766E-17  1.27087526E+00
 -7.79454557E-33  3.25121766E-17  1.27087526E+00 -7.79454557E-33  3.25121766E-17
  1.27087526E+00 -7.79454557E-33  3.25121766E-17  1.27087526E+00 -7.79454557E-33
  3.25121766E-17  1.27087526E+00 -7.79454557E-33  3.25121766E-17  1.27087526E+00
 -7.79454557E-33 -4.94608448E-01 -1.44109272E+00  6.08949277E-33 -4.94608448E-01
 -1.44109272E+00  6.08949277E-33 -4.94608448E-01 -1.44109272E+00  6.08949277E-33
 -4.94608448E-01 -1.44109272E+00  6.08949277E-33 -4.94608448E-01 -1.44109272E+00
  6.08949277E-33 -4.94608448E-01 -1.44109272E+00  6.08949277E-33 -4.94608448E-01
 -1.44109272E+00  6.08949277E-33 -4.94608448E-01 -1.44109272E+00  6.08949277E-33
 -4.94608448E-01 -1.44109272E+00  6.08949277E-33 -4.94608448E-01 -1.44109272E+00
  6.08949277E-33 -4.94608448E-01 -1.44109272E+00  6.08949277E-33 -4.94608448E-01
 -1.44109272E+00  6.08949277E-33 -4.94608448E-01 -1.44109272E+00  6.08949277E-33
 -4.94608448E-01 -1.44109272E+00  6.08949277E-33 -2.68131336E+00 -1.77701627E+00
 -4.00391668E-33 -2.68131336E+00 -1.77701627E+00 -4.00391668E-33 -2.68131336E+00
 -1.77701627E+00 -4.00391668E-33 -2.68131336E+00 -1.77701627E+00 -4.00391668E-33
 -2.68131336E+00 -1.77701627E+00 -4.00391668E-33 -2.68131336E+00 -1.77701627E+00
 -4.00391668E-33 -2.68131336E+00 -1.77701627E+00 -4.00391668E-33 -2.68131336E+00
 -1.77701627E+00 -4.00391668E-33 -2.68131336E+00 -1.77701627E+00 -4.00391668E-33
 -2.68131336E+00 -1.77701627E+00 -4.00391668E-33 -2.68131336E+00 -1.77701627E+00
 -4.00391668E-33 -2.68131336E+00 -1.77701627E+00 -4.00391668E-33 -2.68131336E+00
 -1.77701627E+00 -4.00391668E-33 -2.68131336E+00 -1.77701627E+00 -4.00391668E-33
Num ILSW                                   I              100
ILSW                                       I   N=         100
           0           0           0           0           2           0
           0           0           0           0           0          -1
           5           0           0           0           2           0
           0           0           0           0           1           0
           1           0           0           0           0           0
           0           0      100000           0          -1           0
           0           0           0           0           0           0
           0           0           0           1           1           0
           0 -2000000000           1           0           0           0
           0           0           4          52           0           0
           0           0           0           0           0           0
           0           0           0           5           4           1
           0           0           0           0           0           0
           0           0           0           0           0           0
           0           0           0           0           0           0
           0           0           0           0           0           0
           0           0           0           0
Num RLSW                                   I               52
RLSW                                       R   N=          52
  1.00000000E+00  1.00000000E+00  1.00000000E+00  1.00000000E+00  1.00000000E+00
  0.00000000E+00  0.00000000E+00  1.00000000E+00  0.00000000E+00  0.00000000E+00
  0.00000000E+00  0.00000000E+00  1.00000000E+00  0.00000000E+00  0.00000000E+00
  0.00000000E+00  0.00000000E+00  1.00000000E+00  0.00000000E+00  0.00000000E+00
  0.00000000E+00  0.00000000E+00  1.00000000E+00  0.00000000E+00  0.00000000E+00
  0.00000000E+00  0.00000000E+00  1.00000000E+00  0.00000000E+00  0.00000000E+00
  0.00000000E+00  0.00000000E+00  1.00000000E+00  0.00000000E+00  0.00000000E+00
  0.00000000E+00  0.00000000E+00  0.00000000E+00  1.00000000E+00  1.00000000E+00
  0.00000000E+00  1.00000000E+00  0.00000000E+00  0.00000000E+00  0.00000000E+00
  0.00000000E+00  0.00000000E+00  0.00000000E+00  0.00000000E+00  0.00000000E+00
  0.00000000E+00  0.00000000E+00
MxBond                                     I                2
NBond                                      I   N=           5
           1           2           2           2           1
IBond                                      I   N=          10
           2           0           1           3           2           4
           3           5           4           0
RBond                                      R   N=          10
  1.00000000E+00  0.00000000E+00  1.00000000E+00  1.00000000E+00  1.00000000E+00
  1.00000000E+00  1.00000000E+00  2.00000000E+00  2.00000000E+00  0.00000000E+00
Virial Ratio                               R      2.002453694260535E+00
SCF Energy                                 R     -2.795007119043697E+02
MP2 Energy                                 R     -2.804465148943509E+02
Total Energy                               R     -2.804465148943509E+02
Post-SCF wavefunction norm                 R      1.584624582008810E+00
RMS Force                                  R      5.254423251530860E-03
RMS Density                                R      3.793447988518248E-09
NImag                                      I                0
Job Status                                 I                1
Nuclear derivative order                   I                2
External E-field                           R   N=          35
  0.00000000E+00  0.00000000E+00  0.00000000E+00  0.00000000E+00  0.00000000E+00
  0.00000000E+00  0.00000000E+00  0.00000000E+00  0.00000000E+00  0.00000000E+00
  0.00000000E+00  0.00000000E+00  0.00000000E+00  0.00000000E+00  0.00000000E+00
  0.00000000E+00  0.00000000E+00  0.00000000E+00  0.00000000E+00  0.00000000E+00
  0.00000000E+00  0.00000000E+00  0.00000000E+00  0.00000000E+00  0.00000000E+00
  0.00000000E+00  0.00000000E+00  0.00000000E+00  0.00000000E+00  0.00000000E+00
  0.00000000E+00  0.00000000E+00  0.00000000E+00  0.00000000E+00  0.00000000E+00
IOpCl                                      I                0
IROHF                                      I                0
Alpha Orbital Energies                     R   N=         207
 -2.06904637E+01 -2.06839952E+01 -2.06611848E+01 -1.58125103E+01 -1.62366968E+00
 -1.49385590E+00 -1.25138070E+00 -9.47704952E-01 -7.71563941E-01 -7.57883247E-01
 -7.11425319E-01 -6.76914143E-01 -6.19991386E-01 -5.88668726E-01 -4.84689927E-01
 -4.72071021E-01  2.93217158E-02  7.19139931E-02  8.60122254E-02  1.01758707E-01
  1.33959311E-01  1.34073240E-01  1.43375669E-01  1.53961191E-01  1.78474164E-01
  1.94216719E-01  1.99858830E-01  2.06356901E-01  2.20867975E-01  2.35855918E-01
  2.37526491E-01  2.65637739E-01  2.93114742E-01  3.03198059E-01  3.09871479E-01
  3.43565995E-01  3.50588871E-01  3.86946372E-01  4.19767225E-01  4.29910225E-01
  5.27460079E-01  5.29453755E-01  5.58562975E-01  5.81890009E-01  6.26138371E-01
  6.38323898E-01  6.74670009E-01  6.82986683E-01  7.06451270E-01  7.10466980E-01
  7.22888915E-01  7.29431663E-01  7.44379846E-01  7.91872582E-01  7.91972385E-01
  8.10104526E-01  8.12905888E-01  8.30381382E-01  8.68459609E-01  9.08267386E-01
  9.21525740E-01  9.26065141E-01  9.55222059E-01  9.79311319E-01  9.82462260E-01
  1.01370193E+00  1.05269869E+00  1.05484280E+00  1.08094071E+00  1.11531143E+00
  1.13932103E+00  1.18999782E+00  1.21978114E+00  1.22962397E+00  1.33929861E+00
  1.35136710E+00  1.38645375E+00  1.44916004E+00  1.48334012E+00  1.50640117E+00
  1.53847948E+00  1.56686522E+00  1.58071877E+00  1.61159677E+00  1.66527362E+00
  1.67087508E+00  1.70316007E+00  1.79241596E+00  1.83084575E+00  1.83509068E+00
  1.87881548E+00  1.90788667E+00  1.94734843E+00  1.99161641E+00  2.00333514E+00
  2.07758169E+00  2.11897905E+00  2.13221213E+00  2.15043982E+00  2.22358313E+00
  2.26360001E+00  2.26624612E+00  2.28955375E+00  2.31285768E+00  2.34288244E+00
  2.38350242E+00  2.42437934E+00  2.42746504E+00  2.45426971E+00  2.46254261E+00
  2.47592772E+00  2.50024344E+00  2.59466060E+00  2.59597778E+00  2.62146937E+00
  2.62327534E+00  2.63509763E+00  2.67070439E+00  2.75730853E+00  2.83058229E+00
  2.85518238E+00  2.88346454E+00  2.89479588E+00  2.92263746E+00  2.95817504E+00
  3.02228747E+00  3.06716702E+00  3.12425635E+00  3.20499725E+00  3.22550156E+00
  3.31456685E+00  3.34016042E+00  3.51768763E+00  3.63649567E+00  3.82757539E+00
  3.83824518E+00  4.13476989E+00  4.15741791E+00  4.18055295E+00  4.25608934E+00
  4.33817037E+00  4.38960477E+00  4.45862055E+00  4.51308733E+00  4.66030325E+00
  4.70421515E+00  4.79529510E+00  4.80751778E+00  4.82598714E+00  4.89549706E+00
  5.02332940E+00  5.07742699E+00  5.08616669E+00  5.13188644E+00  5.17104642E+00
  5.22508981E+00  5.25811410E+00  5.30045524E+00  5.30580631E+00  5.35203794E+00
  5.59854634E+00  5.67371150E+00  5.76532166E+00  5.82129172E+00  5.95582503E+00
  6.17223879E+00  6.30841433E+00  6.34130627E+00  6.39097343E+00  6.49364760E+00
  6.50540945E+00  6.61135514E+00  6.66954121E+00  6.69924695E+00  6.75848364E+00
  6.76383120E+00  6.83228197E+00  6.89842356E+00  7.00299617E+00  7.05431028E+00
  7.05500337E+00  7.08755576E+00  7.12009788E+00  7.14637181E+00  7.17786157E+00
  7.22113648E+00  7.22114467E+00  7.29209049E+00  7.32520333E+00  7.34419906E+00
  7.40005708E+00  7.42859362E+00  7.48459920E+00  7.60681581E+00  7.61522499E+00
  7.62407900E+00  7.66162779E+00  7.77419657E+00  7.88684242E+00  8.08520906E+00
  8.30844294E+00  8.39018044E+00  8.53934093E+00  1.33864083E+01  1.43694931E+01
  1.49490955E+01  1.61526622E+01
Alpha MO coefficients                      R   N=       42849
  9.01798677E-05 -6.33463783E-04 -7.17559824E-04 -4.25160868E-06 -2.28574467E-05
 -2.82477411E-05  0.00000000E+00 -1.18777149E-05  7.65346475E-05  0.00000000E+00
  1.09289088E-04  4.25101948E-05  0.00000000E+00  3.14755134E-05  0.00000000E+00
  0.00000000E+00 -4.80361143E-05  1.76704252E-05 -2.09144318E-06  0.00000000E+00
  0.00000000E+00 -1.35580751E-04  9.94525040E-05  4.84357411E-03 -2.78532300E-04
  2.62280926E-05  1.56160159E-03  1.80718012E-03  1.05839477E-04  7.66216462E-06
  0.00000000E+00 -6.16521917E-04 -2.85449225E-05  0.00000000E+00 -1.14577755E-03
  7.80263991E-04  0.00000000E+00 -4.09959043E-04  4.97478882E-05  0.00000000E+00
  2.83382291E-05  0.00000000E+00  0.00000000E+00 -5.41358763E-05  6.72059673E-06
 -3.77248982E-04  0.00000000E+00  0.00000000E+00  7.34963241E-04 -3.87608513E-05
 -4.46920057E-04  0.00000000E+00  0.00000000E+00  2.45183116E-04 -2.85951646E-05
  0.00000000E+00  7.95404245E-05  1.24665941E-05  0.00000000E+00  0.00000000E+00
 -1.09951466E-04 -3.74252584E-06  0.00000000E+00  2.57434803E-04 -2.60539907E-05
  0.00000000E+00  0.00000000E+00 -3.45941298E-04  4.65562947E-05  9.76910144E-01
 -9.21447254E-03  4.33177474E-02  2.02967214E-03 -9.14893993E-04  1.49270130E-03
 -1.35563657E-03  0.00000000E+00 -1.43306891E-03  1.38440730E-03  0.00000000E+00
  7.88362038E-05 -1.15982328E-03  0.00000000E+00 -1.21757940E-04  1.86555179E-06
  0.00000000E+00  4.61734698E-05  0.00000000E+00  0.00000000E+00 -3.52055224E-05
  2.11132867E-05  7.46658883E-04  0.00000000E+00  0.00000000E+00 -2.30039298E-04
 -3.89409934E-04 -3.60037345E-04  0.00000000E+00  0.00000000E+00 -3.11995495E-04
 -3.73660632E-04  0.00000000E+00  4.74179429E-05 -4.87971154E-05  0.00000000E+00
  0.00000000E+00 -3.88077280E-05 -1.58442232E-05  0.00000000E+00  2.26811149E-05
  2.11593439E-05  0.00000000E+00  0.00000000E+00 -3.04285140E-04 -1.38676639E-04
  3.91070027E-05  4.58322916E-05 -2.64753613E-04 -7.07043882E-04 -1.45567959E-04
 -2.73390163E-05 -9.75982709E-05  0.00000000E+00  2.74096878E-04  7.11016049E-04
  0.00000000E+00 -8.40423638E-04 -4.82901442E-04  0.00000000E+00 -1.31967695E-04
 -2.90461499E-05  0.00000000E+00 -1.81005187E-05  0.00000000E+00  0.00000000E+00
 -2.96969794E-05  1.52398771E-05 -3.28686582E-04  0.00000000E+00  0.00000000E+00
 -8.29834688E-04  1.28150212E-04 -3.49236908E-05  0.00000000E+00  0.00000000E+00
  9.56574352E-05 -1.18315037E-04  0.00000000E+00 -2.11030722E-05 -1.20349752E-04
  0.00000000E+00  0.00000000E+00 -6.25581767E-05 -1.37366557E-04  0.00000000E+00
  4.75160851E-06 -1.51651686E-04  0.00000000E+00  0.00000000E+00  4.48203125E-05
 -4.21131899E-04 -2.62278845E-03  1.21534323E-04 -1.25788927E-04 -2.41974512E-04
  1.43184659E-04 -8.21645594E-06 -2.79939149E-05  0.00000000E+00  7.02463289E-05
  1.65081538E-04  0.00000000E+00  2.36655918E-04  2.03180259E-04  0.00000000E+00
  1.29360781E-04  2.74660458E-05  0.00000000E+00 -3.39726172E-06  0.00000000E+00
  0.00000000E+00 -1.79277681E-05  1.12476304E-06  4.58179862E-07  0.00000000E+00
  0.00000000E+00  8.13300385E-05  8.88058928E-05 -1.00846363E-04  0.00000000E+00
  0.00000000E+00  1.67457380E-04  1.63104542E-04  0.00000000E+00  1.57417172E-05
 -3.52772980E-06  0.00000000E+00  0.00000000E+00 -4.21963732E-06 -1.19372569E-05
  0.00000000E+00 -3.35266303E-05  4.53446682E-05  0.00000000E+00  0.00000000E+00
  8.40734658E-05  9.02883370E-05  3.97534763E-05 -9.55797218E-04 -4.62535345E-04
 -1.02469395E-05 -2.16927756E-05  1.42502697E-05  0.00000000E+00  3.72428308E-06
  2.74698988E-04  0.00000000E+00 -4.00555622E-05  1.30708617E-04  0.00000000E+00
  2.56155911E-05  0.00000000E+00  0.00000000E+00  1.31047223E-05  1.10492139E-05
 -2.57436417E-05  0.00000000E+00  0.00000000E+00  1.23356806E-05  3.24557780E-05
  1.18320467E-04  8.16246291E-05 -2.82293622E-05  7.18696420E-04  6.28762113E-04
  1.02582811E-05  2.50526787E-06  0.00000000E+00 -7.37866340E-05  1.26320798E-05
  0.00000000E+00  3.27937216E-04  8.81819700E-04  0.00000000E+00  4.67461498E-06
  7.88724675E-05  0.00000000E+00 -2.20592630E-06  0.00000000E+00  0.00000000E+00
  1.95920759E-07 -6.02194013E-06 -3.53473177E-05  0.00000000E+00  0.00000000E+00
 -2.05295697E-05  8.19802353E-05 -2.22990394E-05  0.00000000E+00  0.00000000E+00
 -2.64949422E-04 -1.62028840E-04  0.00000000E+00  9.21579655E-06  6.05696919E-06
  0.00000000E+00  0.00000000E+00  2.82016996E-06 -1.88401725E-05  0.00000000E+00
 -4.01665284E-05 -3.83299556E-05  0.00000000E+00  0.00000000E+00 -7.58639472E-05
  1.86062160E-05  2.66161850E-03  3.91930120E-05  9.31246757E-05 -6.91099593E-05
 -4.66639946E-04  7.25412388E-06  1.56817209E-05  0.00000000E+00 -6.15987664E-05
 -5.51394153E-05  0.00000000E+00  2.36121584E-04 -1.86240358E-04  0.00000000E+00
 -1.86427600E-04 -6.30914665E-05  0.00000000E+00 -8.72106812E-06  0.00000000E+00
  0.00000000E+00  2.23888955E-05  1.97537918E-05  4.32404519E-06  0.00000000E+00
  0.00000000E+00 -1.17161563E-04 -4.62861625E-05 -4.41067499E-06  0.00000000E+00
  0.00000000E+00 -2.21114116E-04 -2.05555833E-04  0.00000000E+00  3.20917275E-06
 -5.63009363E-07  0.00000000E+00  0.00000000E+00  1.71776669E-06 -1.35242690E-05
  0.00000000E+00 -4.63064506E-05  3.60731704E-06  0.00000000E+00  0.00000000E+00
 -7.60712819E-05  1.87839172E-04  2.58673915E-04  1.46505359E-03 -7.81119251E-05
 -1.53911423E-03  4.02891710E-04 -1.44556587E-04  1.27159649E-07  0.00000000E+00
 -2.08846477E-03 -4.03456707E-04  0.00000000E+00  1.03521009E-03  7.62495907E-04
  0.00000000E+00 -1.69746780E-04  5.81628156E-05  0.00000000E+00 -1.23345424E-04
  0.00000000E+00  0.00000000E+00  2.43075839E-04  9.40474114E-05 -4.42070799E-04
  0.00000000E+00  0.00000000E+00  8.98801089E-04 -6.62856694E-05  1.16871461E-05
  0.00000000E+00  0.00000000E+00 -3.38267477E-04 -1.24002852E-04  0.00000000E+00
 -1.37047227E-06  1.52721959E-05  0.00000000E+00  0.00000000E+00  1.89058313E-05
  1.34730697E-05  0.00000000E+00  1.64870511E-04 -7.16391697E-05  0.00000000E+00
  0.00000000E+00 -2.40860046E-04  4.13673033E-05  9.76649044E-01 -9.84825124E-03
  4.35681190E-02  4.49995862E-03 -4.47223553E-04  2.14799982E-03  4.80518406E-04
  0.00000000E+00 -2.38379639E-03 -6.03051972E-04  0.00000000E+00  1.13958722E-03
 -4.40942918E-06  0.00000000E+00  4.07949572E-06 -4.34541006E-05  0.00000000E+00
 -2.32314475E-04  0.00000000E+00  0.00000000E+00  1.02708470E-04  3.18273803E-05
  3.90459997E-04  0.00000000E+00  0.00000000E+00 -8.33939413E-04 -4.18858608E-04
 -1.53921731E-04  0.00000000E+00  0.00000000E+00  2.56563833E-04  1.65938925E-05
  0.00000000E+00  5.22718973E-05  1.76694579E-05  0.00000000E+00  0.00000000E+00
 -2.21023783E-05 -1.32711717E-05  0.00000000E+00  1.38165082E-04  9.32722396E-06
  0.00000000E+00  0.00000000E+00 -1.89632975E-04 -1.40612657E-04  4.37955055E-04
  2.39184354E-03  3.26596606E-04  2.43648112E-05 -4.18616992E-05 -2.89435899E-04
  0.00000000E+00  9.55310936E-05 -1.44083237E-03  0.00000000E+00  3.01725624E-04
 -3.97666385E-04  0.00000000E+00 -3.50847099E-05  0.00000000E+00  0.00000000E+00
  1.82234101E-05  2.20501992E-05 -1.68676128E-04  0.00000000E+00  0.00000000E+00
 -5.48865078E-04 -2.40373456E-05  9.76836938E-01 -9.20081520E-03  4.34351762E-02
 -9.46756931E-05 -1.31610506E-03 -1.56323786E-03  1.44163145E-03  0.00000000E+00
  1.56417711E-03 -1.38700954E-03  0.00000000E+00 -6.31603847E-04 -1.06841241E-03
  0.00000000E+00  6.50441217E-05 -5.62748117E-05  0.00000000E+00  3.73911458E-05
  0.00000000E+00  0.00000000E+00 -1.06393402E-04 -4.02180249E-06  7.82485421E-04
  0.00000000E+00  0.00000000E+00 -1.54171344E-04 -2.50337767E-04 -2.48397989E-04
  0.00000000E+00  0.00000000E+00  2.17159668E-04  1.20689506E-04  0.00000000E+00
 -6.31421395E-05  1.07429916E-05  0.00000000E+00  0.00000000E+00  2.34575489E-05