title                                                                   
Freq      RMP2-FC                                                     Aug-CC-pVTZ         
Number of atoms                            I                5
Info1-9                                    I   N=           9
          33          24           0           0           0         100
           6           2           1
Full Title                                 C   N=           1
title       
Route                                      C   N=           4
#p freq mp2/aug-cc-pvtz density=current         
Charge                                     I                0
Multiplicity                               I                1
Number of electrons                        I               32
Number of alpha electrons                  I               16
Number of beta electrons                   I               16
Number of basis functions                  I              207
Number of independent functions            I              207
Number of point charges in /Mol/           I                0
Number of translation vectors              I                0
Atomic numbers                             I   N=           5
           1           8           8           7           8
Nuclear charges                            R   N=           5
  1.00000000E+00  8.00000000E+00  8.00000000E+00  7.00000000E+00  8.00000000E+00
Current cartesian coordinates              R   N=          15
  2.05323815E+00 -1.14811946E+00  0.00000000E+00  2.47077402E+00  6.66556916E-01
  0.00000000E+00 -2.50804994E-16  1.74565605E+00  0.00000000E+00 -1.86660926E+00
 -7.84676174E-02  0.00000000E+00 -1.09414568E+00 -2.20003887E+00  0.00000000E+00
Number of symbols in /Mol/                 I                0
Force Field                                I                0
Atom Types                                 C   N=           5
                                                            
Int Atom Types                             I   N=           5
           0           0           0           0           0
MM charges                                 R   N=           5
  0.00000000E+00  0.00000000E+00  0.00000000E+00  0.00000000E+00  0.00000000E+00
Integer atomic weights                     I   N=           5
           1          16          16          14          16
Real atomic weights                        R   N=           5
  1.00782504E+00  1.59949146E+01  1.59949146E+01  1.40030740E+01  1.59949146E+01
Atom fragment info                         I   N=           5
           0           0           0           0           0
Atom residue num                           I   N=           5
           0           0           0           0           0
Nuclear spins                              I   N=           5
           1           0           0           2           0
Nuclear ZEff                               R   N=           5
 -1.00000000E+00 -5.60000000E+00 -5.60000000E+00 -4.55000000E+00 -5.60000000E+00
Nuclear ZNuc                               R   N=           5
  1.00000000E+00  8.00000000E+00  8.00000000E+00  7.00000000E+00  8.00000000E+00
Nuclear QMom                               R   N=           5
  0.00000000E+00  0.00000000E+00  0.00000000E+00  2.04400000E+00  0.00000000E+00
Nuclear GFac                               R   N=           5
  2.79284600E+00  0.00000000E+00  0.00000000E+00  4.03761000E-01  0.00000000E+00
MicOpt                                     I   N=           5
          -1          -1          -1          -1          -1
Number of residues                         I                0
Number of secondary structures             I                0
SymInf integers                            I   N=          26
           1           2           1           1           1           1
           1          -1           0           0           0           0
           0           0           0           0           0           0
           0           0           0           0           0           0
           0           0
RotTr to input orientation                 R   N=          12
 -9.74536378E-01  0.00000000E+00  2.24229455E-01  2.24229455E-01  0.00000000E+00
  9.74536378E-01  0.00000000E+00  1.00000000E+00  0.00000000E+00  2.25839747E+00
  0.00000000E+00  6.58487704E-01
Number of contracted shells                I               65
Number of primitive shells                 I              119
Pure/Cartesian d shells                    I                0
Pure/Cartesian f shells                    I                0
Highest angular momentum                   I                3
Largest degree of contraction              I                7
Shell types                                I   N=          65
           0           0           0           0           1           1
           1          -2          -2           0           0           0
           0           0           1           1           1           1
          -2          -2          -2          -3          -3           0
           0           0           0           0           1           1
           1           1          -2          -2          -2          -3
          -3           0           0           0           0           0
           1           1           1           1          -2          -2
          -2          -3          -3           0           0           0
           0           0           1           1           1           1
          -2          -2          -2          -3          -3
Number of primitives per shell             I   N=          65
           3           1           1           1           1           1
           1           1           1           7           6           1
           1           1           3           1           1           1
           1           1           1           1           1           7
           6           1           1           1           3           1
           1           1           1           1           1           1
           1           7           6           1           1           1
           3           1           1           1           1           1
           1           1           1           7           6           1
           1           1           3           1           1           1
           1           1           1           1           1
Shell to atom map                          I   N=          65
           1           1           1           1           1           1
           1           1           1           2           2           2
           2           2           2           2           2           2
           2           2           2           2           2           3
           3           3           3           3           3           3
           3           3           3           3           3           3
           3           4           4           4           4           4
           4           4           4           4           4           4
           4           4           4           5           5           5
           5           5           5           5           5           5
           5           5           5           5           5
Primitive exponents                        R   N=         119
  3.38700000E+01  5.09500000E+00  1.15900000E+00  3.25800000E-01  1.02700000E-01
  2.52600000E-02  1.40700000E+00  3.88000000E-01  1.02000000E-01  1.05700000E+00
  2.47000000E-01  1.53300000E+04  2.29900000E+03  5.22400000E+02  1.47300000E+02
  4.75500000E+01  1.67600000E+01  6.20700000E+00  5.22400000E+02  1.47300000E+02
  4.75500000E+01  1.67600000E+01  6.20700000E+00  6.88200000E-01  1.75200000E+00
  2.38400000E-01  7.37600000E-02  3.44600000E+01  7.74900000E+00  2.28000000E+00
  7.15600000E-01  2.14000000E-01  5.97400000E-02  2.31400000E+00  6.45000000E-01
  2.14000000E-01  1.42800000E+00  5.00000000E-01  1.53300000E+04  2.29900000E+03
  5.22400000E+02  1.47300000E+02  4.75500000E+01  1.67600000E+01  6.20700000E+00
  5.22400000E+02  1.47300000E+02  4.75500000E+01  1.67600000E+01  6.20700000E+00
  6.88200000E-01  1.75200000E+00  2.38400000E-01  7.37600000E-02  3.44600000E+01
  7.74900000E+00  2.28000000E+00  7.15600000E-01  2.14000000E-01  5.97400000E-02
  2.31400000E+00  6.45000000E-01  2.14000000E-01  1.42800000E+00  5.00000000E-01
  1.14200000E+04  1.71200000E+03  3.89300000E+02  1.10000000E+02  3.55700000E+01
  1.25400000E+01  4.64400000E+00  3.89300000E+02  1.10000000E+02  3.55700000E+01
  1.25400000E+01  4.64400000E+00  5.11800000E-01  1.29300000E+00  1.78700000E-01
  5.76000000E-02  2.66300000E+01  5.94800000E+00  1.74200000E+00  5.55000000E-01
  1.72500000E-01  4.91000000E-02  1.65400000E+00  4.69000000E-01  1.51000000E-01
  1.09300000E+00  3.64000000E-01  1.53300000E+04  2.29900000E+03  5.22400000E+02
  1.47300000E+02  4.75500000E+01  1.67600000E+01  6.20700000E+00  5.22400000E+02
  1.47300000E+02  4.75500000E+01  1.67600000E+01  6.20700000E+00  6.88200000E-01
  1.75200000E+00  2.38400000E-01  7.37600000E-02  3.44600000E+01  7.74900000E+00
  2.28000000E+00  7.15600000E-01  2.14000000E-01  5.97400000E-02  2.31400000E+00
  6.45000000E-01  2.14000000E-01  1.42800000E+00  5.00000000E-01
Contraction coefficients                   R   N=         119
  2.54948632E-02  1.90362766E-01  8.52162022E-01  1.00000000E+00  1.00000000E+00
  1.00000000E+00  1.00000000E+00  1.00000000E+00  1.00000000E+00  1.00000000E+00
  1.00000000E+00  5.19808943E-04  4.02025621E-03  2.07128267E-02  8.10105536E-02
  2.35962985E-01  4.42653446E-01  3.57064423E-01 -4.42115008E-05 -1.22591041E-03
 -1.05517725E-02 -6.74452633E-02 -1.71198607E-01  1.07329856E+00  1.00000000E+00
  1.00000000E+00  1.00000000E+00  4.11634896E-02  2.57762836E-01  8.02419274E-01
  1.00000000E+00  1.00000000E+00  1.00000000E+00  1.00000000E+00  1.00000000E+00
  1.00000000E+00  1.00000000E+00  1.00000000E+00  5.19808943E-04  4.02025621E-03
  2.07128267E-02  8.10105536E-02  2.35962985E-01  4.42653446E-01  3.57064423E-01
 -4.42115008E-05 -1.22591041E-03 -1.05517725E-02 -6.74452633E-02 -1.71198607E-01
  1.07329856E+00  1.00000000E+00  1.00000000E+00  1.00000000E+00  4.11634896E-02
  2.57762836E-01  8.02419274E-01  1.00000000E+00  1.00000000E+00  1.00000000E+00
  1.00000000E+00  1.00000000E+00  1.00000000E+00  1.00000000E+00  1.00000000E+00
  5.34563860E-04  4.13435660E-03  2.12335358E-02  8.25006224E-02  2.38138871E-01
  4.42551547E-01  3.53757422E-01 -4.89867350E-05 -1.19527323E-03 -1.03490714E-02
 -6.48680190E-02 -1.71552477E-01  1.07289568E+00  1.00000000E+00  1.00000000E+00
  1.00000000E+00  3.98072123E-02  2.49002660E-01  8.10479727E-01  1.00000000E+00
  1.00000000E+00  1.00000000E+00  1.00000000E+00  1.00000000E+00  1.00000000E+00
  1.00000000E+00  1.00000000E+00  5.19808943E-04  4.02025621E-03  2.07128267E-02
  8.10105536E-02  2.35962985E-01  4.42653446E-01  3.57064423E-01 -4.42115008E-05
 -1.22591041E-03 -1.05517725E-02 -6.74452633E-02 -1.71198607E-01  1.07329856E+00
  1.00000000E+00  1.00000000E+00  1.00000000E+00  4.11634896E-02  2.57762836E-01
  8.02419274E-01  1.00000000E+00  1.00000000E+00  1.00000000E+00  1.00000000E+00
  1.00000000E+00  1.00000000E+00  1.00000000E+00  1.00000000E+00
Coordinates of each shell                  R   N=         195
  2.05323815E+00 -1.14811946E+00  0.00000000E+00  2.05323815E+00 -1.14811946E+00
  0.00000000E+00  2.05323815E+00 -1.14811946E+00  0.00000000E+00  2.05323815E+00
 -1.14811946E+00  0.00000000E+00  2.05323815E+00 -1.14811946E+00  0.00000000E+00
  2.05323815E+00 -1.14811946E+00  0.00000000E+00  2.05323815E+00 -1.14811946E+00
  0.00000000E+00  2.05323815E+00 -1.14811946E+00  0.00000000E+00  2.05323815E+00
 -1.14811946E+00  0.00000000E+00  2.47077402E+00  6.66556916E-01  0.00000000E+00
  2.47077402E+00  6.66556916E-01  0.00000000E+00  2.47077402E+00  6.66556916E-01
  0.00000000E+00  2.47077402E+00  6.66556916E-01  0.00000000E+00  2.47077402E+00
  6.66556916E-01  0.00000000E+00  2.47077402E+00  6.66556916E-01  0.00000000E+00
  2.47077402E+00  6.66556916E-01  0.00000000E+00  2.47077402E+00  6.66556916E-01
  0.00000000E+00  2.47077402E+00  6.66556916E-01  0.00000000E+00  2.47077402E+00
  6.66556916E-01  0.00000000E+00  2.47077402E+00  6.66556916E-01  0.00000000E+00
  2.47077402E+00  6.66556916E-01  0.00000000E+00  2.47077402E+00  6.66556916E-01
  0.00000000E+00  2.47077402E+00  6.66556916E-01  0.00000000E+00 -3.33045109E-17
  1.74565605E+00  0.00000000E+00 -3.33045109E-17  1.74565605E+00  0.00000000E+00
 -3.33045109E-17  1.74565605E+00  0.00000000E+00 -3.33045109E-17  1.74565605E+00
  0.00000000E+00 -3.33045109E-17  1.74565605E+00  0.00000000E+00 -3.33045109E-17
  1.74565605E+00  0.00000000E+00 -3.33045109E-17  1.74565605E+00  0.00000000E+00
 -3.33045109E-17  1.74565605E+00  0.00000000E+00 -3.33045109E-17  1.74565605E+00
  0.00000000E+00 -3.33045109E-17  1.74565605E+00  0.00000000E+00 -3.33045109E-17
  1.74565605E+00  0.00000000E+00 -3.33045109E-17  1.74565605E+00  0.00000000E+00
 -3.33045109E-17  1.74565605E+00  0.00000000E+00 -3.33045109E-17  1.74565605E+00
  0.00000000E+00 -1.86660926E+00 -7.84676174E-02  0.00000000E+00 -1.86660926E+00
 -7.84676174E-02  0.00000000E+00 -1.86660926E+00 -7.84676174E-02  0.00000000E+00
 -1.86660926E+00 -7.84676174E-02  0.00000000E+00 -1.86660926E+00 -7.84676174E-02
  0.00000000E+00 -1.86660926E+00 -7.84676174E-02  0.00000000E+00 -1.86660926E+00
 -7.84676174E-02  0.00000000E+00 -1.86660926E+00 -7.84676174E-02  0.00000000E+00
 -1.86660926E+00 -7.84676174E-02  0.00000000E+00 -1.86660926E+00 -7.84676174E-02
  0.00000000E+00 -1.86660926E+00 -7.84676174E-02  0.00000000E+00 -1.86660926E+00
 -7.84676174E-02  0.00000000E+00 -1.86660926E+00 -7.84676174E-02  0.00000000E+00
 -1.86660926E+00 -7.84676174E-02  0.00000000E+00 -1.09414568E+00 -2.20003887E+00
  0.00000000E+00 -1.09414568E+00 -2.20003887E+00  0.00000000E+00 -1.09414568E+00
 -2.20003887E+00  0.00000000E+00 -1.09414568E+00 -2.20003887E+00  0.00000000E+00
 -1.09414568E+00 -2.20003887E+00  0.00000000E+00 -1.09414568E+00 -2.20003887E+00
  0.00000000E+00 -1.09414568E+00 -2.20003887E+00  0.00000000E+00 -1.09414568E+00
 -2.20003887E+00  0.00000000E+00 -1.09414568E+00 -2.20003887E+00  0.00000000E+00
 -1.09414568E+00 -2.20003887E+00  0.00000000E+00 -1.09414568E+00 -2.20003887E+00
  0.00000000E+00 -1.09414568E+00 -2.20003887E+00  0.00000000E+00 -1.09414568E+00
 -2.20003887E+00  0.00000000E+00 -1.09414568E+00 -2.20003887E+00  0.00000000E+00
Num ILSW                                   I              100
ILSW                                       I   N=         100
           0           0           0           0           2           0
           0           0           0           0           0          -1
           5           0           0           0           2           0
           0           0           0           0           1           0
           1           0           0           0           0           0
           0           0      100000           0          -1           0
           0           0           0           0           0           0
           0           0           0           1           1           0
           0 -2000000000           1           0           0           0
           0           0           4          52           0           0
           0           0           0           0           0           0
           0           0           0           5           4           1
           0           0           0           0           0           0
           0           0           0           0           0           0
           0           0           0           0           0           0
           0           0           0           0           0           0
           0           0           0           0
Num RLSW                                   I               52
RLSW                                       R   N=          52
  1.00000000E+00  1.00000000E+00  1.00000000E+00  1.00000000E+00  1.00000000E+00
  0.00000000E+00  0.00000000E+00  1.00000000E+00  0.00000000E+00  0.00000000E+00
  0.00000000E+00  0.00000000E+00  1.00000000E+00  0.00000000E+00  0.00000000E+00
  0.00000000E+00  0.00000000E+00  1.00000000E+00  0.00000000E+00  0.00000000E+00
  0.00000000E+00  0.00000000E+00  1.00000000E+00  0.00000000E+00  0.00000000E+00
  0.00000000E+00  0.00000000E+00  1.00000000E+00  0.00000000E+00  0.00000000E+00
  0.00000000E+00  0.00000000E+00  1.00000000E+00  0.00000000E+00  0.00000000E+00
  0.00000000E+00  0.00000000E+00  0.00000000E+00  1.00000000E+00  1.00000000E+00
  0.00000000E+00  1.00000000E+00  0.00000000E+00  0.00000000E+00  0.00000000E+00
  0.00000000E+00  0.00000000E+00  0.00000000E+00  0.00000000E+00  0.00000000E+00
  0.00000000E+00  0.00000000E+00
MxBond                                     I                2
NBond                                      I   N=           5
           1           2           2           2           1
IBond                                      I   N=          10
           2           0           1           3           2           4
           3           5           4           0
RBond                                      R   N=          10
  1.00000000E+00  0.00000000E+00  1.00000000E+00  1.00000000E+00  1.00000000E+00
  1.00000000E+00  1.00000000E+00  2.00000000E+00  2.00000000E+00  0.00000000E+00
Virial Ratio                               R      2.002197358044104E+00
SCF Energy                                 R     -2.795060934056357E+02
MP2 Energy                                 R     -2.804551413690604E+02
Total Energy                               R     -2.804551413690604E+02
Post-SCF wavefunction norm                 R      1.583700970467910E+00
RMS Force                                  R      1.969372381341112E-03
RMS Density                                R      4.650116453030448E-09
NImag                                      I                0
Job Status                                 I                1
Nuclear derivative order                   I                2
External E-field                           R   N=          35
  0.00000000E+00  0.00000000E+00  0.00000000E+00  0.00000000E+00  0.00000000E+00
  0.00000000E+00  0.00000000E+00  0.00000000E+00  0.00000000E+00  0.00000000E+00
  0.00000000E+00  0.00000000E+00  0.00000000E+00  0.00000000E+00  0.00000000E+00
  0.00000000E+00  0.00000000E+00  0.00000000E+00  0.00000000E+00  0.00000000E+00
  0.00000000E+00  0.00000000E+00  0.00000000E+00  0.00000000E+00  0.00000000E+00
  0.00000000E+00  0.00000000E+00  0.00000000E+00  0.00000000E+00  0.00000000E+00
  0.00000000E+00  0.00000000E+00  0.00000000E+00  0.00000000E+00  0.00000000E+00
IOpCl                                      I                0
IROHF                                      I                0
Alpha Orbital Energies                     R   N=         207
 -2.07210856E+01 -2.06878976E+01 -2.06667711E+01 -1.58260198E+01 -1.64584535E+00
 -1.50499765E+00 -1.29372488E+00 -9.60530016E-01 -8.36898513E-01 -7.59480403E-01
 -7.40820014E-01 -6.36035667E-01 -6.19457289E-01 -6.18001792E-01 -5.05422150E-01
 -4.97826146E-01  3.52788388E-02  5.97614450E-02  9.50388538E-02  1.00019343E-01
  1.19697769E-01  1.22728995E-01  1.49744972E-01  1.52670759E-01  1.77419434E-01
  1.80043210E-01  1.89649063E-01  2.10979370E-01  2.16714592E-01  2.43811328E-01
  2.46230623E-01  2.69145570E-01  3.14296954E-01  3.18327461E-01  3.38141014E-01
  3.42335797E-01  3.46397102E-01  3.93767567E-01  4.50713078E-01  4.89366080E-01
  5.05377332E-01  5.17774829E-01  5.45279480E-01  5.60806241E-01  5.98017369E-01
  6.19998208E-01  6.39084214E-01  6.90360780E-01  7.16615173E-01  7.23521780E-01
  7.44505369E-01  7.65770801E-01  7.67979976E-01  7.95873213E-01  8.08044286E-01
  8.38373064E-01  8.42581263E-01  8.52212033E-01  8.85328033E-01  9.08692359E-01
  9.32360173E-01  9.47489282E-01  9.54901411E-01  1.01817448E+00  1.03439226E+00
  1.06695030E+00  1.07133184E+00  1.09812179E+00  1.14814016E+00  1.15658219E+00
  1.16978751E+00  1.22260985E+00  1.22910667E+00  1.24520670E+00  1.35400173E+00
  1.35922559E+00  1.36987723E+00  1.46926254E+00  1.48563520E+00  1.50344798E+00
  1.54555595E+00  1.59668637E+00  1.60059355E+00  1.60597017E+00  1.63230257E+00
  1.69586653E+00  1.74113766E+00  1.80002476E+00  1.82850446E+00  1.88810820E+00
  1.89905710E+00  1.93232970E+00  1.98027719E+00  1.99212209E+00  2.05285689E+00
  2.12106254E+00  2.13294368E+00  2.16721137E+00  2.19144597E+00  2.24532568E+00
  2.26213746E+00  2.29316962E+00  2.35793196E+00  2.37128443E+00  2.38468782E+00
  2.40508949E+00  2.43634665E+00  2.47073758E+00  2.48243366E+00  2.53205355E+00
  2.54040751E+00  2.55241321E+00  2.56077545E+00  2.61937280E+00  2.63304457E+00
  2.67548617E+00  2.67907949E+00  2.75519647E+00  2.80949487E+00  2.82351014E+00
  2.83923805E+00  2.92223269E+00  2.98597409E+00  3.04792565E+00  3.05587110E+00
  3.11178580E+00  3.11969302E+00  3.18620925E+00  3.21500155E+00  3.30918737E+00
  3.33223509E+00  3.35642124E+00  3.48295259E+00  3.67300653E+00  3.87071116E+00
  3.94181784E+00  4.19054195E+00  4.22704539E+00  4.23281977E+00  4.27639419E+00
  4.37441038E+00  4.49708791E+00  4.55342001E+00  4.55533496E+00  4.60094428E+00
  4.68852336E+00  4.80772514E+00  4.89619001E+00  4.91533083E+00  4.94350436E+00
  4.99924766E+00  5.00450283E+00  5.10565653E+00  5.13851862E+00  5.17659720E+00
  5.25375125E+00  5.25900153E+00  5.31902259E+00  5.35238998E+00  5.38014966E+00
  5.54242360E+00  5.64424369E+00  5.70876748E+00  5.89175713E+00  5.99459315E+00
  6.26264588E+00  6.29520048E+00  6.36065170E+00  6.37603094E+00  6.59994782E+00
  6.66104099E+00  6.66660863E+00  6.69644086E+00  6.72405565E+00  6.79345975E+00
  6.80452723E+00  6.85600768E+00  6.96848905E+00  7.02005133E+00  7.06630131E+00
  7.07956671E+00  7.13996797E+00  7.17486952E+00  7.19114356E+00  7.20537564E+00
  7.24705695E+00  7.24802800E+00  7.27312080E+00  7.35343958E+00  7.39956583E+00
  7.43058202E+00  7.44152591E+00  7.46271365E+00  7.56500696E+00  7.66198361E+00
  7.68026256E+00  7.79385695E+00  7.88641098E+00  7.95869630E+00  8.08438328E+00
  8.31365323E+00  8.50635049E+00  8.64990475E+00  1.36331754E+01  1.47396901E+01
  1.51310990E+01  1.58115731E+01
Alpha MO coefficients                      R   N=       42849
  6.25749207E-05  1.64795389E-05 -1.10311130E-03  1.01379670E-05 -5.06643857E-05
  4.10057109E-05  0.00000000E+00 -9.45299727E-05 -2.72383912E-04  0.00000000E+00
 -2.41893847E-05 -3.53590119E-04  0.00000000E+00  4.07153136E-05  0.00000000E+00
  0.00000000E+00 -2.32577992E-05  1.33841427E-05  2.32561096E-04  0.00000000E+00
  0.00000000E+00 -4.13266368E-05 -2.15682497E-04  2.92131041E-03 -9.53730730E-05
 -1.03859347E-04  3.48237302E-03  2.46198560E-03  1.00378421E-04 -5.44135433E-05
  0.00000000E+00 -7.13078055E-04  2.94986169E-04  0.00000000E+00 -1.91495345E-03
  1.17881733E-03  0.00000000E+00 -5.29449488E-04  3.21350419E-05  0.00000000E+00
  2.04748748E-05  0.00000000E+00  0.00000000E+00 -7.54346309E-06  4.44494291E-05
 -4.39746112E-04  0.00000000E+00  0.00000000E+00  4.04160026E-04 -6.72939744E-04
 -3.59149135E-04  0.00000000E+00  0.00000000E+00  5.10736407E-04 -7.70110951E-04
  0.00000000E+00  7.25176005E-05 -5.30006563E-05  0.00000000E+00  0.00000000E+00
 -2.35676655E-05  1.09708039E-04  0.00000000E+00  2.09040998E-04 -5.55027474E-05
  0.00000000E+00  0.00000000E+00 -1.50327331E-04  3.04970556E-04  9.76906450E-01
 -9.18104372E-03  4.33997612E-02  5.22849109E-04 -2.23271526E-03  4.33988230E-04
 -2.15403618E-03  0.00000000E+00 -3.07153624E-04  2.26713041E-03  0.00000000E+00
 -2.26291965E-03 -5.11793451E-04  0.00000000E+00 -2.00496198E-04  1.07664882E-04
  0.00000000E+00  8.75453605E-06  0.00000000E+00  0.00000000E+00 -6.77818711E-06
  3.62813286E-05  8.21979463E-04  0.00000000E+00  0.00000000E+00 -4.55312096E-04
 -1.57866240E-04 -1.40085611E-04  0.00000000E+00  0.00000000E+00 -5.79724740E-04
  3.51491980E-04  0.00000000E+00 -6.47724867E-06 -8.02055124E-05  0.00000000E+00
  0.00000000E+00 -8.27161573E-06  4.79629770E-05  0.00000000E+00  8.92218757E-05
  1.98967029E-06  0.00000000E+00  0.00000000E+00 -3.22506452E-04  3.80616470E-04
  1.03770940E-04  4.53429338E-04 -3.23911424E-04 -8.12960891E-04  4.12802713E-04
 -4.32216859E-05 -9.98338400E-05  0.00000000E+00  6.84540360E-04  1.10334567E-03
  0.00000000E+00 -7.73143303E-04 -6.08009195E-04  0.00000000E+00  2.04800511E-04
  2.20124038E-04  0.00000000E+00 -5.16800120E-05  0.00000000E+00  0.00000000E+00
  1.88147452E-05  9.31888428E-05 -4.19214739E-04  0.00000000E+00  0.00000000E+00
  1.83910287E-05  1.07557458E-03  2.33603536E-05  0.00000000E+00  0.00000000E+00
 -3.30046466E-04  3.77415298E-05  0.00000000E+00 -7.81420173E-05 -1.12988644E-04
  0.00000000E+00  0.00000000E+00 -9.86483317E-05  1.05943095E-04  0.00000000E+00
 -1.27810220E-04  4.09284147E-05  0.00000000E+00  0.00000000E+00  2.96865304E-06
  5.10135501E-04 -6.88887768E-04  4.49433571E-05 -6.92539138E-05  2.35412885E-04
 -2.23972916E-04 -2.92266368E-05 -4.07471000E-05  0.00000000E+00  1.70640435E-04
  2.47948024E-04  0.00000000E+00  5.24701875E-04  3.19853946E-04  0.00000000E+00
 -2.26113394E-04 -7.12167015E-05  0.00000000E+00 -1.27866882E-05  0.00000000E+00
  0.00000000E+00  3.01460943E-06  1.56305654E-05 -1.67995014E-06  0.00000000E+00
  0.00000000E+00 -1.59298600E-04  8.67126930E-06 -1.60324371E-05  0.00000000E+00
  0.00000000E+00 -1.72301142E-04 -4.51346021E-05  0.00000000E+00 -6.32089176E-06
 -9.12945344E-06  0.00000000E+00  0.00000000E+00 -2.06001146E-05  9.87220465E-06
  0.00000000E+00  4.11671711E-05  6.17926596E-05  0.00000000E+00  0.00000000E+00
  1.53647992E-04 -1.04420013E-04  3.76824009E-05  6.78863056E-05 -8.18797677E-05
 -3.12878669E-05  2.75593536E-05  1.83083245E-05  0.00000000E+00  2.21352179E-04
  4.30597735E-05  0.00000000E+00  1.09773030E-04  1.69828989E-05  0.00000000E+00
  8.53484521E-06  0.00000000E+00  0.00000000E+00 -6.03571230E-06  2.21741475E-05
  1.28944888E-05  0.00000000E+00  0.00000000E+00 -8.38384399E-05  7.71207061E-05
 -2.52749414E-04  3.87435810E-05 -1.49890180E-05 -5.68661823E-04  1.47343529E-04
  8.53369164E-06  1.27411435E-05  0.00000000E+00 -9.39861068E-06 -4.09375746E-05
  0.00000000E+00  2.01436832E-04  1.40015402E-04  0.00000000E+00 -3.89037158E-05
  5.34874895E-05  0.00000000E+00 -2.84497804E-06  0.00000000E+00  0.00000000E+00
 -8.82373418E-06 -1.04281003E-05  2.73603117E-05  0.00000000E+00  0.00000000E+00
  6.08030270E-05  1.06740345E-04  6.75203151E-05  0.00000000E+00  0.00000000E+00
 -4.07870934E-05 -8.37379621E-05  0.00000000E+00  8.19632620E-06  9.02965633E-06
  0.00000000E+00  0.00000000E+00 -1.62719320E-06 -2.77483998E-05  0.00000000E+00
 -1.64243147E-05 -4.00476508E-05  0.00000000E+00  0.00000000E+00 -6.71922695E-06
 -1.47523029E-05  7.16595835E-04  2.24151947E-05 -1.96056974E-05  2.97046339E-04
 -4.05615154E-04  1.66738525E-05  2.73211843E-05  0.00000000E+00 -6.65929182E-05
 -1.53905658E-04  0.00000000E+00  1.63483795E-04 -2.20839717E-04  0.00000000E+00
 -1.57796321E-04  1.43950742E-04  0.00000000E+00 -4.12976311E-06  0.00000000E+00
  0.00000000E+00 -2.92594095E-05 -1.02644841E-05 -5.10911523E-05  0.00000000E+00
  0.00000000E+00  7.68903799E-05  1.23450441E-04 -6.46681156E-05  0.00000000E+00
  0.00000000E+00  2.70492803E-05  2.59904286E-05  0.00000000E+00  3.15321467E-06
  3.34600741E-06  0.00000000E+00  0.00000000E+00 -8.19272544E-06 -2.86314395E-06
  0.00000000E+00  3.59677875E-06 -2.50135521E-05  0.00000000E+00  0.00000000E+00
  9.92676106E-05 -1.51695846E-04  2.36496773E-04  1.35480606E-03 -1.46304565E-04
 -7.14287217E-04  9.23046750E-04  6.35904792E-05 -7.07908330E-05  0.00000000E+00
  5.77268056E-04 -2.08096816E-03  0.00000000E+00  1.01613663E-04  5.32730407E-04
  0.00000000E+00  1.91405437E-04 -3.06528821E-04  0.00000000E+00 -1.27492806E-04
  0.00000000E+00  0.00000000E+00 -2.02890500E-04 -1.59496002E-04 -4.60466043E-04
  0.00000000E+00  0.00000000E+00 -5.96244532E-04 -9.27192416E-04 -4.35805556E-05
  0.00000000E+00  0.00000000E+00  5.58915745E-05  1.26885453E-04  0.00000000E+00
  8.30900123E-06  3.70947883E-05  0.00000000E+00  0.00000000E+00 -2.45463753E-05
 -4.49387997E-06  0.00000000E+00 -1.37326338E-04  1.55523357E-04  0.00000000E+00
  0.00000000E+00 -3.17005618E-04 -4.18411085E-05  9.76644864E-01 -9.88336655E-03
  4.35775713E-02  3.70582719E-03 -9.08029599E-04 -4.48790596E-04  2.13094984E-03
  0.00000000E+00  5.20386626E-04 -2.50560591E-03  0.00000000E+00 -9.62033892E-05
  8.31192321E-04  0.00000000E+00  1.03129257E-04 -6.54343488E-05  0.00000000E+00
 -1.93746282E-04  0.00000000E+00  0.00000000E+00 -7.33196956E-05 -4.36193692E-05
  4.08943329E-04  0.00000000E+00  0.00000000E+00  8.55950331E-04  4.88614709E-04
 -2.01313196E-04  0.00000000E+00  0.00000000E+00 -1.51895414E-04 -3.70759936E-05
  0.00000000E+00 -5.92468833E-06  7.01937490E-05  0.00000000E+00  0.00000000E+00
 -2.74620425E-05  1.05060713E-05  0.00000000E+00 -8.67888381E-05  9.13424253E-05
  0.00000000E+00  0.00000000E+00 -1.73190648E-04  2.02750872E-04  3.69089781E-04
  1.99194679E-03  1.49311320E-03 -1.71304631E-05  5.52075753E-05  2.65230371E-04
  0.00000000E+00  3.67592635E-04  1.01064573E-03  0.00000000E+00 -1.68783983E-04
  2.35044325E-04  0.00000000E+00 -2.36889571E-05  0.00000000E+00  0.00000000E+00
  3.47645206E-05 -3.23499375E-05 -2.26618319E-04  0.00000000E+00  0.00000000E+00
 -3.39342628E-04  4.26234135E-04  9.76831015E-01 -9.18993688E-03  4.34716320E-02
  1.14179223E-04 -1.90209089E-03 -2.05896089E-03 -7.93265360E-04  0.00000000E+00
  2.09746448E-03  7.28544638E-04  0.00000000E+00 -3.81879994E-04  6.27648749E-04
  0.00000000E+00  2.24954620E-04 -3.06661924E-04  0.00000000E+00  2.92757951E-05
  0.00000000E+00  0.00000000E+00 -7.24221770E-05  6.70157729E-05  7.64992182E-04
  0.00000000E+00  0.00000000E+00 -2.03883913E-04  3.60542758E-04 -2.44087496E-04
  0.00000000E+00  0.00000000E+00  3.23564858E-04  6.15642581E-07  0.00000000E+00
 -8.09228565E-05  2.92685631E-06  0.00000000E+00  0.00000000E+00  1.41221847E-05