title                                                                   
Freq      RMP2-FC                                                     Aug-CC-pVTZ         
Number of atoms                            I                5
Info1-9                                    I   N=           9
          33          24           0           0           0         100
           6           2           1
Full Title                                 C   N=           1
title       
Route                                      C   N=           4
#p freq mp2/aug-cc-pvtz density=current         
Charge                                     I                0
Multiplicity                               I                1
Number of electrons                        I               32
Number of alpha electrons                  I               16
Number of beta electrons                   I               16
Number of basis functions                  I              207
Number of independent functions            I              207
Number of point charges in /Mol/           I                0
Number of translation vectors              I                0
Atomic numbers                             I   N=           5
           1           8           8           7           8
Nuclear charges                            R   N=           5
  1.00000000E+00  8.00000000E+00  8.00000000E+00  7.00000000E+00  8.00000000E+00
Current cartesian coordinates              R   N=          15
  2.03543174E+00 -1.15539936E+00  3.94430453E-31  2.46410181E+00  6.56679150E-01
  5.91645679E-31  2.26204404E-16  1.75092843E+00 -7.39557099E-32 -1.86367917E+00
 -7.61887644E-02 -4.93038066E-31 -1.08781150E+00 -2.19651749E+00 -1.47911420E-31
Number of symbols in /Mol/                 I                0
Force Field                                I                0
Atom Types                                 C   N=           5
                                                            
Int Atom Types                             I   N=           5
           0           0           0           0           0
MM charges                                 R   N=           5
  0.00000000E+00  0.00000000E+00  0.00000000E+00  0.00000000E+00  0.00000000E+00
Integer atomic weights                     I   N=           5
           1          16          16          14          16
Real atomic weights                        R   N=           5
  1.00782504E+00  1.59949146E+01  1.59949146E+01  1.40030740E+01  1.59949146E+01
Atom fragment info                         I   N=           5
           0           0           0           0           0
Atom residue num                           I   N=           5
           0           0           0           0           0
Nuclear spins                              I   N=           5
           1           0           0           2           0
Nuclear ZEff                               R   N=           5
 -1.00000000E+00 -5.60000000E+00 -5.60000000E+00 -4.55000000E+00 -5.60000000E+00
Nuclear ZNuc                               R   N=           5
  1.00000000E+00  8.00000000E+00  8.00000000E+00  7.00000000E+00  8.00000000E+00
Nuclear QMom                               R   N=           5
  0.00000000E+00  0.00000000E+00  0.00000000E+00  2.04400000E+00  0.00000000E+00
Nuclear GFac                               R   N=           5
  2.79284600E+00  0.00000000E+00  0.00000000E+00  4.03761000E-01  0.00000000E+00
MicOpt                                     I   N=           5
          -1          -1          -1          -1          -1
Number of residues                         I                0
Number of secondary structures             I                0
SymInf integers                            I   N=          26
           1           2           1           1           1           1
           1          -1           0           0           0           0
           0           0           0           0           0           0
           0           0           0           0           0           0
           0           0
RotTr to input orientation                 R   N=          12
 -9.73141245E-01 -4.33673963E-16  2.30208856E-01  2.30208856E-01  1.02591055E-16
  9.73141245E-01 -4.45643390E-16  1.00000000E+00  0.00000000E+00  2.24674574E+00
  0.00000000E+00  6.55792355E-01
Number of contracted shells                I               65
Number of primitive shells                 I              119
Pure/Cartesian d shells                    I                0
Pure/Cartesian f shells                    I                0
Highest angular momentum                   I                3
Largest degree of contraction              I                7
Shell types                                I   N=          65
           0           0           0           0           1           1
           1          -2          -2           0           0           0
           0           0           1           1           1           1
          -2          -2          -2          -3          -3           0
           0           0           0           0           1           1
           1           1          -2          -2          -2          -3
          -3           0           0           0           0           0
           1           1           1           1          -2          -2
          -2          -3          -3           0           0           0
           0           0           1           1           1           1
          -2          -2          -2          -3          -3
Number of primitives per shell             I   N=          65
           3           1           1           1           1           1
           1           1           1           7           6           1
           1           1           3           1           1           1
           1           1           1           1           1           7
           6           1           1           1           3           1
           1           1           1           1           1           1
           1           7           6           1           1           1
           3           1           1           1           1           1
           1           1           1           7           6           1
           1           1           3           1           1           1
           1           1           1           1           1
Shell to atom map                          I   N=          65
           1           1           1           1           1           1
           1           1           1           2           2           2
           2           2           2           2           2           2
           2           2           2           2           2           3
           3           3           3           3           3           3
           3           3           3           3           3           3
           3           4           4           4           4           4
           4           4           4           4           4           4
           4           4           4           5           5           5
           5           5           5           5           5           5
           5           5           5           5           5
Primitive exponents                        R   N=         119
  3.38700000E+01  5.09500000E+00  1.15900000E+00  3.25800000E-01  1.02700000E-01
  2.52600000E-02  1.40700000E+00  3.88000000E-01  1.02000000E-01  1.05700000E+00
  2.47000000E-01  1.53300000E+04  2.29900000E+03  5.22400000E+02  1.47300000E+02
  4.75500000E+01  1.67600000E+01  6.20700000E+00  5.22400000E+02  1.47300000E+02
  4.75500000E+01  1.67600000E+01  6.20700000E+00  6.88200000E-01  1.75200000E+00
  2.38400000E-01  7.37600000E-02  3.44600000E+01  7.74900000E+00  2.28000000E+00
  7.15600000E-01  2.14000000E-01  5.97400000E-02  2.31400000E+00  6.45000000E-01
  2.14000000E-01  1.42800000E+00  5.00000000E-01  1.53300000E+04  2.29900000E+03
  5.22400000E+02  1.47300000E+02  4.75500000E+01  1.67600000E+01  6.20700000E+00
  5.22400000E+02  1.47300000E+02  4.75500000E+01  1.67600000E+01  6.20700000E+00
  6.88200000E-01  1.75200000E+00  2.38400000E-01  7.37600000E-02  3.44600000E+01
  7.74900000E+00  2.28000000E+00  7.15600000E-01  2.14000000E-01  5.97400000E-02
  2.31400000E+00  6.45000000E-01  2.14000000E-01  1.42800000E+00  5.00000000E-01
  1.14200000E+04  1.71200000E+03  3.89300000E+02  1.10000000E+02  3.55700000E+01
  1.25400000E+01  4.64400000E+00  3.89300000E+02  1.10000000E+02  3.55700000E+01
  1.25400000E+01  4.64400000E+00  5.11800000E-01  1.29300000E+00  1.78700000E-01
  5.76000000E-02  2.66300000E+01  5.94800000E+00  1.74200000E+00  5.55000000E-01
  1.72500000E-01  4.91000000E-02  1.65400000E+00  4.69000000E-01  1.51000000E-01
  1.09300000E+00  3.64000000E-01  1.53300000E+04  2.29900000E+03  5.22400000E+02
  1.47300000E+02  4.75500000E+01  1.67600000E+01  6.20700000E+00  5.22400000E+02
  1.47300000E+02  4.75500000E+01  1.67600000E+01  6.20700000E+00  6.88200000E-01
  1.75200000E+00  2.38400000E-01  7.37600000E-02  3.44600000E+01  7.74900000E+00
  2.28000000E+00  7.15600000E-01  2.14000000E-01  5.97400000E-02  2.31400000E+00
  6.45000000E-01  2.14000000E-01  1.42800000E+00  5.00000000E-01
Contraction coefficients                   R   N=         119
  2.54948632E-02  1.90362766E-01  8.52162022E-01  1.00000000E+00  1.00000000E+00
  1.00000000E+00  1.00000000E+00  1.00000000E+00  1.00000000E+00  1.00000000E+00
  1.00000000E+00  5.19808943E-04  4.02025621E-03  2.07128267E-02  8.10105536E-02
  2.35962985E-01  4.42653446E-01  3.57064423E-01 -4.42115008E-05 -1.22591041E-03
 -1.05517725E-02 -6.74452633E-02 -1.71198607E-01  1.07329856E+00  1.00000000E+00
  1.00000000E+00  1.00000000E+00  4.11634896E-02  2.57762836E-01  8.02419274E-01
  1.00000000E+00  1.00000000E+00  1.00000000E+00  1.00000000E+00  1.00000000E+00
  1.00000000E+00  1.00000000E+00  1.00000000E+00  5.19808943E-04  4.02025621E-03
  2.07128267E-02  8.10105536E-02  2.35962985E-01  4.42653446E-01  3.57064423E-01
 -4.42115008E-05 -1.22591041E-03 -1.05517725E-02 -6.74452633E-02 -1.71198607E-01
  1.07329856E+00  1.00000000E+00  1.00000000E+00  1.00000000E+00  4.11634896E-02
  2.57762836E-01  8.02419274E-01  1.00000000E+00  1.00000000E+00  1.00000000E+00
  1.00000000E+00  1.00000000E+00  1.00000000E+00  1.00000000E+00  1.00000000E+00
  5.34563860E-04  4.13435660E-03  2.12335358E-02  8.25006224E-02  2.38138871E-01
  4.42551547E-01  3.53757422E-01 -4.89867350E-05 -1.19527323E-03 -1.03490714E-02
 -6.48680190E-02 -1.71552477E-01  1.07289568E+00  1.00000000E+00  1.00000000E+00
  1.00000000E+00  3.98072123E-02  2.49002660E-01  8.10479727E-01  1.00000000E+00
  1.00000000E+00  1.00000000E+00  1.00000000E+00  1.00000000E+00  1.00000000E+00
  1.00000000E+00  1.00000000E+00  5.19808943E-04  4.02025621E-03  2.07128267E-02
  8.10105536E-02  2.35962985E-01  4.42653446E-01  3.57064423E-01 -4.42115008E-05
 -1.22591041E-03 -1.05517725E-02 -6.74452633E-02 -1.71198607E-01  1.07329856E+00
  1.00000000E+00  1.00000000E+00  1.00000000E+00  4.11634896E-02  2.57762836E-01
  8.02419274E-01  1.00000000E+00  1.00000000E+00  1.00000000E+00  1.00000000E+00
  1.00000000E+00  1.00000000E+00  1.00000000E+00  1.00000000E+00
Coordinates of each shell                  R   N=         195
  2.03543174E+00 -1.15539936E+00  2.40789931E-31  2.03543174E+00 -1.15539936E+00
  2.40789931E-31  2.03543174E+00 -1.15539936E+00  2.40789931E-31  2.03543174E+00
 -1.15539936E+00  2.40789931E-31  2.03543174E+00 -1.15539936E+00  2.40789931E-31
  2.03543174E+00 -1.15539936E+00  2.40789931E-31  2.03543174E+00 -1.15539936E+00
  2.40789931E-31  2.03543174E+00 -1.15539936E+00  2.40789931E-31  2.03543174E+00
 -1.15539936E+00  2.40789931E-31  2.46410181E+00  6.56679150E-01  2.05456691E-31
  2.46410181E+00  6.56679150E-01  2.05456691E-31  2.46410181E+00  6.56679150E-01
  2.05456691E-31  2.46410181E+00  6.56679150E-01  2.05456691E-31  2.46410181E+00
  6.56679150E-01  2.05456691E-31  2.46410181E+00  6.56679150E-01  2.05456691E-31
  2.46410181E+00  6.56679150E-01  2.05456691E-31  2.46410181E+00  6.56679150E-01
  2.05456691E-31  2.46410181E+00  6.56679150E-01  2.05456691E-31  2.46410181E+00
  6.56679150E-01  2.05456691E-31  2.46410181E+00  6.56679150E-01  2.05456691E-31
  2.46410181E+00  6.56679150E-01  2.05456691E-31  2.46410181E+00  6.56679150E-01
  2.05456691E-31  2.46410181E+00  6.56679150E-01  2.05456691E-31  4.14744369E-17
  1.75092843E+00 -7.32982005E-32  4.14744369E-17  1.75092843E+00 -7.32982005E-32
  4.14744369E-17  1.75092843E+00 -7.32982005E-32  4.14744369E-17  1.75092843E+00
 -7.32982005E-32  4.14744369E-17  1.75092843E+00 -7.32982005E-32  4.14744369E-17
  1.75092843E+00 -7.32982005E-32  4.14744369E-17  1.75092843E+00 -7.32982005E-32
  4.14744369E-17  1.75092843E+00 -7.32982005E-32  4.14744369E-17  1.75092843E+00
 -7.32982005E-32  4.14744369E-17  1.75092843E+00 -7.32982005E-32  4.14744369E-17
  1.75092843E+00 -7.32982005E-32  4.14744369E-17  1.75092843E+00 -7.32982005E-32
  4.14744369E-17  1.75092843E+00 -7.32982005E-32  4.14744369E-17  1.75092843E+00
 -7.32982005E-32 -1.86367917E+00 -7.61887644E-02 -1.72995761E-31 -1.86367917E+00
 -7.61887644E-02 -1.72995761E-31 -1.86367917E+00 -7.61887644E-02 -1.72995761E-31
 -1.86367917E+00 -7.61887644E-02 -1.72995761E-31 -1.86367917E+00 -7.61887644E-02
 -1.72995761E-31 -1.86367917E+00 -7.61887644E-02 -1.72995761E-31 -1.86367917E+00
 -7.61887644E-02 -1.72995761E-31 -1.86367917E+00 -7.61887644E-02 -1.72995761E-31
 -1.86367917E+00 -7.61887644E-02 -1.72995761E-31 -1.86367917E+00 -7.61887644E-02
 -1.72995761E-31 -1.86367917E+00 -7.61887644E-02 -1.72995761E-31 -1.86367917E+00
 -7.61887644E-02 -1.72995761E-31 -1.86367917E+00 -7.61887644E-02 -1.72995761E-31
 -1.86367917E+00 -7.61887644E-02 -1.72995761E-31 -1.08781150E+00 -2.19651749E+00
 -1.08859410E-32 -1.08781150E+00 -2.19651749E+00 -1.08859410E-32 -1.08781150E+00
 -2.19651749E+00 -1.08859410E-32 -1.08781150E+00 -2.19651749E+00 -1.08859410E-32
 -1.08781150E+00 -2.19651749E+00 -1.08859410E-32 -1.08781150E+00 -2.19651749E+00
 -1.08859410E-32 -1.08781150E+00 -2.19651749E+00 -1.08859410E-32 -1.08781150E+00
 -2.19651749E+00 -1.08859410E-32 -1.08781150E+00 -2.19651749E+00 -1.08859410E-32
 -1.08781150E+00 -2.19651749E+00 -1.08859410E-32 -1.08781150E+00 -2.19651749E+00
 -1.08859410E-32 -1.08781150E+00 -2.19651749E+00 -1.08859410E-32 -1.08781150E+00
 -2.19651749E+00 -1.08859410E-32 -1.08781150E+00 -2.19651749E+00 -1.08859410E-32
Num ILSW                                   I              100
ILSW                                       I   N=         100
           0           0           0           0           2           0
           0           0           0           0           0          -1
           5           0           0           0           2           0
           0           0           0           0           1           0
           1           0           0           0           0           0
           0           0      100000           0          -1           0
           0           0           0           0           0           0
           0           0           0           1           1           0
           0 -2000000000           1           0           0           0
           0           0           4          52           0           0
           0           0           0           0           0           0
           0           0           0           5           4           1
           0           0           0           0           0           0
           0           0           0           0           0           0
           0           0           0           0           0           0
           0           0           0           0           0           0
           0           0           0           0
Num RLSW                                   I               52
RLSW                                       R   N=          52
  1.00000000E+00  1.00000000E+00  1.00000000E+00  1.00000000E+00  1.00000000E+00
  0.00000000E+00  0.00000000E+00  1.00000000E+00  0.00000000E+00  0.00000000E+00
  0.00000000E+00  0.00000000E+00  1.00000000E+00  0.00000000E+00  0.00000000E+00
  0.00000000E+00  0.00000000E+00  1.00000000E+00  0.00000000E+00  0.00000000E+00
  0.00000000E+00  0.00000000E+00  1.00000000E+00  0.00000000E+00  0.00000000E+00
  0.00000000E+00  0.00000000E+00  1.00000000E+00  0.00000000E+00  0.00000000E+00
  0.00000000E+00  0.00000000E+00  1.00000000E+00  0.00000000E+00  0.00000000E+00
  0.00000000E+00  0.00000000E+00  0.00000000E+00  1.00000000E+00  1.00000000E+00
  0.00000000E+00  1.00000000E+00  0.00000000E+00  0.00000000E+00  0.00000000E+00
  0.00000000E+00  0.00000000E+00  0.00000000E+00  0.00000000E+00  0.00000000E+00
  0.00000000E+00  0.00000000E+00
MxBond                                     I                2
NBond                                      I   N=           5
           1           2           2           2           1
IBond                                      I   N=          10
           2           0           1           3           2           4
           3           5           4           0
RBond                                      R   N=          10
  1.00000000E+00  0.00000000E+00  1.00000000E+00  1.00000000E+00  1.00000000E+00
  1.00000000E+00  1.00000000E+00  2.00000000E+00  2.00000000E+00  0.00000000E+00
Virial Ratio                               R      2.002183364729592E+00
SCF Energy                                 R     -2.795058875097589E+02
MP2 Energy                                 R     -2.804550427614199E+02
Total Energy                               R     -2.804550427614199E+02
Post-SCF wavefunction norm                 R      1.583689810566219E+00
RMS Force                                  R      2.759109787032972E-03
RMS Density                                R      4.728267241700587E-09
NImag                                      I                0
Job Status                                 I                1
Nuclear derivative order                   I                2
External E-field                           R   N=          35
  0.00000000E+00  0.00000000E+00  0.00000000E+00  0.00000000E+00  0.00000000E+00
  0.00000000E+00  0.00000000E+00  0.00000000E+00  0.00000000E+00  0.00000000E+00
  0.00000000E+00  0.00000000E+00  0.00000000E+00  0.00000000E+00  0.00000000E+00
  0.00000000E+00  0.00000000E+00  0.00000000E+00  0.00000000E+00  0.00000000E+00
  0.00000000E+00  0.00000000E+00  0.00000000E+00  0.00000000E+00  0.00000000E+00
  0.00000000E+00  0.00000000E+00  0.00000000E+00  0.00000000E+00  0.00000000E+00
  0.00000000E+00  0.00000000E+00  0.00000000E+00  0.00000000E+00  0.00000000E+00
IOpCl                                      I                0
IROHF                                      I                0
Alpha Orbital Energies                     R   N=         207
 -2.07216092E+01 -2.06881665E+01 -2.06661152E+01 -1.58260257E+01 -1.64651164E+00
 -1.50492466E+00 -1.29370510E+00 -9.60603735E-01 -8.37846605E-01 -7.59712106E-01
 -7.41176623E-01 -6.35618567E-01 -6.19577685E-01 -6.17840682E-01 -5.05722552E-01
 -4.97945980E-01  3.53642945E-02  5.95506113E-02  9.49965955E-02  9.98774824E-02
  1.19687623E-01  1.22781075E-01  1.49890386E-01  1.52949402E-01  1.77370025E-01
  1.79913999E-01  1.89596126E-01  2.10966903E-01  2.16715241E-01  2.44290301E-01
  2.46182816E-01  2.69215621E-01  3.14999217E-01  3.18986006E-01  3.38141354E-01
  3.41677904E-01  3.46305718E-01  3.94266554E-01  4.51393709E-01  4.89646125E-01
  5.05500539E-01  5.17543346E-01  5.45433055E-01  5.60662392E-01  5.97559198E-01
  6.19927752E-01  6.39224569E-01  6.90688446E-01  7.16426046E-01  7.23221041E-01
  7.45028317E-01  7.66633523E-01  7.68267666E-01  7.95926557E-01  8.08683323E-01
  8.37854976E-01  8.42293115E-01  8.52504137E-01  8.85314626E-01  9.09055304E-01
  9.33037854E-01  9.47281829E-01  9.55231148E-01  1.01811594E+00  1.03526453E+00
  1.06742258E+00  1.07472231E+00  1.09931192E+00  1.14979089E+00  1.15671055E+00
  1.16991413E+00  1.22248387E+00  1.22987460E+00  1.24497372E+00  1.35094303E+00
  1.36155262E+00  1.36935219E+00  1.46946137E+00  1.48580826E+00  1.50287188E+00
  1.54720405E+00  1.59635794E+00  1.60219318E+00  1.60612706E+00  1.63375089E+00
  1.69599439E+00  1.74136058E+00  1.79966220E+00  1.82792259E+00  1.88806771E+00
  1.90001289E+00  1.93369054E+00  1.98078272E+00  1.99319801E+00  2.05320241E+00
  2.11991335E+00  2.13404625E+00  2.16774787E+00  2.19298689E+00  2.24598459E+00
  2.26330895E+00  2.29276837E+00  2.36030960E+00  2.37313782E+00  2.38411155E+00
  2.40625826E+00  2.43756788E+00  2.47126030E+00  2.48352148E+00  2.53299247E+00
  2.54064073E+00  2.55421897E+00  2.56196116E+00  2.62092153E+00  2.63437210E+00
  2.67663340E+00  2.68122213E+00  2.75526186E+00  2.80905676E+00  2.82616491E+00
  2.83919591E+00  2.92354050E+00  2.98618379E+00  3.04797805E+00  3.05776110E+00
  3.11032436E+00  3.12038234E+00  3.19114905E+00  3.21621856E+00  3.30918044E+00
  3.33226795E+00  3.35506940E+00  3.48506948E+00  3.67061186E+00  3.87124626E+00
  3.94638922E+00  4.19285011E+00  4.22766412E+00  4.23728204E+00  4.27967707E+00
  4.37642392E+00  4.49585000E+00  4.55498035E+00  4.56307262E+00  4.60199843E+00
  4.68611604E+00  4.80711935E+00  4.89529199E+00  4.91585446E+00  4.94411638E+00
  4.99947124E+00  5.00407406E+00  5.10503954E+00  5.14114222E+00  5.17503418E+00
  5.25522675E+00  5.25925503E+00  5.31938825E+00  5.35339888E+00  5.39224935E+00
  5.54042370E+00  5.64397031E+00  5.70998116E+00  5.89300139E+00  5.99325279E+00
  6.26179960E+00  6.29481574E+00  6.36013593E+00  6.37606018E+00  6.60068622E+00
  6.66146331E+00  6.66861761E+00  6.69988604E+00  6.72327580E+00  6.79172572E+00
  6.80463246E+00  6.85845856E+00  6.96864704E+00  7.01960238E+00  7.06620821E+00
  7.07960069E+00  7.14015583E+00  7.17466386E+00  7.19745271E+00  7.20626968E+00
  7.24760035E+00  7.24867274E+00  7.27400293E+00  7.35524930E+00  7.40177315E+00
  7.43109620E+00  7.44122507E+00  7.46224834E+00  7.56741915E+00  7.66133864E+00
  7.68631859E+00  7.79360163E+00  7.88758426E+00  7.96094527E+00  8.09274397E+00
  8.31662943E+00  8.50890719E+00  8.64905880E+00  1.36390396E+01  1.47306549E+01
  1.51419609E+01  1.58316372E+01
Alpha MO coefficients                      R   N=       42849
  6.18511939E-05  3.12003254E-05 -1.09541652E-03  9.06627631E-06 -5.03977934E-05
  4.05199628E-05  0.00000000E+00 -9.59798270E-05 -2.65972312E-04  0.00000000E+00
 -3.36690784E-05 -3.54262991E-04  0.00000000E+00  4.01246540E-05  0.00000000E+00
  0.00000000E+00 -2.24099724E-05  1.38335749E-05  2.33788329E-04  0.00000000E+00
  0.00000000E+00 -4.17635141E-05 -2.17464939E-04  2.86260691E-03 -9.53984498E-05
 -1.05565516E-04  3.45581572E-03  2.45214007E-03  9.94403922E-05 -5.48469466E-05
  0.00000000E+00 -7.06300418E-04  2.98552105E-04  0.00000000E+00 -1.88953339E-03
  1.20475367E-03  0.00000000E+00 -5.25709373E-04  2.96495367E-05  0.00000000E+00
  2.04738527E-05  0.00000000E+00  0.00000000E+00 -7.00050002E-06  4.45181482E-05
 -4.38292273E-04  0.00000000E+00  0.00000000E+00  3.94155282E-04 -6.76827099E-04
 -3.57245079E-04  0.00000000E+00  0.00000000E+00  4.96789114E-04 -7.79966761E-04
  0.00000000E+00  7.18770282E-05 -5.32001880E-05  0.00000000E+00  0.00000000E+00
 -2.18904553E-05  1.10315921E-04  0.00000000E+00  2.09595136E-04 -5.74916350E-05
  0.00000000E+00  0.00000000E+00 -1.42080291E-04  3.06432997E-04  9.76907457E-01
 -9.18421811E-03  4.33968133E-02  5.33878840E-04 -2.24097576E-03  4.27599647E-04
 -2.15649933E-03  0.00000000E+00 -3.01754303E-04  2.27263758E-03  0.00000000E+00
 -2.23973716E-03 -5.22200509E-04  0.00000000E+00 -1.91259499E-04  1.11635720E-04
  0.00000000E+00  9.39999819E-06  0.00000000E+00  0.00000000E+00 -7.56808884E-06
  3.56467027E-05  8.19879282E-04  0.00000000E+00  0.00000000E+00 -4.47063964E-04
 -1.52624448E-04 -1.40768221E-04  0.00000000E+00  0.00000000E+00 -5.90733453E-04
  3.50367280E-04  0.00000000E+00 -6.51551098E-06 -8.05483955E-05  0.00000000E+00
  0.00000000E+00 -7.96049504E-06  4.78860591E-05  0.00000000E+00  8.79787570E-05
  2.43169647E-06  0.00000000E+00  0.00000000E+00 -3.16688027E-04  3.80536458E-04
  1.03465810E-04  4.51381795E-04 -3.24054179E-04 -8.06307491E-04  4.37453756E-04
 -4.28321516E-05 -9.97638830E-05  0.00000000E+00  6.78997942E-04  1.10003060E-03
  0.00000000E+00 -7.75479617E-04 -5.87077581E-04  0.00000000E+00  2.08715770E-04
  2.23187030E-04  0.00000000E+00 -5.13359849E-05  0.00000000E+00  0.00000000E+00
  1.86435190E-05  9.31631940E-05 -4.20627946E-04  0.00000000E+00  0.00000000E+00
  9.41304950E-06  1.07350997E-03  2.17136959E-05  0.00000000E+00  0.00000000E+00
 -3.35097238E-04  4.18593525E-05  0.00000000E+00 -7.79519780E-05 -1.12750224E-04
  0.00000000E+00  0.00000000E+00 -9.94989488E-05  1.05877063E-04  0.00000000E+00
 -1.29273751E-04  3.84167144E-05  0.00000000E+00  0.00000000E+00 -2.02947273E-06
  5.05816072E-04 -6.82099438E-04  4.49516163E-05 -6.88491089E-05  2.44350630E-04
 -2.43474043E-04 -2.93367419E-05 -4.04431239E-05  0.00000000E+00  1.71403565E-04
  2.45629600E-04  0.00000000E+00  5.21054721E-04  3.17927064E-04  0.00000000E+00
 -2.29131103E-04 -7.48652896E-05  0.00000000E+00 -1.27308141E-05  0.00000000E+00
  0.00000000E+00  2.91998751E-06  1.57966391E-05 -1.44316415E-06  0.00000000E+00
  0.00000000E+00 -1.57467129E-04  8.01980857E-06 -1.34504570E-05  0.00000000E+00
  0.00000000E+00 -1.73547117E-04 -4.64175884E-05  0.00000000E+00 -6.50670576E-06
 -9.14852536E-06  0.00000000E+00  0.00000000E+00 -2.01928568E-05  1.00418114E-05
  0.00000000E+00  4.16450879E-05  6.21426399E-05  0.00000000E+00  0.00000000E+00
  1.51980851E-04 -1.04752461E-04  3.62571603E-05  7.17832351E-05 -6.42578142E-05
 -3.18897349E-05  3.11480602E-05  2.12600411E-05  0.00000000E+00  2.12862582E-04
  3.55103818E-05  0.00000000E+00  1.02686887E-04  1.43859983E-05  0.00000000E+00
  6.22670416E-06  0.00000000E+00  0.00000000E+00 -3.01657347E-06  2.49967359E-05
  8.89109166E-06  0.00000000E+00  0.00000000E+00 -7.86850008E-05  8.33940254E-05
 -2.50292114E-04  4.39090090E-05 -1.48251615E-05 -5.77182669E-04  1.41084304E-04
  8.98641121E-06  1.23024293E-05  0.00000000E+00 -1.31023411E-05 -4.00761495E-05
  0.00000000E+00  2.08591195E-04  1.43234190E-04  0.00000000E+00 -3.56822857E-05
  5.54143481E-05  0.00000000E+00 -3.43328930E-06  0.00000000E+00  0.00000000E+00
 -8.96814361E-06 -9.89750600E-06  3.00038894E-05  0.00000000E+00  0.00000000E+00
  6.53130609E-05  1.05821506E-04  6.96736896E-05  0.00000000E+00  0.00000000E+00
 -4.57286679E-05 -8.55316978E-05  0.00000000E+00  8.35346885E-06  8.43698858E-06
  0.00000000E+00  0.00000000E+00 -1.85777779E-06 -2.89166776E-05  0.00000000E+00
 -1.73895360E-05 -4.16127494E-05  0.00000000E+00  0.00000000E+00 -8.22790604E-06
 -1.28021274E-05  7.09726020E-04  2.21759251E-05 -1.98329090E-05  2.94944855E-04
 -4.10708718E-04  1.67235075E-05  2.73328063E-05  0.00000000E+00 -6.66617054E-05
 -1.53936149E-04  0.00000000E+00  1.68518414E-04 -2.27267850E-04  0.00000000E+00
 -1.58023977E-04  1.44489489E-04  0.00000000E+00 -4.16397833E-06  0.00000000E+00
  0.00000000E+00 -2.91409017E-05 -1.04289653E-05 -5.08974914E-05  0.00000000E+00
  0.00000000E+00  7.56384713E-05  1.23981361E-04 -6.47004445E-05  0.00000000E+00
  0.00000000E+00  2.11081344E-05  2.52826522E-05  0.00000000E+00  3.20525011E-06
  3.34506312E-06  0.00000000E+00  0.00000000E+00 -8.31881529E-06 -3.08677208E-06
  0.00000000E+00  3.55690222E-06 -2.49752776E-05  0.00000000E+00  0.00000000E+00
  1.00639030E-04 -1.50469274E-04  2.36216674E-04  1.35337823E-03 -1.46021292E-04
 -7.21489975E-04  9.31911543E-04  6.37380266E-05 -7.06652640E-05  0.00000000E+00
  5.79460704E-04 -2.08022175E-03  0.00000000E+00  9.86916638E-05  5.48104752E-04
  0.00000000E+00  1.94076634E-04 -3.06198385E-04  0.00000000E+00 -1.27333454E-04
  0.00000000E+00  0.00000000E+00 -2.02405458E-04 -1.59946093E-04 -4.60721107E-04
  0.00000000E+00  0.00000000E+00 -5.93742745E-04 -9.29568054E-04 -4.44813193E-05
  0.00000000E+00  0.00000000E+00  5.47232843E-05  1.31389179E-04  0.00000000E+00
  8.26750681E-06  3.72005882E-05  0.00000000E+00  0.00000000E+00 -2.45090453E-05
 -4.57011212E-06  0.00000000E+00 -1.38230844E-04  1.54352031E-04  0.00000000E+00
  0.00000000E+00 -3.17735206E-04 -4.49070726E-05  9.76644462E-01 -9.88145180E-03
  4.35785277E-02  3.71048151E-03 -9.15811463E-04 -4.49160948E-04  2.13061018E-03
  0.00000000E+00  5.23994701E-04 -2.50537268E-03  0.00000000E+00 -1.09243299E-04
  8.36608149E-04  0.00000000E+00  1.01998360E-04 -6.61628129E-05  0.00000000E+00
 -1.93758792E-04  0.00000000E+00  0.00000000E+00 -7.27313318E-05 -4.36361671E-05
  4.09172890E-04  0.00000000E+00  0.00000000E+00  8.54054616E-04  4.90750014E-04
 -1.98772958E-04  0.00000000E+00  0.00000000E+00 -1.57387205E-04 -3.77189637E-05
  0.00000000E+00 -6.47311685E-06  7.00986018E-05  0.00000000E+00  0.00000000E+00
 -2.67653198E-05  1.05045992E-05  0.00000000E+00 -8.54478264E-05  9.13314513E-05
  0.00000000E+00  0.00000000E+00 -1.76603608E-04  2.01268439E-04  3.66608507E-04
  1.99005417E-03  1.54009498E-03 -1.64927064E-05  5.68296016E-05  2.63684439E-04
  0.00000000E+00  3.61537404E-04  1.00352635E-03  0.00000000E+00 -1.86492119E-04
  2.33629797E-04  0.00000000E+00 -2.36523960E-05  0.00000000E+00  0.00000000E+00
  3.56852716E-05 -3.38693382E-05 -2.30433719E-04  0.00000000E+00  0.00000000E+00
 -3.36400699E-04  4.34112523E-04  9.76829509E-01 -9.19124086E-03  4.34742745E-02
  1.06692304E-04 -1.89668244E-03 -2.06476992E-03 -7.75642205E-04  0.00000000E+00
  2.10342782E-03  7.10387290E-04  0.00000000E+00 -3.72703740E-04  6.18037454E-04
  0.00000000E+00  2.24791991E-04 -3.10051620E-04  0.00000000E+00  2.86649813E-05
  0.00000000E+00  0.00000000E+00 -7.15436703E-05  6.85790730E-05  7.64416443E-04
  0.00000000E+00  0.00000000E+00 -2.01968708E-04  3.63828933E-04 -2.46777599E-04
  0.00000000E+00  0.00000000E+00  3.18409447E-04  2.09227527E-08  0.00000000E+00
 -8.10174578E-05  3.48226745E-06  0.00000000E+00  0.00000000E+00  1.34256958E-05