 Entering Gaussian System, Link 0=g16
 Input=hoono_r4_1p182620.gjf
 Output=hoono_r4_1p182620.log
 Initial command:
 /sw/contrib/gaussian/g16/B01/g16/l1.exe "/scr/Gau-2318.inp" -scrdir="/scr/"
 Entering Link 1 = /sw/contrib/gaussian/g16/B01/g16/l1.exe PID=      2319.
  
 Copyright (c) 1988-2017, Gaussian, Inc.  All Rights Reserved.
  
 This is part of the Gaussian(R) 16 program.  It is based on
 the Gaussian(R) 09 system (copyright 2009, Gaussian, Inc.),
 the Gaussian(R) 03 system (copyright 2003, Gaussian, Inc.),
 the Gaussian(R) 98 system (copyright 1998, Gaussian, Inc.),
 the Gaussian(R) 94 system (copyright 1995, Gaussian, Inc.),
 the Gaussian 92(TM) system (copyright 1992, Gaussian, Inc.),
 the Gaussian 90(TM) system (copyright 1990, Gaussian, Inc.),
 the Gaussian 88(TM) system (copyright 1988, Gaussian, Inc.),
 the Gaussian 86(TM) system (copyright 1986, Carnegie Mellon
 University), and the Gaussian 82(TM) system (copyright 1983,
 Carnegie Mellon University). Gaussian is a federally registered
 trademark of Gaussian, Inc.
  
 This software contains proprietary and confidential information,
 including trade secrets, belonging to Gaussian, Inc.
  
 This software is provided under written license and may be
 used, copied, transmitted, or stored only in accord with that
 written license.
  
 The following legend is applicable only to US Government
 contracts under FAR:
  
                    RESTRICTED RIGHTS LEGEND
  
 Use, reproduction and disclosure by the US Government is
 subject to restrictions as set forth in subparagraphs (a)
 and (c) of the Commercial Computer Software - Restricted
 Rights clause in FAR 52.227-19.
  
 Gaussian, Inc.
 340 Quinnipiac St., Bldg. 40, Wallingford CT 06492
  
  
 ---------------------------------------------------------------
 Warning -- This program may not be used in any manner that
 competes with the business of Gaussian, Inc. or will provide
 assistance to any competitor of Gaussian, Inc.  The licensee
 of this program is prohibited from giving any competitor of
 Gaussian, Inc. access to this program.  By using this program,
 the user acknowledges that Gaussian, Inc. is engaged in the
 business of creating and licensing software in the field of
 computational chemistry and represents and warrants to the
 licensee that it is not a competitor of Gaussian, Inc. and that
 it will not use this program in any manner prohibited above.
 ---------------------------------------------------------------
  

 Cite this work as:
 Gaussian 16, Revision B.01,
 M. J. Frisch, G. W. Trucks, H. B. Schlegel, G. E. Scuseria, 
 M. A. Robb, J. R. Cheeseman, G. Scalmani, V. Barone, 
 G. A. Petersson, H. Nakatsuji, X. Li, M. Caricato, A. V. Marenich, 
 J. Bloino, B. G. Janesko, R. Gomperts, B. Mennucci, H. P. Hratchian, 
 J. V. Ortiz, A. F. Izmaylov, J. L. Sonnenberg, D. Williams-Young, 
 F. Ding, F. Lipparini, F. Egidi, J. Goings, B. Peng, A. Petrone, 
 T. Henderson, D. Ranasinghe, V. G. Zakrzewski, J. Gao, N. Rega, 
 G. Zheng, W. Liang, M. Hada, M. Ehara, K. Toyota, R. Fukuda, 
 J. Hasegawa, M. Ishida, T. Nakajima, Y. Honda, O. Kitao, H. Nakai, 
 T. Vreven, K. Throssell, J. A. Montgomery, Jr., J. E. Peralta, 
 F. Ogliaro, M. J. Bearpark, J. J. Heyd, E. N. Brothers, K. N. Kudin, 
 V. N. Staroverov, T. A. Keith, R. Kobayashi, J. Normand, 
 K. Raghavachari, A. P. Rendell, J. C. Burant, S. S. Iyengar, 
 J. Tomasi, M. Cossi, J. M. Millam, M. Klene, C. Adamo, R. Cammi, 
 J. W. Ochterski, R. L. Martin, K. Morokuma, O. Farkas, 
 J. B. Foresman, and D. J. Fox, Gaussian, Inc., Wallingford CT, 2016.
 
 ******************************************
 Gaussian 16:  ES64L-G16RevB.01 20-Dec-2017
                21-Feb-2022 
 ******************************************
 %nproc=28
 Will use up to   28 processors via shared memory.
 %mem=120GB
 %chk=hoono_r4_1p182620.chk
 ---------------------------------------
 #p freq mp2/aug-cc-pvtz density=current
 ---------------------------------------
 1/10=4,30=1,38=1/1,3;
 2/12=2,17=6,18=5,40=1/2;
 3/5=16,6=1,7=10,11=9,25=1,30=1,71=2,140=1/1,2,3;
 4//1;
 5/5=2,38=5,98=1/2;
 8/6=3,8=1,10=1,19=11,30=-1/1;
 9/15=3,16=-3/6;
 11/6=1,8=1,15=11,17=12,24=-1,27=1,28=-2,29=300,32=6,42=3/1,2,10;
 10/6=2,21=1/2;
 8/6=4,8=1,10=1,19=11,30=-1/11,4;
 10/5=1,20=4/2;
 11/12=2,14=11,16=1,17=2,28=-2,42=3,76=2/2,10,12;
 6/7=2,8=2,9=2,10=2,22=-1/1;
 7/8=1,10=1,12=2,25=1,44=2/1,2,3,16;
 1/10=4,30=1/3;
 99//99;
 Leave Link    1 at Mon Feb 21 20:25:20 2022, MaxMem= 16106127360 cpu:               2.4 elap:               0.1
 (Enter /sw/contrib/gaussian/g16/B01/g16/l101.exe)
 -----
 title
 -----
 Symbolic Z-matrix:
 Charge =  0 Multiplicity = 1
 H
 O                    1    r1
 O                    2    r2       1    a1
 N                    3    r3       2    a2       1    d1       0
 O                    4    r4       3    a3       2    d2       0
       Variables:
  r1                    0.96898                  
  r2                    1.45492                  
  r3                    1.45878                  
  r4                    1.18262                  
  a1                   97.59495                  
  a2                  102.29752                  
  a3                  109.06955                  
  d1                  180.                       
  d2                  180.                       
 
 ITRead=  0  0  0  0  0
 MicOpt= -1 -1 -1 -1 -1
 NAtoms=      5 NQM=        5 NQMF=       0 NMMI=      0 NMMIF=      0
                NMic=       0 NMicF=      0.
                    Isotopes and Nuclear Properties:
 (Nuclear quadrupole moments (NQMom) in fm**2, nuclear magnetic moments (NMagM)
  in nuclear magnetons)

  Atom         1           2           3           4           5
 IAtWgt=           1          16          16          14          16
 AtmWgt=   1.0078250  15.9949146  15.9949146  14.0030740  15.9949146
 NucSpn=           1           0           0           2           0
 AtZEff=  -0.0000000  -0.0000000  -0.0000000  -0.0000000  -0.0000000
 NQMom=    0.0000000   0.0000000   0.0000000   2.0440000   0.0000000
 NMagM=    2.7928460   0.0000000   0.0000000   0.4037610   0.0000000
 AtZNuc=   1.0000000   8.0000000   8.0000000   7.0000000   8.0000000
 Leave Link  101 at Mon Feb 21 20:25:20 2022, MaxMem= 16106127360 cpu:               2.8 elap:               0.1
 (Enter /sw/contrib/gaussian/g16/B01/g16/l103.exe)

 GradGradGradGradGradGradGradGradGradGradGradGradGradGradGradGradGradGrad
 Berny optimization.
 Initialization pass.
                       ----------------------------
                       !    Initial Parameters    !
                       ! (Angstroms and Degrees)  !
 ----------------------                            ----------------------
 !      Name          Value   Derivative information (Atomic Units)     !
 ------------------------------------------------------------------------
 !       r1          0.969    calculate D2E/DX2 analytically            !
 !       r2          1.4549   calculate D2E/DX2 analytically            !
 !       r3          1.4588   calculate D2E/DX2 analytically            !
 !       r4          1.1826   calculate D2E/DX2 analytically            !
 !       a1         97.5949   calculate D2E/DX2 analytically            !
 !       a2        102.2975   calculate D2E/DX2 analytically            !
 !       a3        109.0696   calculate D2E/DX2 analytically            !
 !       d1        180.0      calculate D2E/DX2 analytically            !
 !       d2        180.0      calculate D2E/DX2 analytically            !
 ------------------------------------------------------------------------
 Trust Radius=3.00D-01 FncErr=1.00D-07 GrdErr=1.00D-07 EigMax=2.50D+02 EigMin=1.00D-04
 Number of steps in this run=      2 maximum allowed number of steps=      2.
 GradGradGradGradGradGradGradGradGradGradGradGradGradGradGradGradGradGrad

 Leave Link  103 at Mon Feb 21 20:25:21 2022, MaxMem= 16106127360 cpu:               1.0 elap:               0.1
 (Enter /sw/contrib/gaussian/g16/B01/g16/l202.exe)
                          Input orientation:                          
 ---------------------------------------------------------------------
 Center     Atomic      Atomic             Coordinates (Angstroms)
 Number     Number       Type             X           Y           Z
 ---------------------------------------------------------------------
      1          1           0        0.000000    0.000000    0.000000
      2          8           0        0.000000    0.000000    0.968976
      3          8           0        1.442156    0.000000    1.161271
      4          7           0        1.561752    0.000000    2.615144
      5          8           0        2.707387    0.000000    2.908590
 ---------------------------------------------------------------------
                    Distance matrix (angstroms):
                    1          2          3          4          5
     1  H    0.000000
     2  O    0.968976   0.000000
     3  O    1.851584   1.454919   0.000000
     4  N    3.045989   2.269127   1.458784   0.000000
     5  O    3.973643   3.330472   2.157298   1.182620   0.000000
 Stoichiometry    HNO3
 Framework group  CS[SG(HNO3)]
 Deg. of freedom     7
 Full point group                 CS      NOp   2
 Largest Abelian subgroup         CS      NOp   2
 Largest concise Abelian subgroup C1      NOp   1
                         Standard orientation:                         
 ---------------------------------------------------------------------
 Center     Atomic      Atomic             Coordinates (Angstroms)
 Number     Number       Type             X           Y           Z
 ---------------------------------------------------------------------
      1          1           0        1.544672    1.694423    0.000000
      2          8           0        1.453832    0.729715   -0.000000
      3          8           0        0.000000    0.673467    0.000000
      4          7           0       -0.255368   -0.762791   -0.000000
      5          8           0       -1.423468   -0.947542   -0.000000
 ---------------------------------------------------------------------
 Rotational constants (GHZ):          54.8743033           4.9832020           4.5683451
 Leave Link  202 at Mon Feb 21 20:25:21 2022, MaxMem= 16106127360 cpu:               0.3 elap:               0.0
 (Enter /sw/contrib/gaussian/g16/B01/g16/l301.exe)
 Standard basis: Aug-CC-pVTZ (5D, 7F)
 Ernie: Thresh=  0.10000D-02 Tol=  0.10000D-05 Strict=F.
 Ernie:  12 primitive shells out of 131 were deleted.
 There are   166 symmetry adapted cartesian basis functions of A'  symmetry.
 There are    79 symmetry adapted cartesian basis functions of A"  symmetry.
 There are   136 symmetry adapted basis functions of A'  symmetry.
 There are    71 symmetry adapted basis functions of A"  symmetry.
   207 basis functions,   315 primitive gaussians,   245 cartesian basis functions
    16 alpha electrons       16 beta electrons
       nuclear repulsion energy       116.5141206514 Hartrees.
 IExCor=    0 DFT=F Ex=HF Corr=None ExCW=0 ScaHFX=  1.000000
 ScaDFX=  1.000000  1.000000  1.000000  1.000000 ScalE2=  1.000000  1.000000
 IRadAn=      5 IRanWt=     -1 IRanGd=            0 ICorTp=0 IEmpDi=  4
 NAtoms=    5 NActive=    5 NUniq=    5 SFac= 1.00D+00 NAtFMM=   60 NAOKFM=F Big=F
 Integral buffers will be    131072 words long.
 Raffenetti 1 integral format.
 Two-electron integral symmetry is turned on.
 Leave Link  301 at Mon Feb 21 20:25:21 2022, MaxMem= 16106127360 cpu:               2.6 elap:               0.1
 (Enter /sw/contrib/gaussian/g16/B01/g16/l302.exe)
 NPDir=0 NMtPBC=     1 NCelOv=     1 NCel=       1 NClECP=     1 NCelD=      1
         NCelK=      1 NCelE2=     1 NClLst=     1 CellRange=     0.0.
 One-electron integrals computed using PRISM.
 One-electron integral symmetry used in STVInt
 NBasis=   207 RedAO= T EigKep=  1.84D-04  NBF=   136    71
 NBsUse=   207 1.00D-06 EigRej= -1.00D+00 NBFU=   136    71
 Leave Link  302 at Mon Feb 21 20:25:21 2022, MaxMem= 16106127360 cpu:               4.5 elap:               0.2
 (Enter /sw/contrib/gaussian/g16/B01/g16/l303.exe)
 DipDrv:  MaxL=1.
 Leave Link  303 at Mon Feb 21 20:25:21 2022, MaxMem= 16106127360 cpu:               0.9 elap:               0.1
 (Enter /sw/contrib/gaussian/g16/B01/g16/l401.exe)
 ExpMin= 2.53D-02 ExpMax= 1.53D+04 ExpMxC= 5.22D+02 IAcc=3 IRadAn=         5 AccDes= 0.00D+00
 Harris functional with IExCor=  205 and IRadAn=       5 diagonalized for initial guess.
 HarFok:  IExCor=  205 AccDes= 0.00D+00 IRadAn=         5 IDoV= 1 UseB2=F ITyADJ=14
 ICtDFT=  3500011 ScaDFX=  1.000000  1.000000  1.000000  1.000000
 FoFCou: FMM=F IPFlag=           0 FMFlag=      100000 FMFlg1=           0
         NFxFlg=           0 DoJE=T BraDBF=F KetDBF=T FulRan=T
         wScrn=  0.000000 ICntrl=       500 IOpCl=  0 I1Cent=   200000004 NGrid=           0
         NMat0=    1 NMatS0=      1 NMatT0=    0 NMatD0=    1 NMtDS0=    0 NMtDT0=    0
 Petite list used in FoFCou.
 Harris En= -279.628700044074    
 JPrj=0 DoOrth=F DoCkMO=F.
 Initial guess orbital symmetries:
       Occupied  (A') (A') (A') (A') (A') (A') (A') (A') (A') (A')
                 (A") (A') (A') (A") (A") (A')
       Virtual   (A") (A') (A') (A') (A') (A') (A") (A') (A') (A')
                 (A") (A') (A") (A') (A') (A") (A') (A') (A") (A')
                 (A') (A') (A') (A') (A') (A") (A') (A") (A') (A')
                 (A") (A') (A") (A') (A') (A") (A') (A") (A') (A')
                 (A") (A') (A") (A') (A") (A') (A') (A') (A") (A")
                 (A') (A') (A') (A') (A") (A') (A") (A') (A") (A')
                 (A') (A') (A") (A') (A') (A") (A') (A") (A') (A')
                 (A") (A') (A') (A") (A") (A') (A') (A") (A') (A')
                 (A') (A") (A') (A") (A') (A") (A') (A") (A') (A')
                 (A') (A") (A') (A") (A') (A") (A") (A') (A') (A')
                 (A") (A') (A") (A') (A') (A') (A') (A") (A") (A')
                 (A") (A') (A') (A') (A") (A') (A') (A') (A") (A')
                 (A") (A') (A') (A") (A") (A') (A") (A') (A") (A')
                 (A') (A') (A') (A") (A") (A') (A") (A') (A') (A')
                 (A') (A") (A") (A') (A') (A") (A') (A') (A') (A')
                 (A") (A') (A') (A") (A') (A") (A') (A") (A') (A")
                 (A') (A") (A') (A") (A') (A") (A") (A") (A') (A')
                 (A") (A') (A") (A') (A") (A') (A") (A") (A') (A')
                 (A') (A') (A') (A') (A') (A') (A') (A') (A') (A')
                 (A')
 The electronic state of the initial guess is 1-A'.
 Leave Link  401 at Mon Feb 21 20:25:21 2022, MaxMem= 16106127360 cpu:               7.0 elap:               0.3
 (Enter /sw/contrib/gaussian/g16/B01/g16/l502.exe)
 Keep R1 ints in memory in symmetry-blocked form, NReq=348887737.
 FoFCou: FMM=F IPFlag=           0 FMFlag=           0 FMFlg1=           0
         NFxFlg=           0 DoJE=F BraDBF=F KetDBF=F FulRan=T
         wScrn=  0.000000 ICntrl=       600 IOpCl=  0 I1Cent=           0 NGrid=           0
         NMat0=    1 NMatS0=  21528 NMatT0=    0 NMatD0=    1 NMtDS0=    0 NMtDT0=    0
 Petite list used in FoFCou.
 Closed shell SCF:
 Using DIIS extrapolation, IDIIS=  1040.
 NGot= 16106127360 LenX= 15988850015 LenY= 15988789549
 Requested convergence on RMS density matrix=1.00D-08 within 128 cycles.
 Requested convergence on MAX density matrix=1.00D-06.
 Requested convergence on             energy=1.00D-06.
 No special actions if energy rises.

 Cycle   1  Pass 1  IDiag  1:
 E= -279.365752488500    
 DIIS: error= 2.66D-02 at cycle   1 NSaved=   1.
 NSaved= 1 IEnMin= 1 EnMin= -279.365752488500     IErMin= 1 ErrMin= 2.66D-02
 ErrMax= 2.66D-02  0.00D+00 EMaxC= 1.00D-01 BMatC= 4.41D-01 BMatP= 4.41D-01
 IDIUse=3 WtCom= 7.34D-01 WtEn= 2.66D-01
 Coeff-Com:  0.100D+01
 Coeff-En:   0.100D+01
 Coeff:      0.100D+01
 Gap=     0.509 Goal=   None    Shift=    0.000
 GapD=    0.509 DampG=2.000 DampE=0.500 DampFc=1.0000 IDamp=-1.
 RMSDP=1.64D-03 MaxDP=9.98D-02              OVMax= 1.18D-01

 Cycle   2  Pass 1  IDiag  1:
 E= -279.446527546376     Delta-E=       -0.080775057875 Rises=F Damp=F
 DIIS: error= 1.83D-02 at cycle   2 NSaved=   2.
 NSaved= 2 IEnMin= 2 EnMin= -279.446527546376     IErMin= 2 ErrMin= 1.83D-02
 ErrMax= 1.83D-02  0.00D+00 EMaxC= 1.00D-01 BMatC= 7.69D-02 BMatP= 4.41D-01
 IDIUse=3 WtCom= 8.17D-01 WtEn= 1.83D-01
 Coeff-Com:  0.204D+00 0.796D+00
 Coeff-En:   0.328D-01 0.967D+00
 Coeff:      0.173D+00 0.827D+00
 Gap=     0.533 Goal=   None    Shift=    0.000
 RMSDP=9.20D-04 MaxDP=3.80D-02 DE=-8.08D-02 OVMax= 7.05D-02

 Cycle   3  Pass 1  IDiag  1:
 E= -279.478527748552     Delta-E=       -0.032000202176 Rises=F Damp=F
 DIIS: error= 1.05D-02 at cycle   3 NSaved=   3.
 NSaved= 3 IEnMin= 3 EnMin= -279.478527748552     IErMin= 3 ErrMin= 1.05D-02
 ErrMax= 1.05D-02  0.00D+00 EMaxC= 1.00D-01 BMatC= 2.96D-02 BMatP= 7.69D-02
 IDIUse=3 WtCom= 8.95D-01 WtEn= 1.05D-01
 Coeff-Com: -0.333D-01 0.373D+00 0.660D+00
 Coeff-En:   0.000D+00 0.234D+00 0.766D+00
 Coeff:     -0.298D-01 0.359D+00 0.671D+00
 Gap=     0.512 Goal=   None    Shift=    0.000
 RMSDP=3.84D-04 MaxDP=1.60D-02 DE=-3.20D-02 OVMax= 4.01D-02

 Cycle   4  Pass 1  IDiag  1:
 E= -279.498317854533     Delta-E=       -0.019790105981 Rises=F Damp=F
 DIIS: error= 1.32D-03 at cycle   4 NSaved=   4.
 NSaved= 4 IEnMin= 4 EnMin= -279.498317854533     IErMin= 4 ErrMin= 1.32D-03
 ErrMax= 1.32D-03  0.00D+00 EMaxC= 1.00D-01 BMatC= 5.12D-04 BMatP= 2.96D-02
 IDIUse=3 WtCom= 9.87D-01 WtEn= 1.32D-02
 Coeff-Com: -0.117D-01 0.545D-01 0.157D+00 0.800D+00
 Coeff-En:   0.000D+00 0.000D+00 0.000D+00 0.100D+01
 Coeff:     -0.116D-01 0.538D-01 0.155D+00 0.803D+00
 Gap=     0.504 Goal=   None    Shift=    0.000
 RMSDP=9.21D-05 MaxDP=2.79D-03 DE=-1.98D-02 OVMax= 1.14D-02

 Cycle   5  Pass 1  IDiag  1:
 E= -279.499028419542     Delta-E=       -0.000710565009 Rises=F Damp=F
 DIIS: error= 7.50D-04 at cycle   5 NSaved=   5.
 NSaved= 5 IEnMin= 5 EnMin= -279.499028419542     IErMin= 5 ErrMin= 7.50D-04
 ErrMax= 7.50D-04  0.00D+00 EMaxC= 1.00D-01 BMatC= 9.04D-05 BMatP= 5.12D-04
 IDIUse=3 WtCom= 9.93D-01 WtEn= 7.50D-03
 Coeff-Com:  0.628D-02-0.721D-01-0.120D+00 0.161D-01 0.117D+01
 Coeff-En:   0.000D+00 0.000D+00 0.000D+00 0.000D+00 0.100D+01
 Coeff:      0.624D-02-0.715D-01-0.119D+00 0.160D-01 0.117D+01
 Gap=     0.504 Goal=   None    Shift=    0.000
 RMSDP=7.84D-05 MaxDP=2.17D-03 DE=-7.11D-04 OVMax= 1.15D-02

 Cycle   6  Pass 1  IDiag  1:
 E= -279.499360411344     Delta-E=       -0.000331991801 Rises=F Damp=F
 DIIS: error= 2.96D-04 at cycle   6 NSaved=   6.
 NSaved= 6 IEnMin= 6 EnMin= -279.499360411344     IErMin= 6 ErrMin= 2.96D-04
 ErrMax= 2.96D-04  0.00D+00 EMaxC= 1.00D-01 BMatC= 1.74D-05 BMatP= 9.04D-05
 IDIUse=3 WtCom= 9.97D-01 WtEn= 2.96D-03
 Coeff-Com:  0.370D-03 0.440D-02 0.968D-02-0.132D+00-0.269D+00 0.139D+01
 Coeff-En:   0.000D+00 0.000D+00 0.000D+00 0.000D+00 0.000D+00 0.100D+01
 Coeff:      0.369D-03 0.438D-02 0.965D-02-0.132D+00-0.269D+00 0.139D+01
 Gap=     0.504 Goal=   None    Shift=    0.000
 RMSDP=4.70D-05 MaxDP=1.29D-03 DE=-3.32D-04 OVMax= 5.84D-03

 Cycle   7  Pass 1  IDiag  1:
 E= -279.499437599527     Delta-E=       -0.000077188183 Rises=F Damp=F
 DIIS: error= 1.20D-04 at cycle   7 NSaved=   7.
 NSaved= 7 IEnMin= 7 EnMin= -279.499437599527     IErMin= 7 ErrMin= 1.20D-04
 ErrMax= 1.20D-04  0.00D+00 EMaxC= 1.00D-01 BMatC= 4.10D-06 BMatP= 1.74D-05
 IDIUse=3 WtCom= 9.99D-01 WtEn= 1.20D-03
 Coeff-Com: -0.973D-03 0.131D-01 0.263D-01-0.168D-01-0.269D+00 0.317D+00
 Coeff-Com:  0.930D+00
 Coeff-En:   0.000D+00 0.000D+00 0.000D+00 0.000D+00 0.000D+00 0.000D+00
 Coeff-En:   0.100D+01
 Coeff:     -0.972D-03 0.131D-01 0.262D-01-0.168D-01-0.268D+00 0.317D+00
 Coeff:      0.930D+00
 Gap=     0.504 Goal=   None    Shift=    0.000
 RMSDP=1.33D-05 MaxDP=3.84D-04 DE=-7.72D-05 OVMax= 1.59D-03

 Cycle   8  Pass 1  IDiag  1:
 E= -279.499446304483     Delta-E=       -0.000008704956 Rises=F Damp=F
 DIIS: error= 6.18D-05 at cycle   8 NSaved=   8.
 NSaved= 8 IEnMin= 8 EnMin= -279.499446304483     IErMin= 8 ErrMin= 6.18D-05
 ErrMax= 6.18D-05  0.00D+00 EMaxC= 1.00D-01 BMatC= 6.61D-07 BMatP= 4.10D-06
 IDIUse=1 WtCom= 1.00D+00 WtEn= 0.00D+00
 Coeff-Com: -0.445D-03 0.320D-02 0.732D-02 0.278D-01-0.367D-01-0.211D+00
 Coeff-Com:  0.243D+00 0.967D+00
 Coeff:     -0.445D-03 0.320D-02 0.732D-02 0.278D-01-0.367D-01-0.211D+00
 Coeff:      0.243D+00 0.967D+00
 Gap=     0.504 Goal=   None    Shift=    0.000
 RMSDP=6.68D-06 MaxDP=2.02D-04 DE=-8.70D-06 OVMax= 7.16D-04

 Cycle   9  Pass 1  IDiag  1:
 E= -279.499448087706     Delta-E=       -0.000001783223 Rises=F Damp=F
 DIIS: error= 1.76D-05 at cycle   9 NSaved=   9.
 NSaved= 9 IEnMin= 9 EnMin= -279.499448087706     IErMin= 9 ErrMin= 1.76D-05
 ErrMax= 1.76D-05  0.00D+00 EMaxC= 1.00D-01 BMatC= 8.21D-08 BMatP= 6.61D-07
 IDIUse=1 WtCom= 1.00D+00 WtEn= 0.00D+00
 Coeff-Com:  0.137D-03-0.181D-02-0.328D-02-0.284D-02 0.359D-01 0.426D-02
 Coeff-Com: -0.198D+00-0.857D-01 0.125D+01
 Coeff:      0.137D-03-0.181D-02-0.328D-02-0.284D-02 0.359D-01 0.426D-02
 Coeff:     -0.198D+00-0.857D-01 0.125D+01
 Gap=     0.504 Goal=   None    Shift=    0.000
 RMSDP=2.11D-06 MaxDP=7.43D-05 DE=-1.78D-06 OVMax= 1.99D-04

 Cycle  10  Pass 1  IDiag  1:
 E= -279.499448278826     Delta-E=       -0.000000191120 Rises=F Damp=F
 DIIS: error= 4.42D-06 at cycle  10 NSaved=  10.
 NSaved=10 IEnMin=10 EnMin= -279.499448278826     IErMin=10 ErrMin= 4.42D-06
 ErrMax= 4.42D-06  0.00D+00 EMaxC= 1.00D-01 BMatC= 6.56D-09 BMatP= 8.21D-08
 IDIUse=1 WtCom= 1.00D+00 WtEn= 0.00D+00
 Coeff-Com:  0.265D-04-0.175D-03-0.188D-03-0.275D-02 0.266D-03 0.206D-01
 Coeff-Com: -0.119D-01-0.668D-01-0.120D+00 0.118D+01
 Coeff:      0.265D-04-0.175D-03-0.188D-03-0.275D-02 0.266D-03 0.206D-01
 Coeff:     -0.119D-01-0.668D-01-0.120D+00 0.118D+01
 Gap=     0.504 Goal=   None    Shift=    0.000
 RMSDP=5.56D-07 MaxDP=2.35D-05 DE=-1.91D-07 OVMax= 5.00D-05

 Cycle  11  Pass 1  IDiag  1:
 E= -279.499448294487     Delta-E=       -0.000000015661 Rises=F Damp=F
 DIIS: error= 2.29D-06 at cycle  11 NSaved=  11.
 NSaved=11 IEnMin=11 EnMin= -279.499448294487     IErMin=11 ErrMin= 2.29D-06
 ErrMax= 2.29D-06  0.00D+00 EMaxC= 1.00D-01 BMatC= 8.12D-10 BMatP= 6.56D-09
 IDIUse=1 WtCom= 1.00D+00 WtEn= 0.00D+00
 Coeff-Com: -0.235D-04 0.258D-03 0.522D-03 0.631D-03-0.449D-02-0.444D-02
 Coeff-Com:  0.267D-01 0.285D-01-0.145D+00-0.179D+00 0.128D+01
 Coeff:     -0.235D-04 0.258D-03 0.522D-03 0.631D-03-0.449D-02-0.444D-02
 Coeff:      0.267D-01 0.285D-01-0.145D+00-0.179D+00 0.128D+01
 Gap=     0.504 Goal=   None    Shift=    0.000
 RMSDP=2.03D-07 MaxDP=7.43D-06 DE=-1.57D-08 OVMax= 1.96D-05

 Cycle  12  Pass 1  IDiag  1:
 E= -279.499448296807     Delta-E=       -0.000000002320 Rises=F Damp=F
 DIIS: error= 6.45D-07 at cycle  12 NSaved=  12.
 NSaved=12 IEnMin=12 EnMin= -279.499448296807     IErMin=12 ErrMin= 6.45D-07
 ErrMax= 6.45D-07  0.00D+00 EMaxC= 1.00D-01 BMatC= 8.84D-11 BMatP= 8.12D-10
 IDIUse=1 WtCom= 1.00D+00 WtEn= 0.00D+00
 Coeff-Com:  0.162D-05-0.340D-04-0.731D-04 0.205D-03 0.121D-02-0.260D-02
 Coeff-Com: -0.457D-02 0.631D-02 0.443D-01-0.129D+00-0.242D+00 0.133D+01
 Coeff:      0.162D-05-0.340D-04-0.731D-04 0.205D-03 0.121D-02-0.260D-02
 Coeff:     -0.457D-02 0.631D-02 0.443D-01-0.129D+00-0.242D+00 0.133D+01
 Gap=     0.504 Goal=   None    Shift=    0.000
 RMSDP=8.08D-08 MaxDP=3.16D-06 DE=-2.32D-09 OVMax= 7.54D-06

 Cycle  13  Pass 1  IDiag  1:
 E= -279.499448297093     Delta-E=       -0.000000000286 Rises=F Damp=F
 DIIS: error= 1.92D-07 at cycle  13 NSaved=  13.
 NSaved=13 IEnMin=13 EnMin= -279.499448297093     IErMin=13 ErrMin= 1.92D-07
 ErrMax= 1.92D-07  0.00D+00 EMaxC= 1.00D-01 BMatC= 4.94D-12 BMatP= 8.84D-11
 IDIUse=1 WtCom= 1.00D+00 WtEn= 0.00D+00
 Coeff-Com:  0.138D-05-0.146D-04-0.237D-04-0.101D-03 0.125D-03 0.862D-03
 Coeff-Com: -0.122D-02-0.317D-02 0.875D-03 0.437D-01-0.490D-01-0.305D+00
 Coeff-Com:  0.131D+01
 Coeff:      0.138D-05-0.146D-04-0.237D-04-0.101D-03 0.125D-03 0.862D-03
 Coeff:     -0.122D-02-0.317D-02 0.875D-03 0.437D-01-0.490D-01-0.305D+00
 Coeff:      0.131D+01
 Gap=     0.504 Goal=   None    Shift=    0.000
 RMSDP=2.11D-08 MaxDP=6.25D-07 DE=-2.86D-10 OVMax= 1.68D-06

 Cycle  14  Pass 1  IDiag  1:
 E= -279.499448297108     Delta-E=       -0.000000000016 Rises=F Damp=F
 DIIS: error= 2.69D-08 at cycle  14 NSaved=  14.
 NSaved=14 IEnMin=14 EnMin= -279.499448297108     IErMin=14 ErrMin= 2.69D-08
 ErrMax= 2.69D-08  0.00D+00 EMaxC= 1.00D-01 BMatC= 2.41D-13 BMatP= 4.94D-12
 IDIUse=1 WtCom= 1.00D+00 WtEn= 0.00D+00
 Coeff-Com: -0.202D-06 0.325D-05 0.582D-05 0.461D-05-0.867D-04 0.512D-04
 Coeff-Com:  0.329D-03 0.182D-03-0.254D-02 0.195D-02 0.161D-01-0.263D-01
 Coeff-Com: -0.194D+00 0.120D+01
 Coeff:     -0.202D-06 0.325D-05 0.582D-05 0.461D-05-0.867D-04 0.512D-04
 Coeff:      0.329D-03 0.182D-03-0.254D-02 0.195D-02 0.161D-01-0.263D-01
 Coeff:     -0.194D+00 0.120D+01
 Gap=     0.504 Goal=   None    Shift=    0.000
 RMSDP=4.12D-09 MaxDP=1.00D-07 DE=-1.58D-11 OVMax= 3.74D-07

 SCF Done:  E(RHF) =  -279.499448297     A.U. after   14 cycles
            NFock= 14  Conv=0.41D-08     -V/T= 2.0025
 KE= 2.787887126997D+02 PE=-8.943098526741D+02 EE= 2.195075710259D+02
 Leave Link  502 at Mon Feb 21 20:25:25 2022, MaxMem= 16106127360 cpu:              54.4 elap:               3.5
 (Enter /sw/contrib/gaussian/g16/B01/g16/l801.exe)
 ExpMin= 2.53D-02 ExpMax= 1.53D+04 ExpMxC= 5.22D+02 IAcc=3 IRadAn=         5 AccDes= 0.00D+00
 HarFok:  IExCor=  205 AccDes= 0.00D+00 IRadAn=         5 IDoV=-2 UseB2=F ITyADJ=14
 ICtDFT= 12500011 ScaDFX=  1.000000  1.000000  1.000000  1.000000
 Largest valence mixing into a core orbital is  2.09D-04
 Largest core mixing into a valence orbital is  3.67D-05
 Range of M.O.s used for correlation:     5   207
 NBasis=   207 NAE=    16 NBE=    16 NFC=     4 NFV=     0
 NROrb=    203 NOA=    12 NOB=    12 NVA=   191 NVB=   191

 **** Warning!!: The largest alpha MO coefficient is  0.17673071D+02

 Leave Link  801 at Mon Feb 21 20:25:25 2022, MaxMem= 16106127360 cpu:               2.4 elap:               0.1
 (Enter /sw/contrib/gaussian/g16/B01/g16/l906.exe)
 Frozen-core derivative calculation, NFC=   4 NFV=   0.
 FulOut=F Deriv=T AODrv=T NAtomX=     5
   MMem=           0  MDisk=          12 MDiskD=          12
  W3Min=      811440 MinDsk=     2425030 NBas6D=         245
 NBas2D=       30762    NTT=       30135    LW2=     7400000
    MDV= 16105574325 MDiskM=      328644 NBas2p=       30702
 Disk-based method using ON**2 memory for 12 occupieds at a time.
 Permanent disk used for amplitudes=    11516536 words.
 Estimated scratch disk usage=   321251614 words.
 IMap=   1   2   3   4   5   6   7   8   9  10  11  12  13  14  15  16
 Actual    scratch disk usage=   310331678 words.
 JobTyp=1 Pass  1:  I=   5 to  16 NPSUse= 28 ParTrn=T ParDer=T DoDerP=T.
 (rs|ai) integrals will be sorted in core.
 Spin components of T(2) and E(2):
     alpha-alpha T2 =       0.3427459926D-01 E2=     -0.1226658106D+00
     alpha-beta  T2 =       0.1882395297D+00 E2=     -0.7017647603D+00
     beta-beta   T2 =       0.3427459926D-01 E2=     -0.1226658106D+00
 The integrals were generated   1 times.
 ANorm=    0.1121065889D+01
 E2 =    -0.9470963816D+00 EUMP2 =    -0.28044654467870D+03
 Leave Link  906 at Mon Feb 21 20:27:01 2022, MaxMem= 16106127360 cpu:            2695.4 elap:              96.4
 (Enter /sw/contrib/gaussian/g16/B01/g16/l1101.exe)
 Using compressed Sx but separate Hx and Fx, NAtomX=     5.
 Will process      6 centers per pass.
 Leave Link 1101 at Mon Feb 21 20:27:02 2022, MaxMem= 16106127360 cpu:               7.5 elap:               0.3
 (Enter /sw/contrib/gaussian/g16/B01/g16/l1102.exe)
 Leave Link 1102 at Mon Feb 21 20:27:02 2022, MaxMem= 16106127360 cpu:               0.6 elap:               0.0
 (Enter /sw/contrib/gaussian/g16/B01/g16/l1110.exe)
 Forming Gx(P) for the SCF density, NAtomX=     5.
 Integral derivatives from FoFJK, PRISM(SPDF).
 Do as many integral derivatives as possible in FoFJK.
 G2DrvN: MDV=   16106126844.
 G2DrvN: will do     6 centers at a time, making    1 passes.
 Calling FoFCou, ICntrl=  3107 FMM=F I1Cent=   0 AccDes= 0.00D+00.
 FoFJK:  IHMeth= 1 ICntrl=    3107 DoSepK=F KAlg= 0 I1Cent=           0 FoldK=F
 IRaf=         0 NMat=       1 IRICut=       1 DoRegI=T DoRafI=F ISym2E= 1 IDoP0=0 IntGTp=1.
 FoFCou: FMM=F IPFlag=           0 FMFlag=      100000 FMFlg1=           0
         NFxFlg=           0 DoJE=F BraDBF=F KetDBF=F FulRan=T
         wScrn=  0.000000 ICntrl=      3107 IOpCl=  0 I1Cent=           0 NGrid=           0
         NMat0=    1 NMatS0=      1 NMatT0=    0 NMatD0=    1 NMtDS0=    0 NMtDT0=    0
 Petite list used in FoFCou.
 End of G2Drv F.D. properties file   721 does not exist.
 End of G2Drv F.D. properties file   722 does not exist.
 End of G2Drv F.D. properties file   788 does not exist.
 Leave Link 1110 at Mon Feb 21 20:27:05 2022, MaxMem= 16106127360 cpu:              82.8 elap:               3.0
 (Enter /sw/contrib/gaussian/g16/B01/g16/l1002.exe)
 Minotr:  Closed shell wavefunction.
          IDoAtm=11111
          Frozen-core window.
          Direct CPHF calculation.
          Differentiating once with respect to electric field.
                with respect to dipole field.
          Differentiating once with respect to nuclear coordinates.
          Requested convergence is 1.0D-08 RMS, and 1.0D-07 maximum.
          Secondary convergence is 1.0D-12 RMS, and 1.0D-12 maximum.
          NewPWx=T KeepS1=T KeepF1=T KeepIn=T MapXYZ=F SortEE=F KeepMc=T.
 Keep R1 ints in memory in symmetry-blocked form, NReq=348888983.
 FoFCou: FMM=F IPFlag=           0 FMFlag=           0 FMFlg1=           0
         NFxFlg=           0 DoJE=F BraDBF=F KetDBF=F FulRan=T
         wScrn=  0.000000 ICntrl=       600 IOpCl=  0 I1Cent=           0 NGrid=           0
         NMat0=    1 NMatS0=  21528 NMatT0=    0 NMatD0=    1 NMtDS0=    0 NMtDT0=    0
 Petite list used in FoFCou.
          MDV=   16106127360 using IRadAn=       1.
          Solving linear equations simultaneously, MaxMat=       0.
          There are    18 degrees of freedom in the 1st order CPHF.  IDoFFX=6 NUNeed=    18.
     15 vectors produced by pass  0 Test12= 1.70D-14 5.56D-09 XBig12= 8.41D+00 1.04D+00.
 AX will form    15 AO Fock derivatives at one time.
     15 vectors produced by pass  1 Test12= 1.70D-14 5.56D-09 XBig12= 1.40D+00 2.68D-01.
     15 vectors produced by pass  2 Test12= 1.70D-14 5.56D-09 XBig12= 1.48D-01 1.03D-01.
     15 vectors produced by pass  3 Test12= 1.70D-14 5.56D-09 XBig12= 5.22D-03 1.19D-02.
     15 vectors produced by pass  4 Test12= 1.70D-14 5.56D-09 XBig12= 1.08D-04 2.07D-03.
     15 vectors produced by pass  5 Test12= 1.70D-14 5.56D-09 XBig12= 1.50D-06 1.77D-04.
     15 vectors produced by pass  6 Test12= 1.70D-14 5.56D-09 XBig12= 1.18D-08 1.52D-05.
     12 vectors produced by pass  7 Test12= 1.70D-14 5.56D-09 XBig12= 8.76D-11 1.44D-06.
      3 vectors produced by pass  8 Test12= 1.70D-14 5.56D-09 XBig12= 6.32D-13 1.23D-07.
      2 vectors produced by pass  9 Test12= 1.70D-14 5.56D-09 XBig12= 4.42D-15 9.66D-09.
 InvSVY:  IOpt=1 It=  1 EMax= 8.88D-16
 Solved reduced A of dimension   122 with    15 vectors.
 FullF1:  Do perturbations      1 to      18.
 Saving first derivative matrices.
 End of Minotr F.D. properties file   721 does not exist.
 End of Minotr F.D. properties file   722 does not exist.
 End of Minotr F.D. properties file   788 does not exist.
 Leave Link 1002 at Mon Feb 21 20:27:08 2022, MaxMem= 16106127360 cpu:              79.6 elap:               2.9
 (Enter /sw/contrib/gaussian/g16/B01/g16/l811.exe)
 MDV= 16106127360.
 Form MO integral derivatives with frozen-active canonical formalism.
 MOERI=1 MOERIx=1 NAtoms=     5 NAtomX=     5.
 Discarding MO integrals.
 MO basis two electron integral derivatives will not be stored on disk.
 IAlg= 3 DoFC=T DoPWx=T Debug=F.
 Frozen-core window:  NFC=   4 NFV=   0.
 Reordered first order wavefunction length =     18678272
 In DefCFB: NBatch=  1 ICI= 16 ICA=191 LFMax= 96
            Large arrays: LIAPS=   619940160 LIARS=   288257200 words.
 In StABat: MaxSiz= 55 MinSiz= 25 NAtomB=  5
 DoIAMN: NPSUse= 28.
 Leave Link  811 at Mon Feb 21 20:28:30 2022, MaxMem= 16106127360 cpu:            2292.6 elap:              82.0
 (Enter /sw/contrib/gaussian/g16/B01/g16/l804.exe)
 Frozen-core window:  NFC=   4 NFV=   0.
 Closed-shell transformation, MDV= 16106127360 ITran=4 ISComp=1.
 Semi-Direct transformation.
 ModeAB=           2 MOrb=            16 LenV=   16104923065
 LASXX=     67341636 LTotXX=    67341636 LenRXX=    67341636
 LTotAB=    68301760 MaxLAS=    99807120 LenRXY=    99807120
 NonZer=   134683272 LenScr=   202817536 LnRSAI=           0
 LnScr1=           0 LExtra=           0 Total=    369966292
 MaxDsk=          -1 SrtSym=           F ITran=            4
 DoSDTr:  NPSUse= 28
 JobTyp=0 Pass  1:  I=   1 to  16.
 (rs|ai) integrals will be sorted in core.
 Complete sort for first half transformation.
 First half transformation complete.
 Begin second half transformation for I=  10.
 Begin second half transformation for I=  10.
 Complete sort for second half transformation.
 Second half transformation complete.
 Spin components of T(2) and E(2):
     alpha-alpha T2 =       0.3427459926D-01 E2=     -0.1226658106D+00
     alpha-beta  T2 =       0.1882395297D+00 E2=     -0.7017647603D+00
     beta-beta   T2 =       0.3427459926D-01 E2=     -0.1226658106D+00
 ANorm=    0.1585426585D+01
 E2 =    -0.9470963816D+00 EUMP2 =    -0.28044654467870D+03
 Leave Link  804 at Mon Feb 21 20:28:45 2022, MaxMem= 16106127360 cpu:             430.6 elap:              15.4
 (Enter /sw/contrib/gaussian/g16/B01/g16/l1002.exe)
 Minotr:  Closed shell wavefunction.
          Computing MP2/KS-MP2 derivatives.
          Using Z-Vector for PSCF gradient.
          Skipping F1 and S1 gradient terms here.
          IDoAtm=11111
          Frozen-core window.
          Using MO integrals in the linear equations.
          Forming densities via direct SCF.
          Differentiating once with respect to electric field.
                with respect to dipole field.
          Differentiating once with respect to nuclear coordinates.
          Using symmetry in CPHF.
          Requested convergence is 1.0D-10 RMS, and 1.0D-09 maximum.
          NewPWx=F KeepS1=T KeepF1=T KeepIn=T MapXYZ=F SortEE=F KeepMc=T.
          MDV=   16106127360 using IRadAn=       5.
          Solving linear equations separately, MaxMat=       0.
          There are     1 degrees of freedom in the 1st order CPHF.  IDoFFX=0 NUNeed=     1.
 FoFJK:  IHMeth= 1 ICntrl=       0 DoSepK=F KAlg= 0 I1Cent=           0 FoldK=F
 IRaf=         0 NMat=       1 IRICut=       1 DoRegI=T DoRafI=F ISym2E= 0 IDoP0=0 IntGTp=1.
 FoFCou: FMM=F IPFlag=           0 FMFlag=      100000 FMFlg1=           0
         NFxFlg=           0 DoJE=F BraDBF=F KetDBF=F FulRan=T
         wScrn=  0.000000 ICntrl=         0 IOpCl=  0 I1Cent=           0 NGrid=           0
         NMat0=    1 NMatS0=      1 NMatT0=    0 NMatD0=    1 NMtDS0=    0 NMtDT0=    0
 Symmetry not used in FoFCou.
 LinEq1:  Iter=  0 NonCon=     1 RMS=6.02D-03 Max=1.36D-01 NDo=     1
 LinEq1:  Iter=  1 NonCon=     1 RMS=1.95D-03 Max=3.97D-02 NDo=     1
 LinEq1:  Iter=  2 NonCon=     1 RMS=8.93D-04 Max=1.45D-02 NDo=     1
 LinEq1:  Iter=  3 NonCon=     1 RMS=4.01D-04 Max=8.38D-03 NDo=     1
 LinEq1:  Iter=  4 NonCon=     1 RMS=1.23D-04 Max=1.99D-03 NDo=     1
 LinEq1:  Iter=  5 NonCon=     1 RMS=4.94D-05 Max=7.88D-04 NDo=     1
 LinEq1:  Iter=  6 NonCon=     1 RMS=2.19D-05 Max=2.44D-04 NDo=     1
 LinEq1:  Iter=  7 NonCon=     1 RMS=8.83D-06 Max=1.65D-04 NDo=     1
 LinEq1:  Iter=  8 NonCon=     1 RMS=3.75D-06 Max=3.61D-05 NDo=     1
 LinEq1:  Iter=  9 NonCon=     1 RMS=1.02D-06 Max=1.36D-05 NDo=     1
 LinEq1:  Iter= 10 NonCon=     1 RMS=1.99D-07 Max=2.15D-06 NDo=     1
 LinEq1:  Iter= 11 NonCon=     1 RMS=3.67D-08 Max=3.76D-07 NDo=     1
 LinEq1:  Iter= 12 NonCon=     1 RMS=8.89D-09 Max=1.35D-07 NDo=     1
 LinEq1:  Iter= 13 NonCon=     1 RMS=1.62D-09 Max=2.73D-08 NDo=     1
 LinEq1:  Iter= 14 NonCon=     1 RMS=2.92D-10 Max=4.06D-09 NDo=     1
 LinEq1:  Iter= 15 NonCon=     0 RMS=5.13D-11 Max=5.59D-10 NDo=     1
 Linear equations converged to 1.000D-10 1.000D-09 after    15 iterations.
 End of Minotr F.D. properties file   721 does not exist.
 End of Minotr F.D. properties file   722 does not exist.
 End of Minotr F.D. properties file   788 does not exist.
 Leave Link 1002 at Mon Feb 21 20:28:48 2022, MaxMem= 16106127360 cpu:              65.9 elap:               2.4
 (Enter /sw/contrib/gaussian/g16/B01/g16/l1102.exe)
 Use density number 2.
 Symmetrizing basis deriv contribution to polar:
 IMax=3 JMax=2 DiffMx= 0.00D+00
 Leave Link 1102 at Mon Feb 21 20:28:48 2022, MaxMem= 16106127360 cpu:               0.7 elap:               0.1
 (Enter /sw/contrib/gaussian/g16/B01/g16/l1110.exe)
 Forming Gx(P) for generalized density number  2 NAtomX=     5.
 Integral derivatives from FoFJK, PRISM(SPDF).
 Do as many integral derivatives as possible in FoFJK.
 G2DrvN: MDV=   16106126844.
 G2DrvN: will do     6 centers at a time, making    1 passes.
 Calling FoFCou, ICntrl=  3107 FMM=F I1Cent=   0 AccDes= 0.00D+00.
 FoFJK:  IHMeth= 1 ICntrl=    3107 DoSepK=F KAlg= 0 I1Cent=           0 FoldK=F
 IRaf=         0 NMat=       1 IRICut=       1 DoRegI=T DoRafI=F ISym2E= 1 IDoP0=0 IntGTp=1.
 FoFCou: FMM=F IPFlag=           0 FMFlag=      100000 FMFlg1=           0
         NFxFlg=           0 DoJE=F BraDBF=F KetDBF=F FulRan=T
         wScrn=  0.000000 ICntrl=      3107 IOpCl=  0 I1Cent=           0 NGrid=           0
         NMat0=    1 NMatS0=      1 NMatT0=    0 NMatD0=    1 NMtDS0=    0 NMtDT0=    0
 Petite list used in FoFCou.
 End of G2Drv F.D. properties file   721 does not exist.
 End of G2Drv F.D. properties file   722 does not exist.
 End of G2Drv F.D. properties file   788 does not exist.
 Leave Link 1110 at Mon Feb 21 20:28:51 2022, MaxMem= 16106127360 cpu:              83.8 elap:               3.0
 (Enter /sw/contrib/gaussian/g16/B01/g16/l1112.exe)
 MP22nd: MDV=   16106127360
 This link is doing NAtomX=     5 total of    18 degrees of freedom.
 Using ON3 I/O method in MakUI.
 Frozen-core window:  NFC=   4 NFV=   0.
 Using Ix for Sx.
 Use MO integrals over full window.
 Using OV2 memory method for fx*t*t/D, MaxI=    16 DoOO2=F NP=  28.
 R2 and R3 integrals will be kept in memory, NReq=   915591705.
 FoFCou: FMM=F IPFlag=           0 FMFlag=           0 FMFlg1=           0
         NFxFlg=           0 DoJE=F BraDBF=F KetDBF=F FulRan=T
         wScrn=  0.000000 ICntrl=       600 IOpCl=  0 I1Cent=           0 NGrid=           0
         NMat0=    1 NMatS0=      1 NMatT0=    0 NMatD0=    1 NMtDS0=    0 NMtDT0=    0
 Symmetry not used in FoFCou.
 DD1Dir will call FoFMem   1 times, MxPair=       272
 NAB=   136 NAA=     0 NBB=     0.
 Symmetry is being used.
 FoFJK:  IHMeth= 1 ICntrl=       0 DoSepK=F KAlg= 0 I1Cent=           0 FoldK=F
 IRaf=         0 NMat=      18 IRICut=      45 DoRegI=T DoRafI=T ISym2E= 2 IDoP0=3 IntGTp=3.
 Discarding MO integrals.
 Leave Link 1112 at Mon Feb 21 20:29:26 2022, MaxMem= 16106127360 cpu:             980.3 elap:              35.3
 (Enter /sw/contrib/gaussian/g16/B01/g16/l601.exe)
 Copying SCF densities to generalized density rwf, IOpCl= 0 IROHF=0.

 **********************************************************************

            Population analysis using the MP2 Density.

 **********************************************************************

 Orbital symmetries:
       Occupied  (A') (A') (A') (A') (A') (A') (A') (A') (A') (A')
                 (A") (A') (A") (A') (A") (A')
       Virtual   (A') (A") (A') (A') (A') (A") (A') (A') (A") (A')
                 (A") (A') (A') (A') (A") (A') (A') (A") (A') (A')
                 (A') (A') (A') (A') (A') (A") (A') (A") (A') (A')
                 (A") (A') (A") (A') (A') (A") (A') (A') (A") (A')
                 (A") (A') (A") (A') (A') (A") (A') (A') (A") (A')
                 (A") (A') (A') (A') (A") (A') (A") (A') (A") (A')
                 (A') (A') (A") (A') (A') (A") (A') (A") (A') (A')
                 (A") (A') (A') (A") (A") (A') (A') (A") (A') (A')
                 (A') (A") (A') (A") (A') (A") (A') (A") (A') (A')
                 (A") (A') (A') (A") (A') (A") (A') (A") (A') (A')
                 (A") (A') (A") (A') (A') (A") (A') (A') (A") (A')
                 (A") (A') (A') (A') (A") (A') (A') (A') (A") (A')
                 (A") (A') (A") (A') (A') (A") (A") (A') (A") (A')
                 (A') (A') (A') (A") (A") (A") (A') (A') (A') (A')
                 (A") (A') (A") (A') (A') (A") (A') (A') (A') (A')
                 (A") (A') (A') (A") (A') (A") (A') (A") (A') (A")
                 (A') (A") (A') (A') (A") (A") (A") (A') (A") (A')
                 (A") (A") (A') (A') (A") (A') (A") (A') (A") (A')
                 (A') (A') (A') (A') (A') (A') (A') (A') (A') (A')
                 (A')
 The electronic state is 1-A'.
 Alpha  occ. eigenvalues --  -20.69363 -20.68381 -20.66148 -15.81456  -1.61469
 Alpha  occ. eigenvalues --   -1.49540  -1.25559  -0.94971  -0.77152  -0.75608
 Alpha  occ. eigenvalues --   -0.70960  -0.67786  -0.61793  -0.59016  -0.48617
 Alpha  occ. eigenvalues --   -0.47479
 Alpha virt. eigenvalues --    0.02931   0.06802   0.08613   0.10172   0.13379
 Alpha virt. eigenvalues --    0.13418   0.14383   0.15424   0.17806   0.19430
 Alpha virt. eigenvalues --    0.19938   0.20634   0.22041   0.23445   0.23730
 Alpha virt. eigenvalues --    0.26591   0.29223   0.30342   0.30991   0.34355
 Alpha virt. eigenvalues --    0.34933   0.38676   0.42143   0.43148   0.52728
 Alpha virt. eigenvalues --    0.52756   0.55768   0.58136   0.61941   0.63887
 Alpha virt. eigenvalues --    0.67812   0.68371   0.70629   0.71087   0.72371
 Alpha virt. eigenvalues --    0.72871   0.74470   0.79091   0.79130   0.81076
 Alpha virt. eigenvalues --    0.81162   0.82753   0.86722   0.90718   0.92085
 Alpha virt. eigenvalues --    0.92520   0.95597   0.97495   0.98362   1.01588
 Alpha virt. eigenvalues --    1.05123   1.05405   1.08013   1.11604   1.14005
 Alpha virt. eigenvalues --    1.18878   1.21908   1.23091   1.33795   1.34967
 Alpha virt. eigenvalues --    1.38432   1.45281   1.48718   1.50751   1.53765
 Alpha virt. eigenvalues --    1.56691   1.57999   1.61236   1.66128   1.66915
 Alpha virt. eigenvalues --    1.70366   1.79253   1.83226   1.83423   1.87511
 Alpha virt. eigenvalues --    1.90991   1.95923   1.98909   2.00644   2.07730
 Alpha virt. eigenvalues --    2.12060   2.13084   2.14864   2.22379   2.26325
 Alpha virt. eigenvalues --    2.26396   2.28843   2.31290   2.34026   2.38504
 Alpha virt. eigenvalues --    2.42174   2.42595   2.45393   2.46123   2.47488
 Alpha virt. eigenvalues --    2.49886   2.58779   2.59432   2.61833   2.62005
 Alpha virt. eigenvalues --    2.63300   2.66404   2.75281   2.81937   2.84987
 Alpha virt. eigenvalues --    2.87865   2.89149   2.91990   2.95509   3.02240
 Alpha virt. eigenvalues --    3.06992   3.11780   3.20352   3.22341   3.31432
 Alpha virt. eigenvalues --    3.33997   3.51177   3.64222   3.83654   3.84048
 Alpha virt. eigenvalues --    4.14719   4.16110   4.18180   4.22943   4.35022
 Alpha virt. eigenvalues --    4.39132   4.45995   4.51676   4.64735   4.70829
 Alpha virt. eigenvalues --    4.79846   4.82230   4.82631   4.89649   5.02498
 Alpha virt. eigenvalues --    5.07641   5.09865   5.14932   5.17487   5.23776
 Alpha virt. eigenvalues --    5.27099   5.30801   5.32750   5.34646   5.60320
 Alpha virt. eigenvalues --    5.65421   5.75853   5.82406   5.96245   6.16542
 Alpha virt. eigenvalues --    6.30641   6.33709   6.39265   6.49361   6.50524
 Alpha virt. eigenvalues --    6.61198   6.66635   6.69467   6.75573   6.76122
 Alpha virt. eigenvalues --    6.82534   6.89370   7.00953   7.05272   7.05481
 Alpha virt. eigenvalues --    7.08826   7.11860   7.14647   7.17981   7.21631
 Alpha virt. eigenvalues --    7.23884   7.29964   7.30039   7.34007   7.39110
 Alpha virt. eigenvalues --    7.42933   7.48284   7.59673   7.60533   7.61462
 Alpha virt. eigenvalues --    7.66260   7.77868   7.86743   8.08790   8.30992
 Alpha virt. eigenvalues --    8.40770   8.54142  13.36536  14.29569  15.15569
 Alpha virt. eigenvalues --   15.80447
          Condensed to atoms (all electrons):
               1          2          3          4          5
     1  H    0.589232   0.128379   0.020071   0.012302  -0.000648
     2  O    0.128379   8.320555  -0.173359  -0.090374   0.015442
     3  O    0.020071  -0.173359   8.459435  -0.125208  -0.036364
     4  N    0.012302  -0.090374  -0.125208   6.967040  -0.054127
     5  O   -0.000648   0.015442  -0.036364  -0.054127   8.271511
 Mulliken charges:
               1
     1  H    0.250664
     2  O   -0.200643
     3  O   -0.144575
     4  N    0.290368
     5  O   -0.195814
 Sum of Mulliken charges =  -0.00000
 Mulliken charges with hydrogens summed into heavy atoms:
               1
     2  O    0.050021
     3  O   -0.144575
     4  N    0.290368
     5  O   -0.195814
 APT charges:
               1
     1  H    0.299771
     2  O   -0.288422
     3  O   -0.488414
     4  N    0.859954
     5  O   -0.382889
 Sum of APT charges =  -0.00000
 APT charges with hydrogens summed into heavy atoms:
               1
     2  O    0.011349
     3  O   -0.488414
     4  N    0.859954
     5  O   -0.382889
 Electronic spatial extent (au):  <R**2>=            254.0078
 Charge=             -0.0000 electrons
 Dipole moment (field-independent basis, Debye):
    X=              0.5519    Y=              1.4127    Z=              0.0000  Tot=              1.5166
 Quadrupole moment (field-independent basis, Debye-Ang):
   XX=            -22.5297   YY=            -18.6157   ZZ=            -22.0301
   XY=              3.2168   XZ=              0.0000   YZ=             -0.0000
 Traceless Quadrupole moment (field-independent basis, Debye-Ang):
   XX=             -1.4712   YY=              2.4428   ZZ=             -0.9716
   XY=              3.2168   XZ=              0.0000   YZ=             -0.0000
 Octapole moment (field-independent basis, Debye-Ang**2):
  XXX=              2.9497  YYY=             11.5907  ZZZ=             -0.0000  XYY=              8.0172
  XXY=              6.6176  XXZ=              0.0000  XZZ=             -1.5399  YZZ=             -0.8150
  YYZ=              0.0000  XYZ=              0.0000
 Hexadecapole moment (field-independent basis, Debye-Ang**3):
 XXXX=           -158.9304 YYYY=            -90.5406 ZZZZ=            -18.2602 XXXY=            -37.1228
 XXXZ=              0.0000 YYYX=            -31.0937 YYYZ=             -0.0000 ZZZX=             -0.0000
 ZZZY=             -0.0000 XXYY=            -34.2092 XXZZ=            -30.9411 YYZZ=            -20.8467
 XXYZ=             -0.0000 YYXZ=             -0.0000 ZZXY=            -15.2035
 N-N= 1.165141206514D+02 E-N=-8.951084560679D+02  KE= 2.801485676871D+02
 Symmetry A'   KE= 2.661820031710D+02
 Symmetry A"   KE= 1.396656451603D+01
  Exact polarizability:  34.126   9.601  30.414   0.000   0.000  17.950
 Approx polarizability:  29.273   5.202  23.624  -0.000   0.000  15.574
 No NMR shielding tensors so no spin-rotation constants.
 Leave Link  601 at Mon Feb 21 20:29:26 2022, MaxMem= 16106127360 cpu:               4.4 elap:               0.2
 (Enter /sw/contrib/gaussian/g16/B01/g16/l701.exe)
 ... and contract with generalized density number  2.
 Compute integral second derivatives.
 Leave Link  701 at Mon Feb 21 20:29:27 2022, MaxMem= 16106127360 cpu:               6.6 elap:               0.3
 (Enter /sw/contrib/gaussian/g16/B01/g16/l702.exe)
 L702 exits ... SP integral derivatives will be done elsewhere.
 Leave Link  702 at Mon Feb 21 20:29:27 2022, MaxMem= 16106127360 cpu:               0.9 elap:               0.1
 (Enter /sw/contrib/gaussian/g16/B01/g16/l703.exe)
 Integral derivatives from FoFJK, PRISM(SPDF).
 Compute integral second derivatives, UseDBF=F ICtDFT=           0.
 Calling FoFJK, ICntrl=  10100127 FMM=F ISym2X=1 I1Cent= 0 IOpClX= 0 NMat=1 NMatS=1 NMatT=0.
 FoFJK:  IHMeth= 1 ICntrl=10100127 DoSepK=F KAlg= 0 I1Cent=           0 FoldK=F
 IRaf=         0 NMat=       1 IRICut=       1 DoRegI=T DoRafI=F ISym2E= 1 IDoP0=0 IntGTp=1.
 FoFCou: FMM=F IPFlag=           0 FMFlag=      100000 FMFlg1=         800
         NFxFlg=           0 DoJE=F BraDBF=F KetDBF=F FulRan=T
         wScrn=  0.000000 ICntrl=  10100127 IOpCl=  0 I1Cent=           0 NGrid=           0
         NMat0=    1 NMatS0=      1 NMatT0=    0 NMatD0=    1 NMtDS0=    0 NMtDT0=    0
 Petite list used in FoFCou.
 Leave Link  703 at Mon Feb 21 20:29:42 2022, MaxMem= 16106127360 cpu:             421.3 elap:              15.1
 (Enter /sw/contrib/gaussian/g16/B01/g16/l716.exe)
 Dipole        = 2.17135496D-01 5.55780684D-01 1.39034288D-31
 Polarizability= 3.41260978D+01 9.60065949D+00 3.04139511D+01
                 1.53142430D-30 5.33540899D-30 1.79503897D+01
 Full mass-weighted force constant matrix:
 Low frequencies --- -271.5189   -0.0012   -0.0003    0.0018   41.4109   55.1411
 Low frequencies ---   84.9273  267.9766  349.6840
 ******    1 imaginary frequencies (negative Signs) ****** 
 Diagonal vibrational polarizability:
       14.1888478      26.0792623      45.9065109
 Harmonic frequencies (cm**-1), IR intensities (KM/Mole), Raman scattering
 activities (A**4/AMU), depolarization ratios for plane and unpolarized
 incident light, reduced masses (AMU), force constants (mDyne/A),
 and normal coordinates:
                      1                      2                      3
                     A"                     A"                     A'
 Frequencies --   -271.2914               263.8545               349.4733
 Red. masses --      1.1299                11.3670                 8.4771
 Frc consts  --      0.0490                 0.4663                 0.6100
 IR Inten    --    125.2008                 0.3293                 8.5400
  Atom  AN      X      Y      Z        X      Y      Z        X      Y      Z
     1   1    -0.00   0.00   1.00    -0.00   0.00  -0.52     0.56  -0.43  -0.00
     2   8    -0.00   0.00  -0.06    -0.00   0.00  -0.33    -0.08  -0.37  -0.00
     3   8    -0.00  -0.00  -0.04     0.00  -0.00   0.34    -0.14   0.45   0.00
     4   7     0.00   0.00   0.05     0.00   0.00   0.55     0.03   0.23   0.00
     5   8     0.00   0.00  -0.00     0.00   0.00  -0.46     0.16  -0.25  -0.00
                      4                      5                      6
                     A'                     A'                     A'
 Frequencies --    445.6545               785.3757               965.8167
 Red. masses --     12.4917                13.1731                15.3962
 Frc consts  --      1.4617                 4.7873                 8.4616
 IR Inten    --    196.5308               170.7138                24.0378
  Atom  AN      X      Y      Z        X      Y      Z        X      Y      Z
     1   1     0.38   0.22  -0.00    -0.32   0.18  -0.00    -0.17  -0.04   0.00
     2   8     0.33   0.23  -0.00     0.43   0.08  -0.00    -0.52   0.03  -0.00
     3   8     0.19   0.42   0.00    -0.06  -0.26   0.00     0.75  -0.02   0.00
     4   7    -0.36  -0.42   0.00    -0.13   0.63   0.00    -0.12   0.25   0.00
     5   8    -0.22  -0.29  -0.00    -0.22  -0.38  -0.00    -0.12  -0.22  -0.00
                      7                      8                      9
                     A'                     A'                     A'
 Frequencies --   1369.6535              1603.2376              3778.8106
 Red. masses --      1.1437                11.8189                 1.0676
 Frc consts  --      1.2641                17.8988                 8.9815
 IR Inten    --    161.1583               109.4435                83.4402
  Atom  AN      X      Y      Z        X      Y      Z        X      Y      Z
     1   1     0.99  -0.05  -0.00    -0.47   0.01   0.00     0.10   0.99   0.00
     2   8    -0.03   0.05  -0.00    -0.00  -0.05   0.00    -0.01  -0.06   0.00
     3   8    -0.02  -0.05   0.00     0.00   0.16  -0.00     0.00   0.00  -0.00
     4   7     0.03   0.01   0.00     0.66  -0.06  -0.00    -0.00  -0.00  -0.00
     5   8    -0.04  -0.01  -0.00    -0.55  -0.06   0.00     0.00   0.00   0.00

 -------------------
 - Thermochemistry -
 -------------------
 Temperature   298.150 Kelvin.  Pressure   1.00000 Atm.
 Atom     1 has atomic number  1 and mass   1.00783
 Atom     2 has atomic number  8 and mass  15.99491
 Atom     3 has atomic number  8 and mass  15.99491
 Atom     4 has atomic number  7 and mass  14.00307
 Atom     5 has atomic number  8 and mass  15.99491
 Molecular mass:    62.99564 amu.
 Principal axes and moments of inertia in atomic units:
                           1         2         3
     Eigenvalues --    32.88864 362.16497 395.05361
           X            0.80860  -0.58836   0.00000
           Y            0.58836   0.80860   0.00000
           Z            0.00000  -0.00000   1.00000
 This molecule is an asymmetric top.
 Rotational symmetry number  1.
 Rotational temperatures (Kelvin)      2.63355     0.23916     0.21925
 Rotational constants (GHZ):          54.87430     4.98320     4.56835
    1 imaginary frequencies ignored.
 Zero-point vibrational energy      57192.7 (Joules/Mol)
                                   13.66939 (Kcal/Mol)
 Warning -- explicit consideration of   3 degrees of freedom as
           vibrations may cause significant error
 Vibrational temperatures:    379.63   502.81   641.20  1129.98  1389.59
          (Kelvin)           1970.63  2306.70  5436.87
 
 Zero-point correction=                           0.021784 (Hartree/Particle)
 Thermal correction to Energy=                    0.025849
 Thermal correction to Enthalpy=                  0.026793
 Thermal correction to Gibbs Free Energy=        -0.004270
 Sum of electronic and zero-point Energies=           -280.424761
 Sum of electronic and thermal Energies=              -280.420695
 Sum of electronic and thermal Enthalpies=            -280.419751
 Sum of electronic and thermal Free Energies=         -280.450814
 
                     E (Thermal)             CV                S
                      KCal/Mol        Cal/Mol-Kelvin    Cal/Mol-Kelvin
 Total                   16.221             11.908             65.378
 Electronic               0.000              0.000              0.000
 Translational            0.889              2.981             38.341
 Rotational               0.889              2.981             23.069
 Vibrational             14.443              5.947              3.969
 Vibration     1          0.670              1.739              1.636
 Vibration     2          0.727              1.576              1.169
 Vibration     3          0.805              1.370              0.809
                       Q            Log10(Q)             Ln(Q)
 Total Bot       0.920386D+02          1.963970          4.522208
 Total V=0       0.963167D+12         11.983702         27.593493
 Vib (Bot)       0.190722D-09         -9.719600        -22.380205
 Vib (Bot)    1  0.734727D+00         -0.133874         -0.308256
 Vib (Bot)    2  0.528116D+00         -0.277271         -0.638440
 Vib (Bot)    3  0.386152D+00         -0.413242         -0.951524
 Vib (V=0)       0.199587D+01          0.300132          0.691080
 Vib (V=0)    1  0.138872D+01          0.142615          0.328383
 Vib (V=0)    2  0.122726D+01          0.088936          0.204784
 Vib (V=0)    3  0.113175D+01          0.053752          0.123769
 Electronic      0.100000D+01          0.000000          0.000000
 Translational   0.196526D+08          7.293420         16.793719
 Rotational      0.245556D+05          4.390150         10.108693
 
                                                                title
                                                             IR Spectrum
 
     3                                                                         1      1                                              
     7                                                                         6      3             9     7           4  3  2        
     7                                                                         0      7             6     8           4  4  6        
     9                                                                         3      0             6     5           6  9  4        
 
     X                                                                         X      X             X     X           X  X  X        
     X                                                                         X      X             X     X           X              
     X                                                                         X      X                   X           X              
     X                                                                         X      X                   X           X              
     X                                                                         X      X                   X           X              
     X                                                                         X      X                   X           X              
     X                                                                         X      X                   X           X              
     X                                                                         X      X                   X           X              
                                                                               X      X                   X           X              
                                                                               X      X                   X           X              
                                                                               X      X                   X           X              
                                                                                      X                   X           X              
                                                                                      X                   X           X              
                                                                                      X                   X           X              
                                                                                      X                   X           X              
                                                                                      X                   X           X              
                                                                                                          X           X              
                                                                                                                      X              
                                                                                                                      X              
                                                                                                                      X              
 
 ***** Axes restored to original set *****
 -------------------------------------------------------------------
 Center     Atomic                   Forces (Hartrees/Bohr)
 Number     Number              X              Y              Z
 -------------------------------------------------------------------
      1        1           0.000126213   -0.000000000   -0.000077727
      2        8           0.000211702    0.000000000    0.000406934
      3        8           0.000843659    0.000000000    0.003055259
      4        7           0.015090995   -0.000000000    0.001678841
      5        8          -0.016272569    0.000000000   -0.005063307
 -------------------------------------------------------------------
 Cartesian Forces:  Max     0.016272569 RMS     0.005951297
 -----------------------------------------------------------------------------------------------
                       Internal Coordinate Forces (Hartree/Bohr or radian)
  Cent   Atom   N1       Length/X         N2         Alpha/Y        N3         Beta/Z          J
 -----------------------------------------------------------------------------------------------
      1  H 
      2  O        1   0.000078(     1)
      3  O        2  -0.000378(     2)      1  -0.000231(     5)
      4  N        3  -0.003470(     3)      2  -0.000543(     6)      1   0.000000(     8)     0
      5  O        4  -0.017020(     4)      3  -0.001938(     7)      2   0.000000(     9)     0
 -----------------------------------------------------------------------------------------------
 Internal  Forces:  Max     0.017020033 RMS     0.005830724
 Force constants in Cartesian coordinates: 
                1             2             3             4             5 
      1  0.647004D-01
      2  0.000000D+00 -0.243211D-02
      3  0.526236D-02  0.000000D+00  0.512390D+00
      4 -0.359527D-01  0.000000D+00 -0.162205D-01  0.272482D+00
      5  0.000000D+00  0.314989D-02  0.000000D+00  0.000000D+00  0.203665D-02
      6  0.484196D-01  0.000000D+00 -0.508570D+00  0.331324D-01  0.000000D+00
      7 -0.182385D-01  0.000000D+00  0.124724D-01 -0.219883D+00  0.000000D+00
      8  0.000000D+00  0.986448D-03  0.000000D+00  0.000000D+00 -0.655461D-02
      9 -0.532380D-01  0.000000D+00 -0.468932D-03 -0.190870D-01  0.000000D+00
     10 -0.926501D-02  0.000000D+00 -0.479405D-02 -0.169884D-01  0.000000D+00
     11  0.000000D+00 -0.272754D-02  0.000000D+00  0.000000D+00 -0.492030D-02
     12  0.517345D-02  0.000000D+00 -0.475909D-02  0.112547D-01  0.000000D+00
     13 -0.124417D-02  0.000000D+00  0.327978D-02  0.342360D-03  0.000000D+00
     14  0.000000D+00  0.102331D-02  0.000000D+00  0.000000D+00  0.628838D-02
     15 -0.561741D-02  0.000000D+00  0.140762D-02 -0.907966D-02  0.000000D+00
                6             7             8             9            10 
      6  0.594957D+00
      7 -0.210248D-01  0.340881D+00
      8  0.000000D+00  0.000000D+00  0.525952D-02
      9 -0.787907D-01  0.344848D-01  0.000000D+00  0.179103D+00
     10 -0.524672D-01 -0.782832D-01  0.000000D+00  0.171275D+00  0.759983D+00
     11  0.000000D+00  0.000000D+00  0.773997D-02  0.000000D+00  0.000000D+00
     12  0.164807D-01  0.619967D-01  0.000000D+00 -0.811142D-01 -0.316275D-01
     13 -0.806012D-02 -0.244760D-01  0.000000D+00 -0.133434D+00 -0.655446D+00
     14  0.000000D+00  0.000000D+00 -0.743132D-02  0.000000D+00  0.000000D+00
     15 -0.240771D-01 -0.879291D-01  0.000000D+00 -0.187294D-01 -0.823859D-01
               11            12            13            14            15 
     11  0.164960D-01
     12  0.000000D+00  0.187497D+00
     13  0.000000D+00 -0.467973D-01  0.680824D+00
     14 -0.165881D-01  0.000000D+00  0.000000D+00  0.167078D-01
     15  0.000000D+00 -0.118105D+00  0.185012D+00  0.000000D+00  0.159504D+00
 Force constants in internal coordinates: 
                1             2             3             4             5 
      1  0.512390D+00
      2 -0.103571D-01  0.280715D+00
      3  0.346434D-02  0.261101D-02  0.114875D+00
      4 -0.352649D-02  0.583626D-02  0.147783D+00  0.737670D+00
      5  0.976215D-02  0.651698D-01  0.238790D-02  0.475926D-02  0.217078D+00
      6  0.463155D-02  0.593622D-01  0.410274D-01  0.215481D-01  0.316798D-01
      7 -0.122866D-02  0.371796D-01  0.299991D-01  0.833757D-01  0.210064D-01
      8  0.000000D+00  0.000000D+00  0.000000D+00  0.000000D+00  0.000000D+00
      9  0.000000D+00  0.000000D+00  0.000000D+00  0.000000D+00  0.000000D+00
                6             7             8             9 
      6  0.283713D+00
      7  0.941399D-01  0.474682D+00
      8  0.000000D+00  0.000000D+00 -0.784141D-02
      9  0.000000D+00  0.000000D+00 -0.392243D-02  0.411607D-01
 Leave Link  716 at Mon Feb 21 20:29:42 2022, MaxMem= 16106127360 cpu:               1.1 elap:               0.1
 (Enter /sw/contrib/gaussian/g16/B01/g16/l103.exe)

 GradGradGradGradGradGradGradGradGradGradGradGradGradGradGradGradGradGrad
 Berny optimization.
 Search for a local minimum.
 Step number   1 out of a maximum of    2
 All quantities printed in internal units (Hartrees-Bohrs-Radians)
 Second derivative matrix not updated -- analytic derivatives used.
 The second derivative matrix:
                          r1        r2        r3        r4        a1
           r1           0.51239
           r2          -0.01036   0.28072
           r3           0.00346   0.00261   0.11487
           r4          -0.00353   0.00584   0.14778   0.73767
           a1           0.00976   0.06517   0.00239   0.00476   0.21708
           a2           0.00463   0.05936   0.04103   0.02155   0.03168
           a3          -0.00123   0.03718   0.03000   0.08338   0.02101
           d1          -0.00000   0.00000  -0.00000  -0.00000   0.00000
           d2           0.00000   0.00000  -0.00000  -0.00000   0.00000
                          a2        a3        d1        d2
           a2           0.28371
           a3           0.09414   0.47468
           d1           0.00000   0.00000  -0.00784
           d2           0.00000   0.00000  -0.00392   0.04116
 ITU=  0
     Eigenvalues ---   -0.00815   0.04147   0.07509   0.17553   0.22563
     Eigenvalues ---    0.32428   0.50483   0.51316   0.80260
 Eigenvalue     1 is  -8.15D-03 should be greater than     0.000000 Eigenvector:
                          d1        d2        r3        a2        a3
   1                    0.99685   0.07929   0.00000  -0.00000  -0.00000
                          a1        r2        r1        r4
   1                    0.00000  -0.00000  -0.00000  -0.00000
 Angle between quadratic step and forces=  11.82 degrees.
 Linear search not attempted -- first point.
 Variable       Old X    -DE/DX   Delta X   Delta X   Delta X     New X
                                 (Linear)    (Quad)   (Total)
    r1        1.83110   0.00008   0.00000  -0.00001  -0.00001   1.83109
    r2        2.74940  -0.00038   0.00000  -0.00082  -0.00082   2.74858
    r3        2.75670  -0.00347   0.00000  -0.00075  -0.00075   2.75595
    r4        2.23483  -0.01702   0.00000  -0.02292  -0.02292   2.21191
    a1        1.70335  -0.00023   0.00000  -0.00033  -0.00033   1.70302
    a2        1.78543  -0.00054   0.00000   0.00013   0.00013   1.78556
    a3        1.90362  -0.00194   0.00000   0.00004   0.00004   1.90367
    d1        3.14159   0.00000   0.00000   0.00000   0.00000   3.14159
    d2        3.14159   0.00000   0.00000   0.00000   0.00000   3.14159
         Item               Value     Threshold  Converged?
 Maximum Force            0.017020     0.000450     NO 
 RMS     Force            0.005831     0.000300     NO 
 Maximum Displacement     0.022923     0.001800     NO 
 RMS     Displacement     0.007651     0.001200     NO 
 Predicted change in Energy=-1.964884D-04
                       ----------------------------
                       ! Non-Optimized Parameters !
                       ! (Angstroms and Degrees)  !
 ----------------------                            ----------------------
 !      Name          Value   Derivative information (Atomic Units)     !
 ------------------------------------------------------------------------
 !       r1          0.969    -DE/DX =    0.0001                        !
 !       r2          1.4545   -DE/DX =   -0.0004                        !
 !       r3          1.4584   -DE/DX =   -0.0035                        !
 !       r4          1.1705   -DE/DX =   -0.017                         !
 !       a1         97.5761   -DE/DX =   -0.0002                        !
 !       a2        102.3049   -DE/DX =   -0.0005                        !
 !       a3        109.0721   -DE/DX =   -0.0019                        !
 !       d1        180.0      -DE/DX =    0.0                           !
 !       d2        180.0      -DE/DX =    0.0                           !
 ------------------------------------------------------------------------
 GradGradGradGradGradGradGradGradGradGradGradGradGradGradGradGradGradGrad

 Leave Link  103 at Mon Feb 21 20:29:42 2022, MaxMem= 16106127360 cpu:               0.5 elap:               0.0
 (Enter /sw/contrib/gaussian/g16/B01/g16/l9999.exe)

 ----------------------------------------------------------------------

 Electric dipole moment (input orientation):
 (Debye = 10**-18 statcoulomb cm , SI units = C m)
                  (au)            (Debye)         (10**-30 SI)
   Tot        0.596691D+00      0.151664D+01      0.505896D+01
   x         -0.164075D+00     -0.417038D+00     -0.139109D+01
   y          0.000000D+00      0.000000D+00      0.000000D+00
   z         -0.573689D+00     -0.145817D+01     -0.486394D+01

 Dipole polarizability, Alpha (input orientation).
 (esu units = cm**3 , SI units = C**2 m**2 J**-1)
 Alpha(0;0):
               (au)            (10**-24 esu)      (10**-40 SI)
   iso        0.274968D+02      0.407461D+01      0.453361D+01
   aniso      0.221789D+02      0.328658D+01      0.365681D+01
   xx         0.323013D+02      0.478656D+01      0.532576D+01
   yx         0.000000D+00      0.000000D+00      0.000000D+00
   yy         0.179504D+02      0.265997D+01      0.295962D+01
   zx         0.977838D+01      0.144901D+01      0.161224D+01
   zy         0.000000D+00      0.000000D+00      0.000000D+00
   zz         0.322388D+02      0.477729D+01      0.531545D+01

 ----------------------------------------------------------------------

 Dipole orientation:
     1          0.00000000          0.00000000         -0.00000000
     8         -0.50350713          0.00000000         -1.76051187
     8          2.01679379          0.00000000         -2.85927402
     7          1.47861146          0.00000000         -5.56293221
     8          3.40761032          0.00000000         -6.69139172

 Electric dipole moment (dipole orientation):
 (Debye = 10**-18 statcoulomb cm , SI units = C m)
                  (au)            (Debye)         (10**-30 SI)
   Tot        0.596691D+00      0.151664D+01      0.505896D+01
   x          0.000000D+00      0.000000D+00      0.000000D+00
   y          0.000000D+00      0.000000D+00      0.000000D+00
   z          0.596691D+00      0.151664D+01      0.505896D+01

 Dipole polarizability, Alpha (dipole orientation).
 (esu units = cm**3 , SI units = C**2 m**2 J**-1)
 Alpha(0;0):
               (au)            (10**-24 esu)      (10**-40 SI)
   iso        0.274968D+02      0.407461D+01      0.453361D+01
   aniso      0.221789D+02      0.328658D+01      0.365681D+01
   xx         0.271262D+02      0.401969D+01      0.447251D+01
   yx         0.000000D+00      0.000000D+00      0.000000D+00
   yy         0.179504D+02      0.265997D+01      0.295962D+01
   zx        -0.831620D+01     -0.123233D+01     -0.137116D+01
   zy         0.000000D+00      0.000000D+00      0.000000D+00
   zz         0.374138D+02      0.554415D+01      0.616870D+01

 ----------------------------------------------------------------------
 1\1\GINC-N2128\Freq\RMP2-FC\Aug-CC-pVTZ\H1N1O3\CGAVINH\21-Feb-2022\1\\
 #p freq mp2/aug-cc-pvtz density=current\\title\\0,1\H\O,1,r1\O,2,r2,1,
 a1\N,3,r3,2,a2,1,d1,0\O,4,r4,3,a3,2,d2,0\\r1=0.96897556\r2=1.45491931\
 r3=1.45878406\r4=1.1826202\a1=97.59494903\a2=102.29752444\a3=109.06955
 123\d1=180.\d2=180.\\Version=ES64L-G16RevB.01\State=1-A'\HF=-279.49944
 83\MP2=-280.4465447\RMSD=4.118e-09\RMSF=5.951e-03\ZeroPoint=0.0217836\
 Thermal=0.0258492\Dipole=-0.1640753,0.,-0.5736892\DipoleDeriv=0.266406
 ,0.,0.048481,0.,0.3559416,0.,0.0829162,0.,0.2769658,-0.330353,0.,-0.20
 93531,0.,-0.3130917,0.,-0.1123345,0.,-0.2218205,-0.0384428,0.,0.150268
 7,0.,-0.0821729,0.,-0.7494636,0.,-1.3446258,0.8608986,0.,0.8799616,0.,
 0.065275,0.,0.9111721,0.,1.6536875,-0.7585088,0.,-0.8693582,0.,-0.0259
 52,0.,-0.1322902,0.,-0.364207\Polar=32.3012965,0.,17.9503897,9.7783789
 ,0.,32.2387523\Quadrupole=-1.514677,-0.7223437,2.2370207,0.,2.0779659,
 0.\PG=CS [SG(H1N1O3)]\NImag=1\\0.06470038,0.,-0.00243211,0.00526236,0.
 ,0.51239043,-0.03595273,0.,-0.01622049,0.27248177,0.,0.00314989,0.,0.,
 0.00203665,0.04841963,0.,-0.50857002,0.03313243,0.,0.59495712,-0.01823
 848,0.,0.01247240,-0.21988301,0.,-0.02102478,0.34088067,0.,0.00098645,
 0.,0.,-0.00655461,0.,0.,0.00525952,-0.05323803,0.,-0.00046893,-0.01908
 695,0.,-0.07879070,0.03448478,0.,0.17910327,-0.00926501,0.,-0.00479405
 ,-0.01698839,0.,-0.05246715,-0.07828319,0.,0.17127463,0.75998271,0.,-0
 .00272754,0.,0.,-0.00492030,0.,0.,0.00773997,0.,0.,0.01649602,0.005173
 45,0.,-0.00475909,0.01125468,0.,0.01648068,0.06199669,0.,-0.08111422,-
 0.03162750,0.,0.18749738,-0.00124417,0.,0.00327978,0.00034236,0.,-0.00
 806012,-0.02447599,0.,-0.13343443,-0.65544613,0.,-0.04679732,0.6808239
 3,0.,0.00102331,0.,0.,0.00628838,0.,0.,-0.00743132,0.,0.,-0.01658814,0
 .,0.,0.01670777,-0.00561741,0.,0.00140762,-0.00907966,0.,-0.02407708,-
 0.08792909,0.,-0.01872942,-0.08238593,0.,-0.11810476,0.18501209,0.,0.1
 5950364\\-0.00012621,0.,0.00007773,-0.00021170,0.,-0.00040693,-0.00084
 366,0.,-0.00305526,-0.01509100,0.,-0.00167884,0.01627257,0.,0.00506331
 \\\@


 ASKING DUMB QUESTIONS IS EASIER THAN CORECTING DUMB MISTAKES.
 Job cpu time:       0 days  2 hours  0 minutes 35.1 seconds.
 Elapsed time:       0 days  0 hours  4 minutes 21.5 seconds.
 File lengths (MBytes):  RWF=   7239 Int=      0 D2E=      0 Chk=      8 Scr=      1
 Normal termination of Gaussian 16 at Mon Feb 21 20:29:43 2022.
