title                                                                   
Freq      RMP2-FC                                                     Aug-CC-pVTZ         
Number of atoms                            I                5
Info1-9                                    I   N=           9
          33          24           0           0           0         100
           6           2           1
Full Title                                 C   N=           1
title       
Route                                      C   N=           4
#p freq mp2/aug-cc-pvtz density=current         
Charge                                     I                0
Multiplicity                               I                1
Number of electrons                        I               32
Number of alpha electrons                  I               16
Number of beta electrons                   I               16
Number of basis functions                  I              207
Number of independent functions            I              207
Number of point charges in /Mol/           I                0
Number of translation vectors              I                0
Atomic numbers                             I   N=           5
           1           8           8           7           8
Nuclear charges                            R   N=           5
  1.00000000E+00  8.00000000E+00  8.00000000E+00  7.00000000E+00  8.00000000E+00
Current cartesian coordinates              R   N=          15
  2.09200805E+00 -1.14923616E+00  0.00000000E+00  2.48663774E+00  6.91458280E-01
  0.00000000E+00 -2.21317225E-17  1.73348128E+00  0.00000000E+00 -1.87341932E+00
 -8.36475968E-02  0.00000000E+00 -1.10889685E+00 -2.20809339E+00  0.00000000E+00
Number of symbols in /Mol/                 I                0
Force Field                                I                0
Atom Types                                 C   N=           5
                                                            
Int Atom Types                             I   N=           5
           0           0           0           0           0
MM charges                                 R   N=           5
  0.00000000E+00  0.00000000E+00  0.00000000E+00  0.00000000E+00  0.00000000E+00
Integer atomic weights                     I   N=           5
           1          16          16          14          16
Real atomic weights                        R   N=           5
  1.00782504E+00  1.59949146E+01  1.59949146E+01  1.40030740E+01  1.59949146E+01
Atom fragment info                         I   N=           5
           0           0           0           0           0
Atom residue num                           I   N=           5
           0           0           0           0           0
Nuclear spins                              I   N=           5
           1           0           0           2           0
Nuclear ZEff                               R   N=           5
 -1.00000000E+00 -5.60000000E+00 -5.60000000E+00 -4.55000000E+00 -5.60000000E+00
Nuclear ZNuc                               R   N=           5
  1.00000000E+00  8.00000000E+00  8.00000000E+00  7.00000000E+00  8.00000000E+00
Nuclear QMom                               R   N=           5
  0.00000000E+00  0.00000000E+00  0.00000000E+00  2.04400000E+00  0.00000000E+00
Nuclear GFac                               R   N=           5
  2.79284600E+00  0.00000000E+00  0.00000000E+00  4.03761000E-01  0.00000000E+00
MicOpt                                     I   N=           5
          -1          -1          -1          -1          -1
Number of residues                         I                0
Number of secondary structures             I                0
SymInf integers                            I   N=          26
           1           2           1           1           1           1
           1          -1           0           0           0           0
           0           0           0           0           0           0
           0           0           0           0           0           0
           0           0
RotTr to input orientation                 R   N=          12
 -9.77781168E-01  0.00000000E+00  2.09628211E-01  2.09628211E-01  0.00000000E+00
  9.77781168E-01  0.00000000E+00  1.00000000E+00  0.00000000E+00  2.28643840E+00
  0.00000000E+00  6.85157568E-01
Number of contracted shells                I               65
Number of primitive shells                 I              119
Pure/Cartesian d shells                    I                0
Pure/Cartesian f shells                    I                0
Highest angular momentum                   I                3
Largest degree of contraction              I                7
Shell types                                I   N=          65
           0           0           0           0           1           1
           1          -2          -2           0           0           0
           0           0           1           1           1           1
          -2          -2          -2          -3          -3           0
           0           0           0           0           1           1
           1           1          -2          -2          -2          -3
          -3           0           0           0           0           0
           1           1           1           1          -2          -2
          -2          -3          -3           0           0           0
           0           0           1           1           1           1
          -2          -2          -2          -3          -3
Number of primitives per shell             I   N=          65
           3           1           1           1           1           1
           1           1           1           7           6           1
           1           1           3           1           1           1
           1           1           1           1           1           7
           6           1           1           1           3           1
           1           1           1           1           1           1
           1           7           6           1           1           1
           3           1           1           1           1           1
           1           1           1           7           6           1
           1           1           3           1           1           1
           1           1           1           1           1
Shell to atom map                          I   N=          65
           1           1           1           1           1           1
           1           1           1           2           2           2
           2           2           2           2           2           2
           2           2           2           2           2           3
           3           3           3           3           3           3
           3           3           3           3           3           3
           3           4           4           4           4           4
           4           4           4           4           4           4
           4           4           4           5           5           5
           5           5           5           5           5           5
           5           5           5           5           5
Primitive exponents                        R   N=         119
  3.38700000E+01  5.09500000E+00  1.15900000E+00  3.25800000E-01  1.02700000E-01
  2.52600000E-02  1.40700000E+00  3.88000000E-01  1.02000000E-01  1.05700000E+00
  2.47000000E-01  1.53300000E+04  2.29900000E+03  5.22400000E+02  1.47300000E+02
  4.75500000E+01  1.67600000E+01  6.20700000E+00  5.22400000E+02  1.47300000E+02
  4.75500000E+01  1.67600000E+01  6.20700000E+00  6.88200000E-01  1.75200000E+00
  2.38400000E-01  7.37600000E-02  3.44600000E+01  7.74900000E+00  2.28000000E+00
  7.15600000E-01  2.14000000E-01  5.97400000E-02  2.31400000E+00  6.45000000E-01
  2.14000000E-01  1.42800000E+00  5.00000000E-01  1.53300000E+04  2.29900000E+03
  5.22400000E+02  1.47300000E+02  4.75500000E+01  1.67600000E+01  6.20700000E+00
  5.22400000E+02  1.47300000E+02  4.75500000E+01  1.67600000E+01  6.20700000E+00
  6.88200000E-01  1.75200000E+00  2.38400000E-01  7.37600000E-02  3.44600000E+01
  7.74900000E+00  2.28000000E+00  7.15600000E-01  2.14000000E-01  5.97400000E-02
  2.31400000E+00  6.45000000E-01  2.14000000E-01  1.42800000E+00  5.00000000E-01
  1.14200000E+04  1.71200000E+03  3.89300000E+02  1.10000000E+02  3.55700000E+01
  1.25400000E+01  4.64400000E+00  3.89300000E+02  1.10000000E+02  3.55700000E+01
  1.25400000E+01  4.64400000E+00  5.11800000E-01  1.29300000E+00  1.78700000E-01
  5.76000000E-02  2.66300000E+01  5.94800000E+00  1.74200000E+00  5.55000000E-01
  1.72500000E-01  4.91000000E-02  1.65400000E+00  4.69000000E-01  1.51000000E-01
  1.09300000E+00  3.64000000E-01  1.53300000E+04  2.29900000E+03  5.22400000E+02
  1.47300000E+02  4.75500000E+01  1.67600000E+01  6.20700000E+00  5.22400000E+02
  1.47300000E+02  4.75500000E+01  1.67600000E+01  6.20700000E+00  6.88200000E-01
  1.75200000E+00  2.38400000E-01  7.37600000E-02  3.44600000E+01  7.74900000E+00
  2.28000000E+00  7.15600000E-01  2.14000000E-01  5.97400000E-02  2.31400000E+00
  6.45000000E-01  2.14000000E-01  1.42800000E+00  5.00000000E-01
Contraction coefficients                   R   N=         119
  2.54948632E-02  1.90362766E-01  8.52162022E-01  1.00000000E+00  1.00000000E+00
  1.00000000E+00  1.00000000E+00  1.00000000E+00  1.00000000E+00  1.00000000E+00
  1.00000000E+00  5.19808943E-04  4.02025621E-03  2.07128267E-02  8.10105536E-02
  2.35962985E-01  4.42653446E-01  3.57064423E-01 -4.42115008E-05 -1.22591041E-03
 -1.05517725E-02 -6.74452633E-02 -1.71198607E-01  1.07329856E+00  1.00000000E+00
  1.00000000E+00  1.00000000E+00  4.11634896E-02  2.57762836E-01  8.02419274E-01
  1.00000000E+00  1.00000000E+00  1.00000000E+00  1.00000000E+00  1.00000000E+00
  1.00000000E+00  1.00000000E+00  1.00000000E+00  5.19808943E-04  4.02025621E-03
  2.07128267E-02  8.10105536E-02  2.35962985E-01  4.42653446E-01  3.57064423E-01
 -4.42115008E-05 -1.22591041E-03 -1.05517725E-02 -6.74452633E-02 -1.71198607E-01
  1.07329856E+00  1.00000000E+00  1.00000000E+00  1.00000000E+00  4.11634896E-02
  2.57762836E-01  8.02419274E-01  1.00000000E+00  1.00000000E+00  1.00000000E+00
  1.00000000E+00  1.00000000E+00  1.00000000E+00  1.00000000E+00  1.00000000E+00
  5.34563860E-04  4.13435660E-03  2.12335358E-02  8.25006224E-02  2.38138871E-01
  4.42551547E-01  3.53757422E-01 -4.89867350E-05 -1.19527323E-03 -1.03490714E-02
 -6.48680190E-02 -1.71552477E-01  1.07289568E+00  1.00000000E+00  1.00000000E+00
  1.00000000E+00  3.98072123E-02  2.49002660E-01  8.10479727E-01  1.00000000E+00
  1.00000000E+00  1.00000000E+00  1.00000000E+00  1.00000000E+00  1.00000000E+00
  1.00000000E+00  1.00000000E+00  5.19808943E-04  4.02025621E-03  2.07128267E-02
  8.10105536E-02  2.35962985E-01  4.42653446E-01  3.57064423E-01 -4.42115008E-05
 -1.22591041E-03 -1.05517725E-02 -6.74452633E-02 -1.71198607E-01  1.07329856E+00
  1.00000000E+00  1.00000000E+00  1.00000000E+00  4.11634896E-02  2.57762836E-01
  8.02419274E-01  1.00000000E+00  1.00000000E+00  1.00000000E+00  1.00000000E+00
  1.00000000E+00  1.00000000E+00  1.00000000E+00  1.00000000E+00
Coordinates of each shell                  R   N=         195
  2.09200805E+00 -1.14923616E+00  0.00000000E+00  2.09200805E+00 -1.14923616E+00
  0.00000000E+00  2.09200805E+00 -1.14923616E+00  0.00000000E+00  2.09200805E+00
 -1.14923616E+00  0.00000000E+00  2.09200805E+00 -1.14923616E+00  0.00000000E+00
  2.09200805E+00 -1.14923616E+00  0.00000000E+00  2.09200805E+00 -1.14923616E+00
  0.00000000E+00  2.09200805E+00 -1.14923616E+00  0.00000000E+00  2.09200805E+00
 -1.14923616E+00  0.00000000E+00  2.48663774E+00  6.91458280E-01  0.00000000E+00
  2.48663774E+00  6.91458280E-01  0.00000000E+00  2.48663774E+00  6.91458280E-01
  0.00000000E+00  2.48663774E+00  6.91458280E-01  0.00000000E+00  2.48663774E+00
  6.91458280E-01  0.00000000E+00  2.48663774E+00  6.91458280E-01  0.00000000E+00
  2.48663774E+00  6.91458280E-01  0.00000000E+00  2.48663774E+00  6.91458280E-01
  0.00000000E+00  2.48663774E+00  6.91458280E-01  0.00000000E+00  2.48663774E+00
  6.91458280E-01  0.00000000E+00  2.48663774E+00  6.91458280E-01  0.00000000E+00
  2.48663774E+00  6.91458280E-01  0.00000000E+00  2.48663774E+00  6.91458280E-01
  0.00000000E+00  2.48663774E+00  6.91458280E-01  0.00000000E+00  9.64269782E-18
  1.73348128E+00  0.00000000E+00  9.64269782E-18  1.73348128E+00  0.00000000E+00
  9.64269782E-18  1.73348128E+00  0.00000000E+00  9.64269782E-18  1.73348128E+00
  0.00000000E+00  9.64269782E-18  1.73348128E+00  0.00000000E+00  9.64269782E-18
  1.73348128E+00  0.00000000E+00  9.64269782E-18  1.73348128E+00  0.00000000E+00
  9.64269782E-18  1.73348128E+00  0.00000000E+00  9.64269782E-18  1.73348128E+00
  0.00000000E+00  9.64269782E-18  1.73348128E+00  0.00000000E+00  9.64269782E-18
  1.73348128E+00  0.00000000E+00  9.64269782E-18  1.73348128E+00  0.00000000E+00
  9.64269782E-18  1.73348128E+00  0.00000000E+00  9.64269782E-18  1.73348128E+00
  0.00000000E+00 -1.87341932E+00 -8.36475968E-02  0.00000000E+00 -1.87341932E+00
 -8.36475968E-02  0.00000000E+00 -1.87341932E+00 -8.36475968E-02  0.00000000E+00
 -1.87341932E+00 -8.36475968E-02  0.00000000E+00 -1.87341932E+00 -8.36475968E-02
  0.00000000E+00 -1.87341932E+00 -8.36475968E-02  0.00000000E+00 -1.87341932E+00
 -8.36475968E-02  0.00000000E+00 -1.87341932E+00 -8.36475968E-02  0.00000000E+00
 -1.87341932E+00 -8.36475968E-02  0.00000000E+00 -1.87341932E+00 -8.36475968E-02
  0.00000000E+00 -1.87341932E+00 -8.36475968E-02  0.00000000E+00 -1.87341932E+00
 -8.36475968E-02  0.00000000E+00 -1.87341932E+00 -8.36475968E-02  0.00000000E+00
 -1.87341932E+00 -8.36475968E-02  0.00000000E+00 -1.10889685E+00 -2.20809339E+00
  0.00000000E+00 -1.10889685E+00 -2.20809339E+00  0.00000000E+00 -1.10889685E+00
 -2.20809339E+00  0.00000000E+00 -1.10889685E+00 -2.20809339E+00  0.00000000E+00
 -1.10889685E+00 -2.20809339E+00  0.00000000E+00 -1.10889685E+00 -2.20809339E+00
  0.00000000E+00 -1.10889685E+00 -2.20809339E+00  0.00000000E+00 -1.10889685E+00
 -2.20809339E+00  0.00000000E+00 -1.10889685E+00 -2.20809339E+00  0.00000000E+00
 -1.10889685E+00 -2.20809339E+00  0.00000000E+00 -1.10889685E+00 -2.20809339E+00
  0.00000000E+00 -1.10889685E+00 -2.20809339E+00  0.00000000E+00 -1.10889685E+00
 -2.20809339E+00  0.00000000E+00 -1.10889685E+00 -2.20809339E+00  0.00000000E+00
Num ILSW                                   I              100
ILSW                                       I   N=         100
           0           0           0           0           2           0
           0           0           0           0           0          -1
           5           0           0           0           2           0
           0           0           0           0           1           0
           1           0           0           0           0           0
           0           0      100000           0          -1           0
           0           0           0           0           0           0
           0           0           0           1           1           0
           0 -2000000000           1           0           0           0
           0           0           4          52           0           0
           0           0           0           0           0           0
           0           0           0           5           4           1
           0           0           0           0           0           0
           0           0           0           0           0           0
           0           0           0           0           0           0
           0           0           0           0           0           0
           0           0           0           0
Num RLSW                                   I               52
RLSW                                       R   N=          52
  1.00000000E+00  1.00000000E+00  1.00000000E+00  1.00000000E+00  1.00000000E+00
  0.00000000E+00  0.00000000E+00  1.00000000E+00  0.00000000E+00  0.00000000E+00
  0.00000000E+00  0.00000000E+00  1.00000000E+00  0.00000000E+00  0.00000000E+00
  0.00000000E+00  0.00000000E+00  1.00000000E+00  0.00000000E+00  0.00000000E+00
  0.00000000E+00  0.00000000E+00  1.00000000E+00  0.00000000E+00  0.00000000E+00
  0.00000000E+00  0.00000000E+00  1.00000000E+00  0.00000000E+00  0.00000000E+00
  0.00000000E+00  0.00000000E+00  1.00000000E+00  0.00000000E+00  0.00000000E+00
  0.00000000E+00  0.00000000E+00  0.00000000E+00  1.00000000E+00  1.00000000E+00
  0.00000000E+00  1.00000000E+00  0.00000000E+00  0.00000000E+00  0.00000000E+00
  0.00000000E+00  0.00000000E+00  0.00000000E+00  0.00000000E+00  0.00000000E+00
  0.00000000E+00  0.00000000E+00
MxBond                                     I                2
NBond                                      I   N=           5
           1           2           2           2           1
IBond                                      I   N=          10
           2           0           1           3           2           4
           3           5           4           0
RBond                                      R   N=          10
  1.00000000E+00  0.00000000E+00  1.00000000E+00  1.00000000E+00  1.00000000E+00
  1.00000000E+00  1.00000000E+00  2.00000000E+00  2.00000000E+00  0.00000000E+00
Virial Ratio                               R      2.002290994789720E+00
SCF Energy                                 R     -2.795056901030580E+02
MP2 Energy                                 R     -2.804551519744140E+02
Total Energy                               R     -2.804551519744140E+02
Post-SCF wavefunction norm                 R      1.584036301900829E+00
RMS Force                                  R      3.068076145157433E-03
RMS Density                                R      4.575154671811476E-09
NImag                                      I                0
Job Status                                 I                1
Nuclear derivative order                   I                2
External E-field                           R   N=          35
  0.00000000E+00  0.00000000E+00  0.00000000E+00  0.00000000E+00  0.00000000E+00
  0.00000000E+00  0.00000000E+00  0.00000000E+00  0.00000000E+00  0.00000000E+00
  0.00000000E+00  0.00000000E+00  0.00000000E+00  0.00000000E+00  0.00000000E+00
  0.00000000E+00  0.00000000E+00  0.00000000E+00  0.00000000E+00  0.00000000E+00
  0.00000000E+00  0.00000000E+00  0.00000000E+00  0.00000000E+00  0.00000000E+00
  0.00000000E+00  0.00000000E+00  0.00000000E+00  0.00000000E+00  0.00000000E+00
  0.00000000E+00  0.00000000E+00  0.00000000E+00  0.00000000E+00  0.00000000E+00
IOpCl                                      I                0
IROHF                                      I                0
Alpha Orbital Energies                     R   N=         207
 -2.07196436E+01 -2.06873852E+01 -2.06686242E+01 -1.58260239E+01 -1.64411377E+00
 -1.50425451E+00 -1.29182417E+00 -9.59707775E-01 -8.34227051E-01 -7.58796910E-01
 -7.39797630E-01 -6.34914293E-01 -6.18429026E-01 -6.18148307E-01 -5.04821379E-01
 -4.97054485E-01  3.49841223E-02  6.01982669E-02  9.51803671E-02  1.00347100E-01
  1.19799195E-01  1.22629468E-01  1.49129373E-01  1.51955557E-01  1.77706598E-01
  1.80383914E-01  1.89811368E-01  2.10874167E-01  2.16593618E-01  2.42896411E-01
  2.46382213E-01  2.69035307E-01  3.11323287E-01  3.16483507E-01  3.38227995E-01
  3.43905133E-01  3.46965573E-01  3.92606281E-01  4.47351646E-01  4.87790872E-01
  5.04994676E-01  5.18434421E-01  5.44367850E-01  5.61202463E-01  5.98662452E-01
  6.19489057E-01  6.38598592E-01  6.89607402E-01  7.17610462E-01  7.23909836E-01
  7.43058136E-01  7.63986745E-01  7.67402152E-01  7.95601521E-01  8.06384642E-01
  8.38877015E-01  8.43269409E-01  8.51878546E-01  8.85511098E-01  9.08353629E-01
  9.31762305E-01  9.47678702E-01  9.53776708E-01  1.01816750E+00  1.03170867E+00
  1.06343904E+00  1.06535305E+00  1.09458935E+00  1.14396717E+00  1.15575933E+00
  1.16966029E+00  1.22311773E+00  1.22741635E+00  1.24623809E+00  1.35231563E+00
  1.35879567E+00  1.37175991E+00  1.46885603E+00  1.48132156E+00  1.50498480E+00
  1.54025174E+00  1.59517796E+00  1.59735619E+00  1.60579270E+00  1.62909762E+00
  1.69613076E+00  1.73989127E+00  1.80043305E+00  1.82964279E+00  1.88835906E+00
  1.89518477E+00  1.93043275E+00  1.97950310E+00  1.98473102E+00  2.05156715E+00
  2.12336192E+00  2.12865691E+00  2.16362943E+00  2.18765232E+00  2.24384981E+00
  2.26063430E+00  2.29406870E+00  2.35257672E+00  2.36800876E+00  2.38466253E+00
  2.40194162E+00  2.43428526E+00  2.47105407E+00  2.47830121E+00  2.52975221E+00
  2.53691085E+00  2.55022212E+00  2.55830079E+00  2.61574539E+00  2.63180052E+00
  2.67291559E+00  2.67460514E+00  2.75550616E+00  2.80962372E+00  2.81981460E+00
  2.83917801E+00  2.91883432E+00  2.98557452E+00  3.04837958E+00  3.05117021E+00
  3.11526696E+00  3.11803932E+00  3.17226486E+00  3.21423078E+00  3.30963717E+00
  3.33047714E+00  3.35975334E+00  3.47610037E+00  3.67824572E+00  3.86880176E+00
  3.91990937E+00  4.17637110E+00  4.22012523E+00  4.22424014E+00  4.26795432E+00
  4.36915866E+00  4.49947803E+00  4.52483186E+00  4.55517235E+00  4.59427728E+00
  4.69474917E+00  4.79867055E+00  4.89730038E+00  4.91396683E+00  4.93119669E+00
  4.99632774E+00  5.00494368E+00  5.10544538E+00  5.12487398E+00  5.16678750E+00
  5.23655297E+00  5.24624357E+00  5.31385499E+00  5.34524526E+00  5.34830767E+00
  5.54640866E+00  5.64491757E+00  5.70586702E+00  5.88882649E+00  5.99573435E+00
  6.26460299E+00  6.29966252E+00  6.36228306E+00  6.37568915E+00  6.59676091E+00
  6.65854957E+00  6.66079977E+00  6.68931969E+00  6.72666817E+00  6.79659111E+00
  6.80411317E+00  6.85061617E+00  6.96818847E+00  7.01172769E+00  7.06563264E+00
  7.07092981E+00  7.13644431E+00  7.17488936E+00  7.17605058E+00  7.19300592E+00
  7.24364439E+00  7.24415676E+00  7.27216803E+00  7.34930683E+00  7.39354943E+00
  7.42225472E+00  7.44216803E+00  7.46007342E+00  7.55881589E+00  7.66319156E+00
  7.66722433E+00  7.78647692E+00  7.87854687E+00  7.95237828E+00  8.06616139E+00
  8.29864521E+00  8.49033556E+00  8.64837243E+00  1.36153280E+01  1.46873563E+01
  1.50290541E+01  1.57692418E+01
Alpha MO coefficients                      R   N=       42849
  6.28697526E-05 -2.25654855E-05 -1.06751561E-03  1.33090310E-05 -5.18420481E-05
  4.22339331E-05  0.00000000E+00 -7.69988372E-05 -2.95327042E-04  0.00000000E+00
  1.31811514E-06 -3.51530579E-04  0.00000000E+00  4.20246313E-05  0.00000000E+00
  0.00000000E+00 -2.24522709E-05  1.09262661E-05  2.23382139E-04  0.00000000E+00
  0.00000000E+00 -2.73280623E-05 -1.94456987E-04  3.10462259E-03 -9.47657235E-05
 -9.84347949E-05  3.54164061E-03  2.45859267E-03  1.02614817E-04 -5.29608962E-05
  0.00000000E+00 -7.30633905E-04  2.81600027E-04  0.00000000E+00 -2.00461372E-03
  1.11437481E-03  0.00000000E+00 -5.36219310E-04  4.45361331E-05  0.00000000E+00
  1.99886803E-05  0.00000000E+00  0.00000000E+00 -8.89362797E-06  4.37032234E-05
 -4.42761524E-04  0.00000000E+00  0.00000000E+00  4.24672679E-04 -6.57275435E-04
 -3.62087368E-04  0.00000000E+00  0.00000000E+00  5.46533745E-04 -7.31266361E-04
  0.00000000E+00  7.39019360E-05 -5.16771678E-05  0.00000000E+00  0.00000000E+00
 -2.73172786E-05  1.08492764E-04  0.00000000E+00  2.08037347E-04 -5.27064002E-05
  0.00000000E+00  0.00000000E+00 -1.65557029E-04  2.99610192E-04  9.76904082E-01
 -9.17399441E-03  4.34059068E-02  4.95199971E-04 -2.20858576E-03  4.46697549E-04
 -2.14740283E-03  0.00000000E+00 -3.15589801E-04  2.25301627E-03  0.00000000E+00
 -2.32248115E-03 -4.87951729E-04  0.00000000E+00 -2.24656996E-04  9.53642596E-05
  0.00000000E+00  6.94534749E-06  0.00000000E+00  0.00000000E+00 -4.59447722E-06
  3.78869772E-05  8.26427245E-04  0.00000000E+00  0.00000000E+00 -4.73995407E-04
 -1.74486602E-04 -1.40687074E-04  0.00000000E+00  0.00000000E+00 -5.53034758E-04
  3.58376525E-04  0.00000000E+00 -6.80594380E-06 -7.94493735E-05  0.00000000E+00
  0.00000000E+00 -9.09033669E-06  4.79454596E-05  0.00000000E+00  9.29438706E-05
  1.60778884E-06  0.00000000E+00  0.00000000E+00 -3.37533225E-04  3.78845718E-04
  1.04264068E-04  4.56852503E-04 -3.23748895E-04 -8.57397269E-04  3.53994205E-04
 -4.43377215E-05 -1.00083762E-04  0.00000000E+00  6.97595485E-04  1.11104181E-03
  0.00000000E+00 -7.72899469E-04 -6.46326256E-04  0.00000000E+00  1.97481163E-04
  2.13448770E-04  0.00000000E+00 -5.25327445E-05  0.00000000E+00  0.00000000E+00
  1.90587302E-05  9.33536227E-05 -4.15650240E-04  0.00000000E+00  0.00000000E+00
  4.09504321E-05  1.08168243E-03  2.75959680E-05  0.00000000E+00  0.00000000E+00
 -3.18047563E-04  3.19178745E-05  0.00000000E+00 -7.87078848E-05 -1.13611477E-04
  0.00000000E+00  0.00000000E+00 -9.64436363E-05  1.06523134E-04  0.00000000E+00
 -1.24435741E-04  4.65449786E-05  0.00000000E+00  0.00000000E+00  1.39851504E-05
  5.21554423E-04 -7.11964213E-04  4.62687241E-05 -7.06996181E-05  2.18930947E-04
 -1.81727469E-04 -2.92426462E-05 -4.14375135E-05  0.00000000E+00  1.70595736E-04
  2.53242045E-04  0.00000000E+00  5.13147783E-04  3.31281054E-04  0.00000000E+00
 -2.22344648E-04 -6.23860811E-05  0.00000000E+00 -1.29509457E-05  0.00000000E+00
  0.00000000E+00  3.44692841E-06  1.52025546E-05 -2.20010532E-06  0.00000000E+00
  0.00000000E+00 -1.64702041E-04  1.03119499E-05 -2.02375792E-05  0.00000000E+00
  0.00000000E+00 -1.77297463E-04 -4.73104804E-05  0.00000000E+00 -6.05243914E-06
 -9.10132352E-06  0.00000000E+00  0.00000000E+00 -2.12566592E-05  9.53993505E-06
  0.00000000E+00  4.06801511E-05  6.07588962E-05  0.00000000E+00  0.00000000E+00
  1.55999663E-04 -1.04268488E-04  3.92592817E-05  6.04637929E-05 -9.84824692E-05
 -2.94307176E-05  1.94839388E-05  1.29306421E-05  0.00000000E+00  2.37516327E-04
  5.33393673E-05  0.00000000E+00  1.25356361E-04  2.40370062E-05  0.00000000E+00
  1.25940044E-05  0.00000000E+00  0.00000000E+00 -1.15264943E-05  1.76066484E-05
  1.98923686E-05  0.00000000E+00  0.00000000E+00 -9.03352647E-05  6.79528976E-05
 -2.65824711E-04  2.86275223E-05 -1.54680230E-05 -5.38766023E-04  1.50529919E-04
  7.36492904E-06  1.37100229E-05  0.00000000E+00 -2.59123443E-07 -4.37650050E-05
  0.00000000E+00  1.71071466E-04  1.37107426E-04  0.00000000E+00 -4.50082190E-05
  5.25028808E-05  0.00000000E+00 -1.56382508E-06  0.00000000E+00  0.00000000E+00
 -8.49057699E-06 -1.15546092E-05  2.17402403E-05  0.00000000E+00  0.00000000E+00
  5.03337198E-05  1.08117622E-04  6.24905423E-05  0.00000000E+00  0.00000000E+00
 -2.57990411E-05 -7.52547987E-05  0.00000000E+00  7.65953954E-06  1.02040801E-05
  0.00000000E+00  0.00000000E+00 -1.12576351E-06 -2.50475237E-05  0.00000000E+00
 -1.37083798E-05 -3.72616113E-05  0.00000000E+00  0.00000000E+00 -2.16348167E-06
 -1.96633645E-05  7.40213184E-04  2.32930937E-05 -1.88191303E-05  2.97803082E-04
 -3.91329210E-04  1.65225386E-05  2.73073100E-05  0.00000000E+00 -6.59304491E-05
 -1.53943148E-04  0.00000000E+00  1.40353548E-04 -2.04138840E-04  0.00000000E+00
 -1.58370348E-04  1.41403762E-04  0.00000000E+00 -4.09960130E-06  0.00000000E+00
  0.00000000E+00 -2.95444176E-05 -9.93205169E-06 -5.13811070E-05  0.00000000E+00
  0.00000000E+00  7.97765397E-05  1.22456121E-04 -6.45788474E-05  0.00000000E+00
  0.00000000E+00  4.11855946E-05  3.27368473E-05  0.00000000E+00  2.93474272E-06
  3.35753039E-06  0.00000000E+00  0.00000000E+00 -7.95647143E-06 -2.28422052E-06
  0.00000000E+00  4.36956537E-06 -2.51003228E-05  0.00000000E+00  0.00000000E+00
  9.62661737E-05 -1.55134747E-04  2.36948639E-04  1.35682028E-03 -1.46815544E-04
 -7.19145296E-04  9.01778941E-04  6.31348795E-05 -7.10866924E-05  0.00000000E+00
  5.71478924E-04 -2.08221708E-03  0.00000000E+00  1.02290530E-04  4.99420206E-04
  0.00000000E+00  1.85618867E-04 -3.07249922E-04  0.00000000E+00 -1.27839328E-04
  0.00000000E+00  0.00000000E+00 -2.03982667E-04 -1.58304920E-04 -4.59093913E-04
  0.00000000E+00  0.00000000E+00 -6.00554008E-04 -9.21696253E-04 -4.08341415E-05
  0.00000000E+00  0.00000000E+00  5.84080715E-05  1.17262444E-04  0.00000000E+00
  8.33730721E-06  3.68451581E-05  0.00000000E+00  0.00000000E+00 -2.43026849E-05
 -4.53145342E-06  0.00000000E+00 -1.35152625E-04  1.57882344E-04  0.00000000E+00
  0.00000000E+00 -3.15549504E-04 -3.44816560E-05  9.76645934E-01 -9.88508301E-03
  4.35755081E-02  3.69596478E-03 -8.92742473E-04 -4.44795499E-04  2.13159763E-03
  0.00000000E+00  5.10790343E-04 -2.50513083E-03  0.00000000E+00 -7.67248421E-05
  8.22193076E-04  0.00000000E+00  1.04609612E-04 -6.42930729E-05  0.00000000E+00
 -1.93545195E-04  0.00000000E+00  0.00000000E+00 -7.45741784E-05 -4.34089139E-05
  4.08943555E-04  0.00000000E+00  0.00000000E+00  8.58881390E-04  4.82555754E-04
 -2.05922282E-04  0.00000000E+00  0.00000000E+00 -1.42941876E-04 -3.80963012E-05
  0.00000000E+00 -4.90065601E-06  7.02881286E-05  0.00000000E+00  0.00000000E+00
 -2.87052943E-05  1.06329253E-05  0.00000000E+00 -8.86632287E-05  9.15713987E-05
  0.00000000E+00  0.00000000E+00 -1.66059450E-04  2.05229974E-04  3.48782101E-04
  2.19931396E-03  1.54135064E-03 -1.49993604E-05  5.69856974E-05  2.89616673E-04
  0.00000000E+00  4.05056731E-04  1.12572736E-03  0.00000000E+00 -1.19321257E-04
  2.88211456E-04  0.00000000E+00 -4.37339378E-05  0.00000000E+00  0.00000000E+00
  1.94834875E-06 -1.14633817E-05 -2.21352142E-04  0.00000000E+00  0.00000000E+00
 -3.52096485E-04  4.12218559E-04  9.76839747E-01 -9.20705321E-03  4.34566116E-02
 -5.03268135E-06 -2.05985138E-03 -2.04460037E-03 -8.31986912E-04  0.00000000E+00
  2.09497341E-03  8.27258441E-04  0.00000000E+00 -4.18612577E-04  7.93823176E-04
  0.00000000E+00  2.41341812E-04 -2.84256300E-04  0.00000000E+00  3.49587545E-05
  0.00000000E+00  0.00000000E+00 -6.92418564E-05  6.00366540E-05  7.80936997E-04
  0.00000000E+00  0.00000000E+00 -1.80987918E-04  3.43116084E-04 -2.28775039E-04
  0.00000000E+00  0.00000000E+00  3.67048624E-04 -1.19439005E-05  0.00000000E+00
 -8.19018018E-05 -3.76032808E-06  0.00000000E+00  0.00000000E+00  1.10039601E-05