 Entering Gaussian System, Link 0=g16
 Input=hoono_a3_115p3956.gjf
 Output=hoono_a3_115p3956.log
 Initial command:
 /sw/contrib/gaussian/g16/B01/g16/l1.exe "/scr/Gau-29023.inp" -scrdir="/scr/"
 Entering Link 1 = /sw/contrib/gaussian/g16/B01/g16/l1.exe PID=     29024.
  
 Copyright (c) 1988-2017, Gaussian, Inc.  All Rights Reserved.
  
 This is part of the Gaussian(R) 16 program.  It is based on
 the Gaussian(R) 09 system (copyright 2009, Gaussian, Inc.),
 the Gaussian(R) 03 system (copyright 2003, Gaussian, Inc.),
 the Gaussian(R) 98 system (copyright 1998, Gaussian, Inc.),
 the Gaussian(R) 94 system (copyright 1995, Gaussian, Inc.),
 the Gaussian 92(TM) system (copyright 1992, Gaussian, Inc.),
 the Gaussian 90(TM) system (copyright 1990, Gaussian, Inc.),
 the Gaussian 88(TM) system (copyright 1988, Gaussian, Inc.),
 the Gaussian 86(TM) system (copyright 1986, Carnegie Mellon
 University), and the Gaussian 82(TM) system (copyright 1983,
 Carnegie Mellon University). Gaussian is a federally registered
 trademark of Gaussian, Inc.
  
 This software contains proprietary and confidential information,
 including trade secrets, belonging to Gaussian, Inc.
  
 This software is provided under written license and may be
 used, copied, transmitted, or stored only in accord with that
 written license.
  
 The following legend is applicable only to US Government
 contracts under FAR:
  
                    RESTRICTED RIGHTS LEGEND
  
 Use, reproduction and disclosure by the US Government is
 subject to restrictions as set forth in subparagraphs (a)
 and (c) of the Commercial Computer Software - Restricted
 Rights clause in FAR 52.227-19.
  
 Gaussian, Inc.
 340 Quinnipiac St., Bldg. 40, Wallingford CT 06492
  
  
 ---------------------------------------------------------------
 Warning -- This program may not be used in any manner that
 competes with the business of Gaussian, Inc. or will provide
 assistance to any competitor of Gaussian, Inc.  The licensee
 of this program is prohibited from giving any competitor of
 Gaussian, Inc. access to this program.  By using this program,
 the user acknowledges that Gaussian, Inc. is engaged in the
 business of creating and licensing software in the field of
 computational chemistry and represents and warrants to the
 licensee that it is not a competitor of Gaussian, Inc. and that
 it will not use this program in any manner prohibited above.
 ---------------------------------------------------------------
  

 Cite this work as:
 Gaussian 16, Revision B.01,
 M. J. Frisch, G. W. Trucks, H. B. Schlegel, G. E. Scuseria, 
 M. A. Robb, J. R. Cheeseman, G. Scalmani, V. Barone, 
 G. A. Petersson, H. Nakatsuji, X. Li, M. Caricato, A. V. Marenich, 
 J. Bloino, B. G. Janesko, R. Gomperts, B. Mennucci, H. P. Hratchian, 
 J. V. Ortiz, A. F. Izmaylov, J. L. Sonnenberg, D. Williams-Young, 
 F. Ding, F. Lipparini, F. Egidi, J. Goings, B. Peng, A. Petrone, 
 T. Henderson, D. Ranasinghe, V. G. Zakrzewski, J. Gao, N. Rega, 
 G. Zheng, W. Liang, M. Hada, M. Ehara, K. Toyota, R. Fukuda, 
 J. Hasegawa, M. Ishida, T. Nakajima, Y. Honda, O. Kitao, H. Nakai, 
 T. Vreven, K. Throssell, J. A. Montgomery, Jr., J. E. Peralta, 
 F. Ogliaro, M. J. Bearpark, J. J. Heyd, E. N. Brothers, K. N. Kudin, 
 V. N. Staroverov, T. A. Keith, R. Kobayashi, J. Normand, 
 K. Raghavachari, A. P. Rendell, J. C. Burant, S. S. Iyengar, 
 J. Tomasi, M. Cossi, J. M. Millam, M. Klene, C. Adamo, R. Cammi, 
 J. W. Ochterski, R. L. Martin, K. Morokuma, O. Farkas, 
 J. B. Foresman, and D. J. Fox, Gaussian, Inc., Wallingford CT, 2016.
 
 ******************************************
 Gaussian 16:  ES64L-G16RevB.01 20-Dec-2017
                 6-Mar-2022 
 ******************************************
 %nproc=28
 Will use up to   28 processors via shared memory.
 %mem=120GB
 %chk=hoono_a3_115p3956.chk
 ---------------------------------------
 #p freq mp2/aug-cc-pvtz density=current
 ---------------------------------------
 1/10=4,30=1,38=1/1,3;
 2/12=2,17=6,18=5,40=1/2;
 3/5=16,6=1,7=10,11=9,25=1,30=1,71=2,140=1/1,2,3;
 4//1;
 5/5=2,38=5,98=1/2;
 8/6=3,8=1,10=1,19=11,30=-1/1;
 9/15=3,16=-3/6;
 11/6=1,8=1,15=11,17=12,24=-1,27=1,28=-2,29=300,32=6,42=3/1,2,10;
 10/6=2,21=1/2;
 8/6=4,8=1,10=1,19=11,30=-1/11,4;
 10/5=1,20=4/2;
 11/12=2,14=11,16=1,17=2,28=-2,42=3,76=2/2,10,12;
 6/7=2,8=2,9=2,10=2,22=-1/1;
 7/8=1,10=1,12=2,25=1,44=2/1,2,3,16;
 1/10=4,30=1/3;
 99//99;
 Leave Link    1 at Sun Mar  6 19:38:57 2022, MaxMem= 16106127360 cpu:               2.3 elap:               0.1
 (Enter /sw/contrib/gaussian/g16/B01/g16/l101.exe)
 -----
 title
 -----
 Symbolic Z-matrix:
 Charge =  0 Multiplicity = 1
 H
 O                    1    r1
 O                    2    r2       1    a1
 N                    3    r3       2    a2       1    d1       0
 O                    4    r4       3    a3       2    d2       0
       Variables:
  r1                    0.98538                  
  r2                    1.42674                  
  r3                    1.38111                  
  r4                    1.19479                  
  a1                  100.63551                  
  a2                  113.13777                  
  a3                  115.39567                  
  d1                    0.                       
  d2                    0.                       
 
 ITRead=  0  0  0  0  0
 MicOpt= -1 -1 -1 -1 -1
 NAtoms=      5 NQM=        5 NQMF=       0 NMMI=      0 NMMIF=      0
                NMic=       0 NMicF=      0.
                    Isotopes and Nuclear Properties:
 (Nuclear quadrupole moments (NQMom) in fm**2, nuclear magnetic moments (NMagM)
  in nuclear magnetons)

  Atom         1           2           3           4           5
 IAtWgt=           1          16          16          14          16
 AtmWgt=   1.0078250  15.9949146  15.9949146  14.0030740  15.9949146
 NucSpn=           1           0           0           2           0
 AtZEff=  -0.0000000  -0.0000000  -0.0000000  -0.0000000  -0.0000000
 NQMom=    0.0000000   0.0000000   0.0000000   2.0440000   0.0000000
 NMagM=    2.7928460   0.0000000   0.0000000   0.4037610   0.0000000
 AtZNuc=   1.0000000   8.0000000   8.0000000   7.0000000   8.0000000
 Leave Link  101 at Sun Mar  6 19:38:58 2022, MaxMem= 16106127360 cpu:               2.5 elap:               0.1
 (Enter /sw/contrib/gaussian/g16/B01/g16/l103.exe)

 GradGradGradGradGradGradGradGradGradGradGradGradGradGradGradGradGradGrad
 Berny optimization.
 Initialization pass.
                       ----------------------------
                       !    Initial Parameters    !
                       ! (Angstroms and Degrees)  !
 ----------------------                            ----------------------
 !      Name          Value   Derivative information (Atomic Units)     !
 ------------------------------------------------------------------------
 !       r1          0.9854   calculate D2E/DX2 analytically            !
 !       r2          1.4267   calculate D2E/DX2 analytically            !
 !       r3          1.3811   calculate D2E/DX2 analytically            !
 !       r4          1.1948   calculate D2E/DX2 analytically            !
 !       a1        100.6355   calculate D2E/DX2 analytically            !
 !       a2        113.1378   calculate D2E/DX2 analytically            !
 !       a3        115.3957   calculate D2E/DX2 analytically            !
 !       d1          0.0      calculate D2E/DX2 analytically            !
 !       d2          0.0      calculate D2E/DX2 analytically            !
 ------------------------------------------------------------------------
 Trust Radius=3.00D-01 FncErr=1.00D-07 GrdErr=1.00D-07 EigMax=2.50D+02 EigMin=1.00D-04
 Number of steps in this run=      2 maximum allowed number of steps=      2.
 GradGradGradGradGradGradGradGradGradGradGradGradGradGradGradGradGradGrad

 Leave Link  103 at Sun Mar  6 19:38:58 2022, MaxMem= 16106127360 cpu:               0.6 elap:               0.0
 (Enter /sw/contrib/gaussian/g16/B01/g16/l202.exe)
                          Input orientation:                          
 ---------------------------------------------------------------------
 Center     Atomic      Atomic             Coordinates (Angstroms)
 Number     Number       Type             X           Y           Z
 ---------------------------------------------------------------------
      1          1           0        0.000000    0.000000    0.000000
      2          8           0        0.000000    0.000000    0.985377
      3          8           0        1.402227    0.000000    1.248696
      4          7           0        2.169996    0.000000    0.100659
      5          8           0        1.557657    0.000000   -0.925285
 ---------------------------------------------------------------------
                    Distance matrix (angstroms):
                    1          2          3          4          5
     1  H    0.000000
     2  O    0.985377   0.000000
     3  O    1.877627   1.426737   0.000000
     4  N    2.172329   2.343418   1.381108   0.000000
     5  O    1.811752   2.465141   2.179530   1.194788   0.000000
 Stoichiometry    HNO3
 Framework group  CS[SG(HNO3)]
 Deg. of freedom     7
 Full point group                 CS      NOp   2
 Largest Abelian subgroup         CS      NOp   2
 Largest concise Abelian subgroup C1      NOp   1
                         Standard orientation:                         
 ---------------------------------------------------------------------
 Center     Atomic      Atomic             Coordinates (Angstroms)
 Number     Number       Type             X           Y           Z
 ---------------------------------------------------------------------
      1          1           0        1.117790   -0.589822    0.000000
      2          8           0        1.318945    0.374804    0.000000
      3          8           0       -0.000000    0.918829    0.000000
      4          7           0       -0.985961   -0.048301    0.000000
      5          8           0       -0.595953   -1.177642    0.000000
 ---------------------------------------------------------------------
 Rotational constants (GHZ):          21.4680730           8.0056536           5.8311580
 Leave Link  202 at Sun Mar  6 19:38:58 2022, MaxMem= 16106127360 cpu:               0.4 elap:               0.0
 (Enter /sw/contrib/gaussian/g16/B01/g16/l301.exe)
 Standard basis: Aug-CC-pVTZ (5D, 7F)
 Ernie: Thresh=  0.10000D-02 Tol=  0.10000D-05 Strict=F.
 Ernie:  12 primitive shells out of 131 were deleted.
 There are   166 symmetry adapted cartesian basis functions of A'  symmetry.
 There are    79 symmetry adapted cartesian basis functions of A"  symmetry.
 There are   136 symmetry adapted basis functions of A'  symmetry.
 There are    71 symmetry adapted basis functions of A"  symmetry.
   207 basis functions,   315 primitive gaussians,   245 cartesian basis functions
    16 alpha electrons       16 beta electrons
       nuclear repulsion energy       122.5125836358 Hartrees.
 IExCor=    0 DFT=F Ex=HF Corr=None ExCW=0 ScaHFX=  1.000000
 ScaDFX=  1.000000  1.000000  1.000000  1.000000 ScalE2=  1.000000  1.000000
 IRadAn=      5 IRanWt=     -1 IRanGd=            0 ICorTp=0 IEmpDi=  4
 NAtoms=    5 NActive=    5 NUniq=    5 SFac= 1.00D+00 NAtFMM=   60 NAOKFM=F Big=F
 Integral buffers will be    131072 words long.
 Raffenetti 1 integral format.
 Two-electron integral symmetry is turned on.
 Leave Link  301 at Sun Mar  6 19:38:58 2022, MaxMem= 16106127360 cpu:               1.7 elap:               0.1
 (Enter /sw/contrib/gaussian/g16/B01/g16/l302.exe)
 NPDir=0 NMtPBC=     1 NCelOv=     1 NCel=       1 NClECP=     1 NCelD=      1
         NCelK=      1 NCelE2=     1 NClLst=     1 CellRange=     0.0.
 One-electron integrals computed using PRISM.
 One-electron integral symmetry used in STVInt
 NBasis=   207 RedAO= T EigKep=  1.31D-04  NBF=   136    71
 NBsUse=   207 1.00D-06 EigRej= -1.00D+00 NBFU=   136    71
 Leave Link  302 at Sun Mar  6 19:38:58 2022, MaxMem= 16106127360 cpu:               5.5 elap:               0.2
 (Enter /sw/contrib/gaussian/g16/B01/g16/l303.exe)
 DipDrv:  MaxL=1.
 Leave Link  303 at Sun Mar  6 19:38:58 2022, MaxMem= 16106127360 cpu:               0.9 elap:               0.1
 (Enter /sw/contrib/gaussian/g16/B01/g16/l401.exe)
 ExpMin= 2.53D-02 ExpMax= 1.53D+04 ExpMxC= 5.22D+02 IAcc=3 IRadAn=         5 AccDes= 0.00D+00
 Harris functional with IExCor=  205 and IRadAn=       5 diagonalized for initial guess.
 HarFok:  IExCor=  205 AccDes= 0.00D+00 IRadAn=         5 IDoV= 1 UseB2=F ITyADJ=14
 ICtDFT=  3500011 ScaDFX=  1.000000  1.000000  1.000000  1.000000
 FoFCou: FMM=F IPFlag=           0 FMFlag=      100000 FMFlg1=           0
         NFxFlg=           0 DoJE=T BraDBF=F KetDBF=T FulRan=T
         wScrn=  0.000000 ICntrl=       500 IOpCl=  0 I1Cent=   200000004 NGrid=           0
         NMat0=    1 NMatS0=      1 NMatT0=    0 NMatD0=    1 NMtDS0=    0 NMtDT0=    0
 Petite list used in FoFCou.
 Harris En= -279.644745820135    
 JPrj=0 DoOrth=F DoCkMO=F.
 Initial guess orbital symmetries:
       Occupied  (A') (A') (A') (A') (A') (A') (A') (A') (A') (A')
                 (A") (A') (A") (A') (A") (A')
       Virtual   (A") (A') (A') (A') (A') (A") (A') (A') (A') (A')
                 (A") (A') (A") (A') (A') (A") (A') (A') (A") (A')
                 (A') (A') (A') (A') (A") (A') (A') (A') (A") (A')
                 (A') (A") (A") (A') (A') (A") (A') (A") (A') (A")
                 (A') (A") (A') (A") (A') (A') (A') (A') (A") (A')
                 (A') (A") (A') (A") (A') (A") (A') (A') (A') (A")
                 (A') (A') (A") (A') (A') (A') (A") (A") (A') (A')
                 (A") (A') (A") (A") (A') (A') (A") (A') (A') (A')
                 (A") (A') (A') (A") (A') (A") (A') (A") (A') (A')
                 (A') (A") (A') (A") (A') (A') (A") (A') (A") (A')
                 (A") (A') (A') (A") (A") (A') (A') (A') (A") (A')
                 (A") (A') (A') (A') (A") (A') (A') (A') (A") (A')
                 (A") (A') (A') (A") (A") (A") (A") (A') (A') (A')
                 (A') (A') (A') (A") (A') (A") (A') (A") (A') (A')
                 (A") (A") (A') (A') (A') (A") (A') (A') (A') (A")
                 (A') (A') (A') (A") (A') (A") (A") (A') (A") (A')
                 (A') (A") (A") (A') (A") (A') (A') (A") (A") (A')
                 (A") (A") (A") (A') (A') (A") (A') (A') (A') (A")
                 (A') (A') (A') (A') (A') (A') (A') (A') (A') (A')
                 (A')
 The electronic state of the initial guess is 1-A'.
 Leave Link  401 at Sun Mar  6 19:38:58 2022, MaxMem= 16106127360 cpu:               7.6 elap:               0.3
 (Enter /sw/contrib/gaussian/g16/B01/g16/l502.exe)
 Keep R1 ints in memory in symmetry-blocked form, NReq=348887737.
 FoFCou: FMM=F IPFlag=           0 FMFlag=           0 FMFlg1=           0
         NFxFlg=           0 DoJE=F BraDBF=F KetDBF=F FulRan=T
         wScrn=  0.000000 ICntrl=       600 IOpCl=  0 I1Cent=           0 NGrid=           0
         NMat0=    1 NMatS0=  21528 NMatT0=    0 NMatD0=    1 NMtDS0=    0 NMtDT0=    0
 Petite list used in FoFCou.
 Closed shell SCF:
 Using DIIS extrapolation, IDIIS=  1040.
 NGot= 16106127360 LenX= 15988850015 LenY= 15988789549
 Requested convergence on RMS density matrix=1.00D-08 within 128 cycles.
 Requested convergence on MAX density matrix=1.00D-06.
 Requested convergence on             energy=1.00D-06.
 No special actions if energy rises.

 Cycle   1  Pass 1  IDiag  1:
 E= -279.364016343541    
 DIIS: error= 2.71D-02 at cycle   1 NSaved=   1.
 NSaved= 1 IEnMin= 1 EnMin= -279.364016343541     IErMin= 1 ErrMin= 2.71D-02
 ErrMax= 2.71D-02  0.00D+00 EMaxC= 1.00D-01 BMatC= 4.50D-01 BMatP= 4.50D-01
 IDIUse=3 WtCom= 7.29D-01 WtEn= 2.71D-01
 Coeff-Com:  0.100D+01
 Coeff-En:   0.100D+01
 Coeff:      0.100D+01
 Gap=     0.499 Goal=   None    Shift=    0.000
 GapD=    0.499 DampG=2.000 DampE=0.500 DampFc=1.0000 IDamp=-1.
 RMSDP=1.67D-03 MaxDP=8.60D-02              OVMax= 1.22D-01

 Cycle   2  Pass 1  IDiag  1:
 E= -279.446124233737     Delta-E=       -0.082107890197 Rises=F Damp=F
 DIIS: error= 1.92D-02 at cycle   2 NSaved=   2.
 NSaved= 2 IEnMin= 2 EnMin= -279.446124233737     IErMin= 2 ErrMin= 1.92D-02
 ErrMax= 1.92D-02  0.00D+00 EMaxC= 1.00D-01 BMatC= 8.60D-02 BMatP= 4.50D-01
 IDIUse=3 WtCom= 8.08D-01 WtEn= 1.92D-01
 Coeff-Com:  0.219D+00 0.781D+00
 Coeff-En:   0.762D-01 0.924D+00
 Coeff:      0.191D+00 0.809D+00
 Gap=     0.562 Goal=   None    Shift=    0.000
 RMSDP=9.67D-04 MaxDP=3.69D-02 DE=-8.21D-02 OVMax= 9.09D-02

 Cycle   3  Pass 1  IDiag  1:
 E= -279.483858564636     Delta-E=       -0.037734330899 Rises=F Damp=F
 DIIS: error= 1.12D-02 at cycle   3 NSaved=   3.
 NSaved= 3 IEnMin= 3 EnMin= -279.483858564636     IErMin= 3 ErrMin= 1.12D-02
 ErrMax= 1.12D-02  0.00D+00 EMaxC= 1.00D-01 BMatC= 3.10D-02 BMatP= 8.60D-02
 IDIUse=3 WtCom= 8.88D-01 WtEn= 1.12D-01
 Coeff-Com: -0.347D-01 0.365D+00 0.670D+00
 Coeff-En:   0.000D+00 0.219D+00 0.781D+00
 Coeff:     -0.308D-01 0.348D+00 0.682D+00
 Gap=     0.542 Goal=   None    Shift=    0.000
 RMSDP=4.10D-04 MaxDP=1.56D-02 DE=-3.77D-02 OVMax= 3.92D-02

 Cycle   4  Pass 1  IDiag  1:
 E= -279.505070074027     Delta-E=       -0.021211509391 Rises=F Damp=F
 DIIS: error= 1.67D-03 at cycle   4 NSaved=   4.
 NSaved= 4 IEnMin= 4 EnMin= -279.505070074027     IErMin= 4 ErrMin= 1.67D-03
 ErrMax= 1.67D-03  0.00D+00 EMaxC= 1.00D-01 BMatC= 6.03D-04 BMatP= 3.10D-02
 IDIUse=3 WtCom= 9.83D-01 WtEn= 1.67D-02
 Coeff-Com: -0.120D-01 0.468D-01 0.154D+00 0.811D+00
 Coeff-En:   0.000D+00 0.000D+00 0.000D+00 0.100D+01
 Coeff:     -0.118D-01 0.460D-01 0.151D+00 0.815D+00
 Gap=     0.529 Goal=   None    Shift=    0.000
 RMSDP=9.92D-05 MaxDP=2.30D-03 DE=-2.12D-02 OVMax= 1.18D-02

 Cycle   5  Pass 1  IDiag  1:
 E= -279.505886400859     Delta-E=       -0.000816326832 Rises=F Damp=F
 DIIS: error= 1.09D-03 at cycle   5 NSaved=   5.
 NSaved= 5 IEnMin= 5 EnMin= -279.505886400859     IErMin= 5 ErrMin= 1.09D-03
 ErrMax= 1.09D-03  0.00D+00 EMaxC= 1.00D-01 BMatC= 1.03D-04 BMatP= 6.03D-04
 IDIUse=3 WtCom= 9.89D-01 WtEn= 1.09D-02
 Coeff-Com:  0.539D-02-0.661D-01-0.111D+00 0.597D-01 0.111D+01
 Coeff-En:   0.000D+00 0.000D+00 0.000D+00 0.000D+00 0.100D+01
 Coeff:      0.533D-02-0.654D-01-0.110D+00 0.591D-01 0.111D+01
 Gap=     0.532 Goal=   None    Shift=    0.000
 RMSDP=7.99D-05 MaxDP=2.12D-03 DE=-8.16D-04 OVMax= 1.29D-02

 Cycle   6  Pass 1  IDiag  1:
 E= -279.506249686971     Delta-E=       -0.000363286112 Rises=F Damp=F
 DIIS: error= 3.36D-04 at cycle   6 NSaved=   6.
 NSaved= 6 IEnMin= 6 EnMin= -279.506249686971     IErMin= 6 ErrMin= 3.36D-04
 ErrMax= 3.36D-04  0.00D+00 EMaxC= 1.00D-01 BMatC= 2.40D-05 BMatP= 1.03D-04
 IDIUse=3 WtCom= 9.97D-01 WtEn= 3.36D-03
 Coeff-Com:  0.188D-02-0.698D-02-0.176D-01-0.182D+00 0.113D-01 0.119D+01
 Coeff-En:   0.000D+00 0.000D+00 0.000D+00 0.000D+00 0.000D+00 0.100D+01
 Coeff:      0.187D-02-0.695D-02-0.176D-01-0.181D+00 0.113D-01 0.119D+01
 Gap=     0.533 Goal=   None    Shift=    0.000
 RMSDP=4.66D-05 MaxDP=1.08D-03 DE=-3.63D-04 OVMax= 6.06D-03

 Cycle   7  Pass 1  IDiag  1:
 E= -279.506335365422     Delta-E=       -0.000085678450 Rises=F Damp=F
 DIIS: error= 1.30D-04 at cycle   7 NSaved=   7.
 NSaved= 7 IEnMin= 7 EnMin= -279.506335365422     IErMin= 7 ErrMin= 1.30D-04
 ErrMax= 1.30D-04  0.00D+00 EMaxC= 1.00D-01 BMatC= 3.56D-06 BMatP= 2.40D-05
 IDIUse=3 WtCom= 9.99D-01 WtEn= 1.30D-03
 Coeff-Com: -0.110D-02 0.115D-01 0.251D-01 0.177D-01-0.182D+00-0.158D+00
 Coeff-Com:  0.129D+01
 Coeff-En:   0.000D+00 0.000D+00 0.000D+00 0.000D+00 0.000D+00 0.000D+00
 Coeff-En:   0.100D+01
 Coeff:     -0.110D-02 0.114D-01 0.250D-01 0.176D-01-0.182D+00-0.157D+00
 Coeff:      0.129D+01
 Gap=     0.533 Goal=   None    Shift=    0.000
 RMSDP=1.76D-05 MaxDP=5.13D-04 DE=-8.57D-05 OVMax= 2.32D-03

 Cycle   8  Pass 1  IDiag  1:
 E= -279.506347358259     Delta-E=       -0.000011992837 Rises=F Damp=F
 DIIS: error= 4.70D-05 at cycle   8 NSaved=   8.
 NSaved= 8 IEnMin= 8 EnMin= -279.506347358259     IErMin= 8 ErrMin= 4.70D-05
 ErrMax= 4.70D-05  0.00D+00 EMaxC= 1.00D-01 BMatC= 5.90D-07 BMatP= 3.56D-06
 IDIUse=1 WtCom= 1.00D+00 WtEn= 0.00D+00
 Coeff-Com: -0.553D-03 0.404D-02 0.958D-02 0.246D-01-0.565D-01-0.191D+00
 Coeff-Com:  0.354D+00 0.856D+00
 Coeff:     -0.553D-03 0.404D-02 0.958D-02 0.246D-01-0.565D-01-0.191D+00
 Coeff:      0.354D+00 0.856D+00
 Gap=     0.533 Goal=   None    Shift=    0.000
 RMSDP=5.37D-06 MaxDP=1.53D-04 DE=-1.20D-05 OVMax= 6.36D-04

 Cycle   9  Pass 1  IDiag  1:
 E= -279.506348710175     Delta-E=       -0.000001351916 Rises=F Damp=F
 DIIS: error= 2.45D-05 at cycle   9 NSaved=   9.
 NSaved= 9 IEnMin= 9 EnMin= -279.506348710175     IErMin= 9 ErrMin= 2.45D-05
 ErrMax= 2.45D-05  0.00D+00 EMaxC= 1.00D-01 BMatC= 1.17D-07 BMatP= 5.90D-07
 IDIUse=1 WtCom= 1.00D+00 WtEn= 0.00D+00
 Coeff-Com:  0.241D-03-0.256D-02-0.531D-02-0.559D-02 0.470D-01 0.488D-01
 Coeff-Com: -0.340D+00 0.385D-01 0.122D+01
 Coeff:      0.241D-03-0.256D-02-0.531D-02-0.559D-02 0.470D-01 0.488D-01
 Coeff:     -0.340D+00 0.385D-01 0.122D+01
 Gap=     0.533 Goal=   None    Shift=    0.000
 RMSDP=2.45D-06 MaxDP=6.60D-05 DE=-1.35D-06 OVMax= 2.57D-04

 Cycle  10  Pass 1  IDiag  1:
 E= -279.506348972703     Delta-E=       -0.000000262529 Rises=F Damp=F
 DIIS: error= 5.83D-06 at cycle  10 NSaved=  10.
 NSaved=10 IEnMin=10 EnMin= -279.506348972703     IErMin=10 ErrMin= 5.83D-06
 ErrMax= 5.83D-06  0.00D+00 EMaxC= 1.00D-01 BMatC= 8.26D-09 BMatP= 1.17D-07
 IDIUse=1 WtCom= 1.00D+00 WtEn= 0.00D+00
 Coeff-Com: -0.386D-04 0.499D-03 0.120D-02-0.185D-02-0.110D-01 0.530D-02
 Coeff-Com:  0.735D-01-0.562D-01-0.438D+00 0.143D+01
 Coeff:     -0.386D-04 0.499D-03 0.120D-02-0.185D-02-0.110D-01 0.530D-02
 Coeff:      0.735D-01-0.562D-01-0.438D+00 0.143D+01
 Gap=     0.533 Goal=   None    Shift=    0.000
 RMSDP=7.06D-07 MaxDP=2.56D-05 DE=-2.63D-07 OVMax= 7.57D-05

 Cycle  11  Pass 1  IDiag  1:
 E= -279.506348997593     Delta-E=       -0.000000024890 Rises=F Damp=F
 DIIS: error= 2.22D-06 at cycle  11 NSaved=  11.
 NSaved=11 IEnMin=11 EnMin= -279.506348997593     IErMin=11 ErrMin= 2.22D-06
 ErrMax= 2.22D-06  0.00D+00 EMaxC= 1.00D-01 BMatC= 8.18D-10 BMatP= 8.26D-09
 IDIUse=1 WtCom= 1.00D+00 WtEn= 0.00D+00
 Coeff-Com: -0.156D-04 0.156D-03 0.322D-03 0.900D-03-0.199D-02-0.713D-02
 Coeff-Com:  0.176D-01 0.196D-01-0.416D-01-0.340D+00 0.135D+01
 Coeff:     -0.156D-04 0.156D-03 0.322D-03 0.900D-03-0.199D-02-0.713D-02
 Coeff:      0.176D-01 0.196D-01-0.416D-01-0.340D+00 0.135D+01
 Gap=     0.533 Goal=   None    Shift=    0.000
 RMSDP=2.42D-07 MaxDP=8.99D-06 DE=-2.49D-08 OVMax= 2.83D-05

 Cycle  12  Pass 1  IDiag  1:
 E= -279.506349000542     Delta-E=       -0.000000002949 Rises=F Damp=F
 DIIS: error= 6.93D-07 at cycle  12 NSaved=  12.
 NSaved=12 IEnMin=12 EnMin= -279.506349000542     IErMin=12 ErrMin= 6.93D-07
 ErrMax= 6.93D-07  0.00D+00 EMaxC= 1.00D-01 BMatC= 8.43D-11 BMatP= 8.18D-10
 IDIUse=1 WtCom= 1.00D+00 WtEn= 0.00D+00
 Coeff-Com:  0.268D-05-0.458D-04-0.981D-04 0.120D-03 0.113D-02-0.663D-03
 Coeff-Com: -0.733D-02 0.635D-02 0.402D-01-0.108D+00-0.188D+00 0.126D+01
 Coeff:      0.268D-05-0.458D-04-0.981D-04 0.120D-03 0.113D-02-0.663D-03
 Coeff:     -0.733D-02 0.635D-02 0.402D-01-0.108D+00-0.188D+00 0.126D+01
 Gap=     0.533 Goal=   None    Shift=    0.000
 RMSDP=8.29D-08 MaxDP=2.70D-06 DE=-2.95D-09 OVMax= 9.60D-06

 Cycle  13  Pass 1  IDiag  1:
 E= -279.506349000835     Delta-E=       -0.000000000293 Rises=F Damp=F
 DIIS: error= 1.65D-07 at cycle  13 NSaved=  13.
 NSaved=13 IEnMin=13 EnMin= -279.506349000835     IErMin=13 ErrMin= 1.65D-07
 ErrMax= 1.65D-07  0.00D+00 EMaxC= 1.00D-01 BMatC= 7.03D-12 BMatP= 8.43D-11
 IDIUse=1 WtCom= 1.00D+00 WtEn= 0.00D+00
 Coeff-Com:  0.126D-05-0.116D-04-0.165D-04-0.119D-03 0.361D-04 0.914D-03
 Coeff-Com: -0.970D-03-0.249D-02-0.247D-02 0.548D-01-0.128D+00-0.150D+00
 Coeff-Com:  0.123D+01
 Coeff:      0.126D-05-0.116D-04-0.165D-04-0.119D-03 0.361D-04 0.914D-03
 Coeff:     -0.970D-03-0.249D-02-0.247D-02 0.548D-01-0.128D+00-0.150D+00
 Coeff:      0.123D+01
 Gap=     0.533 Goal=   None    Shift=    0.000
 RMSDP=2.20D-08 MaxDP=6.49D-07 DE=-2.93D-10 OVMax= 2.00D-06

 Cycle  14  Pass 1  IDiag  1:
 E= -279.506349000855     Delta-E=       -0.000000000021 Rises=F Damp=F
 DIIS: error= 4.07D-08 at cycle  14 NSaved=  14.
 NSaved=14 IEnMin=14 EnMin= -279.506349000855     IErMin=14 ErrMin= 4.07D-08
 ErrMax= 4.07D-08  0.00D+00 EMaxC= 1.00D-01 BMatC= 4.83D-13 BMatP= 7.03D-12
 IDIUse=1 WtCom= 1.00D+00 WtEn= 0.00D+00
 Coeff-Com: -0.306D-06 0.452D-05 0.895D-05-0.324D-05-0.113D-03 0.551D-04
 Coeff-Com:  0.649D-03-0.322D-03-0.356D-02 0.788D-02 0.168D-01-0.903D-01
 Coeff-Com: -0.184D-01 0.109D+01
 Coeff:     -0.306D-06 0.452D-05 0.895D-05-0.324D-05-0.113D-03 0.551D-04
 Coeff:      0.649D-03-0.322D-03-0.356D-02 0.788D-02 0.168D-01-0.903D-01
 Coeff:     -0.184D-01 0.109D+01
 Gap=     0.533 Goal=   None    Shift=    0.000
 RMSDP=4.31D-09 MaxDP=1.08D-07 DE=-2.07D-11 OVMax= 4.49D-07

 SCF Done:  E(RHF) =  -279.506349001     A.U. after   14 cycles
            NFock= 14  Conv=0.43D-08     -V/T= 2.0023
 KE= 2.788769983231D+02 PE=-9.058790923957D+02 EE= 2.249831614359D+02
 Leave Link  502 at Sun Mar  6 19:39:02 2022, MaxMem= 16106127360 cpu:              55.2 elap:               3.6
 (Enter /sw/contrib/gaussian/g16/B01/g16/l801.exe)
 ExpMin= 2.53D-02 ExpMax= 1.53D+04 ExpMxC= 5.22D+02 IAcc=3 IRadAn=         5 AccDes= 0.00D+00
 HarFok:  IExCor=  205 AccDes= 0.00D+00 IRadAn=         5 IDoV=-2 UseB2=F ITyADJ=14
 ICtDFT= 12500011 ScaDFX=  1.000000  1.000000  1.000000  1.000000
 Largest valence mixing into a core orbital is  2.07D-04
 Largest core mixing into a valence orbital is  3.08D-05
 Range of M.O.s used for correlation:     5   207
 NBasis=   207 NAE=    16 NBE=    16 NFC=     4 NFV=     0
 NROrb=    203 NOA=    12 NOB=    12 NVA=   191 NVB=   191

 **** Warning!!: The largest alpha MO coefficient is  0.16105097D+02

 Leave Link  801 at Sun Mar  6 19:39:02 2022, MaxMem= 16106127360 cpu:               2.4 elap:               0.1
 (Enter /sw/contrib/gaussian/g16/B01/g16/l906.exe)
 Frozen-core derivative calculation, NFC=   4 NFV=   0.
 FulOut=F Deriv=T AODrv=T NAtomX=     5
   MMem=           0  MDisk=          12 MDiskD=          12
  W3Min=      811440 MinDsk=     2425030 NBas6D=         245
 NBas2D=       30762    NTT=       30135    LW2=     7400000
    MDV= 16105571588 MDiskM=      328644 NBas2p=       30759
 Disk-based method using ON**2 memory for 12 occupieds at a time.
 Permanent disk used for amplitudes=    11516536 words.
 Estimated scratch disk usage=   321863743 words.
 IMap=   1   2   3   4   5   6   7   8   9  10  11  12  13  14  15  16
 Actual    scratch disk usage=   310892607 words.
 JobTyp=1 Pass  1:  I=   5 to  16 NPSUse= 28 ParTrn=T ParDer=T DoDerP=T.
 (rs|ai) integrals will be sorted in core.
 Spin components of T(2) and E(2):
     alpha-alpha T2 =       0.3480355654D-01 E2=     -0.1245175638D+00
     alpha-beta  T2 =       0.1845993905D+00 E2=     -0.6997415969D+00
     beta-beta   T2 =       0.3480355654D-01 E2=     -0.1245175638D+00
 The integrals were generated   1 times.
 ANorm=    0.1119913614D+01
 E2 =    -0.9487767246D+00 EUMP2 =    -0.28045512572543D+03
 Leave Link  906 at Sun Mar  6 19:40:40 2022, MaxMem= 16106127360 cpu:            2724.7 elap:              97.5
 (Enter /sw/contrib/gaussian/g16/B01/g16/l1101.exe)
 Using compressed Sx but separate Hx and Fx, NAtomX=     5.
 Will process      6 centers per pass.
 Leave Link 1101 at Sun Mar  6 19:40:40 2022, MaxMem= 16106127360 cpu:               7.4 elap:               0.3
 (Enter /sw/contrib/gaussian/g16/B01/g16/l1102.exe)
 Leave Link 1102 at Sun Mar  6 19:40:40 2022, MaxMem= 16106127360 cpu:               0.9 elap:               0.1
 (Enter /sw/contrib/gaussian/g16/B01/g16/l1110.exe)
 Forming Gx(P) for the SCF density, NAtomX=     5.
 Integral derivatives from FoFJK, PRISM(SPDF).
 Do as many integral derivatives as possible in FoFJK.
 G2DrvN: MDV=   16106126844.
 G2DrvN: will do     6 centers at a time, making    1 passes.
 Calling FoFCou, ICntrl=  3107 FMM=F I1Cent=   0 AccDes= 0.00D+00.
 FoFJK:  IHMeth= 1 ICntrl=    3107 DoSepK=F KAlg= 0 I1Cent=           0 FoldK=F
 IRaf=         0 NMat=       1 IRICut=       1 DoRegI=T DoRafI=F ISym2E= 1 IDoP0=0 IntGTp=1.
 FoFCou: FMM=F IPFlag=           0 FMFlag=      100000 FMFlg1=           0
         NFxFlg=           0 DoJE=F BraDBF=F KetDBF=F FulRan=T
         wScrn=  0.000000 ICntrl=      3107 IOpCl=  0 I1Cent=           0 NGrid=           0
         NMat0=    1 NMatS0=      1 NMatT0=    0 NMatD0=    1 NMtDS0=    0 NMtDT0=    0
 Petite list used in FoFCou.
 End of G2Drv F.D. properties file   721 does not exist.
 End of G2Drv F.D. properties file   722 does not exist.
 End of G2Drv F.D. properties file   788 does not exist.
 Leave Link 1110 at Sun Mar  6 19:40:43 2022, MaxMem= 16106127360 cpu:              88.6 elap:               3.2
 (Enter /sw/contrib/gaussian/g16/B01/g16/l1002.exe)
 Minotr:  Closed shell wavefunction.
          IDoAtm=11111
          Frozen-core window.
          Direct CPHF calculation.
          Differentiating once with respect to electric field.
                with respect to dipole field.
          Differentiating once with respect to nuclear coordinates.
          Requested convergence is 1.0D-08 RMS, and 1.0D-07 maximum.
          Secondary convergence is 1.0D-12 RMS, and 1.0D-12 maximum.
          NewPWx=T KeepS1=T KeepF1=T KeepIn=T MapXYZ=F SortEE=F KeepMc=T.
 Keep R1 ints in memory in symmetry-blocked form, NReq=348888983.
 FoFCou: FMM=F IPFlag=           0 FMFlag=           0 FMFlg1=           0
         NFxFlg=           0 DoJE=F BraDBF=F KetDBF=F FulRan=T
         wScrn=  0.000000 ICntrl=       600 IOpCl=  0 I1Cent=           0 NGrid=           0
         NMat0=    1 NMatS0=  21528 NMatT0=    0 NMatD0=    1 NMtDS0=    0 NMtDT0=    0
 Petite list used in FoFCou.
          MDV=   16106127360 using IRadAn=       1.
          Solving linear equations simultaneously, MaxMat=       0.
          There are    18 degrees of freedom in the 1st order CPHF.  IDoFFX=6 NUNeed=    18.
     15 vectors produced by pass  0 Test12= 1.70D-14 5.56D-09 XBig12= 7.96D+00 1.23D+00.
 AX will form    15 AO Fock derivatives at one time.
     15 vectors produced by pass  1 Test12= 1.70D-14 5.56D-09 XBig12= 1.37D+00 2.09D-01.
     15 vectors produced by pass  2 Test12= 1.70D-14 5.56D-09 XBig12= 6.75D-02 5.81D-02.
     15 vectors produced by pass  3 Test12= 1.70D-14 5.56D-09 XBig12= 1.96D-03 1.09D-02.
     15 vectors produced by pass  4 Test12= 1.70D-14 5.56D-09 XBig12= 4.35D-05 1.22D-03.
     15 vectors produced by pass  5 Test12= 1.70D-14 5.56D-09 XBig12= 6.01D-07 1.20D-04.
     15 vectors produced by pass  6 Test12= 1.70D-14 5.56D-09 XBig12= 4.55D-09 1.20D-05.
     14 vectors produced by pass  7 Test12= 1.70D-14 5.56D-09 XBig12= 3.35D-11 7.78D-07.
      3 vectors produced by pass  8 Test12= 1.70D-14 5.56D-09 XBig12= 2.30D-13 6.15D-08.
      1 vectors produced by pass  9 Test12= 1.70D-14 5.56D-09 XBig12= 1.56D-15 6.41D-09.
 InvSVY:  IOpt=1 It=  1 EMax= 8.88D-16
 Solved reduced A of dimension   123 with    15 vectors.
 FullF1:  Do perturbations      1 to      18.
 Saving first derivative matrices.
 End of Minotr F.D. properties file   721 does not exist.
 End of Minotr F.D. properties file   722 does not exist.
 End of Minotr F.D. properties file   788 does not exist.
 Leave Link 1002 at Sun Mar  6 19:40:46 2022, MaxMem= 16106127360 cpu:              76.6 elap:               2.9
 (Enter /sw/contrib/gaussian/g16/B01/g16/l811.exe)
 MDV= 16106127360.
 Form MO integral derivatives with frozen-active canonical formalism.
 MOERI=1 MOERIx=1 NAtoms=     5 NAtomX=     5.
 Discarding MO integrals.
 MO basis two electron integral derivatives will not be stored on disk.
 IAlg= 3 DoFC=T DoPWx=T Debug=F.
 Frozen-core window:  NFC=   4 NFV=   0.
 Reordered first order wavefunction length =     18678272
 In DefCFB: NBatch=  1 ICI= 16 ICA=191 LFMax= 96
            Large arrays: LIAPS=   619940160 LIARS=   288257200 words.
 In StABat: MaxSiz= 55 MinSiz= 25 NAtomB=  5
 DoIAMN: NPSUse= 28.
 Leave Link  811 at Sun Mar  6 19:42:05 2022, MaxMem= 16106127360 cpu:            2212.7 elap:              79.1
 (Enter /sw/contrib/gaussian/g16/B01/g16/l804.exe)
 Frozen-core window:  NFC=   4 NFV=   0.
 Closed-shell transformation, MDV= 16106127360 ITran=4 ISComp=1.
 Semi-Direct transformation.
 ModeAB=           2 MOrb=            16 LenV=   16104919981
 LASXX=     67341636 LTotXX=    67341636 LenRXX=    67341636
 LTotAB=    68301760 MaxLAS=    99807120 LenRXY=    99807120
 NonZer=   134683272 LenScr=   202817536 LnRSAI=           0
 LnScr1=           0 LExtra=           0 Total=    369966292
 MaxDsk=          -1 SrtSym=           F ITran=            4
 DoSDTr:  NPSUse= 28
 JobTyp=0 Pass  1:  I=   1 to  16.
 (rs|ai) integrals will be sorted in core.
 Complete sort for first half transformation.
 First half transformation complete.
 Begin second half transformation for I=  10.
 Begin second half transformation for I=  10.
 Complete sort for second half transformation.
 Second half transformation complete.
 Spin components of T(2) and E(2):
     alpha-alpha T2 =       0.3480355654D-01 E2=     -0.1245175638D+00
     alpha-beta  T2 =       0.1845993905D+00 E2=     -0.6997415969D+00
     beta-beta   T2 =       0.3480355654D-01 E2=     -0.1245175638D+00
 ANorm=    0.1583797022D+01
 E2 =    -0.9487767246D+00 EUMP2 =    -0.28045512572543D+03
 Leave Link  804 at Sun Mar  6 19:42:21 2022, MaxMem= 16106127360 cpu:             444.9 elap:              16.0
 (Enter /sw/contrib/gaussian/g16/B01/g16/l1002.exe)
 Minotr:  Closed shell wavefunction.
          Computing MP2/KS-MP2 derivatives.
          Using Z-Vector for PSCF gradient.
          Skipping F1 and S1 gradient terms here.
          IDoAtm=11111
          Frozen-core window.
          Using MO integrals in the linear equations.
          Forming densities via direct SCF.
          Differentiating once with respect to electric field.
                with respect to dipole field.
          Differentiating once with respect to nuclear coordinates.
          Using symmetry in CPHF.
          Requested convergence is 1.0D-10 RMS, and 1.0D-09 maximum.
          NewPWx=F KeepS1=T KeepF1=T KeepIn=T MapXYZ=F SortEE=F KeepMc=T.
          MDV=   16106127360 using IRadAn=       5.
          Solving linear equations separately, MaxMat=       0.
          There are     1 degrees of freedom in the 1st order CPHF.  IDoFFX=0 NUNeed=     1.
 FoFJK:  IHMeth= 1 ICntrl=       0 DoSepK=F KAlg= 0 I1Cent=           0 FoldK=F
 IRaf=         0 NMat=       1 IRICut=       1 DoRegI=T DoRafI=F ISym2E= 0 IDoP0=0 IntGTp=1.
 FoFCou: FMM=F IPFlag=           0 FMFlag=      100000 FMFlg1=           0
         NFxFlg=           0 DoJE=F BraDBF=F KetDBF=F FulRan=T
         wScrn=  0.000000 ICntrl=         0 IOpCl=  0 I1Cent=           0 NGrid=           0
         NMat0=    1 NMatS0=      1 NMatT0=    0 NMatD0=    1 NMtDS0=    0 NMtDT0=    0
 Symmetry not used in FoFCou.
 LinEq1:  Iter=  0 NonCon=     1 RMS=6.60D-03 Max=1.69D-01 NDo=     1
 LinEq1:  Iter=  1 NonCon=     1 RMS=2.00D-03 Max=3.09D-02 NDo=     1
 LinEq1:  Iter=  2 NonCon=     1 RMS=8.88D-04 Max=1.43D-02 NDo=     1
 LinEq1:  Iter=  3 NonCon=     1 RMS=3.81D-04 Max=8.18D-03 NDo=     1
 LinEq1:  Iter=  4 NonCon=     1 RMS=1.38D-04 Max=1.67D-03 NDo=     1
 LinEq1:  Iter=  5 NonCon=     1 RMS=7.68D-05 Max=1.38D-03 NDo=     1
 LinEq1:  Iter=  6 NonCon=     1 RMS=2.44D-05 Max=2.85D-04 NDo=     1
 LinEq1:  Iter=  7 NonCon=     1 RMS=8.14D-06 Max=1.08D-04 NDo=     1
 LinEq1:  Iter=  8 NonCon=     1 RMS=3.97D-06 Max=6.15D-05 NDo=     1
 LinEq1:  Iter=  9 NonCon=     1 RMS=1.03D-06 Max=1.20D-05 NDo=     1
 LinEq1:  Iter= 10 NonCon=     1 RMS=2.30D-07 Max=2.85D-06 NDo=     1
 LinEq1:  Iter= 11 NonCon=     1 RMS=4.91D-08 Max=7.88D-07 NDo=     1
 LinEq1:  Iter= 12 NonCon=     1 RMS=1.15D-08 Max=1.67D-07 NDo=     1
 LinEq1:  Iter= 13 NonCon=     1 RMS=2.04D-09 Max=2.55D-08 NDo=     1
 LinEq1:  Iter= 14 NonCon=     1 RMS=4.25D-10 Max=5.78D-09 NDo=     1
 LinEq1:  Iter= 15 NonCon=     0 RMS=8.74D-11 Max=8.76D-10 NDo=     1
 Linear equations converged to 1.000D-10 1.000D-09 after    15 iterations.
 End of Minotr F.D. properties file   721 does not exist.
 End of Minotr F.D. properties file   722 does not exist.
 End of Minotr F.D. properties file   788 does not exist.
 Leave Link 1002 at Sun Mar  6 19:42:24 2022, MaxMem= 16106127360 cpu:              66.1 elap:               2.4
 (Enter /sw/contrib/gaussian/g16/B01/g16/l1102.exe)
 Use density number 2.
 Symmetrizing basis deriv contribution to polar:
 IMax=3 JMax=2 DiffMx= 0.00D+00
 Leave Link 1102 at Sun Mar  6 19:42:24 2022, MaxMem= 16106127360 cpu:               0.6 elap:               0.0
 (Enter /sw/contrib/gaussian/g16/B01/g16/l1110.exe)
 Forming Gx(P) for generalized density number  2 NAtomX=     5.
 Integral derivatives from FoFJK, PRISM(SPDF).
 Do as many integral derivatives as possible in FoFJK.
 G2DrvN: MDV=   16106126844.
 G2DrvN: will do     6 centers at a time, making    1 passes.
 Calling FoFCou, ICntrl=  3107 FMM=F I1Cent=   0 AccDes= 0.00D+00.
 FoFJK:  IHMeth= 1 ICntrl=    3107 DoSepK=F KAlg= 0 I1Cent=           0 FoldK=F
 IRaf=         0 NMat=       1 IRICut=       1 DoRegI=T DoRafI=F ISym2E= 1 IDoP0=0 IntGTp=1.
 FoFCou: FMM=F IPFlag=           0 FMFlag=      100000 FMFlg1=           0
         NFxFlg=           0 DoJE=F BraDBF=F KetDBF=F FulRan=T
         wScrn=  0.000000 ICntrl=      3107 IOpCl=  0 I1Cent=           0 NGrid=           0
         NMat0=    1 NMatS0=      1 NMatT0=    0 NMatD0=    1 NMtDS0=    0 NMtDT0=    0
 Petite list used in FoFCou.
 End of G2Drv F.D. properties file   721 does not exist.
 End of G2Drv F.D. properties file   722 does not exist.
 End of G2Drv F.D. properties file   788 does not exist.
 Leave Link 1110 at Sun Mar  6 19:42:27 2022, MaxMem= 16106127360 cpu:              88.5 elap:               3.2
 (Enter /sw/contrib/gaussian/g16/B01/g16/l1112.exe)
 MP22nd: MDV=   16106127360
 This link is doing NAtomX=     5 total of    18 degrees of freedom.
 Using ON3 I/O method in MakUI.
 Frozen-core window:  NFC=   4 NFV=   0.
 Using Ix for Sx.
 Use MO integrals over full window.
 Using OV2 memory method for fx*t*t/D, MaxI=    16 DoOO2=F NP=  28.
 R2 and R3 integrals will be kept in memory, NReq=   915591705.
 FoFCou: FMM=F IPFlag=           0 FMFlag=           0 FMFlg1=           0
         NFxFlg=           0 DoJE=F BraDBF=F KetDBF=F FulRan=T
         wScrn=  0.000000 ICntrl=       600 IOpCl=  0 I1Cent=           0 NGrid=           0
         NMat0=    1 NMatS0=      1 NMatT0=    0 NMatD0=    1 NMtDS0=    0 NMtDT0=    0
 Symmetry not used in FoFCou.
 DD1Dir will call FoFMem   1 times, MxPair=       272
 NAB=   136 NAA=     0 NBB=     0.
 Symmetry is being used.
 FoFJK:  IHMeth= 1 ICntrl=       0 DoSepK=F KAlg= 0 I1Cent=           0 FoldK=F
 IRaf=         0 NMat=      18 IRICut=      45 DoRegI=T DoRafI=T ISym2E= 2 IDoP0=3 IntGTp=3.
 Discarding MO integrals.
 Leave Link 1112 at Sun Mar  6 19:43:03 2022, MaxMem= 16106127360 cpu:            1002.6 elap:              36.3
 (Enter /sw/contrib/gaussian/g16/B01/g16/l601.exe)
 Copying SCF densities to generalized density rwf, IOpCl= 0 IROHF=0.

 **********************************************************************

            Population analysis using the MP2 Density.

 **********************************************************************

 Orbital symmetries:
       Occupied  (A') (A') (A') (A') (A') (A') (A') (A') (A') (A')
                 (A") (A') (A') (A") (A') (A")
       Virtual   (A') (A") (A') (A') (A") (A') (A') (A') (A") (A')
                 (A") (A') (A') (A') (A") (A') (A') (A") (A') (A')
                 (A') (A') (A') (A') (A") (A') (A') (A") (A') (A')
                 (A') (A") (A") (A') (A') (A') (A") (A') (A") (A')
                 (A") (A") (A') (A') (A") (A') (A') (A") (A') (A')
                 (A') (A") (A') (A') (A") (A') (A") (A') (A") (A')
                 (A') (A') (A") (A') (A') (A') (A") (A") (A') (A')
                 (A") (A') (A") (A") (A') (A') (A") (A') (A') (A')
                 (A") (A') (A') (A") (A') (A") (A") (A') (A') (A')
                 (A') (A') (A") (A") (A') (A') (A") (A") (A') (A')
                 (A") (A') (A") (A') (A") (A') (A') (A') (A") (A')
                 (A") (A') (A') (A') (A") (A') (A') (A') (A") (A')
                 (A") (A') (A") (A') (A") (A") (A') (A") (A') (A')
                 (A') (A') (A") (A') (A') (A") (A") (A') (A') (A')
                 (A") (A") (A') (A') (A') (A") (A') (A') (A') (A")
                 (A') (A') (A') (A") (A") (A') (A") (A') (A') (A")
                 (A') (A") (A') (A") (A") (A') (A') (A") (A") (A")
                 (A') (A") (A") (A') (A') (A") (A') (A') (A') (A")
                 (A') (A') (A') (A') (A') (A') (A') (A') (A') (A')
                 (A')
 The electronic state is 1-A'.
 Alpha  occ. eigenvalues --  -20.72089 -20.68777 -20.66896 -15.82534  -1.64298
 Alpha  occ. eigenvalues --   -1.50661  -1.29424  -0.96069  -0.83334  -0.75871
 Alpha  occ. eigenvalues --   -0.73980  -0.63885  -0.61972  -0.61907  -0.50282
 Alpha  occ. eigenvalues --   -0.49810
 Alpha virt. eigenvalues --    0.03497   0.06086   0.09511   0.10054   0.11974
 Alpha virt. eigenvalues --    0.12267   0.14897   0.15187   0.17769   0.18037
 Alpha virt. eigenvalues --    0.18957   0.21110   0.21673   0.24260   0.24635
 Alpha virt. eigenvalues --    0.26832   0.31142   0.31559   0.33811   0.34291
 Alpha virt. eigenvalues --    0.34622   0.39264   0.44712   0.48858   0.50455
 Alpha virt. eigenvalues --    0.51897   0.54414   0.56216   0.59926   0.62080
 Alpha virt. eigenvalues --    0.63954   0.68926   0.71736   0.72385   0.73959
 Alpha virt. eigenvalues --    0.76490   0.76756   0.79566   0.80483   0.84019
 Alpha virt. eigenvalues --    0.84316   0.85095   0.88479   0.90680   0.92760
 Alpha virt. eigenvalues --    0.94879   0.95461   1.01794   1.03171   1.05582
 Alpha virt. eigenvalues --    1.06514   1.09320   1.14256   1.15573   1.17178
 Alpha virt. eigenvalues --    1.22070   1.22671   1.24615   1.35090   1.36392
 Alpha virt. eigenvalues --    1.37052   1.46914   1.48381   1.50682   1.54122
 Alpha virt. eigenvalues --    1.59114   1.59649   1.60519   1.62837   1.69574
 Alpha virt. eigenvalues --    1.74022   1.80150   1.82840   1.88737   1.89655
 Alpha virt. eigenvalues --    1.92715   1.98017   1.99098   2.04937   2.12121
 Alpha virt. eigenvalues --    2.13014   2.16426   2.18609   2.24204   2.25965
 Alpha virt. eigenvalues --    2.29465   2.35193   2.36213   2.38637   2.40196
 Alpha virt. eigenvalues --    2.43367   2.47024   2.47865   2.52668   2.53758
 Alpha virt. eigenvalues --    2.54588   2.55683   2.61235   2.62766   2.67028
 Alpha virt. eigenvalues --    2.67089   2.75606   2.80863   2.81122   2.84242
 Alpha virt. eigenvalues --    2.91704   2.97712   3.04863   3.05403   3.11558
 Alpha virt. eigenvalues --    3.11775   3.17215   3.21279   3.30610   3.33450
 Alpha virt. eigenvalues --    3.36024   3.48150   3.67727   3.86884   3.92501
 Alpha virt. eigenvalues --    4.18065   4.21704   4.21879   4.26587   4.36557
 Alpha virt. eigenvalues --    4.50124   4.51203   4.55912   4.60014   4.69186
 Alpha virt. eigenvalues --    4.80834   4.90363   4.91253   4.94356   4.99572
 Alpha virt. eigenvalues --    5.00474   5.10822   5.13462   5.17674   5.24806
 Alpha virt. eigenvalues --    5.25536   5.31606   5.33895   5.35314   5.54282
 Alpha virt. eigenvalues --    5.64296   5.70173   5.88451   6.00177   6.26409
 Alpha virt. eigenvalues --    6.29600   6.35931   6.37629   6.59870   6.64940
 Alpha virt. eigenvalues --    6.65813   6.68462   6.72353   6.80571   6.80672
 Alpha virt. eigenvalues --    6.83962   6.96969   7.01902   7.06616   7.08042
 Alpha virt. eigenvalues --    7.14092   7.16416   7.17535   7.20268   7.24457
 Alpha virt. eigenvalues --    7.24462   7.26970   7.34817   7.39580   7.42314
 Alpha virt. eigenvalues --    7.44257   7.46181   7.55972   7.65403   7.66363
 Alpha virt. eigenvalues --    7.79437   7.88231   7.95279   8.05547   8.30451
 Alpha virt. eigenvalues --    8.50257   8.65249  13.61157  14.76208  15.09980
 Alpha virt. eigenvalues --   15.73532
          Condensed to atoms (all electrons):
               1          2          3          4          5
     1  H    0.577652   0.125509   0.023710  -0.000379  -0.004872
     2  O    0.125509   8.389005  -0.231970  -0.000532  -0.007855
     3  O    0.023710  -0.231970   8.371031  -0.169734  -0.030750
     4  N   -0.000379  -0.000532  -0.169734   7.136577  -0.120366
     5  O   -0.004872  -0.007855  -0.030750  -0.120366   8.360214
 Mulliken charges:
               1
     1  H    0.278380
     2  O   -0.274157
     3  O    0.037713
     4  N    0.154435
     5  O   -0.196371
 Sum of Mulliken charges =  -0.00000
 Mulliken charges with hydrogens summed into heavy atoms:
               1
     2  O    0.004223
     3  O    0.037713
     4  N    0.154435
     5  O   -0.196371
 APT charges:
               1
     1  H    0.269559
     2  O   -0.302909
     3  O   -0.309303
     4  N    0.646689
     5  O   -0.304036
 Sum of APT charges =  -0.00000
 APT charges with hydrogens summed into heavy atoms:
               1
     2  O   -0.033350
     3  O   -0.309303
     4  N    0.646689
     5  O   -0.304036
 Electronic spatial extent (au):  <R**2>=            208.4309
 Charge=             -0.0000 electrons
 Dipole moment (field-independent basis, Debye):
    X=              0.0770    Y=             -1.0956    Z=              0.0000  Tot=              1.0983
 Quadrupole moment (field-independent basis, Debye-Ang):
   XX=            -23.4013   YY=            -22.9502   ZZ=            -21.9374
   XY=             -1.9650   XZ=              0.0000   YZ=              0.0000
 Traceless Quadrupole moment (field-independent basis, Debye-Ang):
   XX=             -0.6383   YY=             -0.1872   ZZ=              0.8255
   XY=             -1.9650   XZ=              0.0000   YZ=              0.0000
 Octapole moment (field-independent basis, Debye-Ang**2):
  XXX=              2.6174  YYY=              0.3213  ZZZ=              0.0000  XYY=              2.3211
  XXY=             -2.8484  XXZ=              0.0000  XZZ=             -0.5895  YZZ=             -0.7113
  YYZ=              0.0000  XYZ=              0.0000
 Hexadecapole moment (field-independent basis, Debye-Ang**3):
 XXXX=           -127.4317 YYYY=            -95.6495 ZZZZ=            -18.0513 XXXY=            -22.1724
 XXXZ=              0.0000 YYYX=            -20.2408 YYYZ=              0.0000 ZZZX=              0.0000
 ZZZY=              0.0000 XXYY=            -35.8956 XXZZ=            -24.4184 YYZZ=            -18.7316
 XXYZ=              0.0000 YYXZ=              0.0000 ZZXY=             -6.0912
 N-N= 1.225125836358D+02 E-N=-9.065724495109D+02  KE= 2.801956150506D+02
 Symmetry A'   KE= 2.663421962065D+02
 Symmetry A"   KE= 1.385341884417D+01
  Exact polarizability:  30.958   4.226  29.993   0.000   0.000  17.641
 Approx polarizability:  24.512   0.632  27.797  -0.000  -0.000  15.526
 No NMR shielding tensors so no spin-rotation constants.
 Leave Link  601 at Sun Mar  6 19:43:03 2022, MaxMem= 16106127360 cpu:               4.3 elap:               0.2
 (Enter /sw/contrib/gaussian/g16/B01/g16/l701.exe)
 ... and contract with generalized density number  2.
 Compute integral second derivatives.
 Leave Link  701 at Sun Mar  6 19:43:04 2022, MaxMem= 16106127360 cpu:               6.1 elap:               0.2
 (Enter /sw/contrib/gaussian/g16/B01/g16/l702.exe)
 L702 exits ... SP integral derivatives will be done elsewhere.
 Leave Link  702 at Sun Mar  6 19:43:04 2022, MaxMem= 16106127360 cpu:               0.5 elap:               0.0
 (Enter /sw/contrib/gaussian/g16/B01/g16/l703.exe)
 Integral derivatives from FoFJK, PRISM(SPDF).
 Compute integral second derivatives, UseDBF=F ICtDFT=           0.
 Calling FoFJK, ICntrl=  10100127 FMM=F ISym2X=1 I1Cent= 0 IOpClX= 0 NMat=1 NMatS=1 NMatT=0.
 FoFJK:  IHMeth= 1 ICntrl=10100127 DoSepK=F KAlg= 0 I1Cent=           0 FoldK=F
 IRaf=         0 NMat=       1 IRICut=       1 DoRegI=T DoRafI=F ISym2E= 1 IDoP0=0 IntGTp=1.
 FoFCou: FMM=F IPFlag=           0 FMFlag=      100000 FMFlg1=         800
         NFxFlg=           0 DoJE=F BraDBF=F KetDBF=F FulRan=T
         wScrn=  0.000000 ICntrl=  10100127 IOpCl=  0 I1Cent=           0 NGrid=           0
         NMat0=    1 NMatS0=      1 NMatT0=    0 NMatD0=    1 NMtDS0=    0 NMtDT0=    0
 Petite list used in FoFCou.
 Leave Link  703 at Sun Mar  6 19:43:20 2022, MaxMem= 16106127360 cpu:             447.9 elap:              16.1
 (Enter /sw/contrib/gaussian/g16/B01/g16/l716.exe)
 Dipole        = 3.03119361D-02-4.31033622D-01 0.00000000D+00
 Polarizability= 3.09581604D+01 4.22641537D+00 2.99928227D+01
                 0.00000000D+00 0.00000000D+00 1.76414533D+01
 Full mass-weighted force constant matrix:
 Low frequencies ---  -51.9463   -0.0005    0.0011    0.0014   23.0934   54.4981
 Low frequencies ---  351.5244  382.2060  517.0007
 Diagonal vibrational polarizability:
        7.3542048      10.2564200      16.2608294
 Harmonic frequencies (cm**-1), IR intensities (KM/Mole), Raman scattering
 activities (A**4/AMU), depolarization ratios for plane and unpolarized
 incident light, reduced masses (AMU), force constants (mDyne/A),
 and normal coordinates:
                      1                      2                      3
                     A"                     A'                     A"
 Frequencies --    351.4832               382.1935               516.9650
 Red. masses --      1.5667                 7.1238                 2.8805
 Frc consts  --      0.1140                 0.6131                 0.4536
 IR Inten    --     62.7464                 7.6267                25.7468
  Atom  AN      X      Y      Z        X      Y      Z        X      Y      Z
     1   1    -0.00  -0.00   0.98    -0.72  -0.26  -0.00    -0.00  -0.00   0.93
     2   8    -0.00  -0.00  -0.11    -0.32  -0.32   0.00    -0.00  -0.00   0.05
     3   8    -0.00   0.00   0.12    -0.07   0.08  -0.00    -0.00   0.00  -0.18
     4   7     0.00   0.00  -0.11     0.05   0.09   0.00     0.00   0.00   0.27
     5   8     0.00   0.00   0.03     0.39   0.17   0.00     0.00   0.00  -0.16
                      4                      5                      6
                     A'                     A'                     A'
 Frequencies --    703.5850               839.0500               968.0716
 Red. masses --     13.1867                12.3977                 9.9555
 Frc consts  --      3.8461                 5.1424                 5.4970
 IR Inten    --    215.6491                34.2733                13.5480
  Atom  AN      X      Y      Z        X      Y      Z        X      Y      Z
     1   1    -0.37   0.01   0.00     0.44  -0.15  -0.00    -0.62  -0.01  -0.00
     2   8    -0.01  -0.08  -0.00     0.53  -0.20   0.00     0.21  -0.17   0.00
     3   8     0.37   0.59   0.00    -0.37  -0.02  -0.00    -0.37   0.40  -0.00
     4   7    -0.39  -0.45   0.00    -0.45  -0.06   0.00     0.38   0.05  -0.00
     5   8     0.01  -0.11  -0.00     0.21   0.28  -0.00    -0.13  -0.27   0.00
                      7                      8                      9
                     A'                     A'                     A'
 Frequencies --   1439.4482              1569.0923              3489.7818
 Red. masses --      1.3032                 6.3491                 1.0640
 Frc consts  --      1.5909                 9.2100                 7.6350
 IR Inten    --     78.9823               152.4881                40.9838
  Atom  AN      X      Y      Z        X      Y      Z        X      Y      Z
     1   1     0.97  -0.20  -0.00     0.77  -0.17  -0.00     0.15   0.99  -0.00
     2   8    -0.06  -0.05   0.00    -0.02  -0.02   0.00    -0.01  -0.06   0.00
     3   8    -0.03   0.06  -0.00     0.04   0.06  -0.00     0.00  -0.00  -0.00
     4   7     0.06  -0.05  -0.00    -0.24   0.40  -0.00    -0.00   0.00  -0.00
     5   8    -0.02   0.05   0.00     0.15  -0.37   0.00     0.00  -0.00   0.00

 -------------------
 - Thermochemistry -
 -------------------
 Temperature   298.150 Kelvin.  Pressure   1.00000 Atm.
 Atom     1 has atomic number  1 and mass   1.00783
 Atom     2 has atomic number  8 and mass  15.99491
 Atom     3 has atomic number  8 and mass  15.99491
 Atom     4 has atomic number  7 and mass  14.00307
 Atom     5 has atomic number  8 and mass  15.99491
 Molecular mass:    62.99564 amu.
 Principal axes and moments of inertia in atomic units:
                           1         2         3
     Eigenvalues --    84.06629 225.43334 309.49962
           X            0.79177  -0.61082   0.00000
           Y            0.61082   0.79177   0.00000
           Z            0.00000   0.00000   1.00000
 This molecule is an asymmetric top.
 Rotational symmetry number  1.
 Rotational temperatures (Kelvin)      1.03031     0.38421     0.27985
 Rotational constants (GHZ):          21.46807     8.00565     5.83116
 Zero-point vibrational energy      61366.5 (Joules/Mol)
                                   14.66694 (Kcal/Mol)
 Warning -- explicit consideration of   3 degrees of freedom as
           vibrations may cause significant error
 Vibrational temperatures:    505.71   549.89   743.80  1012.30  1207.21
          (Kelvin)           1392.84  2071.04  2257.57  5021.02
 
 Zero-point correction=                           0.023373 (Hartree/Particle)
 Thermal correction to Energy=                    0.027335
 Thermal correction to Enthalpy=                  0.028279
 Thermal correction to Gibbs Free Energy=        -0.002626
 Sum of electronic and zero-point Energies=           -280.431752
 Sum of electronic and thermal Energies=              -280.427791
 Sum of electronic and thermal Enthalpies=            -280.426846
 Sum of electronic and thermal Free Energies=         -280.457752
 
                     E (Thermal)             CV                S
                      KCal/Mol        Cal/Mol-Kelvin    Cal/Mol-Kelvin
 Total                   17.153             12.230             65.045
 Electronic               0.000              0.000              0.000
 Translational            0.889              2.981             38.341
 Rotational               0.889              2.981             23.288
 Vibrational             15.376              6.268              3.417
 Vibration     1          0.728              1.572              1.160
 Vibration     2          0.752              1.508              1.030
 Vibration     3          0.872              1.212              0.617
                       Q            Log10(Q)             Ln(Q)
 Total Bot       0.161360D+02          1.207797          2.781056
 Total V=0       0.909360D+12         11.958736         27.536007
 Vib (Bot)       0.299490D-10        -10.523618        -24.231526
 Vib (Bot)    1  0.524411D+00         -0.280329         -0.645480
 Vib (Bot)    2  0.472346D+00         -0.325740         -0.750044
 Vib (Bot)    3  0.313101D+00         -0.504315         -1.161229
 Vib (V=0)       0.168780D+01          0.227321          0.523425
 Vib (V=0)    1  0.122457D+01          0.087985          0.202592
 Vib (V=0)    2  0.118783D+01          0.074754          0.172128
 Vib (V=0)    3  0.108994D+01          0.037404          0.086125
 Electronic      0.100000D+01          0.000000          0.000000
 Translational   0.196526D+08          7.293420         16.793719
 Rotational      0.274155D+05          4.437996         10.218863
 
                                                                title
                                                             IR Spectrum
 
     3                                                                     1    1                                                    
     4                                                                     5    4                9    8    7      5    33            
     9                                                                     6    3                6    3    0      1    85            
     0                                                                     9    9                8    9    4      7    21            
 
     X                                                                     X    X                X    X    X      X    XX            
     X                                                                     X    X                     X    X      X     X            
     X                                                                     X    X                     X    X            X            
     X                                                                     X    X                          X            X            
                                                                           X    X                          X            X            
                                                                           X    X                          X            X            
                                                                           X    X                          X                         
                                                                           X                               X                         
                                                                           X                               X                         
                                                                           X                               X                         
                                                                           X                               X                         
                                                                           X                               X                         
                                                                           X                               X                         
                                                                           X                               X                         
                                                                                                           X                         
                                                                                                           X                         
                                                                                                           X                         
                                                                                                           X                         
                                                                                                           X                         
                                                                                                           X                         
 
 ***** Axes restored to original set *****
 -------------------------------------------------------------------
 Center     Atomic                   Forces (Hartrees/Bohr)
 Number     Number              X              Y              Z
 -------------------------------------------------------------------
      1        1          -0.000205254   -0.000000000    0.000162622
      2        8          -0.001203740   -0.000000000   -0.000836221
      3        8          -0.000912585   -0.000000000   -0.003716358
      4        7           0.005997662   -0.000000000    0.000085744
      5        8          -0.003676084   -0.000000000    0.004304214
 -------------------------------------------------------------------
 Cartesian Forces:  Max     0.005997662 RMS     0.002378797
 -----------------------------------------------------------------------------------------------
                       Internal Coordinate Forces (Hartree/Bohr or radian)
  Cent   Atom   N1       Length/X         N2         Alpha/Y        N3         Beta/Z          J
 -----------------------------------------------------------------------------------------------
      1  H 
      2  O        1  -0.000163(     1)
      3  O        2   0.001509(     2)      1   0.000382(     5)
      4  N        3  -0.002359(     3)      2  -0.000702(     6)      1   0.000000(     8)     0
      5  O        4  -0.001812(     4)      3  -0.012108(     7)      2   0.000000(     9)     0
 -----------------------------------------------------------------------------------------------
 Internal  Forces:  Max     0.012107652 RMS     0.004195015
 Force constants in Cartesian coordinates: 
                1             2             3             4             5 
      1  0.726146D-01
      2  0.000000D+00  0.599926D-02
      3  0.232610D-01  0.000000D+00  0.437209D+00
      4 -0.517736D-01  0.000000D+00 -0.452835D-02  0.281779D+00
      5  0.000000D+00 -0.252824D-02  0.000000D+00  0.000000D+00  0.119835D-01
      6  0.335066D-01  0.000000D+00 -0.422145D+00 -0.113034D-01  0.000000D+00
      7 -0.254962D-01  0.000000D+00 -0.151718D-01 -0.171718D+00  0.000000D+00
      8  0.000000D+00 -0.412717D-02  0.000000D+00  0.000000D+00 -0.188375D-01
      9 -0.445134D-01  0.000000D+00 -0.193167D-01  0.992305D-02  0.000000D+00
     10 -0.572141D-02  0.000000D+00  0.651129D-02 -0.852679D-01  0.000000D+00
     11  0.000000D+00  0.795942D-02  0.000000D+00  0.000000D+00  0.203109D-01
     12 -0.186808D-01  0.000000D+00  0.116576D-01  0.100077D-01  0.000000D+00
     13  0.103766D-01  0.000000D+00 -0.100721D-01  0.269798D-01  0.000000D+00
     14  0.000000D+00 -0.730328D-02  0.000000D+00  0.000000D+00 -0.109287D-01
     15  0.642663D-02  0.000000D+00 -0.740480D-02 -0.409905D-02  0.000000D+00
                6             7             8             9            10 
      6  0.522017D+00
      7 -0.909123D-01  0.304480D+00
      8  0.000000D+00  0.000000D+00  0.414482D-01
      9 -0.963000D-01  0.811683D-01  0.000000D+00  0.309609D+00
     10  0.404200D-01 -0.143713D+00  0.000000D+00 -0.366548D-01  0.548175D+00
     11  0.000000D+00  0.000000D+00 -0.471081D-01  0.000000D+00  0.000000D+00
     12 -0.903139D-02  0.134147D-01  0.000000D+00 -0.242698D-01  0.243666D+00
     13  0.282891D-01  0.364462D-01  0.000000D+00 -0.992308D-02 -0.313472D+00
     14  0.000000D+00  0.000000D+00  0.286246D-01  0.000000D+00  0.000000D+00
     15  0.545874D-02  0.115011D-01  0.000000D+00 -0.169722D+00 -0.253943D+00
               11            12            13            14            15 
     11  0.547739D-01
     12  0.000000D+00  0.454213D+00
     13  0.000000D+00 -0.248408D+00  0.239670D+00
     14 -0.359361D-01  0.000000D+00  0.000000D+00  0.255435D-01
     15  0.000000D+00 -0.432569D+00  0.240114D+00  0.000000D+00  0.604237D+00
 Force constants in internal coordinates: 
                1             2             3             4             5 
      1  0.437209D+00
      2  0.211910D-01  0.261068D+00
      3  0.551463D-02  0.175390D-01  0.200458D+00
      4 -0.115204D-01  0.221956D-01  0.146627D+00  0.719818D+00
      5  0.431088D-01  0.576504D-01 -0.237863D-01  0.201785D-01  0.251479D+00
      6  0.125136D-01  0.216697D-01  0.828940D-01  0.103881D-01 -0.931330D-02
      7  0.109588D-01 -0.754676D-01  0.107843D+00  0.110271D+00 -0.236141D-01
      8  0.000000D+00  0.000000D+00  0.000000D+00  0.000000D+00  0.000000D+00
      9  0.000000D+00  0.000000D+00  0.000000D+00  0.000000D+00  0.000000D+00
                6             7             8             9 
      6  0.495157D+00
      7  0.412417D-01  0.628486D+00
      8  0.000000D+00  0.000000D+00  0.197313D-01
      9  0.000000D+00  0.000000D+00  0.272616D-01  0.107617D+00
 Leave Link  716 at Sun Mar  6 19:43:20 2022, MaxMem= 16106127360 cpu:               1.5 elap:               0.1
 (Enter /sw/contrib/gaussian/g16/B01/g16/l103.exe)

 GradGradGradGradGradGradGradGradGradGradGradGradGradGradGradGradGradGrad
 Berny optimization.
 Search for a local minimum.
 Step number   1 out of a maximum of    2
 All quantities printed in internal units (Hartrees-Bohrs-Radians)
 Second derivative matrix not updated -- analytic derivatives used.
 The second derivative matrix:
                          r1        r2        r3        r4        a1
           r1           0.43721
           r2           0.02119   0.26107
           r3           0.00551   0.01754   0.20046
           r4          -0.01152   0.02220   0.14663   0.71982
           a1           0.04311   0.05765  -0.02379   0.02018   0.25148
           a2           0.01251   0.02167   0.08289   0.01039  -0.00931
           a3           0.01096  -0.07547   0.10784   0.11027  -0.02361
           d1           0.00000   0.00000   0.00000   0.00000   0.00000
           d2           0.00000   0.00000   0.00000   0.00000   0.00000
                          a2        a3        d1        d2
           a2           0.49516
           a3           0.04124   0.62849
           d1           0.00000   0.00000   0.01973
           d2           0.00000   0.00000   0.02726   0.10762
 ITU=  0
     Eigenvalues ---    0.01196   0.11539   0.12312   0.20330   0.27716
     Eigenvalues ---    0.44803   0.50349   0.58512   0.85346
 Angle between quadratic step and forces=  14.22 degrees.
 Linear search not attempted -- first point.
 Variable       Old X    -DE/DX   Delta X   Delta X   Delta X     New X
                                 (Linear)    (Quad)   (Total)
    r1        1.86209  -0.00016   0.00000   0.00019   0.00019   1.86228
    r2        2.69614   0.00151   0.00000   0.00048   0.00048   2.69662
    r3        2.60992  -0.00236   0.00000  -0.00257  -0.00257   2.60734
    r4        2.25782  -0.00181   0.00000   0.00092   0.00092   2.25874
    a1        1.75642   0.00038   0.00000  -0.00070  -0.00070   1.75572
    a2        1.97463  -0.00070   0.00000   0.00054   0.00054   1.97516
    a3        2.01403  -0.01211   0.00000  -0.01899  -0.01899   1.99504
    d1        0.00000   0.00000   0.00000   0.00000   0.00000   0.00000
    d2        0.00000   0.00000   0.00000   0.00000   0.00000   0.00000
         Item               Value     Threshold  Converged?
 Maximum Force            0.012108     0.000450     NO 
 RMS     Force            0.004195     0.000300     NO 
 Maximum Displacement     0.018992     0.001800     NO 
 RMS     Displacement     0.006405     0.001200     NO 
 Predicted change in Energy=-1.171985D-04
                       ----------------------------
                       ! Non-Optimized Parameters !
                       ! (Angstroms and Degrees)  !
 ----------------------                            ----------------------
 !      Name          Value   Derivative information (Atomic Units)     !
 ------------------------------------------------------------------------
 !       r1          0.9855   -DE/DX =   -0.0002                        !
 !       r2          1.427    -DE/DX =    0.0015                        !
 !       r3          1.3797   -DE/DX =   -0.0024                        !
 !       r4          1.1953   -DE/DX =   -0.0018                        !
 !       a1        100.5952   -DE/DX =    0.0004                        !
 !       a2        113.1685   -DE/DX =   -0.0007                        !
 !       a3        114.3075   -DE/DX =   -0.0121                        !
 !       d1          0.0      -DE/DX =    0.0                           !
 !       d2          0.0      -DE/DX =    0.0                           !
 ------------------------------------------------------------------------
 GradGradGradGradGradGradGradGradGradGradGradGradGradGradGradGradGradGrad

 Leave Link  103 at Sun Mar  6 19:43:20 2022, MaxMem= 16106127360 cpu:               0.6 elap:               0.0
 (Enter /sw/contrib/gaussian/g16/B01/g16/l9999.exe)

 ----------------------------------------------------------------------

 Electric dipole moment (input orientation):
 (Debye = 10**-18 statcoulomb cm , SI units = C m)
                  (au)            (Debye)         (10**-30 SI)
   Tot        0.432098D+00      0.109828D+01      0.366348D+01
   x         -0.117665D+00     -0.299074D+00     -0.997603D+00
   y          0.000000D+00      0.000000D+00      0.000000D+00
   z         -0.415769D+00     -0.105678D+01     -0.352504D+01

 Dipole polarizability, Alpha (input orientation).
 (esu units = cm**3 , SI units = C**2 m**2 J**-1)
 Alpha(0;0):
               (au)            (10**-24 esu)      (10**-40 SI)
   iso        0.261975D+02      0.388207D+01      0.431938D+01
   aniso      0.147986D+02      0.219293D+01      0.243996D+01
   xx         0.292287D+02      0.433125D+01      0.481916D+01
   yx         0.000000D+00      0.000000D+00      0.000000D+00
   yy         0.176415D+02      0.261419D+01      0.290868D+01
   zx        -0.406707D+01     -0.602678D+00     -0.670570D+00
   zy         0.000000D+00      0.000000D+00      0.000000D+00
   zz         0.317223D+02      0.470076D+01      0.523030D+01

 ----------------------------------------------------------------------

 Dipole orientation:
     1         -0.00000000          0.00000000          0.00000000
     8         -0.50706665          0.00000000         -1.79172262
     8          1.90711832         -0.00000000         -2.99209346
     7          3.89393222         -0.00000000         -1.29969050
     8          3.30845050          0.00000000          0.88090018

 Electric dipole moment (dipole orientation):
 (Debye = 10**-18 statcoulomb cm , SI units = C m)
                  (au)            (Debye)         (10**-30 SI)
   Tot        0.432098D+00      0.109828D+01      0.366348D+01
   x          0.000000D+00      0.000000D+00      0.000000D+00
   y          0.000000D+00      0.000000D+00      0.000000D+00
   z          0.432098D+00      0.109828D+01      0.366348D+01

 Dipole polarizability, Alpha (dipole orientation).
 (esu units = cm**3 , SI units = C**2 m**2 J**-1)
 Alpha(0;0):
               (au)            (10**-24 esu)      (10**-40 SI)
   iso        0.261975D+02      0.388207D+01      0.431938D+01
   aniso      0.147986D+02      0.219293D+01      0.243996D+01
   xx         0.315449D+02      0.467447D+01      0.520105D+01
   yx         0.000000D+00      0.000000D+00      0.000000D+00
   yy         0.176415D+02      0.261419D+01      0.290868D+01
   zx         0.411727D+01      0.610116D+00      0.678845D+00
   zy         0.000000D+00      0.000000D+00      0.000000D+00
   zz         0.294061D+02      0.435753D+01      0.484840D+01

 ----------------------------------------------------------------------
 1\1\GINC-N2218\Freq\RMP2-FC\Aug-CC-pVTZ\H1N1O3\CGAVINH\06-Mar-2022\1\\
 #p freq mp2/aug-cc-pvtz density=current\\title\\0,1\H\O,1,r1\O,2,r2,1,
 a1\N,3,r3,2,a2,1,d1,0\O,4,r4,3,a3,2,d2,0\\r1=0.98537664\r2=1.42673666\
 r3=1.38110764\r4=1.19478846\a1=100.6355057\a2=113.13777052\a3=115.3956
 6758\d1=0.\d2=0.\\Version=ES64L-G16RevB.01\State=1-A'\HF=-279.506349\M
 P2=-280.4551257\RMSD=4.315e-09\RMSF=2.379e-03\ZeroPoint=0.0233732\Ther
 mal=0.0273351\Dipole=-0.1176647,0.,-0.4157689\DipoleDeriv=0.314412,0.,
 0.0393636,0.,0.2984795,0.,-0.0215312,0.,0.1957851,-0.5308394,0.,0.2795
 762,0.,-0.2540721,0.,-0.1080897,0.,-0.1238163,0.0050978,0.,0.3408299,0
 .,-0.0091681,0.,0.4485261,0.,-0.9238375,0.2035276,0.,-0.1558861,0.,0.0
 089507,0.,-0.6787386,0.,1.7275896,0.0078019,0.,-0.5038835,0.,-0.044190
 1,0.,0.3598334,0.,-0.8757208\Polar=29.22871,0.,17.6414533,-4.0670741,0
 .,31.722273\Quadrupole=0.1233195,0.6137661,-0.7370856,0.,1.4061851,0.\
 PG=CS [SG(H1N1O3)]\NImag=0\\0.07261457,0.,0.00599926,0.02326097,0.,0.4
 3720853,-0.05177362,0.,-0.00452835,0.28177923,0.,-0.00252824,0.,0.,0.0
 1198347,0.03350659,0.,-0.42214471,-0.01130338,0.,0.52201738,-0.0254961
 6,0.,-0.01517179,-0.17171750,0.,-0.09091230,0.30448018,0.,-0.00412717,
 0.,0.,-0.01883748,0.,0.,0.04144820,-0.04451340,0.,-0.01931666,0.009923
 05,0.,-0.09630001,0.08116828,0.,0.30960866,-0.00572141,0.,0.00651129,-
 0.08526794,0.,0.04041999,-0.14371273,0.,-0.03665484,0.54817450,0.,0.00
 795942,0.,0.,0.02031091,0.,0.,-0.04710811,0.,0.,0.05477388,-0.01868079
 ,0.,0.01165764,0.01000773,0.,-0.00903139,0.01341475,0.,-0.02426980,0.2
 4366634,0.,0.45421269,0.01037662,0.,-0.01007211,0.02697983,0.,0.028289
 10,0.03644621,0.,-0.00992308,-0.31347242,0.,-0.24840803,0.23966976,0.,
 -0.00730328,0.,0.,-0.01092867,0.,0.,0.02862455,0.,0.,-0.03593611,0.,0.
 ,0.02554351,0.00642663,0.,-0.00740480,-0.00409905,0.,0.00545874,0.0115
 0107,0.,-0.16972219,-0.25394278,0.,-0.43256914,0.24011412,0.,0.6042373
 9\\0.00020525,0.,-0.00016262,0.00120374,0.,0.00083622,0.00091258,0.,0.
 00371636,-0.00599766,0.,-0.00008574,0.00367608,0.,-0.00430421\\\@


 EVERYTHING'S GOT A MORAL, IF ONLY YOU CAN FIND IT.

                                    -- LEWIS CARROL, ALICE IN WONDERLAND
 Job cpu time:       0 days  2 hours  0 minutes 55.1 seconds.
 Elapsed time:       0 days  0 hours  4 minutes 22.4 seconds.
 File lengths (MBytes):  RWF=   7239 Int=      0 D2E=      0 Chk=      8 Scr=      1
 Normal termination of Gaussian 16 at Sun Mar  6 19:43:21 2022.
