 Entering Gaussian System, Link 0=g16
 Input=hoono_r3_1p392192.gjf
 Output=hoono_r3_1p392192.log
 Initial command:
 /sw/contrib/gaussian/g16/B01/g16/l1.exe "/scr/Gau-1807.inp" -scrdir="/scr/"
 Entering Link 1 = /sw/contrib/gaussian/g16/B01/g16/l1.exe PID=      1808.
  
 Copyright (c) 1988-2017, Gaussian, Inc.  All Rights Reserved.
  
 This is part of the Gaussian(R) 16 program.  It is based on
 the Gaussian(R) 09 system (copyright 2009, Gaussian, Inc.),
 the Gaussian(R) 03 system (copyright 2003, Gaussian, Inc.),
 the Gaussian(R) 98 system (copyright 1998, Gaussian, Inc.),
 the Gaussian(R) 94 system (copyright 1995, Gaussian, Inc.),
 the Gaussian 92(TM) system (copyright 1992, Gaussian, Inc.),
 the Gaussian 90(TM) system (copyright 1990, Gaussian, Inc.),
 the Gaussian 88(TM) system (copyright 1988, Gaussian, Inc.),
 the Gaussian 86(TM) system (copyright 1986, Carnegie Mellon
 University), and the Gaussian 82(TM) system (copyright 1983,
 Carnegie Mellon University). Gaussian is a federally registered
 trademark of Gaussian, Inc.
  
 This software contains proprietary and confidential information,
 including trade secrets, belonging to Gaussian, Inc.
  
 This software is provided under written license and may be
 used, copied, transmitted, or stored only in accord with that
 written license.
  
 The following legend is applicable only to US Government
 contracts under FAR:
  
                    RESTRICTED RIGHTS LEGEND
  
 Use, reproduction and disclosure by the US Government is
 subject to restrictions as set forth in subparagraphs (a)
 and (c) of the Commercial Computer Software - Restricted
 Rights clause in FAR 52.227-19.
  
 Gaussian, Inc.
 340 Quinnipiac St., Bldg. 40, Wallingford CT 06492
  
  
 ---------------------------------------------------------------
 Warning -- This program may not be used in any manner that
 competes with the business of Gaussian, Inc. or will provide
 assistance to any competitor of Gaussian, Inc.  The licensee
 of this program is prohibited from giving any competitor of
 Gaussian, Inc. access to this program.  By using this program,
 the user acknowledges that Gaussian, Inc. is engaged in the
 business of creating and licensing software in the field of
 computational chemistry and represents and warrants to the
 licensee that it is not a competitor of Gaussian, Inc. and that
 it will not use this program in any manner prohibited above.
 ---------------------------------------------------------------
  

 Cite this work as:
 Gaussian 16, Revision B.01,
 M. J. Frisch, G. W. Trucks, H. B. Schlegel, G. E. Scuseria, 
 M. A. Robb, J. R. Cheeseman, G. Scalmani, V. Barone, 
 G. A. Petersson, H. Nakatsuji, X. Li, M. Caricato, A. V. Marenich, 
 J. Bloino, B. G. Janesko, R. Gomperts, B. Mennucci, H. P. Hratchian, 
 J. V. Ortiz, A. F. Izmaylov, J. L. Sonnenberg, D. Williams-Young, 
 F. Ding, F. Lipparini, F. Egidi, J. Goings, B. Peng, A. Petrone, 
 T. Henderson, D. Ranasinghe, V. G. Zakrzewski, J. Gao, N. Rega, 
 G. Zheng, W. Liang, M. Hada, M. Ehara, K. Toyota, R. Fukuda, 
 J. Hasegawa, M. Ishida, T. Nakajima, Y. Honda, O. Kitao, H. Nakai, 
 T. Vreven, K. Throssell, J. A. Montgomery, Jr., J. E. Peralta, 
 F. Ogliaro, M. J. Bearpark, J. J. Heyd, E. N. Brothers, K. N. Kudin, 
 V. N. Staroverov, T. A. Keith, R. Kobayashi, J. Normand, 
 K. Raghavachari, A. P. Rendell, J. C. Burant, S. S. Iyengar, 
 J. Tomasi, M. Cossi, J. M. Millam, M. Klene, C. Adamo, R. Cammi, 
 J. W. Ochterski, R. L. Martin, K. Morokuma, O. Farkas, 
 J. B. Foresman, and D. J. Fox, Gaussian, Inc., Wallingford CT, 2016.
 
 ******************************************
 Gaussian 16:  ES64L-G16RevB.01 20-Dec-2017
                 6-Mar-2022 
 ******************************************
 %nproc=28
 Will use up to   28 processors via shared memory.
 %mem=120GB
 %chk=hoono_r3_1p392192.chk
 ---------------------------------------
 #p freq mp2/aug-cc-pvtz density=current
 ---------------------------------------
 1/10=4,30=1,38=1/1,3;
 2/12=2,17=6,18=5,40=1/2;
 3/5=16,6=1,7=10,11=9,25=1,30=1,71=2,140=1/1,2,3;
 4//1;
 5/5=2,38=5,98=1/2;
 8/6=3,8=1,10=1,19=11,30=-1/1;
 9/15=3,16=-3/6;
 11/6=1,8=1,15=11,17=12,24=-1,27=1,28=-2,29=300,32=6,42=3/1,2,10;
 10/6=2,21=1/2;
 8/6=4,8=1,10=1,19=11,30=-1/11,4;
 10/5=1,20=4/2;
 11/12=2,14=11,16=1,17=2,28=-2,42=3,76=2/2,10,12;
 6/7=2,8=2,9=2,10=2,22=-1/1;
 7/8=1,10=1,12=2,25=1,44=2/1,2,3,16;
 1/10=4,30=1/3;
 99//99;
 Leave Link    1 at Sun Mar  6 19:03:35 2022, MaxMem= 16106127360 cpu:               2.1 elap:               0.1
 (Enter /sw/contrib/gaussian/g16/B01/g16/l101.exe)
 -----
 title
 -----
 Symbolic Z-matrix:
 Charge =  0 Multiplicity = 1
 H
 O                    1    r1
 O                    2    r2       1    a1
 N                    3    r3       2    a2       1    d1       0
 O                    4    r4       3    a3       2    d2       0
       Variables:
  r1                    0.98538                  
  r2                    1.42674                  
  r3                    1.39219                  
  r4                    1.19479                  
  a1                  100.63551                  
  a2                  113.13777                  
  a3                  114.33392                  
  d1                    0.                       
  d2                    0.                       
 
 ITRead=  0  0  0  0  0
 MicOpt= -1 -1 -1 -1 -1
 NAtoms=      5 NQM=        5 NQMF=       0 NMMI=      0 NMMIF=      0
                NMic=       0 NMicF=      0.
                    Isotopes and Nuclear Properties:
 (Nuclear quadrupole moments (NQMom) in fm**2, nuclear magnetic moments (NMagM)
  in nuclear magnetons)

  Atom         1           2           3           4           5
 IAtWgt=           1          16          16          14          16
 AtmWgt=   1.0078250  15.9949146  15.9949146  14.0030740  15.9949146
 NucSpn=           1           0           0           2           0
 AtZEff=  -0.0000000  -0.0000000  -0.0000000  -0.0000000  -0.0000000
 NQMom=    0.0000000   0.0000000   0.0000000   2.0440000   0.0000000
 NMagM=    2.7928460   0.0000000   0.0000000   0.4037610   0.0000000
 AtZNuc=   1.0000000   8.0000000   8.0000000   7.0000000   8.0000000
 Leave Link  101 at Sun Mar  6 19:03:35 2022, MaxMem= 16106127360 cpu:               4.4 elap:               0.2
 (Enter /sw/contrib/gaussian/g16/B01/g16/l103.exe)

 GradGradGradGradGradGradGradGradGradGradGradGradGradGradGradGradGradGrad
 Berny optimization.
 Initialization pass.
                       ----------------------------
                       !    Initial Parameters    !
                       ! (Angstroms and Degrees)  !
 ----------------------                            ----------------------
 !      Name          Value   Derivative information (Atomic Units)     !
 ------------------------------------------------------------------------
 !       r1          0.9854   calculate D2E/DX2 analytically            !
 !       r2          1.4267   calculate D2E/DX2 analytically            !
 !       r3          1.3922   calculate D2E/DX2 analytically            !
 !       r4          1.1948   calculate D2E/DX2 analytically            !
 !       a1        100.6355   calculate D2E/DX2 analytically            !
 !       a2        113.1378   calculate D2E/DX2 analytically            !
 !       a3        114.3339   calculate D2E/DX2 analytically            !
 !       d1          0.0      calculate D2E/DX2 analytically            !
 !       d2          0.0      calculate D2E/DX2 analytically            !
 ------------------------------------------------------------------------
 Trust Radius=3.00D-01 FncErr=1.00D-07 GrdErr=1.00D-07 EigMax=2.50D+02 EigMin=1.00D-04
 Number of steps in this run=      2 maximum allowed number of steps=      2.
 GradGradGradGradGradGradGradGradGradGradGradGradGradGradGradGradGradGrad

 Leave Link  103 at Sun Mar  6 19:03:35 2022, MaxMem= 16106127360 cpu:               0.5 elap:               0.0
 (Enter /sw/contrib/gaussian/g16/B01/g16/l202.exe)
                          Input orientation:                          
 ---------------------------------------------------------------------
 Center     Atomic      Atomic             Coordinates (Angstroms)
 Number     Number       Type             X           Y           Z
 ---------------------------------------------------------------------
      1          1           0        0.000000    0.000000    0.000000
      2          8           0        0.000000    0.000000    0.985377
      3          8           0        1.402227    0.000000    1.248696
      4          7           0        2.176158    0.000000    0.091444
      5          8           0        1.544913    0.000000   -0.922977
 ---------------------------------------------------------------------
                    Distance matrix (angstroms):
                    1          2          3          4          5
     1  H    0.000000
     2  O    0.985377   0.000000
     3  O    1.877627   1.426737   0.000000
     4  N    2.178078   2.352611   1.392193   0.000000
     5  O    1.799623   2.455314   2.176355   1.194788   0.000000
 Stoichiometry    HNO3
 Framework group  CS[SG(HNO3)]
 Deg. of freedom     7
 Full point group                 CS      NOp   2
 Largest Abelian subgroup         CS      NOp   2
 Largest concise Abelian subgroup C1      NOp   1
                         Standard orientation:                         
 ---------------------------------------------------------------------
 Center     Atomic      Atomic             Coordinates (Angstroms)
 Number     Number       Type             X           Y           Z
 ---------------------------------------------------------------------
      1          1           0        1.115321   -0.589863    0.000000
      2          8           0        1.318053    0.374433    0.000000
      3          8           0        0.000000    0.920613    0.000000
      4          7           0       -0.995467   -0.052652    0.000000
      5          8           0       -0.586435   -1.175243    0.000000
 ---------------------------------------------------------------------
 Rotational constants (GHZ):          21.3464415           8.0221088           5.8308454
 Leave Link  202 at Sun Mar  6 19:03:35 2022, MaxMem= 16106127360 cpu:               2.2 elap:               0.1
 (Enter /sw/contrib/gaussian/g16/B01/g16/l301.exe)
 Standard basis: Aug-CC-pVTZ (5D, 7F)
 Ernie: Thresh=  0.10000D-02 Tol=  0.10000D-05 Strict=F.
 Ernie:  12 primitive shells out of 131 were deleted.
 There are   166 symmetry adapted cartesian basis functions of A'  symmetry.
 There are    79 symmetry adapted cartesian basis functions of A"  symmetry.
 There are   136 symmetry adapted basis functions of A'  symmetry.
 There are    71 symmetry adapted basis functions of A"  symmetry.
   207 basis functions,   315 primitive gaussians,   245 cartesian basis functions
    16 alpha electrons       16 beta electrons
       nuclear repulsion energy       122.3812316106 Hartrees.
 IExCor=    0 DFT=F Ex=HF Corr=None ExCW=0 ScaHFX=  1.000000
 ScaDFX=  1.000000  1.000000  1.000000  1.000000 ScalE2=  1.000000  1.000000
 IRadAn=      5 IRanWt=     -1 IRanGd=            0 ICorTp=0 IEmpDi=  4
 NAtoms=    5 NActive=    5 NUniq=    5 SFac= 1.00D+00 NAtFMM=   60 NAOKFM=F Big=F
 Integral buffers will be    131072 words long.
 Raffenetti 1 integral format.
 Two-electron integral symmetry is turned on.
 Leave Link  301 at Sun Mar  6 19:03:35 2022, MaxMem= 16106127360 cpu:               2.0 elap:               0.1
 (Enter /sw/contrib/gaussian/g16/B01/g16/l302.exe)
 NPDir=0 NMtPBC=     1 NCelOv=     1 NCel=       1 NClECP=     1 NCelD=      1
         NCelK=      1 NCelE2=     1 NClLst=     1 CellRange=     0.0.
 One-electron integrals computed using PRISM.
 One-electron integral symmetry used in STVInt
 NBasis=   207 RedAO= T EigKep=  1.33D-04  NBF=   136    71
 NBsUse=   207 1.00D-06 EigRej= -1.00D+00 NBFU=   136    71
 Leave Link  302 at Sun Mar  6 19:03:35 2022, MaxMem= 16106127360 cpu:               4.4 elap:               0.2
 (Enter /sw/contrib/gaussian/g16/B01/g16/l303.exe)
 DipDrv:  MaxL=1.
 Leave Link  303 at Sun Mar  6 19:03:35 2022, MaxMem= 16106127360 cpu:               1.1 elap:               0.1
 (Enter /sw/contrib/gaussian/g16/B01/g16/l401.exe)
 ExpMin= 2.53D-02 ExpMax= 1.53D+04 ExpMxC= 5.22D+02 IAcc=3 IRadAn=         5 AccDes= 0.00D+00
 Harris functional with IExCor=  205 and IRadAn=       5 diagonalized for initial guess.
 HarFok:  IExCor=  205 AccDes= 0.00D+00 IRadAn=         5 IDoV= 1 UseB2=F ITyADJ=14
 ICtDFT=  3500011 ScaDFX=  1.000000  1.000000  1.000000  1.000000
 FoFCou: FMM=F IPFlag=           0 FMFlag=      100000 FMFlg1=           0
         NFxFlg=           0 DoJE=T BraDBF=F KetDBF=T FulRan=T
         wScrn=  0.000000 ICntrl=       500 IOpCl=  0 I1Cent=   200000004 NGrid=           0
         NMat0=    1 NMatS0=      1 NMatT0=    0 NMatD0=    1 NMtDS0=    0 NMtDT0=    0
 Petite list used in FoFCou.
 Harris En= -279.644390102614    
 JPrj=0 DoOrth=F DoCkMO=F.
 Initial guess orbital symmetries:
       Occupied  (A') (A') (A') (A') (A') (A') (A') (A') (A') (A')
                 (A") (A') (A") (A') (A") (A')
       Virtual   (A") (A') (A') (A') (A') (A") (A') (A') (A') (A')
                 (A") (A') (A") (A') (A') (A") (A') (A') (A") (A')
                 (A') (A') (A') (A') (A") (A') (A') (A') (A") (A')
                 (A') (A") (A") (A') (A') (A") (A') (A") (A') (A")
                 (A') (A") (A') (A") (A') (A') (A') (A") (A') (A')
                 (A') (A") (A') (A") (A') (A") (A') (A') (A') (A")
                 (A') (A') (A") (A') (A') (A') (A") (A") (A') (A')
                 (A") (A') (A") (A") (A') (A') (A") (A') (A') (A')
                 (A") (A') (A') (A") (A') (A") (A') (A") (A') (A')
                 (A') (A") (A') (A") (A') (A') (A") (A') (A") (A')
                 (A") (A') (A') (A") (A") (A') (A') (A') (A") (A')
                 (A") (A') (A') (A') (A") (A') (A') (A') (A") (A')
                 (A") (A') (A') (A") (A") (A") (A") (A') (A') (A')
                 (A') (A') (A') (A") (A') (A") (A') (A") (A') (A')
                 (A") (A") (A') (A') (A') (A") (A') (A') (A') (A")
                 (A') (A') (A') (A") (A') (A") (A") (A') (A") (A')
                 (A') (A") (A") (A') (A") (A') (A') (A") (A") (A')
                 (A") (A") (A") (A') (A') (A") (A') (A') (A') (A")
                 (A') (A') (A') (A') (A') (A') (A') (A') (A') (A')
                 (A')
 The electronic state of the initial guess is 1-A'.
 Leave Link  401 at Sun Mar  6 19:03:36 2022, MaxMem= 16106127360 cpu:               6.9 elap:               0.3
 (Enter /sw/contrib/gaussian/g16/B01/g16/l502.exe)
 Keep R1 ints in memory in symmetry-blocked form, NReq=348887737.
 FoFCou: FMM=F IPFlag=           0 FMFlag=           0 FMFlg1=           0
         NFxFlg=           0 DoJE=F BraDBF=F KetDBF=F FulRan=T
         wScrn=  0.000000 ICntrl=       600 IOpCl=  0 I1Cent=           0 NGrid=           0
         NMat0=    1 NMatS0=  21528 NMatT0=    0 NMatD0=    1 NMtDS0=    0 NMtDT0=    0
 Petite list used in FoFCou.
 Closed shell SCF:
 Using DIIS extrapolation, IDIIS=  1040.
 NGot= 16106127360 LenX= 15988850015 LenY= 15988789549
 Requested convergence on RMS density matrix=1.00D-08 within 128 cycles.
 Requested convergence on MAX density matrix=1.00D-06.
 Requested convergence on             energy=1.00D-06.
 No special actions if energy rises.

 Cycle   1  Pass 1  IDiag  1:
 E= -279.364239588169    
 DIIS: error= 2.75D-02 at cycle   1 NSaved=   1.
 NSaved= 1 IEnMin= 1 EnMin= -279.364239588169     IErMin= 1 ErrMin= 2.75D-02
 ErrMax= 2.75D-02  0.00D+00 EMaxC= 1.00D-01 BMatC= 4.49D-01 BMatP= 4.49D-01
 IDIUse=3 WtCom= 7.25D-01 WtEn= 2.75D-01
 Coeff-Com:  0.100D+01
 Coeff-En:   0.100D+01
 Coeff:      0.100D+01
 Gap=     0.494 Goal=   None    Shift=    0.000
 GapD=    0.494 DampG=2.000 DampE=0.500 DampFc=1.0000 IDamp=-1.
 RMSDP=1.67D-03 MaxDP=8.84D-02              OVMax= 1.21D-01

 Cycle   2  Pass 1  IDiag  1:
 E= -279.446260119519     Delta-E=       -0.082020531351 Rises=F Damp=F
 DIIS: error= 1.93D-02 at cycle   2 NSaved=   2.
 NSaved= 2 IEnMin= 2 EnMin= -279.446260119519     IErMin= 2 ErrMin= 1.93D-02
 ErrMax= 1.93D-02  0.00D+00 EMaxC= 1.00D-01 BMatC= 8.42D-02 BMatP= 4.49D-01
 IDIUse=3 WtCom= 8.07D-01 WtEn= 1.93D-01
 Coeff-Com:  0.216D+00 0.784D+00
 Coeff-En:   0.681D-01 0.932D+00
 Coeff:      0.187D+00 0.813D+00
 Gap=     0.561 Goal=   None    Shift=    0.000
 RMSDP=9.62D-04 MaxDP=3.68D-02 DE=-8.20D-02 OVMax= 9.04D-02

 Cycle   3  Pass 1  IDiag  1:
 E= -279.482911186664     Delta-E=       -0.036651067145 Rises=F Damp=F
 DIIS: error= 1.13D-02 at cycle   3 NSaved=   3.
 NSaved= 3 IEnMin= 3 EnMin= -279.482911186664     IErMin= 3 ErrMin= 1.13D-02
 ErrMax= 1.13D-02  0.00D+00 EMaxC= 1.00D-01 BMatC= 3.11D-02 BMatP= 8.42D-02
 IDIUse=3 WtCom= 8.87D-01 WtEn= 1.13D-01
 Coeff-Com: -0.346D-01 0.368D+00 0.667D+00
 Coeff-En:   0.000D+00 0.223D+00 0.777D+00
 Coeff:     -0.307D-01 0.351D+00 0.679D+00
 Gap=     0.540 Goal=   None    Shift=    0.000
 RMSDP=4.10D-04 MaxDP=1.60D-02 DE=-3.67D-02 OVMax= 3.84D-02

 Cycle   4  Pass 1  IDiag  1:
 E= -279.504127793354     Delta-E=       -0.021216606690 Rises=F Damp=F
 DIIS: error= 1.65D-03 at cycle   4 NSaved=   4.
 NSaved= 4 IEnMin= 4 EnMin= -279.504127793354     IErMin= 4 ErrMin= 1.65D-03
 ErrMax= 1.65D-03  0.00D+00 EMaxC= 1.00D-01 BMatC= 6.07D-04 BMatP= 3.11D-02
 IDIUse=3 WtCom= 9.84D-01 WtEn= 1.65D-02
 Coeff-Com: -0.121D-01 0.501D-01 0.157D+00 0.805D+00
 Coeff-En:   0.000D+00 0.000D+00 0.000D+00 0.100D+01
 Coeff:     -0.119D-01 0.493D-01 0.154D+00 0.808D+00
 Gap=     0.527 Goal=   None    Shift=    0.000
 RMSDP=9.93D-05 MaxDP=2.32D-03 DE=-2.12D-02 OVMax= 1.20D-02

 Cycle   5  Pass 1  IDiag  1:
 E= -279.504952404268     Delta-E=       -0.000824610914 Rises=F Damp=F
 DIIS: error= 1.11D-03 at cycle   5 NSaved=   5.
 NSaved= 5 IEnMin= 5 EnMin= -279.504952404268     IErMin= 5 ErrMin= 1.11D-03
 ErrMax= 1.11D-03  0.00D+00 EMaxC= 1.00D-01 BMatC= 1.05D-04 BMatP= 6.07D-04
 IDIUse=3 WtCom= 9.89D-01 WtEn= 1.11D-02
 Coeff-Com:  0.544D-02-0.672D-01-0.112D+00 0.596D-01 0.111D+01
 Coeff-En:   0.000D+00 0.000D+00 0.000D+00 0.000D+00 0.100D+01
 Coeff:      0.538D-02-0.664D-01-0.111D+00 0.589D-01 0.111D+01
 Gap=     0.531 Goal=   None    Shift=    0.000
 RMSDP=8.14D-05 MaxDP=2.16D-03 DE=-8.25D-04 OVMax= 1.32D-02

 Cycle   6  Pass 1  IDiag  1:
 E= -279.505329655329     Delta-E=       -0.000377251061 Rises=F Damp=F
 DIIS: error= 3.41D-04 at cycle   6 NSaved=   6.
 NSaved= 6 IEnMin= 6 EnMin= -279.505329655329     IErMin= 6 ErrMin= 3.41D-04
 ErrMax= 3.41D-04  0.00D+00 EMaxC= 1.00D-01 BMatC= 2.47D-05 BMatP= 1.05D-04
 IDIUse=3 WtCom= 9.97D-01 WtEn= 3.41D-03
 Coeff-Com:  0.191D-02-0.732D-02-0.180D-01-0.183D+00 0.304D-02 0.120D+01
 Coeff-En:   0.000D+00 0.000D+00 0.000D+00 0.000D+00 0.000D+00 0.100D+01
 Coeff:      0.191D-02-0.729D-02-0.179D-01-0.182D+00 0.303D-02 0.120D+01
 Gap=     0.531 Goal=   None    Shift=    0.000
 RMSDP=4.83D-05 MaxDP=1.12D-03 DE=-3.77D-04 OVMax= 6.33D-03

 Cycle   7  Pass 1  IDiag  1:
 E= -279.505420793655     Delta-E=       -0.000091138326 Rises=F Damp=F
 DIIS: error= 1.34D-04 at cycle   7 NSaved=   7.
 NSaved= 7 IEnMin= 7 EnMin= -279.505420793655     IErMin= 7 ErrMin= 1.34D-04
 ErrMax= 1.34D-04  0.00D+00 EMaxC= 1.00D-01 BMatC= 3.83D-06 BMatP= 2.47D-05
 IDIUse=3 WtCom= 9.99D-01 WtEn= 1.34D-03
 Coeff-Com: -0.108D-02 0.117D-01 0.253D-01 0.133D-01-0.184D+00-0.123D+00
 Coeff-Com:  0.126D+01
 Coeff-En:   0.000D+00 0.000D+00 0.000D+00 0.000D+00 0.000D+00 0.000D+00
 Coeff-En:   0.100D+01
 Coeff:     -0.108D-02 0.117D-01 0.252D-01 0.133D-01-0.184D+00-0.123D+00
 Coeff:      0.126D+01
 Gap=     0.531 Goal=   None    Shift=    0.000
 RMSDP=1.80D-05 MaxDP=5.24D-04 DE=-9.11D-05 OVMax= 2.37D-03

 Cycle   8  Pass 1  IDiag  1:
 E= -279.505433537030     Delta-E=       -0.000012743375 Rises=F Damp=F
 DIIS: error= 4.82D-05 at cycle   8 NSaved=   8.
 NSaved= 8 IEnMin= 8 EnMin= -279.505433537030     IErMin= 8 ErrMin= 4.82D-05
 ErrMax= 4.82D-05  0.00D+00 EMaxC= 1.00D-01 BMatC= 6.74D-07 BMatP= 3.83D-06
 IDIUse=1 WtCom= 1.00D+00 WtEn= 0.00D+00
 Coeff-Com: -0.597D-03 0.444D-02 0.104D-01 0.262D-01-0.599D-01-0.200D+00
 Coeff-Com:  0.361D+00 0.858D+00
 Coeff:     -0.597D-03 0.444D-02 0.104D-01 0.262D-01-0.599D-01-0.200D+00
 Coeff:      0.361D+00 0.858D+00
 Gap=     0.532 Goal=   None    Shift=    0.000
 RMSDP=5.91D-06 MaxDP=1.66D-04 DE=-1.27D-05 OVMax= 7.01D-04

 Cycle   9  Pass 1  IDiag  1:
 E= -279.505435103832     Delta-E=       -0.000001566802 Rises=F Damp=F
 DIIS: error= 2.49D-05 at cycle   9 NSaved=   9.
 NSaved= 9 IEnMin= 9 EnMin= -279.505435103832     IErMin= 9 ErrMin= 2.49D-05
 ErrMax= 2.49D-05  0.00D+00 EMaxC= 1.00D-01 BMatC= 1.19D-07 BMatP= 6.74D-07
 IDIUse=1 WtCom= 1.00D+00 WtEn= 0.00D+00
 Coeff-Com:  0.246D-03-0.263D-02-0.545D-02-0.586D-02 0.473D-01 0.498D-01
 Coeff-Com: -0.334D+00 0.264D-02 0.125D+01
 Coeff:      0.246D-03-0.263D-02-0.545D-02-0.586D-02 0.473D-01 0.498D-01
 Coeff:     -0.334D+00 0.264D-02 0.125D+01
 Gap=     0.532 Goal=   None    Shift=    0.000
 RMSDP=2.55D-06 MaxDP=6.87D-05 DE=-1.57D-06 OVMax= 2.65D-04

 Cycle  10  Pass 1  IDiag  1:
 E= -279.505435379105     Delta-E=       -0.000000275273 Rises=F Damp=F
 DIIS: error= 5.87D-06 at cycle  10 NSaved=  10.
 NSaved=10 IEnMin=10 EnMin= -279.505435379105     IErMin=10 ErrMin= 5.87D-06
 ErrMax= 5.87D-06  0.00D+00 EMaxC= 1.00D-01 BMatC= 8.24D-09 BMatP= 1.19D-07
 IDIUse=1 WtCom= 1.00D+00 WtEn= 0.00D+00
 Coeff-Com: -0.368D-04 0.480D-03 0.116D-02-0.183D-02-0.106D-01 0.554D-02
 Coeff-Com:  0.680D-01-0.441D-01-0.422D+00 0.140D+01
 Coeff:     -0.368D-04 0.480D-03 0.116D-02-0.183D-02-0.106D-01 0.554D-02
 Coeff:      0.680D-01-0.441D-01-0.422D+00 0.140D+01
 Gap=     0.532 Goal=   None    Shift=    0.000
 RMSDP=6.91D-07 MaxDP=2.53D-05 DE=-2.75D-07 OVMax= 7.33D-05

 Cycle  11  Pass 1  IDiag  1:
 E= -279.505435403459     Delta-E=       -0.000000024354 Rises=F Damp=F
 DIIS: error= 2.22D-06 at cycle  11 NSaved=  11.
 NSaved=11 IEnMin=11 EnMin= -279.505435403459     IErMin=11 ErrMin= 2.22D-06
 ErrMax= 2.22D-06  0.00D+00 EMaxC= 1.00D-01 BMatC= 8.78D-10 BMatP= 8.24D-09
 IDIUse=1 WtCom= 1.00D+00 WtEn= 0.00D+00
 Coeff-Com: -0.176D-04 0.183D-03 0.383D-03 0.855D-03-0.244D-02-0.712D-02
 Coeff-Com:  0.203D-01 0.189D-01-0.615D-01-0.293D+00 0.132D+01
 Coeff:     -0.176D-04 0.183D-03 0.383D-03 0.855D-03-0.244D-02-0.712D-02
 Coeff:      0.203D-01 0.189D-01-0.615D-01-0.293D+00 0.132D+01
 Gap=     0.532 Goal=   None    Shift=    0.000
 RMSDP=2.43D-07 MaxDP=9.00D-06 DE=-2.44D-08 OVMax= 2.82D-05

 Cycle  12  Pass 1  IDiag  1:
 E= -279.505435406544     Delta-E=       -0.000000003085 Rises=F Damp=F
 DIIS: error= 8.08D-07 at cycle  12 NSaved=  12.
 NSaved=12 IEnMin=12 EnMin= -279.505435406544     IErMin=12 ErrMin= 8.08D-07
 ErrMax= 8.08D-07  0.00D+00 EMaxC= 1.00D-01 BMatC= 9.91D-11 BMatP= 8.78D-10
 IDIUse=1 WtCom= 1.00D+00 WtEn= 0.00D+00
 Coeff-Com:  0.256D-05-0.463D-04-0.102D-03 0.161D-03 0.119D-02-0.968D-03
 Coeff-Com: -0.730D-02 0.642D-02 0.434D-01-0.131D+00-0.166D+00 0.125D+01
 Coeff:      0.256D-05-0.463D-04-0.102D-03 0.161D-03 0.119D-02-0.968D-03
 Coeff:     -0.730D-02 0.642D-02 0.434D-01-0.131D+00-0.166D+00 0.125D+01
 Gap=     0.532 Goal=   None    Shift=    0.000
 RMSDP=8.95D-08 MaxDP=2.98D-06 DE=-3.08D-09 OVMax= 1.06D-05

 Cycle  13  Pass 1  IDiag  1:
 E= -279.505435406893     Delta-E=       -0.000000000349 Rises=F Damp=F
 DIIS: error= 1.78D-07 at cycle  13 NSaved=  13.
 NSaved=13 IEnMin=13 EnMin= -279.505435406893     IErMin=13 ErrMin= 1.78D-07
 ErrMax= 1.78D-07  0.00D+00 EMaxC= 1.00D-01 BMatC= 8.46D-12 BMatP= 9.91D-11
 IDIUse=1 WtCom= 1.00D+00 WtEn= 0.00D+00
 Coeff-Com:  0.140D-05-0.137D-04-0.199D-04-0.123D-03 0.600D-04 0.954D-03
 Coeff-Com: -0.118D-02-0.248D-02-0.133D-02 0.552D-01-0.130D+00-0.160D+00
 Coeff-Com:  0.124D+01
 Coeff:      0.140D-05-0.137D-04-0.199D-04-0.123D-03 0.600D-04 0.954D-03
 Coeff:     -0.118D-02-0.248D-02-0.133D-02 0.552D-01-0.130D+00-0.160D+00
 Coeff:      0.124D+01
 Gap=     0.532 Goal=   None    Shift=    0.000
 RMSDP=2.44D-08 MaxDP=7.31D-07 DE=-3.49D-10 OVMax= 2.29D-06

 Cycle  14  Pass 1  IDiag  1:
 E= -279.505435406917     Delta-E=       -0.000000000024 Rises=F Damp=F
 DIIS: error= 4.48D-08 at cycle  14 NSaved=  14.
 NSaved=14 IEnMin=14 EnMin= -279.505435406917     IErMin=14 ErrMin= 4.48D-08
 ErrMax= 4.48D-08  0.00D+00 EMaxC= 1.00D-01 BMatC= 5.37D-13 BMatP= 8.46D-12
 IDIUse=1 WtCom= 1.00D+00 WtEn= 0.00D+00
 Coeff-Com: -0.296D-06 0.451D-05 0.915D-05-0.495D-05-0.117D-03 0.759D-04
 Coeff-Com:  0.631D-03-0.284D-03-0.372D-02 0.882D-02 0.167D-01-0.887D-01
 Coeff-Com: -0.302D-01 0.110D+01
 Coeff:     -0.296D-06 0.451D-05 0.915D-05-0.495D-05-0.117D-03 0.759D-04
 Coeff:      0.631D-03-0.284D-03-0.372D-02 0.882D-02 0.167D-01-0.887D-01
 Coeff:     -0.302D-01 0.110D+01
 Gap=     0.532 Goal=   None    Shift=    0.000
 RMSDP=4.68D-09 MaxDP=1.15D-07 DE=-2.36D-11 OVMax= 4.87D-07

 SCF Done:  E(RHF) =  -279.505435407     A.U. after   14 cycles
            NFock= 14  Conv=0.47D-08     -V/T= 2.0023
 KE= 2.788621702083D+02 PE=-9.056248102501D+02 EE= 2.248759730243D+02
 Leave Link  502 at Sun Mar  6 19:03:39 2022, MaxMem= 16106127360 cpu:              55.3 elap:               3.6
 (Enter /sw/contrib/gaussian/g16/B01/g16/l801.exe)
 ExpMin= 2.53D-02 ExpMax= 1.53D+04 ExpMxC= 5.22D+02 IAcc=3 IRadAn=         5 AccDes= 0.00D+00
 HarFok:  IExCor=  205 AccDes= 0.00D+00 IRadAn=         5 IDoV=-2 UseB2=F ITyADJ=14
 ICtDFT= 12500011 ScaDFX=  1.000000  1.000000  1.000000  1.000000
 Largest valence mixing into a core orbital is  2.08D-04
 Largest core mixing into a valence orbital is  3.16D-05
 Range of M.O.s used for correlation:     5   207
 NBasis=   207 NAE=    16 NBE=    16 NFC=     4 NFV=     0
 NROrb=    203 NOA=    12 NOB=    12 NVA=   191 NVB=   191

 **** Warning!!: The largest alpha MO coefficient is  0.16330266D+02

 Leave Link  801 at Sun Mar  6 19:03:39 2022, MaxMem= 16106127360 cpu:               2.4 elap:               0.1
 (Enter /sw/contrib/gaussian/g16/B01/g16/l906.exe)
 Frozen-core derivative calculation, NFC=   4 NFV=   0.
 FulOut=F Deriv=T AODrv=T NAtomX=     5
   MMem=           0  MDisk=          12 MDiskD=          12
  W3Min=      811440 MinDsk=     2425030 NBas6D=         245
 NBas2D=       30762    NTT=       30135    LW2=     7400000
    MDV= 16105571616 MDiskM=      328644 NBas2p=       30759
 Disk-based method using ON**2 memory for 12 occupieds at a time.
 Permanent disk used for amplitudes=    11516536 words.
 Estimated scratch disk usage=   321863743 words.
 IMap=   1   2   3   4   5   6   7   8   9  10  11  12  13  14  15  16
 Actual    scratch disk usage=   310892607 words.
 JobTyp=1 Pass  1:  I=   5 to  16 NPSUse= 28 ParTrn=T ParDer=T DoDerP=T.
 (rs|ai) integrals will be sorted in core.
 Spin components of T(2) and E(2):
     alpha-alpha T2 =       0.3492739824D-01 E2=     -0.1246381919D+00
     alpha-beta  T2 =       0.1852644742D+00 E2=     -0.7004793829D+00
     beta-beta   T2 =       0.3492739824D-01 E2=     -0.1246381919D+00
 The integrals were generated   1 times.
 ANorm=    0.1120321057D+01
 E2 =    -0.9497557668D+00 EUMP2 =    -0.28045519117370D+03
 Leave Link  906 at Sun Mar  6 19:05:16 2022, MaxMem= 16106127360 cpu:            2708.5 elap:              96.9
 (Enter /sw/contrib/gaussian/g16/B01/g16/l1101.exe)
 Using compressed Sx but separate Hx and Fx, NAtomX=     5.
 Will process      6 centers per pass.
 Leave Link 1101 at Sun Mar  6 19:05:17 2022, MaxMem= 16106127360 cpu:               5.2 elap:               0.2
 (Enter /sw/contrib/gaussian/g16/B01/g16/l1102.exe)
 Leave Link 1102 at Sun Mar  6 19:05:17 2022, MaxMem= 16106127360 cpu:               1.2 elap:               0.1
 (Enter /sw/contrib/gaussian/g16/B01/g16/l1110.exe)
 Forming Gx(P) for the SCF density, NAtomX=     5.
 Integral derivatives from FoFJK, PRISM(SPDF).
 Do as many integral derivatives as possible in FoFJK.
 G2DrvN: MDV=   16106126844.
 G2DrvN: will do     6 centers at a time, making    1 passes.
 Calling FoFCou, ICntrl=  3107 FMM=F I1Cent=   0 AccDes= 0.00D+00.
 FoFJK:  IHMeth= 1 ICntrl=    3107 DoSepK=F KAlg= 0 I1Cent=           0 FoldK=F
 IRaf=         0 NMat=       1 IRICut=       1 DoRegI=T DoRafI=F ISym2E= 1 IDoP0=0 IntGTp=1.
 FoFCou: FMM=F IPFlag=           0 FMFlag=      100000 FMFlg1=           0
         NFxFlg=           0 DoJE=F BraDBF=F KetDBF=F FulRan=T
         wScrn=  0.000000 ICntrl=      3107 IOpCl=  0 I1Cent=           0 NGrid=           0
         NMat0=    1 NMatS0=      1 NMatT0=    0 NMatD0=    1 NMtDS0=    0 NMtDT0=    0
 Petite list used in FoFCou.
 End of G2Drv F.D. properties file   721 does not exist.
 End of G2Drv F.D. properties file   722 does not exist.
 End of G2Drv F.D. properties file   788 does not exist.
 Leave Link 1110 at Sun Mar  6 19:05:20 2022, MaxMem= 16106127360 cpu:              86.8 elap:               3.1
 (Enter /sw/contrib/gaussian/g16/B01/g16/l1002.exe)
 Minotr:  Closed shell wavefunction.
          IDoAtm=11111
          Frozen-core window.
          Direct CPHF calculation.
          Differentiating once with respect to electric field.
                with respect to dipole field.
          Differentiating once with respect to nuclear coordinates.
          Requested convergence is 1.0D-08 RMS, and 1.0D-07 maximum.
          Secondary convergence is 1.0D-12 RMS, and 1.0D-12 maximum.
          NewPWx=T KeepS1=T KeepF1=T KeepIn=T MapXYZ=F SortEE=F KeepMc=T.
 Keep R1 ints in memory in symmetry-blocked form, NReq=348888983.
 FoFCou: FMM=F IPFlag=           0 FMFlag=           0 FMFlg1=           0
         NFxFlg=           0 DoJE=F BraDBF=F KetDBF=F FulRan=T
         wScrn=  0.000000 ICntrl=       600 IOpCl=  0 I1Cent=           0 NGrid=           0
         NMat0=    1 NMatS0=  21528 NMatT0=    0 NMatD0=    1 NMtDS0=    0 NMtDT0=    0
 Petite list used in FoFCou.
          MDV=   16106127360 using IRadAn=       1.
          Solving linear equations simultaneously, MaxMat=       0.
          There are    18 degrees of freedom in the 1st order CPHF.  IDoFFX=6 NUNeed=    18.
     15 vectors produced by pass  0 Test12= 1.70D-14 5.56D-09 XBig12= 7.98D+00 1.23D+00.
 AX will form    15 AO Fock derivatives at one time.
     15 vectors produced by pass  1 Test12= 1.70D-14 5.56D-09 XBig12= 1.37D+00 2.05D-01.
     15 vectors produced by pass  2 Test12= 1.70D-14 5.56D-09 XBig12= 6.86D-02 5.93D-02.
     15 vectors produced by pass  3 Test12= 1.70D-14 5.56D-09 XBig12= 2.03D-03 1.06D-02.
     15 vectors produced by pass  4 Test12= 1.70D-14 5.56D-09 XBig12= 4.35D-05 1.23D-03.
     15 vectors produced by pass  5 Test12= 1.70D-14 5.56D-09 XBig12= 6.07D-07 1.19D-04.
     15 vectors produced by pass  6 Test12= 1.70D-14 5.56D-09 XBig12= 4.65D-09 1.21D-05.
     14 vectors produced by pass  7 Test12= 1.70D-14 5.56D-09 XBig12= 3.51D-11 8.05D-07.
      3 vectors produced by pass  8 Test12= 1.70D-14 5.56D-09 XBig12= 2.47D-13 6.16D-08.
      1 vectors produced by pass  9 Test12= 1.70D-14 5.56D-09 XBig12= 1.72D-15 7.19D-09.
 InvSVY:  IOpt=1 It=  1 EMax= 9.99D-16
 Solved reduced A of dimension   123 with    15 vectors.
 FullF1:  Do perturbations      1 to      18.
 Saving first derivative matrices.
 End of Minotr F.D. properties file   721 does not exist.
 End of Minotr F.D. properties file   722 does not exist.
 End of Minotr F.D. properties file   788 does not exist.
 Leave Link 1002 at Sun Mar  6 19:05:23 2022, MaxMem= 16106127360 cpu:              81.3 elap:               3.1
 (Enter /sw/contrib/gaussian/g16/B01/g16/l811.exe)
 MDV= 16106127360.
 Form MO integral derivatives with frozen-active canonical formalism.
 MOERI=1 MOERIx=1 NAtoms=     5 NAtomX=     5.
 Discarding MO integrals.
 MO basis two electron integral derivatives will not be stored on disk.
 IAlg= 3 DoFC=T DoPWx=T Debug=F.
 Frozen-core window:  NFC=   4 NFV=   0.
 Reordered first order wavefunction length =     18678272
 In DefCFB: NBatch=  1 ICI= 16 ICA=191 LFMax= 96
            Large arrays: LIAPS=   619940160 LIARS=   288257200 words.
 In StABat: MaxSiz= 55 MinSiz= 25 NAtomB=  5
 DoIAMN: NPSUse= 28.
 Leave Link  811 at Sun Mar  6 19:06:46 2022, MaxMem= 16106127360 cpu:            2315.8 elap:              82.8
 (Enter /sw/contrib/gaussian/g16/B01/g16/l804.exe)
 Frozen-core window:  NFC=   4 NFV=   0.
 Closed-shell transformation, MDV= 16106127360 ITran=4 ISComp=1.
 Semi-Direct transformation.
 ModeAB=           2 MOrb=            16 LenV=   16104919967
 LASXX=     67341636 LTotXX=    67341636 LenRXX=    67341636
 LTotAB=    68301760 MaxLAS=    99807120 LenRXY=    99807120
 NonZer=   134683272 LenScr=   202817536 LnRSAI=           0
 LnScr1=           0 LExtra=           0 Total=    369966292
 MaxDsk=          -1 SrtSym=           F ITran=            4
 DoSDTr:  NPSUse= 28
 JobTyp=0 Pass  1:  I=   1 to  16.
 (rs|ai) integrals will be sorted in core.
 Complete sort for first half transformation.
 First half transformation complete.
 Begin second half transformation for I=  10.
 Begin second half transformation for I=  10.
 Complete sort for second half transformation.
 Second half transformation complete.
 Spin components of T(2) and E(2):
     alpha-alpha T2 =       0.3492739824D-01 E2=     -0.1246381919D+00
     alpha-beta  T2 =       0.1852644742D+00 E2=     -0.7004793829D+00
     beta-beta   T2 =       0.3492739824D-01 E2=     -0.1246381919D+00
 ANorm=    0.1584373233D+01
 E2 =    -0.9497557668D+00 EUMP2 =    -0.28045519117370D+03
 Leave Link  804 at Sun Mar  6 19:07:02 2022, MaxMem= 16106127360 cpu:             444.3 elap:              15.9
 (Enter /sw/contrib/gaussian/g16/B01/g16/l1002.exe)
 Minotr:  Closed shell wavefunction.
          Computing MP2/KS-MP2 derivatives.
          Using Z-Vector for PSCF gradient.
          Skipping F1 and S1 gradient terms here.
          IDoAtm=11111
          Frozen-core window.
          Using MO integrals in the linear equations.
          Forming densities via direct SCF.
          Differentiating once with respect to electric field.
                with respect to dipole field.
          Differentiating once with respect to nuclear coordinates.
          Using symmetry in CPHF.
          Requested convergence is 1.0D-10 RMS, and 1.0D-09 maximum.
          NewPWx=F KeepS1=T KeepF1=T KeepIn=T MapXYZ=F SortEE=F KeepMc=T.
          MDV=   16106127360 using IRadAn=       5.
          Solving linear equations separately, MaxMat=       0.
          There are     1 degrees of freedom in the 1st order CPHF.  IDoFFX=0 NUNeed=     1.
 FoFJK:  IHMeth= 1 ICntrl=       0 DoSepK=F KAlg= 0 I1Cent=           0 FoldK=F
 IRaf=         0 NMat=       1 IRICut=       1 DoRegI=T DoRafI=F ISym2E= 0 IDoP0=0 IntGTp=1.
 FoFCou: FMM=F IPFlag=           0 FMFlag=      100000 FMFlg1=           0
         NFxFlg=           0 DoJE=F BraDBF=F KetDBF=F FulRan=T
         wScrn=  0.000000 ICntrl=         0 IOpCl=  0 I1Cent=           0 NGrid=           0
         NMat0=    1 NMatS0=      1 NMatT0=    0 NMatD0=    1 NMtDS0=    0 NMtDT0=    0
 Symmetry not used in FoFCou.
 LinEq1:  Iter=  0 NonCon=     1 RMS=6.64D-03 Max=1.74D-01 NDo=     1
 LinEq1:  Iter=  1 NonCon=     1 RMS=2.04D-03 Max=3.13D-02 NDo=     1
 LinEq1:  Iter=  2 NonCon=     1 RMS=9.05D-04 Max=1.45D-02 NDo=     1
 LinEq1:  Iter=  3 NonCon=     1 RMS=3.90D-04 Max=8.24D-03 NDo=     1
 LinEq1:  Iter=  4 NonCon=     1 RMS=1.41D-04 Max=2.04D-03 NDo=     1
 LinEq1:  Iter=  5 NonCon=     1 RMS=7.86D-05 Max=1.42D-03 NDo=     1
 LinEq1:  Iter=  6 NonCon=     1 RMS=2.50D-05 Max=3.75D-04 NDo=     1
 LinEq1:  Iter=  7 NonCon=     1 RMS=8.51D-06 Max=1.13D-04 NDo=     1
 LinEq1:  Iter=  8 NonCon=     1 RMS=4.13D-06 Max=6.26D-05 NDo=     1
 LinEq1:  Iter=  9 NonCon=     1 RMS=1.07D-06 Max=1.22D-05 NDo=     1
 LinEq1:  Iter= 10 NonCon=     1 RMS=2.38D-07 Max=2.95D-06 NDo=     1
 LinEq1:  Iter= 11 NonCon=     1 RMS=5.08D-08 Max=8.13D-07 NDo=     1
 LinEq1:  Iter= 12 NonCon=     1 RMS=1.20D-08 Max=1.75D-07 NDo=     1
 LinEq1:  Iter= 13 NonCon=     1 RMS=2.11D-09 Max=2.99D-08 NDo=     1
 LinEq1:  Iter= 14 NonCon=     1 RMS=4.41D-10 Max=5.97D-09 NDo=     1
 LinEq1:  Iter= 15 NonCon=     0 RMS=9.05D-11 Max=9.31D-10 NDo=     1
 Linear equations converged to 1.000D-10 1.000D-09 after    15 iterations.
 End of Minotr F.D. properties file   721 does not exist.
 End of Minotr F.D. properties file   722 does not exist.
 End of Minotr F.D. properties file   788 does not exist.
 Leave Link 1002 at Sun Mar  6 19:07:04 2022, MaxMem= 16106127360 cpu:              63.9 elap:               2.3
 (Enter /sw/contrib/gaussian/g16/B01/g16/l1102.exe)
 Use density number 2.
 Symmetrizing basis deriv contribution to polar:
 IMax=3 JMax=2 DiffMx= 0.00D+00
 Leave Link 1102 at Sun Mar  6 19:07:04 2022, MaxMem= 16106127360 cpu:               3.1 elap:               0.2
 (Enter /sw/contrib/gaussian/g16/B01/g16/l1110.exe)
 Forming Gx(P) for generalized density number  2 NAtomX=     5.
 Integral derivatives from FoFJK, PRISM(SPDF).
 Do as many integral derivatives as possible in FoFJK.
 G2DrvN: MDV=   16106126844.
 G2DrvN: will do     6 centers at a time, making    1 passes.
 Calling FoFCou, ICntrl=  3107 FMM=F I1Cent=   0 AccDes= 0.00D+00.
 FoFJK:  IHMeth= 1 ICntrl=    3107 DoSepK=F KAlg= 0 I1Cent=           0 FoldK=F
 IRaf=         0 NMat=       1 IRICut=       1 DoRegI=T DoRafI=F ISym2E= 1 IDoP0=0 IntGTp=1.
 FoFCou: FMM=F IPFlag=           0 FMFlag=      100000 FMFlg1=           0
         NFxFlg=           0 DoJE=F BraDBF=F KetDBF=F FulRan=T
         wScrn=  0.000000 ICntrl=      3107 IOpCl=  0 I1Cent=           0 NGrid=           0
         NMat0=    1 NMatS0=      1 NMatT0=    0 NMatD0=    1 NMtDS0=    0 NMtDT0=    0
 Petite list used in FoFCou.
 End of G2Drv F.D. properties file   721 does not exist.
 End of G2Drv F.D. properties file   722 does not exist.
 End of G2Drv F.D. properties file   788 does not exist.
 Leave Link 1110 at Sun Mar  6 19:07:07 2022, MaxMem= 16106127360 cpu:              87.4 elap:               3.1
 (Enter /sw/contrib/gaussian/g16/B01/g16/l1112.exe)
 MP22nd: MDV=   16106127360
 This link is doing NAtomX=     5 total of    18 degrees of freedom.
 Using ON3 I/O method in MakUI.
 Frozen-core window:  NFC=   4 NFV=   0.
 Using Ix for Sx.
 Use MO integrals over full window.
 Using OV2 memory method for fx*t*t/D, MaxI=    16 DoOO2=F NP=  28.
 R2 and R3 integrals will be kept in memory, NReq=   915591705.
 FoFCou: FMM=F IPFlag=           0 FMFlag=           0 FMFlg1=           0
         NFxFlg=           0 DoJE=F BraDBF=F KetDBF=F FulRan=T
         wScrn=  0.000000 ICntrl=       600 IOpCl=  0 I1Cent=           0 NGrid=           0
         NMat0=    1 NMatS0=      1 NMatT0=    0 NMatD0=    1 NMtDS0=    0 NMtDT0=    0
 Symmetry not used in FoFCou.
 DD1Dir will call FoFMem   1 times, MxPair=       272
 NAB=   136 NAA=     0 NBB=     0.
 Symmetry is being used.
 FoFJK:  IHMeth= 1 ICntrl=       0 DoSepK=F KAlg= 0 I1Cent=           0 FoldK=F
 IRaf=         0 NMat=      18 IRICut=      45 DoRegI=T DoRafI=T ISym2E= 2 IDoP0=3 IntGTp=3.
 Discarding MO integrals.
 Leave Link 1112 at Sun Mar  6 19:07:33 2022, MaxMem= 16106127360 cpu:             711.5 elap:              25.5
 (Enter /sw/contrib/gaussian/g16/B01/g16/l601.exe)
 Copying SCF densities to generalized density rwf, IOpCl= 0 IROHF=0.

 **********************************************************************

            Population analysis using the MP2 Density.

 **********************************************************************

 Orbital symmetries:
       Occupied  (A') (A') (A') (A') (A') (A') (A') (A') (A') (A')
                 (A") (A') (A") (A') (A') (A")
       Virtual   (A') (A") (A') (A') (A") (A') (A') (A') (A") (A')
                 (A") (A') (A') (A') (A") (A') (A') (A") (A') (A')
                 (A') (A') (A') (A') (A") (A') (A') (A") (A') (A')
                 (A') (A") (A") (A') (A') (A') (A") (A') (A") (A')
                 (A") (A") (A') (A') (A") (A') (A') (A") (A') (A')
                 (A') (A") (A') (A') (A") (A') (A") (A') (A") (A')
                 (A') (A') (A") (A') (A') (A") (A') (A") (A') (A')
                 (A") (A') (A") (A") (A') (A') (A") (A') (A') (A')
                 (A") (A') (A') (A") (A') (A") (A") (A') (A') (A')
                 (A') (A') (A") (A") (A') (A') (A") (A") (A') (A")
                 (A') (A') (A") (A') (A") (A') (A') (A') (A") (A")
                 (A') (A') (A') (A') (A") (A') (A') (A') (A") (A')
                 (A") (A") (A') (A') (A") (A") (A') (A") (A') (A')
                 (A') (A') (A") (A') (A') (A") (A") (A') (A') (A')
                 (A") (A") (A') (A') (A') (A") (A') (A') (A') (A")
                 (A') (A') (A') (A") (A") (A') (A") (A') (A') (A")
                 (A') (A") (A') (A") (A") (A') (A') (A") (A") (A")
                 (A') (A") (A") (A') (A') (A") (A') (A') (A') (A")
                 (A') (A') (A') (A') (A') (A') (A') (A') (A') (A')
                 (A')
 The electronic state is 1-A'.
 Alpha  occ. eigenvalues --  -20.71797 -20.68982 -20.66764 -15.82738  -1.64170
 Alpha  occ. eigenvalues --   -1.50505  -1.28981  -0.96098  -0.83349  -0.75762
 Alpha  occ. eigenvalues --   -0.73750  -0.63707  -0.61940  -0.61901  -0.50448
 Alpha  occ. eigenvalues --   -0.49642
 Alpha virt. eigenvalues --    0.03512   0.05863   0.09507   0.10035   0.11972
 Alpha virt. eigenvalues --    0.12236   0.14959   0.15231   0.17760   0.18016
 Alpha virt. eigenvalues --    0.18985   0.21091   0.21675   0.24226   0.24631
 Alpha virt. eigenvalues --    0.26866   0.31208   0.31637   0.33765   0.34010
 Alpha virt. eigenvalues --    0.34547   0.39063   0.44861   0.48856   0.50499
 Alpha virt. eigenvalues --    0.51821   0.54445   0.56082   0.59859   0.62004
 Alpha virt. eigenvalues --    0.63803   0.68919   0.71840   0.72389   0.74285
 Alpha virt. eigenvalues --    0.76328   0.76685   0.79574   0.80557   0.83986
 Alpha virt. eigenvalues --    0.84356   0.85162   0.88455   0.90746   0.92962
 Alpha virt. eigenvalues --    0.94694   0.95521   1.01794   1.03169   1.06142
 Alpha virt. eigenvalues --    1.06558   1.09411   1.14360   1.15538   1.16819
 Alpha virt. eigenvalues --    1.22178   1.22766   1.24574   1.35247   1.36264
 Alpha virt. eigenvalues --    1.37207   1.46785   1.48496   1.50514   1.54215
 Alpha virt. eigenvalues --    1.59604   1.59628   1.60299   1.62546   1.69503
 Alpha virt. eigenvalues --    1.74079   1.80089   1.82814   1.88756   1.89578
 Alpha virt. eigenvalues --    1.92536   1.97772   1.98825   2.05140   2.12115
 Alpha virt. eigenvalues --    2.12887   2.16226   2.18734   2.24208   2.25933
 Alpha virt. eigenvalues --    2.29483   2.35099   2.36441   2.38647   2.40256
 Alpha virt. eigenvalues --    2.42989   2.46822   2.47751   2.52963   2.53364
 Alpha virt. eigenvalues --    2.54877   2.55630   2.61323   2.62867   2.66963
 Alpha virt. eigenvalues --    2.67041   2.75233   2.80723   2.81294   2.84033
 Alpha virt. eigenvalues --    2.91488   2.97916   3.04303   3.04841   3.11448
 Alpha virt. eigenvalues --    3.11688   3.17342   3.21327   3.30688   3.33024
 Alpha virt. eigenvalues --    3.35425   3.47957   3.66943   3.86401   3.92770
 Alpha virt. eigenvalues --    4.18315   4.21926   4.22252   4.26319   4.36810
 Alpha virt. eigenvalues --    4.49844   4.52002   4.55394   4.59616   4.69287
 Alpha virt. eigenvalues --    4.80874   4.89069   4.91228   4.93964   4.99234
 Alpha virt. eigenvalues --    5.00378   5.10229   5.13129   5.17901   5.24918
 Alpha virt. eigenvalues --    5.25750   5.31205   5.34280   5.35380   5.54578
 Alpha virt. eigenvalues --    5.64224   5.70149   5.88725   5.99957   6.26516
 Alpha virt. eigenvalues --    6.29046   6.35370   6.37636   6.59735   6.65459
 Alpha virt. eigenvalues --    6.65754   6.68464   6.72361   6.80244   6.80648
 Alpha virt. eigenvalues --    6.84326   6.95872   7.02056   7.06745   7.07980
 Alpha virt. eigenvalues --    7.13963   7.16740   7.17159   7.20440   7.24418
 Alpha virt. eigenvalues --    7.24546   7.26879   7.34529   7.38379   7.42253
 Alpha virt. eigenvalues --    7.44018   7.46368   7.54666   7.65925   7.66055
 Alpha virt. eigenvalues --    7.79131   7.87892   7.93675   8.05560   8.30452
 Alpha virt. eigenvalues --    8.49621   8.64438  13.55884  14.68802  15.07257
 Alpha virt. eigenvalues --   15.73713
          Condensed to atoms (all electrons):
               1          2          3          4          5
     1  H    0.579327   0.124949   0.024235  -0.001372  -0.004916
     2  O    0.124949   8.386242  -0.230703   0.000437  -0.008218
     3  O    0.024235  -0.230703   8.375561  -0.166716  -0.031571
     4  N   -0.001372   0.000437  -0.166716   7.127696  -0.117978
     5  O   -0.004916  -0.008218  -0.031571  -0.117978   8.354877
 Mulliken charges:
               1
     1  H    0.277777
     2  O   -0.272708
     3  O    0.029194
     4  N    0.157932
     5  O   -0.192195
 Sum of Mulliken charges =  -0.00000
 Mulliken charges with hydrogens summed into heavy atoms:
               1
     2  O    0.005069
     3  O    0.029194
     4  N    0.157932
     5  O   -0.192195
 APT charges:
               1
     1  H    0.269166
     2  O   -0.301211
     3  O   -0.321268
     4  N    0.653965
     5  O   -0.300651
 Sum of APT charges =  -0.00000
 APT charges with hydrogens summed into heavy atoms:
               1
     2  O   -0.032045
     3  O   -0.321268
     4  N    0.653965
     5  O   -0.300651
 Electronic spatial extent (au):  <R**2>=            208.4056
 Charge=             -0.0000 electrons
 Dipole moment (field-independent basis, Debye):
    X=              0.0243    Y=             -1.1456    Z=              0.0000  Tot=              1.1458
 Quadrupole moment (field-independent basis, Debye-Ang):
   XX=            -23.3403   YY=            -22.9656   ZZ=            -21.9514
   XY=             -1.9508   XZ=              0.0000   YZ=              0.0000
 Traceless Quadrupole moment (field-independent basis, Debye-Ang):
   XX=             -0.5879   YY=             -0.2132   ZZ=              0.8011
   XY=             -1.9508   XZ=              0.0000   YZ=              0.0000
 Octapole moment (field-independent basis, Debye-Ang**2):
  XXX=              2.5112  YYY=              0.2054  ZZZ=              0.0000  XYY=              2.3027
  XXY=             -2.8506  XXZ=              0.0000  XZZ=             -0.5975  YZZ=             -0.7478
  YYZ=              0.0000  XYZ=              0.0000
 Hexadecapole moment (field-independent basis, Debye-Ang**3):
 XXXX=           -127.4541 YYYY=            -95.7138 ZZZZ=            -18.0755 XXXY=            -21.9990
 XXXZ=              0.0000 YYYX=            -20.1360 YYYZ=              0.0000 ZZZX=              0.0000
 ZZZY=              0.0000 XXYY=            -35.8621 XXZZ=            -24.4279 YYZZ=            -18.7412
 XXYZ=              0.0000 YYXZ=              0.0000 ZZXY=             -6.0431
 N-N= 1.223812316106D+02 E-N=-9.063209509742D+02  KE= 2.801837319825D+02
 Symmetry A'   KE= 2.663342939633D+02
 Symmetry A"   KE= 1.384943801921D+01
  Exact polarizability:  30.978   4.221  30.018   0.000   0.000  17.656
 Approx polarizability:  24.654   0.573  27.834  -0.000  -0.000  15.533
 No NMR shielding tensors so no spin-rotation constants.
 Leave Link  601 at Sun Mar  6 19:07:33 2022, MaxMem= 16106127360 cpu:               4.2 elap:               0.2
 (Enter /sw/contrib/gaussian/g16/B01/g16/l701.exe)
 ... and contract with generalized density number  2.
 Compute integral second derivatives.
 Leave Link  701 at Sun Mar  6 19:07:33 2022, MaxMem= 16106127360 cpu:               5.6 elap:               0.2
 (Enter /sw/contrib/gaussian/g16/B01/g16/l702.exe)
 L702 exits ... SP integral derivatives will be done elsewhere.
 Leave Link  702 at Sun Mar  6 19:07:33 2022, MaxMem= 16106127360 cpu:               0.9 elap:               0.1
 (Enter /sw/contrib/gaussian/g16/B01/g16/l703.exe)
 Integral derivatives from FoFJK, PRISM(SPDF).
 Compute integral second derivatives, UseDBF=F ICtDFT=           0.
 Calling FoFJK, ICntrl=  10100127 FMM=F ISym2X=1 I1Cent= 0 IOpClX= 0 NMat=1 NMatS=1 NMatT=0.
 FoFJK:  IHMeth= 1 ICntrl=10100127 DoSepK=F KAlg= 0 I1Cent=           0 FoldK=F
 IRaf=         0 NMat=       1 IRICut=       1 DoRegI=T DoRafI=F ISym2E= 1 IDoP0=0 IntGTp=1.
 FoFCou: FMM=F IPFlag=           0 FMFlag=      100000 FMFlg1=         800
         NFxFlg=           0 DoJE=F BraDBF=F KetDBF=F FulRan=T
         wScrn=  0.000000 ICntrl=  10100127 IOpCl=  0 I1Cent=           0 NGrid=           0
         NMat0=    1 NMatS0=      1 NMatT0=    0 NMatD0=    1 NMtDS0=    0 NMtDT0=    0
 Petite list used in FoFCou.
 Leave Link  703 at Sun Mar  6 19:07:49 2022, MaxMem= 16106127360 cpu:             443.6 elap:              15.9
 (Enter /sw/contrib/gaussian/g16/B01/g16/l716.exe)
 Dipole        = 9.56106023D-03-4.50708664D-01 0.00000000D+00
 Polarizability= 3.09777442D+01 4.22079172D+00 3.00178649D+01
                 0.00000000D+00 0.00000000D+00 1.76563454D+01
 Full mass-weighted force constant matrix:
 Low frequencies ---   -0.0010    0.0005    0.0015   27.7149   39.7916   48.1699
 Low frequencies ---  348.5182  388.1050  520.9982
 Diagonal vibrational polarizability:
        7.9257158      11.3681038      16.5173387
 Harmonic frequencies (cm**-1), IR intensities (KM/Mole), Raman scattering
 activities (A**4/AMU), depolarization ratios for plane and unpolarized
 incident light, reduced masses (AMU), force constants (mDyne/A),
 and normal coordinates:
                      1                      2                      3
                     A"                     A'                     A"
 Frequencies --    348.5164               388.1003               520.9873
 Red. masses --      1.5285                 7.1491                 3.0149
 Frc consts  --      0.1094                 0.6344                 0.4822
 IR Inten    --     63.5569                 8.5010                24.5679
  Atom  AN      X      Y      Z        X      Y      Z        X      Y      Z
     1   1    -0.00  -0.00   0.98    -0.72  -0.26  -0.00    -0.00  -0.00   0.93
     2   8    -0.00  -0.00  -0.11    -0.33  -0.32   0.00    -0.00  -0.00   0.06
     3   8    -0.00  -0.00   0.11    -0.07   0.08  -0.00     0.00   0.00  -0.19
     4   7     0.00   0.00  -0.10     0.06   0.10   0.00     0.00  -0.00   0.28
     5   8     0.00   0.00   0.03     0.39   0.17   0.00     0.00  -0.00  -0.17
                      4                      5                      6
                     A'                     A'                     A'
 Frequencies --    672.3676               835.8379               968.1973
 Red. masses --     13.2654                12.2308                 9.9321
 Frc consts  --      3.5333                 5.0344                 5.4855
 IR Inten    --    227.3132                29.2098                11.8950
  Atom  AN      X      Y      Z        X      Y      Z        X      Y      Z
     1   1    -0.36  -0.01  -0.00     0.45  -0.15   0.00    -0.62  -0.01   0.00
     2   8    -0.01  -0.09  -0.00     0.52  -0.19   0.00     0.21  -0.17   0.00
     3   8     0.37   0.58   0.00    -0.37  -0.04  -0.00    -0.37   0.41  -0.00
     4   7    -0.41  -0.46  -0.00    -0.44  -0.05   0.00     0.37   0.04   0.00
     5   8     0.03  -0.09   0.00     0.21   0.29  -0.00    -0.13  -0.28  -0.00
                      7                      8                      9
                     A'                     A'                     A'
 Frequencies --   1434.6296              1564.7393              3488.7954
 Red. masses --      1.3130                 6.1449                 1.0639
 Frc consts  --      1.5921                 8.8644                 7.6296
 IR Inten    --     79.2727               150.1264                40.8296
  Atom  AN      X      Y      Z        X      Y      Z        X      Y      Z
     1   1     0.97  -0.20   0.00    -0.77   0.17  -0.00     0.15   0.99  -0.00
     2   8    -0.07  -0.05   0.00     0.02   0.02  -0.00    -0.01  -0.06   0.00
     3   8    -0.03   0.06  -0.00    -0.04  -0.06   0.00     0.00  -0.00  -0.00
     4   7     0.07  -0.05   0.00     0.24  -0.39  -0.00    -0.00   0.00  -0.00
     5   8    -0.02   0.05  -0.00    -0.15   0.37   0.00     0.00  -0.00   0.00

 -------------------
 - Thermochemistry -
 -------------------
 Temperature   298.150 Kelvin.  Pressure   1.00000 Atm.
 Atom     1 has atomic number  1 and mass   1.00783
 Atom     2 has atomic number  8 and mass  15.99491
 Atom     3 has atomic number  8 and mass  15.99491
 Atom     4 has atomic number  7 and mass  14.00307
 Atom     5 has atomic number  8 and mass  15.99491
 Molecular mass:    62.99564 amu.
 Principal axes and moments of inertia in atomic units:
                           1         2         3
     Eigenvalues --    84.54530 224.97092 309.51622
           X            0.79292  -0.60932   0.00000
           Y            0.60932   0.79292   0.00000
           Z            0.00000   0.00000   1.00000
 This molecule is an asymmetric top.
 Rotational symmetry number  1.
 Rotational temperatures (Kelvin)      1.02447     0.38500     0.27984
 Rotational constants (GHZ):          21.34644     8.02211     5.83085
 Zero-point vibrational energy      61142.2 (Joules/Mol)
                                   14.61333 (Kcal/Mol)
 Warning -- explicit consideration of   3 degrees of freedom as
           vibrations may cause significant error
 Vibrational temperatures:    501.44   558.39   749.58   967.39  1202.58
          (Kelvin)           1393.02  2064.11  2251.31  5019.60
 
 Zero-point correction=                           0.023288 (Hartree/Particle)
 Thermal correction to Energy=                    0.027258
 Thermal correction to Enthalpy=                  0.028202
 Thermal correction to Gibbs Free Energy=        -0.002715
 Sum of electronic and zero-point Energies=           -280.431903
 Sum of electronic and thermal Energies=              -280.427933
 Sum of electronic and thermal Enthalpies=            -280.426989
 Sum of electronic and thermal Free Energies=         -280.457906
 
                     E (Thermal)             CV                S
                      KCal/Mol        Cal/Mol-Kelvin    Cal/Mol-Kelvin
 Total                   17.105             12.283             65.071
 Electronic               0.000              0.000              0.000
 Translational            0.889              2.981             38.341
 Rotational               0.889              2.981             23.291
 Vibrational             15.327              6.321              3.439
 Vibration     1          0.726              1.578              1.173
 Vibration     2          0.756              1.496              1.007
 Vibration     3          0.876              1.204              0.608
                       Q            Log10(Q)             Ln(Q)
 Total Bot       0.177359D+02          1.248853          2.875590
 Total V=0       0.913054D+12         11.960497         27.540061
 Vib (Bot)       0.328578D-10        -10.483362        -24.138833
 Vib (Bot)    1  0.529894D+00         -0.275811         -0.635079
 Vib (Bot)    2  0.463217D+00         -0.334216         -0.769560
 Vib (Bot)    3  0.309542D+00         -0.509281         -1.172662
 Vib (V=0)       0.169154D+01          0.228282          0.525638
 Vib (V=0)    1  0.122855D+01          0.089393          0.205836
 Vib (V=0)    2  0.118159D+01          0.072468          0.166864
 Vib (V=0)    3  0.108806D+01          0.036653          0.084398
 Electronic      0.100000D+01          0.000000          0.000000
 Translational   0.196526D+08          7.293420         16.793719
 Rotational      0.274660D+05          4.438795         10.220704
 
                                                                title
                                                             IR Spectrum
 
     3                                                                      1   1                                                    
     4                                                                      5   4                9    8     6     5   3 3            
     8                                                                      6   3                6    3     7     2   8 4            
     9                                                                      5   5                8    6     2     1   8 9            
 
     X                                                                      X   X                X    X     X     X   X X            
     X                                                                      X   X                     X     X     X     X            
     X                                                                      X   X                     X     X           X            
     X                                                                      X   X                           X           X            
                                                                            X   X                           X           X            
                                                                            X   X                           X           X            
                                                                            X   X                           X                        
                                                                            X                               X                        
                                                                            X                               X                        
                                                                            X                               X                        
                                                                            X                               X                        
                                                                            X                               X                        
                                                                            X                               X                        
                                                                                                            X                        
                                                                                                            X                        
                                                                                                            X                        
                                                                                                            X                        
                                                                                                            X                        
                                                                                                            X                        
                                                                                                            X                        
 
 ***** Axes restored to original set *****
 -------------------------------------------------------------------
 Center     Atomic                   Forces (Hartrees/Bohr)
 Number     Number              X              Y              Z
 -------------------------------------------------------------------
      1        1          -0.000245508   -0.000000000    0.000081058
      2        8           0.000596424   -0.000000000   -0.000799050
      3        8           0.001774077   -0.000000000   -0.003129930
      4        7          -0.002636485   -0.000000000    0.000845750
      5        8           0.000511492   -0.000000000    0.003002172
 -------------------------------------------------------------------
 Cartesian Forces:  Max     0.003129930 RMS     0.001436335
 -----------------------------------------------------------------------------------------------
                       Internal Coordinate Forces (Hartree/Bohr or radian)
  Cent   Atom   N1       Length/X         N2         Alpha/Y        N3         Beta/Z          J
 -----------------------------------------------------------------------------------------------
      1  H 
      2  O        1  -0.000081(     1)
      3  O        2  -0.000212(     2)      1   0.000457(     5)
      4  N        3  -0.004380(     3)      2  -0.001620(     6)      1   0.000000(     8)     0
      5  O        4  -0.002819(     4)      3  -0.002601(     7)      2   0.000000(     9)     0
 -----------------------------------------------------------------------------------------------
 Internal  Forces:  Max     0.004379862 RMS     0.002021557
 Force constants in Cartesian coordinates: 
                1             2             3             4             5 
      1  0.722626D-01
      2  0.000000D+00  0.589441D-02
      3  0.234840D-01  0.000000D+00  0.436997D+00
      4 -0.516444D-01  0.000000D+00 -0.424345D-02  0.280363D+00
      5  0.000000D+00 -0.233774D-02  0.000000D+00  0.000000D+00  0.121535D-01
      6  0.328076D-01  0.000000D+00 -0.421339D+00 -0.112929D-01  0.000000D+00
      7 -0.253850D-01  0.000000D+00 -0.158549D-01 -0.172801D+00  0.000000D+00
      8  0.000000D+00 -0.419042D-02  0.000000D+00  0.000000D+00 -0.185238D-01
      9 -0.440346D-01  0.000000D+00 -0.195650D-01  0.103820D-01  0.000000D+00
     10 -0.563083D-02  0.000000D+00  0.654205D-02 -0.819281D-01  0.000000D+00
     11  0.000000D+00  0.796335D-02  0.000000D+00  0.000000D+00  0.193361D-01
     12 -0.189680D-01  0.000000D+00  0.115813D-01  0.957291D-02  0.000000D+00
     13  0.103975D-01  0.000000D+00 -0.992773D-02  0.260113D-01  0.000000D+00
     14  0.000000D+00 -0.732959D-02  0.000000D+00  0.000000D+00 -0.106281D-01
     15  0.671095D-02  0.000000D+00 -0.767440D-02 -0.441856D-02  0.000000D+00
                6             7             8             9            10 
      6  0.522044D+00
      7 -0.907945D-01  0.301855D+00
      8  0.000000D+00  0.000000D+00  0.411398D-01
      9 -0.956830D-01  0.870892D-01  0.000000D+00  0.300755D+00
     10  0.397908D-01 -0.140460D+00  0.000000D+00 -0.396579D-01  0.548242D+00
     11  0.000000D+00  0.000000D+00 -0.477794D-01  0.000000D+00  0.000000D+00
     12 -0.102487D-01  0.927525D-02  0.000000D+00 -0.126802D-01  0.247037D+00
     13  0.294889D-01  0.367912D-01  0.000000D+00 -0.137787D-01 -0.320224D+00
     14  0.000000D+00  0.000000D+00  0.293538D-01  0.000000D+00  0.000000D+00
     15  0.522701D-02  0.102848D-01  0.000000D+00 -0.172827D+00 -0.253712D+00
               11            12            13            14            15 
     11  0.582240D-01
     12  0.000000D+00  0.432714D+00
     13  0.000000D+00 -0.246917D+00  0.247024D+00
     14 -0.377441D-01  0.000000D+00  0.000000D+00  0.263480D-01
     15  0.000000D+00 -0.421366D+00  0.241135D+00  0.000000D+00  0.596640D+00
 Force constants in internal coordinates: 
                1             2             3             4             5 
      1  0.436997D+00
      2  0.217999D-01  0.259592D+00
      3  0.512973D-02  0.152120D-01  0.188306D+00
      4 -0.117610D-01  0.223423D-01  0.148597D+00  0.715383D+00
      5  0.434838D-01  0.570793D-01 -0.239062D-01  0.208389D-01  0.250410D+00
      6  0.115667D-01  0.204846D-01  0.868264D-01  0.950009D-02 -0.823968D-02
      7  0.987660D-02 -0.733679D-01  0.113345D+00  0.114747D+00 -0.222090D-01
      8  0.000000D+00  0.000000D+00  0.000000D+00  0.000000D+00  0.000000D+00
      9  0.000000D+00  0.000000D+00  0.000000D+00  0.000000D+00  0.000000D+00
                6             7             8             9 
      6  0.503848D+00
      7  0.515214D-01  0.647578D+00
      8  0.000000D+00  0.000000D+00  0.195133D-01
      9  0.000000D+00  0.000000D+00  0.275958D-01  0.107203D+00
 Leave Link  716 at Sun Mar  6 19:07:49 2022, MaxMem= 16106127360 cpu:               1.5 elap:               0.1
 (Enter /sw/contrib/gaussian/g16/B01/g16/l103.exe)

 GradGradGradGradGradGradGradGradGradGradGradGradGradGradGradGradGradGrad
 Berny optimization.
 Search for a local minimum.
 Step number   1 out of a maximum of    2
 All quantities printed in internal units (Hartrees-Bohrs-Radians)
 Second derivative matrix not updated -- analytic derivatives used.
 The second derivative matrix:
                          r1        r2        r3        r4        a1
           r1           0.43700
           r2           0.02180   0.25959
           r3           0.00513   0.01521   0.18831
           r4          -0.01176   0.02234   0.14860   0.71538
           a1           0.04348   0.05708  -0.02391   0.02084   0.25041
           a2           0.01157   0.02048   0.08683   0.00950  -0.00824
           a3           0.00988  -0.07337   0.11334   0.11475  -0.02221
           d1           0.00000   0.00000   0.00000   0.00000   0.00000
           d2           0.00000   0.00000   0.00000   0.00000   0.00000
                          a2        a3        d1        d2
           a2           0.50385
           a3           0.05152   0.64758
           d1           0.00000   0.00000   0.01951
           d2           0.00000   0.00000   0.02760   0.10720
 ITU=  0
     Eigenvalues ---    0.01155   0.11207   0.11516   0.20071   0.27681
     Eigenvalues ---    0.44860   0.50552   0.59359   0.86481
 Angle between quadratic step and forces=  46.99 degrees.
 Linear search not attempted -- first point.
 Variable       Old X    -DE/DX   Delta X   Delta X   Delta X     New X
                                 (Linear)    (Quad)   (Total)
    r1        1.86209  -0.00008   0.00000   0.00016   0.00016   1.86225
    r2        2.69614  -0.00021   0.00000   0.00064   0.00064   2.69678
    r3        2.63086  -0.00438   0.00000  -0.02488  -0.02488   2.60598
    r4        2.25782  -0.00282   0.00000   0.00120   0.00120   2.25903
    a1        1.75642   0.00046   0.00000  -0.00078  -0.00078   1.75564
    a2        1.97463  -0.00162   0.00000   0.00100   0.00100   1.97562
    a3        1.99550  -0.00260   0.00000   0.00009   0.00009   1.99559
    d1        0.00000   0.00000   0.00000   0.00000   0.00000   0.00000
    d2        0.00000   0.00000   0.00000   0.00000   0.00000   0.00000
         Item               Value     Threshold  Converged?
 Maximum Force            0.004380     0.000450     NO 
 RMS     Force            0.002022     0.000300     NO 
 Maximum Displacement     0.024879     0.001800     NO 
 RMS     Displacement     0.008316     0.001200     NO 
 Predicted change in Energy=-5.160775D-05
                       ----------------------------
                       ! Non-Optimized Parameters !
                       ! (Angstroms and Degrees)  !
 ----------------------                            ----------------------
 !      Name          Value   Derivative information (Atomic Units)     !
 ------------------------------------------------------------------------
 !       r1          0.9855   -DE/DX =   -0.0001                        !
 !       r2          1.4271   -DE/DX =   -0.0002                        !
 !       r3          1.379    -DE/DX =   -0.0044                        !
 !       r4          1.1954   -DE/DX =   -0.0028                        !
 !       a1        100.5906   -DE/DX =    0.0005                        !
 !       a2        113.1949   -DE/DX =   -0.0016                        !
 !       a3        114.339    -DE/DX =   -0.0026                        !
 !       d1          0.0      -DE/DX =    0.0                           !
 !       d2          0.0      -DE/DX =    0.0                           !
 ------------------------------------------------------------------------
 GradGradGradGradGradGradGradGradGradGradGradGradGradGradGradGradGradGrad

 Leave Link  103 at Sun Mar  6 19:07:49 2022, MaxMem= 16106127360 cpu:               1.8 elap:               0.1
 (Enter /sw/contrib/gaussian/g16/B01/g16/l9999.exe)

 ----------------------------------------------------------------------

 Electric dipole moment (input orientation):
 (Debye = 10**-18 statcoulomb cm , SI units = C m)
                  (au)            (Debye)         (10**-30 SI)
   Tot        0.450810D+00      0.114584D+01      0.382213D+01
   x         -0.102085D+00     -0.259475D+00     -0.865517D+00
   y          0.000000D+00      0.000000D+00      0.000000D+00
   z         -0.439099D+00     -0.111608D+01     -0.372284D+01

 Dipole polarizability, Alpha (input orientation).
 (esu units = cm**3 , SI units = C**2 m**2 J**-1)
 Alpha(0;0):
               (au)            (10**-24 esu)      (10**-40 SI)
   iso        0.262173D+02      0.388501D+01      0.432265D+01
   aniso      0.148000D+02      0.219313D+01      0.244019D+01
   xx         0.292375D+02      0.433255D+01      0.482061D+01
   yx         0.000000D+00      0.000000D+00      0.000000D+00
   yy         0.176563D+02      0.261640D+01      0.291114D+01
   zx        -0.405673D+01     -0.601145D+00     -0.668864D+00
   zy         0.000000D+00      0.000000D+00      0.000000D+00
   zz         0.317581D+02      0.470607D+01      0.523621D+01

 ----------------------------------------------------------------------

 Dipole orientation:
     1          0.00000000         -0.00000000         -0.00000000
     8         -0.42166888         -0.00000000         -1.81372046
     8          2.04664038         -0.00000000         -2.89844557
     7          3.96638483         -0.00000000         -1.09955157
     8          3.23859047          0.00000000          1.03775513

 Electric dipole moment (dipole orientation):
 (Debye = 10**-18 statcoulomb cm , SI units = C m)
                  (au)            (Debye)         (10**-30 SI)
   Tot        0.450810D+00      0.114584D+01      0.382213D+01
   x          0.000000D+00      0.000000D+00      0.000000D+00
   y          0.000000D+00      0.000000D+00      0.000000D+00
   z          0.450810D+00      0.114584D+01      0.382213D+01

 Dipole polarizability, Alpha (dipole orientation).
 (esu units = cm**3 , SI units = C**2 m**2 J**-1)
 Alpha(0;0):
               (au)            (10**-24 esu)      (10**-40 SI)
   iso        0.262173D+02      0.388501D+01      0.432265D+01
   aniso      0.148000D+02      0.219313D+01      0.244019D+01
   xx         0.311563D+02      0.461689D+01      0.513698D+01
   yx         0.000000D+00      0.000000D+00      0.000000D+00
   yy         0.176563D+02      0.261640D+01      0.291114D+01
   zx         0.419664D+01      0.621878D+00      0.691933D+00
   zy         0.000000D+00      0.000000D+00      0.000000D+00
   zz         0.298393D+02      0.442173D+01      0.491984D+01

 ----------------------------------------------------------------------
 1\1\GINC-N2174\Freq\RMP2-FC\Aug-CC-pVTZ\H1N1O3\CGAVINH\06-Mar-2022\1\\
 #p freq mp2/aug-cc-pvtz density=current\\title\\0,1\H\O,1,r1\O,2,r2,1,
 a1\N,3,r3,2,a2,1,d1,0\O,4,r4,3,a3,2,d2,0\\r1=0.98537664\r2=1.42673666\
 r3=1.39219257\r4=1.19478846\a1=100.6355057\a2=113.13777052\a3=114.3339
 2022\d1=0.\d2=0.\\Version=ES64L-G16RevB.01\State=1-A'\HF=-279.5054354\
 MP2=-280.4551912\RMSD=4.684e-09\RMSF=1.436e-03\ZeroPoint=0.0232878\The
 rmal=0.0272582\Dipole=-0.1020855,0.,-0.4390994\DipoleDeriv=0.3142642,0
 .,0.0386925,0.,0.2979192,0.,-0.0230985,0.,0.1953146,-0.5250481,0.,0.28
 02236,0.,-0.2548029,0.,-0.1069228,0.,-0.1237834,-0.0139809,0.,0.341673
 9,0.,-0.0172062,0.,0.4579628,0.,-0.9326162,0.2111383,0.,-0.1388747,0.,
 0.0160547,0.,-0.6831941,0.,1.7347012,0.0136265,0.,-0.5217153,0.,-0.041
 9648,0.,0.3552526,0.,-0.8736161\Polar=29.2374942,0.,17.6563454,-4.0567
 281,0.,31.7581149\Quadrupole=0.15874,0.5955716,-0.7543115,0.,1.3836848
 ,0.\PG=CS [SG(H1N1O3)]\NImag=0\\0.07226264,0.,0.00589441,0.02348399,0.
 ,0.43699702,-0.05164438,0.,-0.00424345,0.28036260,0.,-0.00233774,0.,0.
 ,0.01215348,0.03280762,0.,-0.42133894,-0.01129286,0.,0.52204363,-0.025
 38497,0.,-0.01585486,-0.17280141,0.,-0.09079445,0.30185483,0.,-0.00419
 042,0.,0.,-0.01852376,0.,0.,0.04113975,-0.04403457,0.,-0.01956499,0.01
 038196,0.,-0.09568297,0.08708923,0.,0.30075477,-0.00563083,0.,0.006542
 05,-0.08192813,0.,0.03979083,-0.14045962,0.,-0.03965788,0.54824238,0.,
 0.00796335,0.,0.,0.01933614,0.,0.,-0.04777937,0.,0.,0.05822398,-0.0189
 6800,0.,0.01158132,0.00957291,0.,-0.01024872,0.00927525,0.,-0.01268017
 ,0.24703692,0.,0.43271354,0.01039754,0.,-0.00992773,0.02601134,0.,0.02
 948886,0.03679117,0.,-0.01377874,-0.32022380,0.,-0.24691708,0.24702376
 ,0.,-0.00732959,0.,0.,-0.01062811,0.,0.,0.02935380,0.,0.,-0.03774410,0
 .,0.,0.02634801,0.00671095,0.,-0.00767440,-0.00441856,0.,0.00522701,0.
 01028484,0.,-0.17282664,-0.25371192,0.,-0.42136598,0.24113469,0.,0.596
 64001\\0.00024551,0.,-0.00008106,-0.00059642,0.,0.00079905,-0.00177408
 ,0.,0.00312993,0.00263648,0.,-0.00084575,-0.00051149,0.,-0.00300217\\\
 @


 WHEN HAVING A MEETING OF THE MINDS,
 MAKE SURE YOU HAVE THE EQUIPMENT FOR IT.
 Job cpu time:       0 days  1 hours 57 minutes 29.8 seconds.
 Elapsed time:       0 days  0 hours  4 minutes 14.7 seconds.
 File lengths (MBytes):  RWF=   7239 Int=      0 D2E=      0 Chk=      8 Scr=      1
 Normal termination of Gaussian 16 at Sun Mar  6 19:07:50 2022.
