title                                                                   
Freq      RMP2-FC                                                     Aug-CC-pVTZ         
Number of atoms                            I                5
Info1-9                                    I   N=           9
          33          24           0           0           0         100
           6           2           1
Full Title                                 C   N=           1
title       
Route                                      C   N=           4
#p freq mp2/aug-cc-pvtz density=current         
Charge                                     I                0
Multiplicity                               I                1
Number of electrons                        I               32
Number of alpha electrons                  I               16
Number of beta electrons                   I               16
Number of basis functions                  I              207
Number of independent functions            I              207
Number of point charges in /Mol/           I                0
Number of translation vectors              I                0
Atomic numbers                             I   N=           5
           1           8           8           7           8
Nuclear charges                            R   N=           5
  1.00000000E+00  8.00000000E+00  8.00000000E+00  7.00000000E+00  8.00000000E+00
Current cartesian coordinates              R   N=          15
 -1.02204611E+00 -2.15106929E+00  6.96064321E-02 -2.41365796E+00 -9.15386350E-01
  7.23131965E-03 -1.02575073E+00  1.39584918E+00 -2.56783344E-02  1.55912425E+00
  1.04086907E+00  3.81006100E-02  2.20293074E+00 -1.12233961E+00 -2.35918230E-02
Number of symbols in /Mol/                 I                0
Force Field                                I                0
Atom Types                                 C   N=           5
                                                            
Int Atom Types                             I   N=           5
           0           0           0           0           0
MM charges                                 R   N=           5
  0.00000000E+00  0.00000000E+00  0.00000000E+00  0.00000000E+00  0.00000000E+00
Integer atomic weights                     I   N=           5
           1          16          16          14          16
Real atomic weights                        R   N=           5
  1.00782504E+00  1.59949146E+01  1.59949146E+01  1.40030740E+01  1.59949146E+01
Atom fragment info                         I   N=           5
           0           0           0           0           0
Atom residue num                           I   N=           5
           0           0           0           0           0
Nuclear spins                              I   N=           5
           1           0           0           2           0
Nuclear ZEff                               R   N=           5
 -1.00000000E+00 -5.60000000E+00 -5.60000000E+00 -4.55000000E+00 -5.60000000E+00
Nuclear ZNuc                               R   N=           5
  1.00000000E+00  8.00000000E+00  8.00000000E+00  7.00000000E+00  8.00000000E+00
Nuclear QMom                               R   N=           5
  0.00000000E+00  0.00000000E+00  0.00000000E+00  2.04400000E+00  0.00000000E+00
Nuclear GFac                               R   N=           5
  2.79284600E+00  0.00000000E+00  0.00000000E+00  4.03761000E-01  0.00000000E+00
MicOpt                                     I   N=           5
          -1          -1          -1          -1          -1
Number of residues                         I                0
Number of secondary structures             I                0
SymInf integers                            I   N=          26
           1           1           1           1           1           0
           0           0           0           0           0           0
           0           0           0           0           0           0
           0           0           0           0           0           0
           0           0
RotTr to input orientation                 R   N=          12
  6.64113046E-01  2.09754983E-02 -7.47337869E-01  7.47607046E-01 -2.68266093E-02
  6.63599305E-01 -6.12921494E-03 -9.99420013E-01 -3.34973316E-02  2.28733535E+00
  3.32980921E-02  6.65965958E-01
Number of contracted shells                I               65
Number of primitive shells                 I              119
Pure/Cartesian d shells                    I                0
Pure/Cartesian f shells                    I                0
Highest angular momentum                   I                3
Largest degree of contraction              I                7
Shell types                                I   N=          65
           0           0           0           0           1           1
           1          -2          -2           0           0           0
           0           0           1           1           1           1
          -2          -2          -2          -3          -3           0
           0           0           0           0           1           1
           1           1          -2          -2          -2          -3
          -3           0           0           0           0           0
           1           1           1           1          -2          -2
          -2          -3          -3           0           0           0
           0           0           1           1           1           1
          -2          -2          -2          -3          -3
Number of primitives per shell             I   N=          65
           3           1           1           1           1           1
           1           1           1           7           6           1
           1           1           3           1           1           1
           1           1           1           1           1           7
           6           1           1           1           3           1
           1           1           1           1           1           1
           1           7           6           1           1           1
           3           1           1           1           1           1
           1           1           1           7           6           1
           1           1           3           1           1           1
           1           1           1           1           1
Shell to atom map                          I   N=          65
           1           1           1           1           1           1
           1           1           1           2           2           2
           2           2           2           2           2           2
           2           2           2           2           2           3
           3           3           3           3           3           3
           3           3           3           3           3           3
           3           4           4           4           4           4
           4           4           4           4           4           4
           4           4           4           5           5           5
           5           5           5           5           5           5
           5           5           5           5           5
Primitive exponents                        R   N=         119
  3.38700000E+01  5.09500000E+00  1.15900000E+00  3.25800000E-01  1.02700000E-01
  2.52600000E-02  1.40700000E+00  3.88000000E-01  1.02000000E-01  1.05700000E+00
  2.47000000E-01  1.53300000E+04  2.29900000E+03  5.22400000E+02  1.47300000E+02
  4.75500000E+01  1.67600000E+01  6.20700000E+00  5.22400000E+02  1.47300000E+02
  4.75500000E+01  1.67600000E+01  6.20700000E+00  6.88200000E-01  1.75200000E+00
  2.38400000E-01  7.37600000E-02  3.44600000E+01  7.74900000E+00  2.28000000E+00
  7.15600000E-01  2.14000000E-01  5.97400000E-02  2.31400000E+00  6.45000000E-01
  2.14000000E-01  1.42800000E+00  5.00000000E-01  1.53300000E+04  2.29900000E+03
  5.22400000E+02  1.47300000E+02  4.75500000E+01  1.67600000E+01  6.20700000E+00
  5.22400000E+02  1.47300000E+02  4.75500000E+01  1.67600000E+01  6.20700000E+00
  6.88200000E-01  1.75200000E+00  2.38400000E-01  7.37600000E-02  3.44600000E+01
  7.74900000E+00  2.28000000E+00  7.15600000E-01  2.14000000E-01  5.97400000E-02
  2.31400000E+00  6.45000000E-01  2.14000000E-01  1.42800000E+00  5.00000000E-01
  1.14200000E+04  1.71200000E+03  3.89300000E+02  1.10000000E+02  3.55700000E+01
  1.25400000E+01  4.64400000E+00  3.89300000E+02  1.10000000E+02  3.55700000E+01
  1.25400000E+01  4.64400000E+00  5.11800000E-01  1.29300000E+00  1.78700000E-01
  5.76000000E-02  2.66300000E+01  5.94800000E+00  1.74200000E+00  5.55000000E-01
  1.72500000E-01  4.91000000E-02  1.65400000E+00  4.69000000E-01  1.51000000E-01
  1.09300000E+00  3.64000000E-01  1.53300000E+04  2.29900000E+03  5.22400000E+02
  1.47300000E+02  4.75500000E+01  1.67600000E+01  6.20700000E+00  5.22400000E+02
  1.47300000E+02  4.75500000E+01  1.67600000E+01  6.20700000E+00  6.88200000E-01
  1.75200000E+00  2.38400000E-01  7.37600000E-02  3.44600000E+01  7.74900000E+00
  2.28000000E+00  7.15600000E-01  2.14000000E-01  5.97400000E-02  2.31400000E+00
  6.45000000E-01  2.14000000E-01  1.42800000E+00  5.00000000E-01
Contraction coefficients                   R   N=         119
  2.54948632E-02  1.90362766E-01  8.52162022E-01  1.00000000E+00  1.00000000E+00
  1.00000000E+00  1.00000000E+00  1.00000000E+00  1.00000000E+00  1.00000000E+00
  1.00000000E+00  5.19808943E-04  4.02025621E-03  2.07128267E-02  8.10105536E-02
  2.35962985E-01  4.42653446E-01  3.57064423E-01 -4.42115008E-05 -1.22591041E-03
 -1.05517725E-02 -6.74452633E-02 -1.71198607E-01  1.07329856E+00  1.00000000E+00
  1.00000000E+00  1.00000000E+00  4.11634896E-02  2.57762836E-01  8.02419274E-01
  1.00000000E+00  1.00000000E+00  1.00000000E+00  1.00000000E+00  1.00000000E+00
  1.00000000E+00  1.00000000E+00  1.00000000E+00  5.19808943E-04  4.02025621E-03
  2.07128267E-02  8.10105536E-02  2.35962985E-01  4.42653446E-01  3.57064423E-01
 -4.42115008E-05 -1.22591041E-03 -1.05517725E-02 -6.74452633E-02 -1.71198607E-01
  1.07329856E+00  1.00000000E+00  1.00000000E+00  1.00000000E+00  4.11634896E-02
  2.57762836E-01  8.02419274E-01  1.00000000E+00  1.00000000E+00  1.00000000E+00
  1.00000000E+00  1.00000000E+00  1.00000000E+00  1.00000000E+00  1.00000000E+00
  5.34563860E-04  4.13435660E-03  2.12335358E-02  8.25006224E-02  2.38138871E-01
  4.42551547E-01  3.53757422E-01 -4.89867350E-05 -1.19527323E-03 -1.03490714E-02
 -6.48680190E-02 -1.71552477E-01  1.07289568E+00  1.00000000E+00  1.00000000E+00
  1.00000000E+00  3.98072123E-02  2.49002660E-01  8.10479727E-01  1.00000000E+00
  1.00000000E+00  1.00000000E+00  1.00000000E+00  1.00000000E+00  1.00000000E+00
  1.00000000E+00  1.00000000E+00  5.19808943E-04  4.02025621E-03  2.07128267E-02
  8.10105536E-02  2.35962985E-01  4.42653446E-01  3.57064423E-01 -4.42115008E-05
 -1.22591041E-03 -1.05517725E-02 -6.74452633E-02 -1.71198607E-01  1.07329856E+00
  1.00000000E+00  1.00000000E+00  1.00000000E+00  4.11634896E-02  2.57762836E-01
  8.02419274E-01  1.00000000E+00  1.00000000E+00  1.00000000E+00  1.00000000E+00
  1.00000000E+00  1.00000000E+00  1.00000000E+00  1.00000000E+00
Coordinates of each shell                  R   N=         195
 -1.02204611E+00 -2.15106929E+00  6.96064321E-02 -1.02204611E+00 -2.15106929E+00
  6.96064321E-02 -1.02204611E+00 -2.15106929E+00  6.96064321E-02 -1.02204611E+00
 -2.15106929E+00  6.96064321E-02 -1.02204611E+00 -2.15106929E+00  6.96064321E-02
 -1.02204611E+00 -2.15106929E+00  6.96064321E-02 -1.02204611E+00 -2.15106929E+00
  6.96064321E-02 -1.02204611E+00 -2.15106929E+00  6.96064321E-02 -1.02204611E+00
 -2.15106929E+00  6.96064321E-02 -2.41365796E+00 -9.15386350E-01  7.23131965E-03
 -2.41365796E+00 -9.15386350E-01  7.23131965E-03 -2.41365796E+00 -9.15386350E-01
  7.23131965E-03 -2.41365796E+00 -9.15386350E-01  7.23131965E-03 -2.41365796E+00
 -9.15386350E-01  7.23131965E-03 -2.41365796E+00 -9.15386350E-01  7.23131965E-03
 -2.41365796E+00 -9.15386350E-01  7.23131965E-03 -2.41365796E+00 -9.15386350E-01
  7.23131965E-03 -2.41365796E+00 -9.15386350E-01  7.23131965E-03 -2.41365796E+00
 -9.15386350E-01  7.23131965E-03 -2.41365796E+00 -9.15386350E-01  7.23131965E-03
 -2.41365796E+00 -9.15386350E-01  7.23131965E-03 -2.41365796E+00 -9.15386350E-01
  7.23131965E-03 -2.41365796E+00 -9.15386350E-01  7.23131965E-03 -1.02575073E+00
  1.39584918E+00 -2.56783344E-02 -1.02575073E+00  1.39584918E+00 -2.56783344E-02
 -1.02575073E+00  1.39584918E+00 -2.56783344E-02 -1.02575073E+00  1.39584918E+00
 -2.56783344E-02 -1.02575073E+00  1.39584918E+00 -2.56783344E-02 -1.02575073E+00
  1.39584918E+00 -2.56783344E-02 -1.02575073E+00  1.39584918E+00 -2.56783344E-02
 -1.02575073E+00  1.39584918E+00 -2.56783344E-02 -1.02575073E+00  1.39584918E+00
 -2.56783344E-02 -1.02575073E+00  1.39584918E+00 -2.56783344E-02 -1.02575073E+00
  1.39584918E+00 -2.56783344E-02 -1.02575073E+00  1.39584918E+00 -2.56783344E-02
 -1.02575073E+00  1.39584918E+00 -2.56783344E-02 -1.02575073E+00  1.39584918E+00
 -2.56783344E-02  1.55912425E+00  1.04086907E+00  3.81006100E-02  1.55912425E+00
  1.04086907E+00  3.81006100E-02  1.55912425E+00  1.04086907E+00  3.81006100E-02
  1.55912425E+00  1.04086907E+00  3.81006100E-02  1.55912425E+00  1.04086907E+00
  3.81006100E-02  1.55912425E+00  1.04086907E+00  3.81006100E-02  1.55912425E+00
  1.04086907E+00  3.81006100E-02  1.55912425E+00  1.04086907E+00  3.81006100E-02
  1.55912425E+00  1.04086907E+00  3.81006100E-02  1.55912425E+00  1.04086907E+00
  3.81006100E-02  1.55912425E+00  1.04086907E+00  3.81006100E-02  1.55912425E+00
  1.04086907E+00  3.81006100E-02  1.55912425E+00  1.04086907E+00  3.81006100E-02
  1.55912425E+00  1.04086907E+00  3.81006100E-02  2.20293074E+00 -1.12233961E+00
 -2.35918230E-02  2.20293074E+00 -1.12233961E+00 -2.35918230E-02  2.20293074E+00
 -1.12233961E+00 -2.35918230E-02  2.20293074E+00 -1.12233961E+00 -2.35918230E-02
  2.20293074E+00 -1.12233961E+00 -2.35918230E-02  2.20293074E+00 -1.12233961E+00
 -2.35918230E-02  2.20293074E+00 -1.12233961E+00 -2.35918230E-02  2.20293074E+00
 -1.12233961E+00 -2.35918230E-02  2.20293074E+00 -1.12233961E+00 -2.35918230E-02
  2.20293074E+00 -1.12233961E+00 -2.35918230E-02  2.20293074E+00 -1.12233961E+00
 -2.35918230E-02  2.20293074E+00 -1.12233961E+00 -2.35918230E-02  2.20293074E+00
 -1.12233961E+00 -2.35918230E-02  2.20293074E+00 -1.12233961E+00 -2.35918230E-02
Num ILSW                                   I              100
ILSW                                       I   N=         100
           0           0           0           0           2           0
           0           0           0           0           0          -1
           5           0           0           0           2           0
           0           0           0           0           1           0
           1           0           0           0           0           0
           0           0      100000           0          -1           0
           0           0           0           0           0           0
           0           0           0           1           1           0
           0 -2000000000           1           0           0           0
           0           0           4          52           0           0
           0           0           0           0           0           0
           0           0           0           5           4           1
           0           0           0           0           0           0
           0           0           0           0           0           0
           0           0           0           0           0           0
           0           0           0           0           0           0
           0           0           0           0
Num RLSW                                   I               52
RLSW                                       R   N=          52
  1.00000000E+00  1.00000000E+00  1.00000000E+00  1.00000000E+00  1.00000000E+00
  0.00000000E+00  0.00000000E+00  1.00000000E+00  0.00000000E+00  0.00000000E+00
  0.00000000E+00  0.00000000E+00  1.00000000E+00  0.00000000E+00  0.00000000E+00
  0.00000000E+00  0.00000000E+00  1.00000000E+00  0.00000000E+00  0.00000000E+00
  0.00000000E+00  0.00000000E+00  1.00000000E+00  0.00000000E+00  0.00000000E+00
  0.00000000E+00  0.00000000E+00  1.00000000E+00  0.00000000E+00  0.00000000E+00
  0.00000000E+00  0.00000000E+00  1.00000000E+00  0.00000000E+00  0.00000000E+00
  0.00000000E+00  0.00000000E+00  0.00000000E+00  1.00000000E+00  1.00000000E+00
  0.00000000E+00  1.00000000E+00  0.00000000E+00  0.00000000E+00  0.00000000E+00
  0.00000000E+00  0.00000000E+00  0.00000000E+00  0.00000000E+00  0.00000000E+00
  0.00000000E+00  0.00000000E+00
MxBond                                     I                2
NBond                                      I   N=           5
           1           2           2           2           1
IBond                                      I   N=          10
           2           0           1           3           2           4
           3           5           4           0
RBond                                      R   N=          10
  1.00000000E+00  0.00000000E+00  1.00000000E+00  1.00000000E+00  1.00000000E+00
  1.00000000E+00  1.00000000E+00  2.00000000E+00  2.00000000E+00  0.00000000E+00
Virial Ratio                               R      2.002226141551389E+00
SCF Energy                                 R     -2.795062723457600E+02
MP2 Energy                                 R     -2.804550128662696E+02
Total Energy                               R     -2.804550128662696E+02
Post-SCF wavefunction norm                 R      1.583710724126344E+00
RMS Force                                  R      1.936880835958179E-03
RMS Density                                R      6.732431784886802E-09
NImag                                      I                0
Job Status                                 I                1
Nuclear derivative order                   I                2
External E-field                           R   N=          35
  0.00000000E+00  0.00000000E+00  0.00000000E+00  0.00000000E+00  0.00000000E+00
  0.00000000E+00  0.00000000E+00  0.00000000E+00  0.00000000E+00  0.00000000E+00
  0.00000000E+00  0.00000000E+00  0.00000000E+00  0.00000000E+00  0.00000000E+00
  0.00000000E+00  0.00000000E+00  0.00000000E+00  0.00000000E+00  0.00000000E+00
  0.00000000E+00  0.00000000E+00  0.00000000E+00  0.00000000E+00  0.00000000E+00
  0.00000000E+00  0.00000000E+00  0.00000000E+00  0.00000000E+00  0.00000000E+00
  0.00000000E+00  0.00000000E+00  0.00000000E+00  0.00000000E+00  0.00000000E+00
IOpCl                                      I                0
IROHF                                      I                0
Alpha Orbital Energies                     R   N=         207
 -2.07196766E+01 -2.06872551E+01 -2.06683502E+01 -1.58259689E+01 -1.64422749E+00
 -1.50516912E+00 -1.29373219E+00 -9.60360000E-01 -8.34507296E-01 -7.58939317E-01
 -7.39877345E-01 -6.37530097E-01 -6.19260791E-01 -6.17877866E-01 -5.04846371E-01
 -4.97221347E-01  3.50451764E-02  6.00995345E-02  9.51183868E-02  1.00375688E-01
  1.19001905E-01  1.23136397E-01  1.49477898E-01  1.52043764E-01  1.77309750E-01
  1.80583031E-01  1.89603611E-01  2.11190962E-01  2.16806694E-01  2.42525936E-01
  2.46315452E-01  2.68851310E-01  3.11321054E-01  3.17994102E-01  3.38058821E-01
  3.43867044E-01  3.46845598E-01  3.92623382E-01  4.48211083E-01  4.87489222E-01
  5.05828906E-01  5.18777721E-01  5.44758999E-01  5.61353357E-01  5.98960023E-01
  6.20380397E-01  6.38150898E-01  6.89883467E-01  7.16787930E-01  7.24823372E-01
  7.43094598E-01  7.63762496E-01  7.67314278E-01  7.94627834E-01  8.06057810E-01
  8.41062370E-01  8.43270815E-01  8.52229472E-01  8.85758346E-01  9.07739224E-01
  9.29711675E-01  9.48927552E-01  9.54240515E-01  1.01765654E+00  1.03316997E+00
  1.06044969E+00  1.06531809E+00  1.09638071E+00  1.14336392E+00  1.15635145E+00
  1.17051390E+00  1.22155667E+00  1.22680569E+00  1.24628047E+00  1.35132105E+00
  1.36285980E+00  1.37092552E+00  1.46850207E+00  1.48624215E+00  1.50467707E+00
  1.54108340E+00  1.59125468E+00  1.59826206E+00  1.61084080E+00  1.62853729E+00
  1.69531581E+00  1.74028489E+00  1.80139437E+00  1.83003530E+00  1.88662705E+00
  1.89762531E+00  1.92976663E+00  1.97900729E+00  1.98923679E+00  2.05244222E+00
  2.12357148E+00  2.13085792E+00  2.16511193E+00  2.18826793E+00  2.23939754E+00
  2.26423027E+00  2.29471667E+00  2.35200517E+00  2.36570233E+00  2.38654062E+00
  2.40216244E+00  2.43367188E+00  2.46758102E+00  2.48049775E+00  2.52826073E+00
  2.53946091E+00  2.54816742E+00  2.56013510E+00  2.61623931E+00  2.63039931E+00
  2.66954077E+00  2.67488996E+00  2.75319541E+00  2.80820829E+00  2.81959003E+00
  2.84270053E+00  2.91853875E+00  2.98499909E+00  3.04625333E+00  3.05102293E+00
  3.11542564E+00  3.11828784E+00  3.17280147E+00  3.21295020E+00  3.30700463E+00
  3.33242786E+00  3.36111803E+00  3.47770942E+00  3.67770307E+00  3.86994790E+00
  3.93008439E+00  4.18198151E+00  4.21879065E+00  4.22963156E+00  4.26948674E+00
  4.36982157E+00  4.50033813E+00  4.52740940E+00  4.55634687E+00  4.59937286E+00
  4.69345025E+00  4.80935091E+00  4.89519495E+00  4.91898777E+00  4.94147492E+00
  4.99741308E+00  5.00646736E+00  5.10898509E+00  5.13294714E+00  5.17937576E+00
  5.24940214E+00  5.25939854E+00  5.31752051E+00  5.34688952E+00  5.35607364E+00
  5.54679273E+00  5.64500666E+00  5.70658991E+00  5.88984603E+00  5.99726319E+00
  6.26431393E+00  6.29588338E+00  6.36091860E+00  6.37655902E+00  6.59830527E+00
  6.65922260E+00  6.65982901E+00  6.69017709E+00  6.72568070E+00  6.79461099E+00
  6.80801068E+00  6.85055253E+00  6.96780839E+00  7.02084467E+00  7.06645768E+00
  7.08077874E+00  7.13871675E+00  7.17158124E+00  7.17823195E+00  7.20335507E+00
  7.24391038E+00  7.24960799E+00  7.27186989E+00  7.35007056E+00  7.39439972E+00
  7.42791351E+00  7.44335166E+00  7.46253425E+00  7.55975319E+00  7.66344038E+00
  7.66726782E+00  7.79426383E+00  7.88241206E+00  7.95281560E+00  8.06292163E+00
  8.30638743E+00  8.49932245E+00  8.65218387E+00  1.36188063E+01  1.47638292E+01
  1.51028849E+01  1.57607870E+01
Alpha MO coefficients                      R   N=       42849
  6.46098152E-05 -2.86108832E-05 -1.10680069E-03  1.29383648E-05  1.66681243E-05
  6.44831239E-05  8.01262948E-08  2.41558852E-04 -1.82631020E-04 -9.46028091E-06
  2.05281080E-04 -2.80632992E-04 -8.87826296E-06  4.27136772E-05 -8.67177564E-07
 -1.53088313E-06  4.32115146E-06 -2.79701772E-05  2.28181542E-04 -8.46358691E-06
 -4.43693477E-06 -2.09806730E-04  2.44044777E-05  3.08094296E-03 -9.57778843E-05
 -9.90345537E-05  3.54152534E-03  2.47632366E-03 -5.12272219E-05 -1.03670777E-04
  1.36477360E-06  4.18830470E-04  6.61769740E-04 -7.53959260E-06  9.41574084E-04
  2.06531853E-03 -1.74224697E-05  4.09583969E-04  3.50939455E-04  2.87622966E-06
  2.04395093E-05 -6.28871674E-08  2.31674544E-06  3.93574934E-05 -2.17513947E-05
 -4.42864059E-04 -6.30942349E-06 -2.62546077E-05 -5.02549417E-04  6.07265557E-04
 -3.64255769E-04 -1.20986463E-05 -2.43278495E-05 -5.41674584E-04  7.40954028E-04
  3.50193513E-06 -2.86280429E-05 -8.59966744E-05  2.37275895E-06 -1.98297403E-06
 -1.11287828E-04 -8.71660778E-06  4.31540630E-06 -1.37556428E-04 -1.63762202E-04
  3.66562224E-06 -1.38775885E-05 -3.38755451E-04  6.41408961E-05  9.76903539E-01
 -9.17361607E-03  4.34076260E-02  4.92244196E-04 -2.20759539E-03  9.08410226E-04
 -1.99688970E-03  5.20965765E-05 -1.07510976E-03  2.00551724E-03 -5.73086238E-05
  2.14942308E-03  9.81220188E-04  3.52772485E-05  1.23575985E-04  2.10903131E-04
 -6.52727862E-06  7.12844229E-06 -1.97983206E-06  2.44397721E-06  3.46556757E-05
 -1.60659051E-05  8.26852952E-04 -1.77424397E-05  2.25634955E-05 -3.05535627E-04
 -4.02398994E-04 -1.38525618E-04  3.11239260E-05 -1.49846873E-05  1.73397925E-04
 -6.29997460E-04  6.08072862E-06  5.18967356E-05 -6.00992069E-05 -1.06964516E-06
 -2.88225379E-07 -4.84611597E-05 -6.92719815E-06 -1.83838130E-06 -7.44643879E-05
 -5.39586686E-05 -7.58561821E-06 -4.33572019E-06 -4.68346090E-04  1.94971803E-04
  1.04324827E-04  4.57444708E-04 -3.23521694E-04 -8.23044918E-04  3.53927149E-04
  9.48068547E-05 -5.44202080E-05  2.84498770E-06 -1.21999103E-03  4.81796467E-04
 -2.59168499E-05  1.00340280E-03 -7.87666149E-05 -8.55919873E-06 -2.82034679E-04
  5.45758700E-05 -8.81487420E-06 -5.24625914E-05  3.75060511E-06 -1.45888565E-06
  9.46362785E-05 -9.57162885E-06 -4.14700610E-04  5.39231832E-05 -1.03639075E-05
  1.04216535E-03 -2.84090936E-04  2.67560980E-05  4.04086521E-06  3.64095567E-06
 -6.72189102E-05 -3.09804958E-04  7.07060479E-06  1.30130502E-04 -4.48653582E-05
 -1.09147337E-05  1.87277507E-06 -1.31594292E-04  5.70285986E-05  1.33688335E-05
  7.13758135E-05  1.10955359E-04 -2.80639092E-05 -8.19654762E-06 -4.86575062E-04
 -1.82705085E-04 -7.08351343E-04  4.63278452E-05 -7.02830919E-05  2.07034449E-04
 -1.78873362E-04  4.76672638E-05 -1.62942792E-05  2.14786039E-06 -2.85121186E-04
  1.04441428E-04 -1.22919665E-05 -6.17121089E-04 -5.38146628E-05  2.05833183E-05
  2.11608132E-04  7.79786055E-05  8.35065636E-06 -1.28934840E-05  2.24223094E-06
  6.24590536E-07  1.55400802E-05 -1.42465466E-06 -2.46649926E-06 -1.19181644E-05
 -5.23753039E-06 -3.92643471E-05 -1.59057422E-04 -2.20158413E-05 -3.47315404E-05
 -4.95827943E-07 -9.00287439E-05 -1.48991723E-04  2.18305673E-06  1.01732392E-05
 -3.70710967E-06 -2.11190312E-06  6.58545297E-07 -1.58640618E-05  1.72923232E-05
 -1.05284062E-05 -6.87566636E-05  2.47489406E-05  1.06914285E-05 -1.03111895E-05
  1.48411369E-04 -1.15015357E-04  4.03425100E-05  6.01252905E-05 -1.26037641E-04
 -2.98193693E-05 -2.09712996E-05 -2.23839516E-06  5.43821057E-07 -2.28822018E-04
 -9.30633585E-05  2.54420187E-06 -1.13903315E-04 -5.68443684E-05  7.91787962E-06
  1.35679146E-05  1.44449653E-06  1.60079993E-06  1.14220726E-05 -1.68298640E-05
  2.30516851E-05 -7.09948080E-06  7.65496994E-07  2.93355676E-05 -1.10800873E-04
 -2.59126454E-04  2.54902511E-05 -1.52578791E-05 -5.46459716E-04  1.64951774E-04
 -1.40376110E-05  6.73513652E-06  4.76307763E-07  2.52229259E-05 -3.41509340E-05
 -2.21722462E-06 -2.25484986E-04 -5.36770937E-06 -3.94472947E-06  9.16027516E-06
  6.64881094E-05 -7.67300088E-06 -1.34811957E-06 -1.06413841E-07 -6.68045289E-07
 -1.35832392E-05 -4.43556151E-06  2.06515530E-05 -4.78928730E-07  4.93991451E-06
  1.18003917E-04  1.44795297E-05  6.07945050E-05  1.06846074E-06  1.24289461E-05
 -8.39342587E-05 -3.93832319E-06  6.04585113E-07 -1.23508704E-05  3.70535673E-06
 -9.99851485E-07  4.90071608E-08  2.30500149E-05  8.93222823E-06 -1.17488047E-06
  3.23127600E-05 -2.03529505E-05  2.58236562E-06  3.40787946E-06  1.74804928E-05
  8.92235256E-06  7.36458685E-04  2.28252981E-05 -1.87522692E-05  2.95527237E-04
 -3.91157199E-04 -2.93525616E-05  1.21150992E-05 -4.78783564E-07  1.43539551E-04
 -8.42692041E-05  1.24516647E-06 -3.64543804E-06 -2.52595596E-04  1.68835988E-05
  4.28312707E-05  2.07395162E-04  7.59628866E-06 -4.07332809E-06 -8.06332209E-07
  6.00287494E-07 -1.81853438E-05 -2.52377794E-05 -5.11794492E-05  6.62829816E-06
 -2.99759281E-06  1.39968477E-04  3.99688459E-05 -6.44503364E-05  1.95399518E-05
 -4.45456471E-06  3.84797997E-05  3.31442360E-05  6.54924729E-07 -4.38570341E-06
  8.98844331E-07  7.60059192E-07  8.19395708E-07 -4.24708906E-07  8.14493795E-06
 -7.13744317E-06  1.21183421E-05 -2.24848835E-05  5.20858221E-06 -6.61687467E-06
  1.77265498E-04 -4.00655331E-05  2.37026359E-04  1.35725792E-03 -1.47188480E-04
 -6.85410139E-04  9.01740707E-04 -8.79229114E-06 -9.46290406E-05 -2.66967377E-06
  7.74441138E-04 -2.01610934E-03 -5.40659345E-05 -3.85335253E-04  3.29687948E-04
 -2.83877651E-05  3.26460574E-05 -3.56971083E-04 -9.83620767E-06 -1.27530443E-04
 -5.35742818E-06  1.16042270E-05 -2.11820583E-04 -1.47625828E-04 -4.59064244E-04
 -1.14537437E-05  5.80140650E-05 -1.05641867E-03 -3.01714310E-04 -4.17786443E-05
  1.43025686E-05  3.10113814E-06  1.28705017E-04  2.33937824E-05  1.34786646E-07
 -2.85518163E-05  2.45894430E-05  3.66160147E-06 -5.53397192E-07 -4.24054269E-06
  2.44325355E-05  2.10110276E-05  1.50882945E-05  2.06537997E-04  1.99578917E-05
  7.51498177E-06 -7.11443511E-05  3.08089057E-04  9.76646079E-01 -9.88653290E-03
  4.35753375E-02  3.68453351E-03 -8.92834289E-04 -9.02428935E-04  1.98151633E-03
  6.15530807E-05  1.07261423E-03 -2.32115328E-03 -6.85314766E-05 -4.28159176E-04
  6.95137667E-04  4.88890576E-05 -4.62187280E-05 -1.13614945E-04 -4.16199702E-06
 -1.93653356E-04  5.37999570E-06  1.15898737E-05 -6.35930180E-05 -5.81804558E-05
  4.08292423E-04  2.41295640E-05 -3.85174631E-05  7.16748239E-04  6.75800293E-04
 -2.05830265E-04 -1.70224833E-05  1.94084046E-05 -7.50728536E-05 -1.21878008E-04
  5.18086668E-06 -3.78624944E-05  5.91898163E-05  3.00758292E-06  1.36383815E-06
 -1.94334096E-05  2.40068366E-05  4.12352547E-06  1.77769840E-05  1.26428061E-04
  1.25844168E-05  1.02610646E-05 -2.47994507E-04  8.95655724E-05  3.75392538E-04
  1.99224461E-03  1.36519597E-03 -1.78154083E-05 -2.00136499E-04  1.86350135E-04
 -8.18791571E-06 -9.14655446E-04  6.00726351E-04 -4.30083864E-05 -4.33469380E-05
  2.62928605E-04 -2.34186340E-05 -2.35485874E-05 -1.78334458E-06 -2.37591199E-06
 -1.76751143E-05  3.97093706E-05 -2.15352659E-04  1.91591243E-05 -1.15948140E-05
  2.82437771E-04 -4.52084647E-04  9.76834496E-01 -9.18694260E-03  4.34652221E-02
  1.38186712E-04 -1.90546647E-03  2.14198640E-03  5.36573411E-04  3.03076613E-05
 -2.13477566E-03 -6.10763031E-04 -2.72009429E-05 -5.44233509E-05  7.58204716E-04
 -2.76364730E-05 -3.88925858E-06 -3.71026472E-04  1.54508220E-05  3.08110734E-05
  1.85801964E-06  3.03361864E-06  3.79755406E-05 -9.00068281E-05  7.64667930E-04
 -1.15443797E-05  3.80458444E-05  2.73773243E-04 -3.04851288E-04 -2.37791418E-04
 -1.89644096E-06 -5.61958951E-06  1.04113336E-04  3.19506064E-04 -5.50818215E-07
  6.39894352E-05  4.89322452E-05 -2.21701644E-06  2.49445002E-06  4.63379216E-05