title                                                                   
Freq      RMP2-FC                                                     Aug-CC-pVTZ         
Number of atoms                            I                5
Info1-9                                    I   N=           9
          33          24           0           0           0         100
           6           2           1
Full Title                                 C   N=           1
title       
Route                                      C   N=           4
#p freq mp2/aug-cc-pvtz density=current         
Charge                                     I                0
Multiplicity                               I                1
Number of electrons                        I               32
Number of alpha electrons                  I               16
Number of beta electrons                   I               16
Number of basis functions                  I              207
Number of independent functions            I              207
Number of point charges in /Mol/           I                0
Number of translation vectors              I                0
Atomic numbers                             I   N=           5
           1           8           8           7           8
Nuclear charges                            R   N=           5
  1.00000000E+00  8.00000000E+00  8.00000000E+00  7.00000000E+00  8.00000000E+00
Current cartesian coordinates              R   N=          15
  2.09293518E+00 -1.12705031E+00  0.00000000E+00  2.48541515E+00  6.93209559E-01
  0.00000000E+00 -1.05571013E-16  1.73814530E+00  0.00000000E+00 -1.87554706E+00
 -7.67873447E-02  0.00000000E+00 -1.10592837E+00 -2.22328465E+00  0.00000000E+00
Number of symbols in /Mol/                 I                0
Force Field                                I                0
Atom Types                                 C   N=           5
                                                            
Int Atom Types                             I   N=           5
           0           0           0           0           0
MM charges                                 R   N=           5
  0.00000000E+00  0.00000000E+00  0.00000000E+00  0.00000000E+00  0.00000000E+00
Integer atomic weights                     I   N=           5
           1          16          16          14          16
Real atomic weights                        R   N=           5
  1.00782504E+00  1.59949146E+01  1.59949146E+01  1.40030740E+01  1.59949146E+01
Atom fragment info                         I   N=           5
           0           0           0           0           0
Atom residue num                           I   N=           5
           0           0           0           0           0
Nuclear spins                              I   N=           5
           1           0           0           2           0
Nuclear ZEff                               R   N=           5
 -1.00000000E+00 -5.60000000E+00 -5.60000000E+00 -4.55000000E+00 -5.60000000E+00
Nuclear ZNuc                               R   N=           5
  1.00000000E+00  8.00000000E+00  8.00000000E+00  7.00000000E+00  8.00000000E+00
Nuclear QMom                               R   N=           5
  0.00000000E+00  0.00000000E+00  0.00000000E+00  2.04400000E+00  0.00000000E+00
Nuclear GFac                               R   N=           5
  2.79284600E+00  0.00000000E+00  0.00000000E+00  4.03761000E-01  0.00000000E+00
MicOpt                                     I   N=           5
          -1          -1          -1          -1          -1
Number of residues                         I                0
Number of secondary structures             I                0
SymInf integers                            I   N=          26
           1           2           1           1           1           1
           1          -1           0           0           0           0
           0           0           0           0           0           0
           0           0           0           0           0           0
           0           0
RotTr to input orientation                 R   N=          12
 -9.77534887E-01  0.00000000E+00  2.10773680E-01  2.10773680E-01  0.00000000E+00
  9.77534887E-01  0.00000000E+00  1.00000000E+00  0.00000000E+00  2.28346969E+00
  0.00000000E+00  6.60595353E-01
Number of contracted shells                I               65
Number of primitive shells                 I              119
Pure/Cartesian d shells                    I                0
Pure/Cartesian f shells                    I                0
Highest angular momentum                   I                3
Largest degree of contraction              I                7
Shell types                                I   N=          65
           0           0           0           0           1           1
           1          -2          -2           0           0           0
           0           0           1           1           1           1
          -2          -2          -2          -3          -3           0
           0           0           0           0           1           1
           1           1          -2          -2          -2          -3
          -3           0           0           0           0           0
           1           1           1           1          -2          -2
          -2          -3          -3           0           0           0
           0           0           1           1           1           1
          -2          -2          -2          -3          -3
Number of primitives per shell             I   N=          65
           3           1           1           1           1           1
           1           1           1           7           6           1
           1           1           3           1           1           1
           1           1           1           1           1           7
           6           1           1           1           3           1
           1           1           1           1           1           1
           1           7           6           1           1           1
           3           1           1           1           1           1
           1           1           1           7           6           1
           1           1           3           1           1           1
           1           1           1           1           1
Shell to atom map                          I   N=          65
           1           1           1           1           1           1
           1           1           1           2           2           2
           2           2           2           2           2           2
           2           2           2           2           2           3
           3           3           3           3           3           3
           3           3           3           3           3           3
           3           4           4           4           4           4
           4           4           4           4           4           4
           4           4           4           5           5           5
           5           5           5           5           5           5
           5           5           5           5           5
Primitive exponents                        R   N=         119
  3.38700000E+01  5.09500000E+00  1.15900000E+00  3.25800000E-01  1.02700000E-01
  2.52600000E-02  1.40700000E+00  3.88000000E-01  1.02000000E-01  1.05700000E+00
  2.47000000E-01  1.53300000E+04  2.29900000E+03  5.22400000E+02  1.47300000E+02
  4.75500000E+01  1.67600000E+01  6.20700000E+00  5.22400000E+02  1.47300000E+02
  4.75500000E+01  1.67600000E+01  6.20700000E+00  6.88200000E-01  1.75200000E+00
  2.38400000E-01  7.37600000E-02  3.44600000E+01  7.74900000E+00  2.28000000E+00
  7.15600000E-01  2.14000000E-01  5.97400000E-02  2.31400000E+00  6.45000000E-01
  2.14000000E-01  1.42800000E+00  5.00000000E-01  1.53300000E+04  2.29900000E+03
  5.22400000E+02  1.47300000E+02  4.75500000E+01  1.67600000E+01  6.20700000E+00
  5.22400000E+02  1.47300000E+02  4.75500000E+01  1.67600000E+01  6.20700000E+00
  6.88200000E-01  1.75200000E+00  2.38400000E-01  7.37600000E-02  3.44600000E+01
  7.74900000E+00  2.28000000E+00  7.15600000E-01  2.14000000E-01  5.97400000E-02
  2.31400000E+00  6.45000000E-01  2.14000000E-01  1.42800000E+00  5.00000000E-01
  1.14200000E+04  1.71200000E+03  3.89300000E+02  1.10000000E+02  3.55700000E+01
  1.25400000E+01  4.64400000E+00  3.89300000E+02  1.10000000E+02  3.55700000E+01
  1.25400000E+01  4.64400000E+00  5.11800000E-01  1.29300000E+00  1.78700000E-01
  5.76000000E-02  2.66300000E+01  5.94800000E+00  1.74200000E+00  5.55000000E-01
  1.72500000E-01  4.91000000E-02  1.65400000E+00  4.69000000E-01  1.51000000E-01
  1.09300000E+00  3.64000000E-01  1.53300000E+04  2.29900000E+03  5.22400000E+02
  1.47300000E+02  4.75500000E+01  1.67600000E+01  6.20700000E+00  5.22400000E+02
  1.47300000E+02  4.75500000E+01  1.67600000E+01  6.20700000E+00  6.88200000E-01
  1.75200000E+00  2.38400000E-01  7.37600000E-02  3.44600000E+01  7.74900000E+00
  2.28000000E+00  7.15600000E-01  2.14000000E-01  5.97400000E-02  2.31400000E+00
  6.45000000E-01  2.14000000E-01  1.42800000E+00  5.00000000E-01
Contraction coefficients                   R   N=         119
  2.54948632E-02  1.90362766E-01  8.52162022E-01  1.00000000E+00  1.00000000E+00
  1.00000000E+00  1.00000000E+00  1.00000000E+00  1.00000000E+00  1.00000000E+00
  1.00000000E+00  5.19808943E-04  4.02025621E-03  2.07128267E-02  8.10105536E-02
  2.35962985E-01  4.42653446E-01  3.57064423E-01 -4.42115008E-05 -1.22591041E-03
 -1.05517725E-02 -6.74452633E-02 -1.71198607E-01  1.07329856E+00  1.00000000E+00
  1.00000000E+00  1.00000000E+00  4.11634896E-02  2.57762836E-01  8.02419274E-01
  1.00000000E+00  1.00000000E+00  1.00000000E+00  1.00000000E+00  1.00000000E+00
  1.00000000E+00  1.00000000E+00  1.00000000E+00  5.19808943E-04  4.02025621E-03
  2.07128267E-02  8.10105536E-02  2.35962985E-01  4.42653446E-01  3.57064423E-01
 -4.42115008E-05 -1.22591041E-03 -1.05517725E-02 -6.74452633E-02 -1.71198607E-01
  1.07329856E+00  1.00000000E+00  1.00000000E+00  1.00000000E+00  4.11634896E-02
  2.57762836E-01  8.02419274E-01  1.00000000E+00  1.00000000E+00  1.00000000E+00
  1.00000000E+00  1.00000000E+00  1.00000000E+00  1.00000000E+00  1.00000000E+00
  5.34563860E-04  4.13435660E-03  2.12335358E-02  8.25006224E-02  2.38138871E-01
  4.42551547E-01  3.53757422E-01 -4.89867350E-05 -1.19527323E-03 -1.03490714E-02
 -6.48680190E-02 -1.71552477E-01  1.07289568E+00  1.00000000E+00  1.00000000E+00
  1.00000000E+00  3.98072123E-02  2.49002660E-01  8.10479727E-01  1.00000000E+00
  1.00000000E+00  1.00000000E+00  1.00000000E+00  1.00000000E+00  1.00000000E+00
  1.00000000E+00  1.00000000E+00  5.19808943E-04  4.02025621E-03  2.07128267E-02
  8.10105536E-02  2.35962985E-01  4.42653446E-01  3.57064423E-01 -4.42115008E-05
 -1.22591041E-03 -1.05517725E-02 -6.74452633E-02 -1.71198607E-01  1.07329856E+00
  1.00000000E+00  1.00000000E+00  1.00000000E+00  4.11634896E-02  2.57762836E-01
  8.02419274E-01  1.00000000E+00  1.00000000E+00  1.00000000E+00  1.00000000E+00
  1.00000000E+00  1.00000000E+00  1.00000000E+00  1.00000000E+00
Coordinates of each shell                  R   N=         195
  2.09293518E+00 -1.12705031E+00  0.00000000E+00  2.09293518E+00 -1.12705031E+00
  0.00000000E+00  2.09293518E+00 -1.12705031E+00  0.00000000E+00  2.09293518E+00
 -1.12705031E+00  0.00000000E+00  2.09293518E+00 -1.12705031E+00  0.00000000E+00
  2.09293518E+00 -1.12705031E+00  0.00000000E+00  2.09293518E+00 -1.12705031E+00
  0.00000000E+00  2.09293518E+00 -1.12705031E+00  0.00000000E+00  2.09293518E+00
 -1.12705031E+00  0.00000000E+00  2.48541515E+00  6.93209559E-01  0.00000000E+00
  2.48541515E+00  6.93209559E-01  0.00000000E+00  2.48541515E+00  6.93209559E-01
  0.00000000E+00  2.48541515E+00  6.93209559E-01  0.00000000E+00  2.48541515E+00
  6.93209559E-01  0.00000000E+00  2.48541515E+00  6.93209559E-01  0.00000000E+00
  2.48541515E+00  6.93209559E-01  0.00000000E+00  2.48541515E+00  6.93209559E-01
  0.00000000E+00  2.48541515E+00  6.93209559E-01  0.00000000E+00  2.48541515E+00
  6.93209559E-01  0.00000000E+00  2.48541515E+00  6.93209559E-01  0.00000000E+00
  2.48541515E+00  6.93209559E-01  0.00000000E+00  2.48541515E+00  6.93209559E-01
  0.00000000E+00  2.48541515E+00  6.93209559E-01  0.00000000E+00  1.80763506E-17
  1.73814530E+00  0.00000000E+00  1.80763506E-17  1.73814530E+00  0.00000000E+00
  1.80763506E-17  1.73814530E+00  0.00000000E+00  1.80763506E-17  1.73814530E+00
  0.00000000E+00  1.80763506E-17  1.73814530E+00  0.00000000E+00  1.80763506E-17
  1.73814530E+00  0.00000000E+00  1.80763506E-17  1.73814530E+00  0.00000000E+00
  1.80763506E-17  1.73814530E+00  0.00000000E+00  1.80763506E-17  1.73814530E+00
  0.00000000E+00  1.80763506E-17  1.73814530E+00  0.00000000E+00  1.80763506E-17
  1.73814530E+00  0.00000000E+00  1.80763506E-17  1.73814530E+00  0.00000000E+00
  1.80763506E-17  1.73814530E+00  0.00000000E+00  1.80763506E-17  1.73814530E+00
  0.00000000E+00 -1.87554706E+00 -7.67873447E-02  0.00000000E+00 -1.87554706E+00
 -7.67873447E-02  0.00000000E+00 -1.87554706E+00 -7.67873447E-02  0.00000000E+00
 -1.87554706E+00 -7.67873447E-02  0.00000000E+00 -1.87554706E+00 -7.67873447E-02
  0.00000000E+00 -1.87554706E+00 -7.67873447E-02  0.00000000E+00 -1.87554706E+00
 -7.67873447E-02  0.00000000E+00 -1.87554706E+00 -7.67873447E-02  0.00000000E+00
 -1.87554706E+00 -7.67873447E-02  0.00000000E+00 -1.87554706E+00 -7.67873447E-02
  0.00000000E+00 -1.87554706E+00 -7.67873447E-02  0.00000000E+00 -1.87554706E+00
 -7.67873447E-02  0.00000000E+00 -1.87554706E+00 -7.67873447E-02  0.00000000E+00
 -1.87554706E+00 -7.67873447E-02  0.00000000E+00 -1.10592837E+00 -2.22328465E+00
  0.00000000E+00 -1.10592837E+00 -2.22328465E+00  0.00000000E+00 -1.10592837E+00
 -2.22328465E+00  0.00000000E+00 -1.10592837E+00 -2.22328465E+00  0.00000000E+00
 -1.10592837E+00 -2.22328465E+00  0.00000000E+00 -1.10592837E+00 -2.22328465E+00
  0.00000000E+00 -1.10592837E+00 -2.22328465E+00  0.00000000E+00 -1.10592837E+00
 -2.22328465E+00  0.00000000E+00 -1.10592837E+00 -2.22328465E+00  0.00000000E+00
 -1.10592837E+00 -2.22328465E+00  0.00000000E+00 -1.10592837E+00 -2.22328465E+00
  0.00000000E+00 -1.10592837E+00 -2.22328465E+00  0.00000000E+00 -1.10592837E+00
 -2.22328465E+00  0.00000000E+00 -1.10592837E+00 -2.22328465E+00  0.00000000E+00
Num ILSW                                   I              100
ILSW                                       I   N=         100
           0           0           0           0           2           0
           0           0           0           0           0          -1
           5           0           0           0           2           0
           0           0           0           0           1           0
           1           0           0           0           0           0
           0           0      100000           0          -1           0
           0           0           0           0           0           0
           0           0           0           1           1           0
           0 -2000000000           1           0           0           0
           0           0           4          52           0           0
           0           0           0           0           0           0
           0           0           0           5           4           1
           0           0           0           0           0           0
           0           0           0           0           0           0
           0           0           0           0           0           0
           0           0           0           0           0           0
           0           0           0           0
Num RLSW                                   I               52
RLSW                                       R   N=          52
  1.00000000E+00  1.00000000E+00  1.00000000E+00  1.00000000E+00  1.00000000E+00
  0.00000000E+00  0.00000000E+00  1.00000000E+00  0.00000000E+00  0.00000000E+00
  0.00000000E+00  0.00000000E+00  1.00000000E+00  0.00000000E+00  0.00000000E+00
  0.00000000E+00  0.00000000E+00  1.00000000E+00  0.00000000E+00  0.00000000E+00
  0.00000000E+00  0.00000000E+00  1.00000000E+00  0.00000000E+00  0.00000000E+00
  0.00000000E+00  0.00000000E+00  1.00000000E+00  0.00000000E+00  0.00000000E+00
  0.00000000E+00  0.00000000E+00  1.00000000E+00  0.00000000E+00  0.00000000E+00
  0.00000000E+00  0.00000000E+00  0.00000000E+00  1.00000000E+00  1.00000000E+00
  0.00000000E+00  1.00000000E+00  0.00000000E+00  0.00000000E+00  0.00000000E+00
  0.00000000E+00  0.00000000E+00  0.00000000E+00  0.00000000E+00  0.00000000E+00
  0.00000000E+00  0.00000000E+00
MxBond                                     I                2
NBond                                      I   N=           5
           1           2           2           2           1
IBond                                      I   N=          10
           2           0           1           3           2           4
           3           5           4           0
RBond                                      R   N=          10
  1.00000000E+00  0.00000000E+00  1.00000000E+00  1.00000000E+00  1.00000000E+00
  1.00000000E+00  1.00000000E+00  2.00000000E+00  2.00000000E+00  0.00000000E+00
Virial Ratio                               R      2.002404745791675E+00
SCF Energy                                 R     -2.795042094172978E+02
MP2 Energy                                 R     -2.804550698803519E+02
Total Energy                               R     -2.804550698803519E+02
Post-SCF wavefunction norm                 R      1.584913929231178E+00
RMS Force                                  R      5.259679036923397E-03
RMS Density                                R      5.185524846032939E-09
NImag                                      I                0
Job Status                                 I                1
Nuclear derivative order                   I                2
External E-field                           R   N=          35
  0.00000000E+00  0.00000000E+00  0.00000000E+00  0.00000000E+00  0.00000000E+00
  0.00000000E+00  0.00000000E+00  0.00000000E+00  0.00000000E+00  0.00000000E+00
  0.00000000E+00  0.00000000E+00  0.00000000E+00  0.00000000E+00  0.00000000E+00
  0.00000000E+00  0.00000000E+00  0.00000000E+00  0.00000000E+00  0.00000000E+00
  0.00000000E+00  0.00000000E+00  0.00000000E+00  0.00000000E+00  0.00000000E+00
  0.00000000E+00  0.00000000E+00  0.00000000E+00  0.00000000E+00  0.00000000E+00
  0.00000000E+00  0.00000000E+00  0.00000000E+00  0.00000000E+00  0.00000000E+00
IOpCl                                      I                0
IROHF                                      I                0
Alpha Orbital Energies                     R   N=         207
 -2.07225030E+01 -2.06866563E+01 -2.06693319E+01 -1.58279484E+01 -1.63799808E+00
 -1.50213745E+00 -1.29494216E+00 -9.62148953E-01 -8.32235969E-01 -7.56460586E-01
 -7.38287128E-01 -6.37278791E-01 -6.18489832E-01 -6.15608619E-01 -5.06812879E-01
 -4.98258149E-01  3.51416982E-02  5.65843525E-02  9.50288731E-02  1.00310284E-01
  1.19986662E-01  1.22487472E-01  1.49324985E-01  1.52012476E-01  1.77182421E-01
  1.80428562E-01  1.89762061E-01  2.11010359E-01  2.16643524E-01  2.41402325E-01
  2.46137917E-01  2.68718083E-01  3.12591799E-01  3.16917132E-01  3.38063452E-01
  3.42419224E-01  3.46005716E-01  3.92100896E-01  4.49170249E-01  4.87881147E-01
  5.04996341E-01  5.17615753E-01  5.44462198E-01  5.61638057E-01  5.94567422E-01
  6.18256174E-01  6.37127761E-01  6.91357731E-01  7.17350975E-01  7.23832425E-01
  7.41086703E-01  7.64360339E-01  7.67400917E-01  7.95384144E-01  8.05581547E-01
  8.38331964E-01  8.42442372E-01  8.51395352E-01  8.84023477E-01  9.07130938E-01
  9.29649535E-01  9.45381271E-01  9.54245099E-01  1.01794028E+00  1.03257314E+00
  1.06333823E+00  1.06585149E+00  1.09493450E+00  1.14406261E+00  1.15643283E+00
  1.16769688E+00  1.22117178E+00  1.22688098E+00  1.24521867E+00  1.35470327E+00
  1.36087746E+00  1.37006092E+00  1.46816370E+00  1.48463971E+00  1.50456875E+00
  1.54285974E+00  1.59597181E+00  1.59685528E+00  1.60410140E+00  1.62776168E+00
  1.69324275E+00  1.74036447E+00  1.79893162E+00  1.82977532E+00  1.88467719E+00
  1.89473144E+00  1.93102351E+00  1.97807286E+00  1.98921965E+00  2.05494869E+00
  2.12125862E+00  2.12980314E+00  2.16500453E+00  2.18897017E+00  2.24324953E+00
  2.26004090E+00  2.29341586E+00  2.35158863E+00  2.36520716E+00  2.38493045E+00
  2.39824399E+00  2.43216143E+00  2.47061941E+00  2.47858658E+00  2.53004838E+00
  2.53685839E+00  2.54648101E+00  2.55516145E+00  2.61184490E+00  2.62964656E+00
  2.66834910E+00  2.66936901E+00  2.75102405E+00  2.80721926E+00  2.81394075E+00
  2.83912076E+00  2.91767216E+00  2.98150036E+00  3.04211703E+00  3.04906468E+00
  3.11405428E+00  3.11943705E+00  3.17203945E+00  3.21301381E+00  3.30596208E+00
  3.33218903E+00  3.35954552E+00  3.47605641E+00  3.66809044E+00  3.86831295E+00
  3.93120028E+00  4.18401269E+00  4.22036598E+00  4.22233937E+00  4.24839833E+00
  4.36868739E+00  4.49536883E+00  4.52821884E+00  4.54489484E+00  4.59770929E+00
  4.69034313E+00  4.80486928E+00  4.89651017E+00  4.91467244E+00  4.93677610E+00
  5.00045567E+00  5.00634096E+00  5.10425572E+00  5.12471098E+00  5.17898148E+00
  5.23971723E+00  5.25679169E+00  5.31493984E+00  5.34255183E+00  5.35735054E+00
  5.55607360E+00  5.62751394E+00  5.69964687E+00  5.89341025E+00  5.98765404E+00
  6.26314541E+00  6.29371176E+00  6.35868924E+00  6.37492619E+00  6.59658147E+00
  6.65755917E+00  6.65792300E+00  6.68800785E+00  6.72145265E+00  6.80123606E+00
  6.80372254E+00  6.84260290E+00  6.96398795E+00  7.02022151E+00  7.06498227E+00
  7.07746952E+00  7.13274113E+00  7.16888146E+00  7.17014172E+00  7.19924251E+00
  7.23206711E+00  7.24532195E+00  7.26010782E+00  7.34516543E+00  7.38538525E+00
  7.42316666E+00  7.43842467E+00  7.45185038E+00  7.54058209E+00  7.66191147E+00
  7.66243284E+00  7.78929905E+00  7.87983643E+00  7.94712737E+00  8.05175610E+00
  8.30598446E+00  8.49922951E+00  8.64706023E+00  1.35921477E+01  1.46708769E+01
  1.50612880E+01  1.55014381E+01
Alpha MO coefficients                      R   N=       42849
  6.47710812E-05 -1.65771961E-05 -1.14878098E-03  1.04814466E-05 -5.15203847E-05
  4.21875637E-05  0.00000000E+00 -9.10293145E-05 -2.89971608E-04  0.00000000E+00
  2.14739668E-06 -3.58050472E-04  0.00000000E+00  4.20473076E-05  0.00000000E+00
  0.00000000E+00 -2.45464972E-05  1.31490287E-05  2.31994189E-04  0.00000000E+00
  0.00000000E+00 -4.03436384E-05 -2.13763936E-04  2.97584139E-03 -9.30499936E-05
 -1.03597933E-04  3.55107600E-03  2.50109844E-03  1.02771091E-04 -5.31180612E-05
  0.00000000E+00 -7.29624123E-04  2.85255065E-04  0.00000000E+00 -1.96961371E-03
  1.11788972E-03  0.00000000E+00 -5.40282026E-04  3.79252449E-05  0.00000000E+00
  2.04620046E-05  0.00000000E+00  0.00000000E+00 -8.86948256E-06  4.41054334E-05
 -4.43150333E-04  0.00000000E+00  0.00000000E+00  4.27058685E-04 -6.62299297E-04
 -3.61704687E-04  0.00000000E+00  0.00000000E+00  5.41990879E-04 -7.49155158E-04
  0.00000000E+00  7.41126098E-05 -5.24505907E-05  0.00000000E+00  0.00000000E+00
 -2.69244250E-05  1.07964551E-04  0.00000000E+00  2.07068039E-04 -5.11287561E-05
  0.00000000E+00  0.00000000E+00 -1.69683756E-04  3.00399656E-04  9.76907721E-01
 -9.17220228E-03  4.34014409E-02  4.61415902E-04 -2.22828764E-03  4.40136129E-04
 -2.15627298E-03  0.00000000E+00 -3.07999292E-04  2.26187036E-03  0.00000000E+00
 -2.30797533E-03 -4.80154728E-04  0.00000000E+00 -2.24190403E-04  1.00852745E-04
  0.00000000E+00  6.63942047E-06  0.00000000E+00  0.00000000E+00 -3.84950743E-06
  3.68380171E-05  8.27967817E-04  0.00000000E+00  0.00000000E+00 -4.75361901E-04
 -1.74184569E-04 -1.38660467E-04  0.00000000E+00  0.00000000E+00 -5.55372628E-04
  3.55192116E-04  0.00000000E+00 -6.96234967E-06 -7.96412063E-05  0.00000000E+00
  0.00000000E+00 -9.12597355E-06  4.84153431E-05  0.00000000E+00  9.23731265E-05
  8.98769015E-07  0.00000000E+00  0.00000000E+00 -3.34836678E-04  3.81952487E-04
  1.06870042E-04  4.72253336E-04 -3.24253820E-04 -7.52760583E-04  3.81441925E-04
 -4.46983809E-05 -1.00242020E-04  0.00000000E+00  7.05424429E-04  1.09933971E-03
  0.00000000E+00 -7.40557122E-04 -6.51096433E-04  0.00000000E+00  1.97072074E-04
  2.07363524E-04  0.00000000E+00 -5.30724159E-05  0.00000000E+00  0.00000000E+00
  1.90480867E-05  9.24412968E-05 -4.18672770E-04  0.00000000E+00  0.00000000E+00
  3.52588412E-05  1.08286930E-03  2.19266873E-05  0.00000000E+00  0.00000000E+00
 -3.18510169E-04  3.38194914E-05  0.00000000E+00 -7.88417717E-05 -1.13622689E-04
  0.00000000E+00  0.00000000E+00 -9.74708137E-05  1.08089604E-04  0.00000000E+00
 -1.25080037E-04  4.40034621E-05  0.00000000E+00  0.00000000E+00  1.11026253E-05
  5.22738675E-04 -6.31021310E-04  3.99173151E-05 -6.72219731E-05  1.79422090E-04
 -2.01294898E-04 -2.96222725E-05 -4.10162114E-05  0.00000000E+00  1.69853196E-04
  2.43031307E-04  0.00000000E+00  5.46558976E-04  2.94748936E-04  0.00000000E+00
 -2.11588183E-04 -6.57517693E-05  0.00000000E+00 -1.24365316E-05  0.00000000E+00
  0.00000000E+00  3.81034181E-06  1.37755481E-05 -3.16714877E-06  0.00000000E+00
  0.00000000E+00 -1.62917095E-04  2.03861120E-05 -1.90814239E-05  0.00000000E+00
  0.00000000E+00 -1.62048695E-04 -3.11905679E-05  0.00000000E+00 -6.74344666E-06
 -9.59009508E-06  0.00000000E+00  0.00000000E+00 -2.28099910E-05  8.64550105E-06
  0.00000000E+00  3.92125956E-05  6.04166556E-05  0.00000000E+00  0.00000000E+00
  1.52141990E-04 -1.05132479E-04  4.08142520E-05  6.48457623E-05 -1.43027887E-04
 -3.46832804E-05  1.76773874E-05  1.13257895E-05  0.00000000E+00  2.41430225E-04
  6.86345837E-05  0.00000000E+00  1.31300210E-04  2.27161086E-05  0.00000000E+00
  1.29802668E-05  0.00000000E+00  0.00000000E+00 -1.33930800E-05  1.59152801E-05
  2.54980335E-05  0.00000000E+00  0.00000000E+00 -1.06493028E-04  6.20457284E-05
 -2.89637843E-04  2.89915808E-05 -1.80703516E-05 -5.67525330E-04  1.72196828E-04
  8.78804208E-06  1.32460907E-05  0.00000000E+00 -7.43444865E-06 -3.80112736E-05
  0.00000000E+00  2.07934594E-04  1.34329519E-04  0.00000000E+00 -4.83521401E-05
  4.61560261E-05  0.00000000E+00 -1.45668411E-06  0.00000000E+00  0.00000000E+00
 -8.61184144E-06 -1.17808173E-05  2.02484742E-05  0.00000000E+00  0.00000000E+00
  5.53264558E-05  1.06850716E-04  6.09619046E-05  0.00000000E+00  0.00000000E+00
 -4.03738651E-05 -8.69009441E-05  0.00000000E+00  8.21873421E-06  9.81887159E-06
  0.00000000E+00  0.00000000E+00 -1.53461566E-06 -2.47362360E-05  0.00000000E+00
 -1.42834025E-05 -3.47556126E-05  0.00000000E+00  0.00000000E+00 -4.53296099E-06
 -1.67534123E-05  6.58299115E-04  2.49805246E-05 -2.08439271E-05  2.39091356E-04
 -4.60742114E-04  1.49426276E-05  2.79272078E-05  0.00000000E+00 -5.83658510E-05
 -1.54237521E-04  0.00000000E+00  2.24877813E-04 -2.11010705E-04  0.00000000E+00
 -1.47962228E-04  1.52749469E-04  0.00000000E+00 -4.21712464E-06  0.00000000E+00
  0.00000000E+00 -2.63643917E-05 -1.03814742E-05 -4.84132076E-05  0.00000000E+00
  0.00000000E+00  5.82174832E-05  1.20750780E-04 -5.55120469E-05  0.00000000E+00
  0.00000000E+00  1.24970037E-05  1.05353392E-05  0.00000000E+00  2.67591165E-06
  3.88145387E-06  0.00000000E+00  0.00000000E+00 -8.11049163E-06 -2.12634374E-07
  0.00000000E+00  1.75388122E-06 -2.62164985E-05  0.00000000E+00  0.00000000E+00
  1.04466969E-04 -1.41735580E-04  2.32685525E-04  1.32238485E-03 -1.91994206E-04
 -4.19969754E-04  1.01010331E-03  5.42710835E-05 -4.58093277E-05  0.00000000E+00
  5.67416759E-04 -2.08876507E-03  0.00000000E+00  1.71244992E-04  4.46887321E-04
  0.00000000E+00  2.00592452E-04 -3.17984773E-04  0.00000000E+00 -1.27635861E-04
  0.00000000E+00  0.00000000E+00 -2.00944854E-04 -1.57925175E-04 -4.91220036E-04
  0.00000000E+00  0.00000000E+00 -6.70716538E-04 -9.31993846E-04 -6.48432126E-05
  0.00000000E+00  0.00000000E+00  2.31826460E-05  1.10292037E-04  0.00000000E+00
  3.44642194E-06  5.29189032E-05  0.00000000E+00  0.00000000E+00 -4.51437593E-05
  9.06203643E-06  0.00000000E+00 -1.38916524E-04  1.59127149E-04  0.00000000E+00
  0.00000000E+00 -3.44066175E-04 -3.68144714E-05  9.76665698E-01 -9.88809362E-03
  4.35454496E-02  3.53013092E-03 -9.67122596E-04 -4.41128841E-04  2.12097434E-03
  0.00000000E+00  5.22285456E-04 -2.53665332E-03  0.00000000E+00 -3.86757719E-05
  7.77022686E-04  0.00000000E+00  1.10844954E-04 -7.31820860E-05  0.00000000E+00
 -1.85562764E-04  0.00000000E+00  0.00000000E+00 -6.51380193E-05 -3.63781196E-05
  4.13458823E-04  0.00000000E+00  0.00000000E+00  8.69837657E-04  4.95094977E-04
 -2.14585538E-04  0.00000000E+00  0.00000000E+00 -1.45985803E-04 -3.51187939E-05
  0.00000000E+00 -6.69084584E-06  7.56314131E-05  0.00000000E+00  0.00000000E+00
 -3.52168672E-05  1.35163161E-05  0.00000000E+00 -8.76600889E-05  8.38485943E-05
  0.00000000E+00  0.00000000E+00 -1.65002005E-04  2.03666506E-04  3.74879186E-04
  1.98487838E-03  1.35773865E-03 -1.73864872E-05  5.04457309E-05  2.67373914E-04
  0.00000000E+00  3.86965488E-04  1.02476039E-03  0.00000000E+00 -1.24531936E-04
  2.29892626E-04  0.00000000E+00 -2.32841567E-05  0.00000000E+00  0.00000000E+00
  3.28379709E-05 -2.87523400E-05 -2.16618628E-04  0.00000000E+00  0.00000000E+00
 -3.50221788E-04  4.08477931E-04  9.76834731E-01 -9.18769631E-03  4.34652775E-02
  1.35412256E-04 -1.88706201E-03 -2.04571769E-03 -8.29777908E-04  0.00000000E+00
  2.08284026E-03  7.65130650E-04  0.00000000E+00 -3.98148234E-04  6.43195043E-04
  0.00000000E+00  2.20170873E-04 -2.98871903E-04  0.00000000E+00  3.08095669E-05
  0.00000000E+00  0.00000000E+00 -7.48207336E-05  6.36802962E-05  7.65711156E-04
  0.00000000E+00  0.00000000E+00 -2.10433261E-04  3.56723767E-04 -2.37856666E-04
  0.00000000E+00  0.00000000E+00  3.33120061E-04 -5.48865616E-07  0.00000000E+00
 -8.05564663E-05  2.08920716E-06  0.00000000E+00  0.00000000E+00  1.59950766E-05