title                                                                   
Freq      RMP2-FC                                                     Aug-CC-pVTZ         
Number of atoms                            I                5
Info1-9                                    I   N=           9
          33          24           0           0           0         100
           6           2           1
Full Title                                 C   N=           1
title       
Route                                      C   N=           4
#p freq mp2/aug-cc-pvtz density=current         
Charge                                     I                0
Multiplicity                               I                1
Number of electrons                        I               32
Number of alpha electrons                  I               16
Number of beta electrons                   I               16
Number of basis functions                  I              207
Number of independent functions            I              207
Number of point charges in /Mol/           I                0
Number of translation vectors              I                0
Atomic numbers                             I   N=           5
           1           8           8           7           8
Nuclear charges                            R   N=           5
  1.00000000E+00  8.00000000E+00  8.00000000E+00  7.00000000E+00  8.00000000E+00
Current cartesian coordinates              R   N=          15
 -1.02921847E+00 -2.14811430E+00  1.64918337E-01 -2.41263673E+00 -9.15316576E-01
 -1.87940404E-02 -1.02548587E+00  1.39648355E+00  5.11949292E-03  1.56011704E+00
  1.04107784E+00  6.40577763E-03  2.20167250E+00 -1.12359580E+00 -1.25453001E-02
Number of symbols in /Mol/                 I                0
Force Field                                I                0
Atom Types                                 C   N=           5
                                                            
Int Atom Types                             I   N=           5
           0           0           0           0           0
MM charges                                 R   N=           5
  0.00000000E+00  0.00000000E+00  0.00000000E+00  0.00000000E+00  0.00000000E+00
Integer atomic weights                     I   N=           5
           1          16          16          14          16
Real atomic weights                        R   N=           5
  1.00782504E+00  1.59949146E+01  1.59949146E+01  1.40030740E+01  1.59949146E+01
Atom fragment info                         I   N=           5
           0           0           0           0           0
Atom residue num                           I   N=           5
           0           0           0           0           0
Nuclear spins                              I   N=           5
           1           0           0           2           0
Nuclear ZEff                               R   N=           5
 -1.00000000E+00 -5.60000000E+00 -5.60000000E+00 -4.55000000E+00 -5.60000000E+00
Nuclear ZNuc                               R   N=           5
  1.00000000E+00  8.00000000E+00  8.00000000E+00  7.00000000E+00  8.00000000E+00
Nuclear QMom                               R   N=           5
  0.00000000E+00  0.00000000E+00  0.00000000E+00  2.04400000E+00  0.00000000E+00
Nuclear GFac                               R   N=           5
  2.79284600E+00  0.00000000E+00  0.00000000E+00  4.03761000E-01  0.00000000E+00
MicOpt                                     I   N=           5
          -1          -1          -1          -1          -1
Number of residues                         I                0
Number of secondary structures             I                0
SymInf integers                            I   N=          26
           1           1           1           1           1           0
           0           0           0           0           0           0
           0           0           0           0           0           0
           0           0           0           0           0           0
           0           0
RotTr to input orientation                 R   N=          12
  6.63001304E-01  9.20483984E-02 -7.42937658E-01  7.48111082E-01 -4.49421512E-02
  6.62049856E-01  2.75514124E-02 -9.94739813E-01 -9.86591317E-02  2.28485757E+00
  1.62247870E-01  6.73784304E-01
Number of contracted shells                I               65
Number of primitive shells                 I              119
Pure/Cartesian d shells                    I                0
Pure/Cartesian f shells                    I                0
Highest angular momentum                   I                3
Largest degree of contraction              I                7
Shell types                                I   N=          65
           0           0           0           0           1           1
           1          -2          -2           0           0           0
           0           0           1           1           1           1
          -2          -2          -2          -3          -3           0
           0           0           0           0           1           1
           1           1          -2          -2          -2          -3
          -3           0           0           0           0           0
           1           1           1           1          -2          -2
          -2          -3          -3           0           0           0
           0           0           1           1           1           1
          -2          -2          -2          -3          -3
Number of primitives per shell             I   N=          65
           3           1           1           1           1           1
           1           1           1           7           6           1
           1           1           3           1           1           1
           1           1           1           1           1           7
           6           1           1           1           3           1
           1           1           1           1           1           1
           1           7           6           1           1           1
           3           1           1           1           1           1
           1           1           1           7           6           1
           1           1           3           1           1           1
           1           1           1           1           1
Shell to atom map                          I   N=          65
           1           1           1           1           1           1
           1           1           1           2           2           2
           2           2           2           2           2           2
           2           2           2           2           2           3
           3           3           3           3           3           3
           3           3           3           3           3           3
           3           4           4           4           4           4
           4           4           4           4           4           4
           4           4           4           5           5           5
           5           5           5           5           5           5
           5           5           5           5           5
Primitive exponents                        R   N=         119
  3.38700000E+01  5.09500000E+00  1.15900000E+00  3.25800000E-01  1.02700000E-01
  2.52600000E-02  1.40700000E+00  3.88000000E-01  1.02000000E-01  1.05700000E+00
  2.47000000E-01  1.53300000E+04  2.29900000E+03  5.22400000E+02  1.47300000E+02
  4.75500000E+01  1.67600000E+01  6.20700000E+00  5.22400000E+02  1.47300000E+02
  4.75500000E+01  1.67600000E+01  6.20700000E+00  6.88200000E-01  1.75200000E+00
  2.38400000E-01  7.37600000E-02  3.44600000E+01  7.74900000E+00  2.28000000E+00
  7.15600000E-01  2.14000000E-01  5.97400000E-02  2.31400000E+00  6.45000000E-01
  2.14000000E-01  1.42800000E+00  5.00000000E-01  1.53300000E+04  2.29900000E+03
  5.22400000E+02  1.47300000E+02  4.75500000E+01  1.67600000E+01  6.20700000E+00
  5.22400000E+02  1.47300000E+02  4.75500000E+01  1.67600000E+01  6.20700000E+00
  6.88200000E-01  1.75200000E+00  2.38400000E-01  7.37600000E-02  3.44600000E+01
  7.74900000E+00  2.28000000E+00  7.15600000E-01  2.14000000E-01  5.97400000E-02
  2.31400000E+00  6.45000000E-01  2.14000000E-01  1.42800000E+00  5.00000000E-01
  1.14200000E+04  1.71200000E+03  3.89300000E+02  1.10000000E+02  3.55700000E+01
  1.25400000E+01  4.64400000E+00  3.89300000E+02  1.10000000E+02  3.55700000E+01
  1.25400000E+01  4.64400000E+00  5.11800000E-01  1.29300000E+00  1.78700000E-01
  5.76000000E-02  2.66300000E+01  5.94800000E+00  1.74200000E+00  5.55000000E-01
  1.72500000E-01  4.91000000E-02  1.65400000E+00  4.69000000E-01  1.51000000E-01
  1.09300000E+00  3.64000000E-01  1.53300000E+04  2.29900000E+03  5.22400000E+02
  1.47300000E+02  4.75500000E+01  1.67600000E+01  6.20700000E+00  5.22400000E+02
  1.47300000E+02  4.75500000E+01  1.67600000E+01  6.20700000E+00  6.88200000E-01
  1.75200000E+00  2.38400000E-01  7.37600000E-02  3.44600000E+01  7.74900000E+00
  2.28000000E+00  7.15600000E-01  2.14000000E-01  5.97400000E-02  2.31400000E+00
  6.45000000E-01  2.14000000E-01  1.42800000E+00  5.00000000E-01
Contraction coefficients                   R   N=         119
  2.54948632E-02  1.90362766E-01  8.52162022E-01  1.00000000E+00  1.00000000E+00
  1.00000000E+00  1.00000000E+00  1.00000000E+00  1.00000000E+00  1.00000000E+00
  1.00000000E+00  5.19808943E-04  4.02025621E-03  2.07128267E-02  8.10105536E-02
  2.35962985E-01  4.42653446E-01  3.57064423E-01 -4.42115008E-05 -1.22591041E-03
 -1.05517725E-02 -6.74452633E-02 -1.71198607E-01  1.07329856E+00  1.00000000E+00
  1.00000000E+00  1.00000000E+00  4.11634896E-02  2.57762836E-01  8.02419274E-01
  1.00000000E+00  1.00000000E+00  1.00000000E+00  1.00000000E+00  1.00000000E+00
  1.00000000E+00  1.00000000E+00  1.00000000E+00  5.19808943E-04  4.02025621E-03
  2.07128267E-02  8.10105536E-02  2.35962985E-01  4.42653446E-01  3.57064423E-01
 -4.42115008E-05 -1.22591041E-03 -1.05517725E-02 -6.74452633E-02 -1.71198607E-01
  1.07329856E+00  1.00000000E+00  1.00000000E+00  1.00000000E+00  4.11634896E-02
  2.57762836E-01  8.02419274E-01  1.00000000E+00  1.00000000E+00  1.00000000E+00
  1.00000000E+00  1.00000000E+00  1.00000000E+00  1.00000000E+00  1.00000000E+00
  5.34563860E-04  4.13435660E-03  2.12335358E-02  8.25006224E-02  2.38138871E-01
  4.42551547E-01  3.53757422E-01 -4.89867350E-05 -1.19527323E-03 -1.03490714E-02
 -6.48680190E-02 -1.71552477E-01  1.07289568E+00  1.00000000E+00  1.00000000E+00
  1.00000000E+00  3.98072123E-02  2.49002660E-01  8.10479727E-01  1.00000000E+00
  1.00000000E+00  1.00000000E+00  1.00000000E+00  1.00000000E+00  1.00000000E+00
  1.00000000E+00  1.00000000E+00  5.19808943E-04  4.02025621E-03  2.07128267E-02
  8.10105536E-02  2.35962985E-01  4.42653446E-01  3.57064423E-01 -4.42115008E-05
 -1.22591041E-03 -1.05517725E-02 -6.74452633E-02 -1.71198607E-01  1.07329856E+00
  1.00000000E+00  1.00000000E+00  1.00000000E+00  4.11634896E-02  2.57762836E-01
  8.02419274E-01  1.00000000E+00  1.00000000E+00  1.00000000E+00  1.00000000E+00
  1.00000000E+00  1.00000000E+00  1.00000000E+00  1.00000000E+00
Coordinates of each shell                  R   N=         195
 -1.02921847E+00 -2.14811430E+00  1.64918337E-01 -1.02921847E+00 -2.14811430E+00
  1.64918337E-01 -1.02921847E+00 -2.14811430E+00  1.64918337E-01 -1.02921847E+00
 -2.14811430E+00  1.64918337E-01 -1.02921847E+00 -2.14811430E+00  1.64918337E-01
 -1.02921847E+00 -2.14811430E+00  1.64918337E-01 -1.02921847E+00 -2.14811430E+00
  1.64918337E-01 -1.02921847E+00 -2.14811430E+00  1.64918337E-01 -1.02921847E+00
 -2.14811430E+00  1.64918337E-01 -2.41263673E+00 -9.15316576E-01 -1.87940404E-02
 -2.41263673E+00 -9.15316576E-01 -1.87940404E-02 -2.41263673E+00 -9.15316576E-01
 -1.87940404E-02 -2.41263673E+00 -9.15316576E-01 -1.87940404E-02 -2.41263673E+00
 -9.15316576E-01 -1.87940404E-02 -2.41263673E+00 -9.15316576E-01 -1.87940404E-02
 -2.41263673E+00 -9.15316576E-01 -1.87940404E-02 -2.41263673E+00 -9.15316576E-01
 -1.87940404E-02 -2.41263673E+00 -9.15316576E-01 -1.87940404E-02 -2.41263673E+00
 -9.15316576E-01 -1.87940404E-02 -2.41263673E+00 -9.15316576E-01 -1.87940404E-02
 -2.41263673E+00 -9.15316576E-01 -1.87940404E-02 -2.41263673E+00 -9.15316576E-01
 -1.87940404E-02 -2.41263673E+00 -9.15316576E-01 -1.87940404E-02 -1.02548587E+00
  1.39648355E+00  5.11949292E-03 -1.02548587E+00  1.39648355E+00  5.11949292E-03
 -1.02548587E+00  1.39648355E+00  5.11949292E-03 -1.02548587E+00  1.39648355E+00
  5.11949292E-03 -1.02548587E+00  1.39648355E+00  5.11949292E-03 -1.02548587E+00
  1.39648355E+00  5.11949292E-03 -1.02548587E+00  1.39648355E+00  5.11949292E-03
 -1.02548587E+00  1.39648355E+00  5.11949292E-03 -1.02548587E+00  1.39648355E+00
  5.11949292E-03 -1.02548587E+00  1.39648355E+00  5.11949292E-03 -1.02548587E+00
  1.39648355E+00  5.11949292E-03 -1.02548587E+00  1.39648355E+00  5.11949292E-03
 -1.02548587E+00  1.39648355E+00  5.11949292E-03 -1.02548587E+00  1.39648355E+00
  5.11949292E-03  1.56011704E+00  1.04107784E+00  6.40577763E-03  1.56011704E+00
  1.04107784E+00  6.40577763E-03  1.56011704E+00  1.04107784E+00  6.40577763E-03
  1.56011704E+00  1.04107784E+00  6.40577763E-03  1.56011704E+00  1.04107784E+00
  6.40577763E-03  1.56011704E+00  1.04107784E+00  6.40577763E-03  1.56011704E+00
  1.04107784E+00  6.40577763E-03  1.56011704E+00  1.04107784E+00  6.40577763E-03
  1.56011704E+00  1.04107784E+00  6.40577763E-03  1.56011704E+00  1.04107784E+00
  6.40577763E-03  1.56011704E+00  1.04107784E+00  6.40577763E-03  1.56011704E+00
  1.04107784E+00  6.40577763E-03  1.56011704E+00  1.04107784E+00  6.40577763E-03
  1.56011704E+00  1.04107784E+00  6.40577763E-03  2.20167250E+00 -1.12359580E+00
 -1.25453001E-02  2.20167250E+00 -1.12359580E+00 -1.25453001E-02  2.20167250E+00
 -1.12359580E+00 -1.25453001E-02  2.20167250E+00 -1.12359580E+00 -1.25453001E-02
  2.20167250E+00 -1.12359580E+00 -1.25453001E-02  2.20167250E+00 -1.12359580E+00
 -1.25453001E-02  2.20167250E+00 -1.12359580E+00 -1.25453001E-02  2.20167250E+00
 -1.12359580E+00 -1.25453001E-02  2.20167250E+00 -1.12359580E+00 -1.25453001E-02
  2.20167250E+00 -1.12359580E+00 -1.25453001E-02  2.20167250E+00 -1.12359580E+00
 -1.25453001E-02  2.20167250E+00 -1.12359580E+00 -1.25453001E-02  2.20167250E+00
 -1.12359580E+00 -1.25453001E-02  2.20167250E+00 -1.12359580E+00 -1.25453001E-02
Num ILSW                                   I              100
ILSW                                       I   N=         100
           0           0           0           0           2           0
           0           0           0           0           0          -1
           5           0           0           0           2           0
           0           0           0           0           1           0
           1           0           0           0           0           0
           0           0      100000           0          -1           0
           0           0           0           0           0           0
           0           0           0           1           1           0
           0 -2000000000           1           0           0           0
           0           0           4          52           0           0
           0           0           0           0           0           0
           0           0           0           5           4           1
           0           0           0           0           0           0
           0           0           0           0           0           0
           0           0           0           0           0           0
           0           0           0           0           0           0
           0           0           0           0
Num RLSW                                   I               52
RLSW                                       R   N=          52
  1.00000000E+00  1.00000000E+00  1.00000000E+00  1.00000000E+00  1.00000000E+00
  0.00000000E+00  0.00000000E+00  1.00000000E+00  0.00000000E+00  0.00000000E+00
  0.00000000E+00  0.00000000E+00  1.00000000E+00  0.00000000E+00  0.00000000E+00
  0.00000000E+00  0.00000000E+00  1.00000000E+00  0.00000000E+00  0.00000000E+00
  0.00000000E+00  0.00000000E+00  1.00000000E+00  0.00000000E+00  0.00000000E+00
  0.00000000E+00  0.00000000E+00  1.00000000E+00  0.00000000E+00  0.00000000E+00
  0.00000000E+00  0.00000000E+00  1.00000000E+00  0.00000000E+00  0.00000000E+00
  0.00000000E+00  0.00000000E+00  0.00000000E+00  1.00000000E+00  1.00000000E+00
  0.00000000E+00  1.00000000E+00  0.00000000E+00  0.00000000E+00  0.00000000E+00
  0.00000000E+00  0.00000000E+00  0.00000000E+00  0.00000000E+00  0.00000000E+00
  0.00000000E+00  0.00000000E+00
MxBond                                     I                2
NBond                                      I   N=           5
           1           2           2           2           1
IBond                                      I   N=          10
           2           0           1           3           2           4
           3           5           4           0
RBond                                      R   N=          10
  1.00000000E+00  0.00000000E+00  1.00000000E+00  1.00000000E+00  1.00000000E+00
  1.00000000E+00  1.00000000E+00  2.00000000E+00  2.00000000E+00  0.00000000E+00
Virial Ratio                               R      2.002228817908195E+00
SCF Energy                                 R     -2.795063706033754E+02
MP2 Energy                                 R     -2.804551279846356E+02
Total Energy                               R     -2.804551279846356E+02
Post-SCF wavefunction norm                 R      1.583720522567429E+00
RMS Force                                  R      6.732420611521558E-04
RMS Density                                R      6.599015751415296E-09
NImag                                      I                0
Job Status                                 I                1
Nuclear derivative order                   I                2
External E-field                           R   N=          35
  0.00000000E+00  0.00000000E+00  0.00000000E+00  0.00000000E+00  0.00000000E+00
  0.00000000E+00  0.00000000E+00  0.00000000E+00  0.00000000E+00  0.00000000E+00
  0.00000000E+00  0.00000000E+00  0.00000000E+00  0.00000000E+00  0.00000000E+00
  0.00000000E+00  0.00000000E+00  0.00000000E+00  0.00000000E+00  0.00000000E+00
  0.00000000E+00  0.00000000E+00  0.00000000E+00  0.00000000E+00  0.00000000E+00
  0.00000000E+00  0.00000000E+00  0.00000000E+00  0.00000000E+00  0.00000000E+00
  0.00000000E+00  0.00000000E+00  0.00000000E+00  0.00000000E+00  0.00000000E+00
IOpCl                                      I                0
IROHF                                      I                0
Alpha Orbital Energies                     R   N=         207
 -2.07197126E+01 -2.06869970E+01 -2.06684593E+01 -1.58257935E+01 -1.64404626E+00
 -1.50510373E+00 -1.29372183E+00 -9.60221467E-01 -8.34178194E-01 -7.58769859E-01
 -7.40067968E-01 -6.38078036E-01 -6.19215101E-01 -6.16918757E-01 -5.04534958E-01
 -4.97594325E-01  3.49929317E-02  6.04210396E-02  9.51178969E-02  1.00403539E-01
  1.19222334E-01  1.22641469E-01  1.49750098E-01  1.51919016E-01  1.76905527E-01
  1.80968338E-01  1.89278956E-01  2.11646011E-01  2.16854402E-01  2.42356206E-01
  2.46267486E-01  2.68954102E-01  3.04648760E-01  3.24501846E-01  3.38275347E-01
  3.43916688E-01  3.47066999E-01  3.92664432E-01  4.45218616E-01  4.86749880E-01
  5.08108733E-01  5.18536520E-01  5.44690728E-01  5.61522760E-01  5.98781778E-01
  6.20381332E-01  6.37923878E-01  6.89819848E-01  7.13268185E-01  7.27524653E-01
  7.43266733E-01  7.61171137E-01  7.70234539E-01  7.92552708E-01  8.06271083E-01
  8.40280254E-01  8.44159021E-01  8.53356249E-01  8.87818531E-01  9.07212862E-01
  9.29212708E-01  9.51665851E-01  9.54085925E-01  1.01765373E+00  1.03405719E+00
  1.05858530E+00  1.06489036E+00  1.09646947E+00  1.14139032E+00  1.15565801E+00
  1.17123130E+00  1.21654848E+00  1.23228224E+00  1.24652231E+00  1.34918203E+00
  1.36118538E+00  1.36981572E+00  1.46235640E+00  1.49472064E+00  1.50654737E+00
  1.53753654E+00  1.58251604E+00  1.60040255E+00  1.61623870E+00  1.62964049E+00
  1.69493357E+00  1.73871257E+00  1.80208389E+00  1.82930375E+00  1.88987948E+00
  1.89438950E+00  1.92931143E+00  1.97675280E+00  1.99349532E+00  2.05092166E+00
  2.12301712E+00  2.12917366E+00  2.16799525E+00  2.18948369E+00  2.24220247E+00
  2.26132468E+00  2.29736805E+00  2.35096607E+00  2.36525856E+00  2.38803977E+00
  2.40104998E+00  2.43210681E+00  2.46617064E+00  2.48163808E+00  2.52815966E+00
  2.53391395E+00  2.54920942E+00  2.56412723E+00  2.61595720E+00  2.63032677E+00
  2.66495715E+00  2.67379788E+00  2.75391741E+00  2.80915914E+00  2.81990390E+00
  2.84418018E+00  2.91833941E+00  2.98354964E+00  3.04413262E+00  3.05177505E+00
  3.11199567E+00  3.12239879E+00  3.16981531E+00  3.21099437E+00  3.30438878E+00
  3.33536900E+00  3.36043870E+00  3.47606080E+00  3.67828765E+00  3.86420147E+00
  3.93052959E+00  4.16845778E+00  4.22017440E+00  4.23982963E+00  4.27555001E+00
  4.37324380E+00  4.49980673E+00  4.52232995E+00  4.55493146E+00  4.60385967E+00
  4.69404634E+00  4.80988984E+00  4.89601017E+00  4.91821508E+00  4.94372829E+00
  4.99637289E+00  5.00717595E+00  5.10582232E+00  5.13199699E+00  5.18252678E+00
  5.24988989E+00  5.25988694E+00  5.31617853E+00  5.34397592E+00  5.35651949E+00
  5.54764773E+00  5.64466988E+00  5.70495205E+00  5.88904533E+00  5.99675486E+00
  6.26731860E+00  6.29647451E+00  6.35890925E+00  6.37623347E+00  6.60026311E+00
  6.65279228E+00  6.66802502E+00  6.69164887E+00  6.72583276E+00  6.78366043E+00
  6.81157262E+00  6.85537088E+00  6.96627162E+00  7.01738794E+00  7.06821476E+00
  7.08412475E+00  7.13953322E+00  7.16967975E+00  7.17971925E+00  7.20274893E+00
  7.24547549E+00  7.24858607E+00  7.27382700E+00  7.34918142E+00  7.39416346E+00
  7.42654262E+00  7.44341561E+00  7.46157435E+00  7.56019874E+00  7.66099807E+00
  7.66569137E+00  7.79688784E+00  7.88402041E+00  7.95171505E+00  8.05500550E+00
  8.30591994E+00  8.49711275E+00  8.65077669E+00  1.36187065E+01  1.47634848E+01
  1.50921230E+01  1.57565363E+01
Alpha MO coefficients                      R   N=       42849
  6.48378576E-05 -6.01675353E-05 -1.05761366E-03  1.20199224E-05  1.63992326E-05
  6.40429036E-05  4.68528991E-06  2.41891286E-04 -1.94131250E-04 -1.31588228E-05
  2.06560890E-04 -2.70552885E-04 -2.09795849E-05  4.35198814E-05 -6.87578978E-06
 -5.09063221E-06  5.54506557E-06 -2.74894817E-05  2.21606875E-04 -3.79381668E-05
 -1.77791249E-05 -1.97325120E-04  2.44849316E-05  3.08652529E-03 -9.78720726E-05
 -9.87351122E-05  3.54527089E-03  2.45337146E-03 -5.11695573E-05 -1.03784949E-04
 -2.70719492E-06  4.18656112E-04  6.62153659E-04  2.09752647E-05  9.63869738E-04
  2.06370593E-03  8.42043024E-05  4.05099734E-04  3.49143811E-04  2.96942014E-05
  2.02165297E-05 -1.80601228E-06  7.92594375E-07  3.91577891E-05 -2.17020602E-05
 -4.42176357E-04  1.63489883E-05  3.82868845E-06 -5.01781476E-04  6.05889398E-04
 -3.66280306E-04  1.52754496E-05  9.17698256E-06 -5.28242040E-04  7.37020969E-04
  4.30078081E-07 -2.87925060E-05 -8.58733319E-05 -2.05956218E-06  1.94349536E-06
 -1.11557966E-04 -8.94123298E-06 -1.49013460E-05 -1.37445506E-04 -1.64254953E-04
 -2.70648265E-06  1.06854395E-05 -3.37064939E-04  6.22979992E-05  9.76903709E-01
 -9.17347814E-03  4.34073530E-02  4.88094912E-04 -2.20381814E-03  9.08413072E-04
 -1.99736776E-03 -1.26517851E-05 -1.07602405E-03  2.00585302E-03  9.50436084E-06
  2.14198987E-03  9.87880026E-04  2.89668438E-05  1.19977584E-04  2.07222464E-04
  1.55544174E-06  7.12830269E-06 -2.84486624E-07 -5.24504976E-07  3.46809530E-05
 -1.61750263E-05  8.27597746E-04 -3.52175743E-06 -7.70679289E-06 -3.05573468E-04
 -4.01439916E-04 -1.39536915E-04  7.58121523E-06 -5.62407347E-06  1.78068345E-04
 -6.25120908E-04  4.69100230E-08  5.21370150E-05 -6.00861447E-05 -3.89917272E-07
  5.04886526E-07 -4.85350776E-05 -7.09040340E-06 -4.82724284E-06 -7.48934941E-05
 -5.43198739E-05 -1.16897826E-06  2.55824676E-06 -4.67908589E-04  1.95254000E-04
  1.04495950E-04  4.58323492E-04 -3.23469334E-04 -8.21760062E-04  3.73382357E-04
  9.47527581E-05 -5.45258268E-05  8.34092715E-07 -1.21933081E-03  4.81933851E-04
 -1.70399516E-06  1.01150709E-03 -8.10528336E-05 -7.00192053E-06 -2.85137981E-04
  5.40443054E-05  3.28268984E-07 -5.24362589E-05 -4.16766278E-07 -3.75637997E-07
  9.45287391E-05 -9.24202835E-06 -4.16068736E-04  6.47741145E-06 -2.33045414E-06
  1.04483087E-03 -2.87205691E-04  2.48961992E-05  5.91456980E-06 -3.76336187E-06
 -6.48693315E-05 -3.13140848E-04  4.25341140E-07  1.30658884E-04 -4.52363644E-05
 -9.69889331E-07 -1.28773670E-06 -1.31804398E-04  5.68028114E-05  2.67027764E-06
  7.24892704E-05  1.11801672E-04 -3.90788725E-06  3.57602013E-06 -4.89962113E-04
 -1.83261349E-04 -7.01834652E-04  4.78789061E-05 -7.00616363E-05  1.89260154E-04
 -2.02468176E-04  4.75624507E-05 -1.61825706E-05  1.04106388E-06 -2.85273444E-04
  1.03538755E-04 -5.90589548E-06 -6.12740940E-04 -4.91924775E-05  3.67313526E-05
  2.16083398E-04  7.41070358E-05  3.76990766E-06 -1.31574870E-05  9.42905308E-07
  3.44970561E-07  1.56389701E-05 -1.04872156E-06 -1.36079550E-06 -3.52935947E-06
 -7.26073701E-07 -3.96709767E-05 -1.61559038E-04 -1.74573985E-05 -3.46449247E-05
 -1.19518736E-05 -8.90898966E-05 -1.57040020E-04  2.86251985E-06  1.06822815E-05
 -3.50220713E-06 -2.59088130E-06 -2.03942527E-06 -1.54537879E-05  1.70402610E-05
 -9.96173796E-06 -7.02714776E-05  2.42058250E-05  9.31455532E-06  5.90989983E-06
  1.48321341E-04 -1.13094955E-04  4.04798907E-05  7.49133896E-05 -1.54938075E-04
 -3.13334082E-05 -2.03478693E-05 -1.71392567E-06 -8.15793725E-07 -2.25556559E-04
 -8.25014513E-05 -4.55214482E-06 -1.06301139E-04 -5.76052118E-05  1.08117439E-05
  1.37313807E-05  4.82309461E-06  2.74351953E-06  9.26787811E-06 -1.79360625E-05
  2.75428398E-05 -2.24264858E-06  1.87267191E-06  1.98722689E-05 -1.11788188E-04
 -2.63233352E-04  2.64062860E-05 -1.55175513E-05 -5.54062819E-04  1.80827145E-04
 -1.38555376E-05  6.83621864E-06  1.06379737E-06  2.40983923E-05 -3.41350895E-05
 -7.78612096E-06 -2.45185412E-04 -1.32449536E-05 -1.50350153E-05  1.26389830E-05
  6.17504301E-05 -3.56119505E-06 -1.32582321E-06 -6.94835725E-07 -9.63029821E-07
 -1.30711786E-05 -4.55218236E-06  2.07951102E-05  8.51453935E-08  6.24431712E-06
  1.14833202E-04  1.58412649E-05  6.10322302E-05  1.87420291E-06  9.06947488E-06
 -9.55876176E-05 -2.79443337E-06  1.70925744E-06 -1.24562648E-05  3.51813609E-06
 -1.54343526E-06  3.46347000E-07  2.30880967E-05  8.91492494E-06 -4.05708186E-06
  3.31174322E-05 -1.91922240E-05  8.94808179E-06  4.50161551E-06  1.41116122E-05
  1.13063958E-05  7.30156210E-04  2.26014207E-05 -1.86784335E-05  2.88384881E-04
 -4.00484833E-04 -2.94406600E-05  1.18734420E-05  5.41570653E-07  1.44286400E-04
 -8.25832870E-05 -2.58959925E-06 -1.19410512E-05 -2.59222257E-04  1.05488963E-05
  3.85373252E-05  2.08262517E-04  6.22735208E-06 -4.03322983E-06 -7.02989920E-07
 -2.23452741E-07 -1.81724510E-05 -2.51196722E-05 -5.09687623E-05  3.37580530E-06
  2.10011452E-06  1.40247858E-04  3.88581948E-05 -6.38723233E-05  9.03122367E-06
 -2.50134041E-06  3.18218441E-05  3.29080936E-05  9.10041425E-07 -4.60015140E-06
  8.43676869E-07  2.46308581E-07  1.41931621E-07 -4.22407220E-07  8.19076515E-06
 -3.17026950E-06  1.28001895E-05 -2.22265892E-05  3.00135830E-06 -3.65289117E-06
  1.76145879E-04 -4.07867431E-05  2.37359968E-04  1.35913160E-03 -1.47587354E-04
 -6.51719363E-04  9.12407623E-04 -8.97509640E-06 -9.46201695E-05 -1.95761105E-07
  7.71916046E-04 -2.01845379E-03 -1.92599041E-05 -3.95425750E-04  3.22503353E-04
 -1.51108314E-05  3.10059737E-05 -3.57727761E-04 -3.04601401E-06 -1.27677822E-04
 -1.70516290E-06  3.56605416E-06 -2.12319722E-04 -1.47120492E-04 -4.62170088E-04
  3.30501946E-06  1.52582825E-05 -1.05807672E-03 -3.02222413E-04 -4.36509996E-05
  6.65200668E-06  1.15542468E-06  1.28144073E-04  2.48189419E-05  6.58478832E-07
 -2.86577585E-05  2.48461106E-05  4.83036079E-07 -8.37825348E-07 -4.24030290E-06
  2.46661988E-05  5.60197678E-06  1.55905017E-05  2.07589970E-04  2.72107416E-06
  1.77846832E-06 -7.00917588E-05  3.09062597E-04  9.76646120E-01 -9.88668730E-03
  4.35755122E-02  3.67521920E-03 -8.99500437E-04 -8.98798220E-04  1.98442229E-03
  2.56133237E-05  1.06984232E-03 -2.32426836E-03 -2.80852261E-05 -4.26323566E-04
  6.84946808E-04  2.80668667E-05 -4.53300889E-05 -1.14513034E-04 -7.81970751E-07
 -1.94216022E-04  1.20055170E-06  4.40763627E-06 -6.37149553E-05 -5.77492624E-05
  4.09405759E-04  5.21435794E-06 -1.51950278E-05  7.19229811E-04  6.74817254E-04
 -2.06175787E-04 -1.52865378E-05  6.88754897E-06 -7.36903002E-05 -1.17266410E-04
  2.88555882E-06 -3.78279753E-05  5.94418352E-05 -6.69005264E-07  5.91168151E-07
 -1.94937998E-05  2.44536986E-05 -3.74168453E-06  1.73157062E-05  1.27051958E-04
  1.09331410E-05  4.77016237E-06 -2.47331739E-04  9.02391821E-05  3.76293962E-04
  1.98115874E-03  1.33829487E-03 -1.57618729E-05 -2.00213882E-04  1.86336092E-04
 -2.25353549E-05 -9.03487481E-04  5.93208597E-04 -1.22367317E-04 -4.76244917E-05
  2.52756929E-04 -4.50327699E-05 -2.31061424E-05 -3.17406958E-06 -1.01041628E-06
 -1.73439347E-05  3.96679317E-05 -2.09602323E-04  4.42137553E-05 -4.80329959E-05
  2.81251520E-04 -4.45000790E-04  9.76835060E-01 -9.18506438E-03  4.34646824E-02
  1.47585772E-04 -1.89317222E-03  2.13517234E-03  5.39338657E-04  1.70756579E-04
 -2.12858670E-03 -6.15007084E-04 -1.56524627E-04 -3.96376503E-05  7.46299200E-04
 -6.79607088E-05 -3.40011318E-07 -3.66959449E-04  1.41059356E-06  3.11974236E-05
  1.13335463E-06 -2.74321189E-06  3.79718640E-05 -8.99312212E-05  7.56743269E-04
 -7.42437224E-05  5.53608466E-05  2.75630999E-04 -3.08190368E-04 -2.39818370E-04
  7.04638979E-07  2.93427234E-05  1.11062195E-04  3.16059727E-04  5.47015399E-06
  6.34198995E-05  4.89904397E-05 -3.73464714E-06  3.15149147E-07  4.62330267E-05