title                                                                   
Freq      RMP2-FC                                                     Aug-CC-pVTZ         
Number of atoms                            I                5
Info1-9                                    I   N=           9
          33          24           0           0           0         100
           6           2           1
Full Title                                 C   N=           1
title       
Route                                      C   N=           4
#p freq mp2/aug-cc-pvtz density=current         
Charge                                     I                0
Multiplicity                               I                1
Number of electrons                        I               32
Number of alpha electrons                  I               16
Number of beta electrons                   I               16
Number of basis functions                  I              207
Number of independent functions            I              207
Number of point charges in /Mol/           I                0
Number of translation vectors              I                0
Atomic numbers                             I   N=           5
           1           8           8           7           8
Nuclear charges                            R   N=           5
  1.00000000E+00  8.00000000E+00  8.00000000E+00  7.00000000E+00  8.00000000E+00
Current cartesian coordinates              R   N=          15
 -1.03474846E+00 -2.14591335E+00  2.08401019E-01 -2.41257916E+00 -9.15032107E-01
 -2.37636923E-02 -1.02514040E+00  1.39652155E+00  6.44509446E-03  1.56041553E+00
  1.04077579E+00  8.10005033E-03  2.20169953E+00 -1.12392910E+00 -1.58190735E-02
Number of symbols in /Mol/                 I                0
Force Field                                I                0
Atom Types                                 C   N=           5
                                                            
Int Atom Types                             I   N=           5
           0           0           0           0           0
MM charges                                 R   N=           5
  0.00000000E+00  0.00000000E+00  0.00000000E+00  0.00000000E+00  0.00000000E+00
Integer atomic weights                     I   N=           5
           1          16          16          14          16
Real atomic weights                        R   N=           5
  1.00782504E+00  1.59949146E+01  1.59949146E+01  1.40030740E+01  1.59949146E+01
Atom fragment info                         I   N=           5
           0           0           0           0           0
Atom residue num                           I   N=           5
           0           0           0           0           0
Nuclear spins                              I   N=           5
           1           0           0           2           0
Nuclear ZEff                               R   N=           5
 -1.00000000E+00 -5.60000000E+00 -5.60000000E+00 -4.55000000E+00 -5.60000000E+00
Nuclear ZNuc                               R   N=           5
  1.00000000E+00  8.00000000E+00  8.00000000E+00  7.00000000E+00  8.00000000E+00
Nuclear QMom                               R   N=           5
  0.00000000E+00  0.00000000E+00  0.00000000E+00  2.04400000E+00  0.00000000E+00
Nuclear GFac                               R   N=           5
  2.79284600E+00  0.00000000E+00  0.00000000E+00  4.03761000E-01  0.00000000E+00
MicOpt                                     I   N=           5
          -1          -1          -1          -1          -1
Number of residues                         I                0
Number of secondary structures             I                0
SymInf integers                            I   N=          26
           1           1           1           1           1           0
           0           0           0           0           0           0
           0           0           0           0           0           0
           0           0           0           0           0           0
           0           0
RotTr to input orientation                 R   N=          12
  6.62546464E-01  1.16299003E-01 -7.39936973E-01  7.48211340E-01 -5.68462385E-02
  6.61020647E-01  3.48134088E-02 -9.91586127E-01 -1.24679508E-01  2.28391049E+00
  2.05000671E-01  6.78827728E-01
Number of contracted shells                I               65
Number of primitive shells                 I              119
Pure/Cartesian d shells                    I                0
Pure/Cartesian f shells                    I                0
Highest angular momentum                   I                3
Largest degree of contraction              I                7
Shell types                                I   N=          65
           0           0           0           0           1           1
           1          -2          -2           0           0           0
           0           0           1           1           1           1
          -2          -2          -2          -3          -3           0
           0           0           0           0           1           1
           1           1          -2          -2          -2          -3
          -3           0           0           0           0           0
           1           1           1           1          -2          -2
          -2          -3          -3           0           0           0
           0           0           1           1           1           1
          -2          -2          -2          -3          -3
Number of primitives per shell             I   N=          65
           3           1           1           1           1           1
           1           1           1           7           6           1
           1           1           3           1           1           1
           1           1           1           1           1           7
           6           1           1           1           3           1
           1           1           1           1           1           1
           1           7           6           1           1           1
           3           1           1           1           1           1
           1           1           1           7           6           1
           1           1           3           1           1           1
           1           1           1           1           1
Shell to atom map                          I   N=          65
           1           1           1           1           1           1
           1           1           1           2           2           2
           2           2           2           2           2           2
           2           2           2           2           2           3
           3           3           3           3           3           3
           3           3           3           3           3           3
           3           4           4           4           4           4
           4           4           4           4           4           4
           4           4           4           5           5           5
           5           5           5           5           5           5
           5           5           5           5           5
Primitive exponents                        R   N=         119
  3.38700000E+01  5.09500000E+00  1.15900000E+00  3.25800000E-01  1.02700000E-01
  2.52600000E-02  1.40700000E+00  3.88000000E-01  1.02000000E-01  1.05700000E+00
  2.47000000E-01  1.53300000E+04  2.29900000E+03  5.22400000E+02  1.47300000E+02
  4.75500000E+01  1.67600000E+01  6.20700000E+00  5.22400000E+02  1.47300000E+02
  4.75500000E+01  1.67600000E+01  6.20700000E+00  6.88200000E-01  1.75200000E+00
  2.38400000E-01  7.37600000E-02  3.44600000E+01  7.74900000E+00  2.28000000E+00
  7.15600000E-01  2.14000000E-01  5.97400000E-02  2.31400000E+00  6.45000000E-01
  2.14000000E-01  1.42800000E+00  5.00000000E-01  1.53300000E+04  2.29900000E+03
  5.22400000E+02  1.47300000E+02  4.75500000E+01  1.67600000E+01  6.20700000E+00
  5.22400000E+02  1.47300000E+02  4.75500000E+01  1.67600000E+01  6.20700000E+00
  6.88200000E-01  1.75200000E+00  2.38400000E-01  7.37600000E-02  3.44600000E+01
  7.74900000E+00  2.28000000E+00  7.15600000E-01  2.14000000E-01  5.97400000E-02
  2.31400000E+00  6.45000000E-01  2.14000000E-01  1.42800000E+00  5.00000000E-01
  1.14200000E+04  1.71200000E+03  3.89300000E+02  1.10000000E+02  3.55700000E+01
  1.25400000E+01  4.64400000E+00  3.89300000E+02  1.10000000E+02  3.55700000E+01
  1.25400000E+01  4.64400000E+00  5.11800000E-01  1.29300000E+00  1.78700000E-01
  5.76000000E-02  2.66300000E+01  5.94800000E+00  1.74200000E+00  5.55000000E-01
  1.72500000E-01  4.91000000E-02  1.65400000E+00  4.69000000E-01  1.51000000E-01
  1.09300000E+00  3.64000000E-01  1.53300000E+04  2.29900000E+03  5.22400000E+02
  1.47300000E+02  4.75500000E+01  1.67600000E+01  6.20700000E+00  5.22400000E+02
  1.47300000E+02  4.75500000E+01  1.67600000E+01  6.20700000E+00  6.88200000E-01
  1.75200000E+00  2.38400000E-01  7.37600000E-02  3.44600000E+01  7.74900000E+00
  2.28000000E+00  7.15600000E-01  2.14000000E-01  5.97400000E-02  2.31400000E+00
  6.45000000E-01  2.14000000E-01  1.42800000E+00  5.00000000E-01
Contraction coefficients                   R   N=         119
  2.54948632E-02  1.90362766E-01  8.52162022E-01  1.00000000E+00  1.00000000E+00
  1.00000000E+00  1.00000000E+00  1.00000000E+00  1.00000000E+00  1.00000000E+00
  1.00000000E+00  5.19808943E-04  4.02025621E-03  2.07128267E-02  8.10105536E-02
  2.35962985E-01  4.42653446E-01  3.57064423E-01 -4.42115008E-05 -1.22591041E-03
 -1.05517725E-02 -6.74452633E-02 -1.71198607E-01  1.07329856E+00  1.00000000E+00
  1.00000000E+00  1.00000000E+00  4.11634896E-02  2.57762836E-01  8.02419274E-01
  1.00000000E+00  1.00000000E+00  1.00000000E+00  1.00000000E+00  1.00000000E+00
  1.00000000E+00  1.00000000E+00  1.00000000E+00  5.19808943E-04  4.02025621E-03
  2.07128267E-02  8.10105536E-02  2.35962985E-01  4.42653446E-01  3.57064423E-01
 -4.42115008E-05 -1.22591041E-03 -1.05517725E-02 -6.74452633E-02 -1.71198607E-01
  1.07329856E+00  1.00000000E+00  1.00000000E+00  1.00000000E+00  4.11634896E-02
  2.57762836E-01  8.02419274E-01  1.00000000E+00  1.00000000E+00  1.00000000E+00
  1.00000000E+00  1.00000000E+00  1.00000000E+00  1.00000000E+00  1.00000000E+00
  5.34563860E-04  4.13435660E-03  2.12335358E-02  8.25006224E-02  2.38138871E-01
  4.42551547E-01  3.53757422E-01 -4.89867350E-05 -1.19527323E-03 -1.03490714E-02
 -6.48680190E-02 -1.71552477E-01  1.07289568E+00  1.00000000E+00  1.00000000E+00
  1.00000000E+00  3.98072123E-02  2.49002660E-01  8.10479727E-01  1.00000000E+00
  1.00000000E+00  1.00000000E+00  1.00000000E+00  1.00000000E+00  1.00000000E+00
  1.00000000E+00  1.00000000E+00  5.19808943E-04  4.02025621E-03  2.07128267E-02
  8.10105536E-02  2.35962985E-01  4.42653446E-01  3.57064423E-01 -4.42115008E-05
 -1.22591041E-03 -1.05517725E-02 -6.74452633E-02 -1.71198607E-01  1.07329856E+00
  1.00000000E+00  1.00000000E+00  1.00000000E+00  4.11634896E-02  2.57762836E-01
  8.02419274E-01  1.00000000E+00  1.00000000E+00  1.00000000E+00  1.00000000E+00
  1.00000000E+00  1.00000000E+00  1.00000000E+00  1.00000000E+00
Coordinates of each shell                  R   N=         195
 -1.03474846E+00 -2.14591335E+00  2.08401019E-01 -1.03474846E+00 -2.14591335E+00
  2.08401019E-01 -1.03474846E+00 -2.14591335E+00  2.08401019E-01 -1.03474846E+00
 -2.14591335E+00  2.08401019E-01 -1.03474846E+00 -2.14591335E+00  2.08401019E-01
 -1.03474846E+00 -2.14591335E+00  2.08401019E-01 -1.03474846E+00 -2.14591335E+00
  2.08401019E-01 -1.03474846E+00 -2.14591335E+00  2.08401019E-01 -1.03474846E+00
 -2.14591335E+00  2.08401019E-01 -2.41257916E+00 -9.15032107E-01 -2.37636923E-02
 -2.41257916E+00 -9.15032107E-01 -2.37636923E-02 -2.41257916E+00 -9.15032107E-01
 -2.37636923E-02 -2.41257916E+00 -9.15032107E-01 -2.37636923E-02 -2.41257916E+00
 -9.15032107E-01 -2.37636923E-02 -2.41257916E+00 -9.15032107E-01 -2.37636923E-02
 -2.41257916E+00 -9.15032107E-01 -2.37636923E-02 -2.41257916E+00 -9.15032107E-01
 -2.37636923E-02 -2.41257916E+00 -9.15032107E-01 -2.37636923E-02 -2.41257916E+00
 -9.15032107E-01 -2.37636923E-02 -2.41257916E+00 -9.15032107E-01 -2.37636923E-02
 -2.41257916E+00 -9.15032107E-01 -2.37636923E-02 -2.41257916E+00 -9.15032107E-01
 -2.37636923E-02 -2.41257916E+00 -9.15032107E-01 -2.37636923E-02 -1.02514040E+00
  1.39652155E+00  6.44509446E-03 -1.02514040E+00  1.39652155E+00  6.44509446E-03
 -1.02514040E+00  1.39652155E+00  6.44509446E-03 -1.02514040E+00  1.39652155E+00
  6.44509446E-03 -1.02514040E+00  1.39652155E+00  6.44509446E-03 -1.02514040E+00
  1.39652155E+00  6.44509446E-03 -1.02514040E+00  1.39652155E+00  6.44509446E-03
 -1.02514040E+00  1.39652155E+00  6.44509446E-03 -1.02514040E+00  1.39652155E+00
  6.44509446E-03 -1.02514040E+00  1.39652155E+00  6.44509446E-03 -1.02514040E+00
  1.39652155E+00  6.44509446E-03 -1.02514040E+00  1.39652155E+00  6.44509446E-03
 -1.02514040E+00  1.39652155E+00  6.44509446E-03 -1.02514040E+00  1.39652155E+00
  6.44509446E-03  1.56041553E+00  1.04077579E+00  8.10005033E-03  1.56041553E+00
  1.04077579E+00  8.10005033E-03  1.56041553E+00  1.04077579E+00  8.10005033E-03
  1.56041553E+00  1.04077579E+00  8.10005033E-03  1.56041553E+00  1.04077579E+00
  8.10005033E-03  1.56041553E+00  1.04077579E+00  8.10005033E-03  1.56041553E+00
  1.04077579E+00  8.10005033E-03  1.56041553E+00  1.04077579E+00  8.10005033E-03
  1.56041553E+00  1.04077579E+00  8.10005033E-03  1.56041553E+00  1.04077579E+00
  8.10005033E-03  1.56041553E+00  1.04077579E+00  8.10005033E-03  1.56041553E+00
  1.04077579E+00  8.10005033E-03  1.56041553E+00  1.04077579E+00  8.10005033E-03
  1.56041553E+00  1.04077579E+00  8.10005033E-03  2.20169953E+00 -1.12392910E+00
 -1.58190735E-02  2.20169953E+00 -1.12392910E+00 -1.58190735E-02  2.20169953E+00
 -1.12392910E+00 -1.58190735E-02  2.20169953E+00 -1.12392910E+00 -1.58190735E-02
  2.20169953E+00 -1.12392910E+00 -1.58190735E-02  2.20169953E+00 -1.12392910E+00
 -1.58190735E-02  2.20169953E+00 -1.12392910E+00 -1.58190735E-02  2.20169953E+00
 -1.12392910E+00 -1.58190735E-02  2.20169953E+00 -1.12392910E+00 -1.58190735E-02
  2.20169953E+00 -1.12392910E+00 -1.58190735E-02  2.20169953E+00 -1.12392910E+00
 -1.58190735E-02  2.20169953E+00 -1.12392910E+00 -1.58190735E-02  2.20169953E+00
 -1.12392910E+00 -1.58190735E-02  2.20169953E+00 -1.12392910E+00 -1.58190735E-02
Num ILSW                                   I              100
ILSW                                       I   N=         100
           0           0           0           0           2           0
           0           0           0           0           0          -1
           5           0           0           0           2           0
           0           0           0           0           1           0
           1           0           0           0           0           0
           0           0      100000           0          -1           0
           0           0           0           0           0           0
           0           0           0           1           1           0
           0 -2000000000           1           0           0           0
           0           0           4          52           0           0
           0           0           0           0           0           0
           0           0           0           5           4           1
           0           0           0           0           0           0
           0           0           0           0           0           0
           0           0           0           0           0           0
           0           0           0           0           0           0
           0           0           0           0
Num RLSW                                   I               52
RLSW                                       R   N=          52
  1.00000000E+00  1.00000000E+00  1.00000000E+00  1.00000000E+00  1.00000000E+00
  0.00000000E+00  0.00000000E+00  1.00000000E+00  0.00000000E+00  0.00000000E+00
  0.00000000E+00  0.00000000E+00  1.00000000E+00  0.00000000E+00  0.00000000E+00
  0.00000000E+00  0.00000000E+00  1.00000000E+00  0.00000000E+00  0.00000000E+00
  0.00000000E+00  0.00000000E+00  1.00000000E+00  0.00000000E+00  0.00000000E+00
  0.00000000E+00  0.00000000E+00  1.00000000E+00  0.00000000E+00  0.00000000E+00
  0.00000000E+00  0.00000000E+00  1.00000000E+00  0.00000000E+00  0.00000000E+00
  0.00000000E+00  0.00000000E+00  0.00000000E+00  1.00000000E+00  1.00000000E+00
  0.00000000E+00  1.00000000E+00  0.00000000E+00  0.00000000E+00  0.00000000E+00
  0.00000000E+00  0.00000000E+00  0.00000000E+00  0.00000000E+00  0.00000000E+00
  0.00000000E+00  0.00000000E+00
MxBond                                     I                2
NBond                                      I   N=           5
           1           2           2           2           1
IBond                                      I   N=          10
           2           0           1           3           2           4
           3           5           4           0
RBond                                      R   N=          10
  1.00000000E+00  0.00000000E+00  1.00000000E+00  1.00000000E+00  1.00000000E+00
  1.00000000E+00  1.00000000E+00  2.00000000E+00  2.00000000E+00  0.00000000E+00
Virial Ratio                               R      2.002229466476688E+00
SCF Energy                                 R     -2.795063369511060E+02
MP2 Energy                                 R     -2.804550622407402E+02
Total Energy                               R     -2.804550622407402E+02
Post-SCF wavefunction norm                 R      1.583713658512324E+00
RMS Force                                  R      8.465851120214496E-04
RMS Density                                R      6.905415146610548E-09
NImag                                      I                0
Job Status                                 I                1
Nuclear derivative order                   I                2
External E-field                           R   N=          35
  0.00000000E+00  0.00000000E+00  0.00000000E+00  0.00000000E+00  0.00000000E+00
  0.00000000E+00  0.00000000E+00  0.00000000E+00  0.00000000E+00  0.00000000E+00
  0.00000000E+00  0.00000000E+00  0.00000000E+00  0.00000000E+00  0.00000000E+00
  0.00000000E+00  0.00000000E+00  0.00000000E+00  0.00000000E+00  0.00000000E+00
  0.00000000E+00  0.00000000E+00  0.00000000E+00  0.00000000E+00  0.00000000E+00
  0.00000000E+00  0.00000000E+00  0.00000000E+00  0.00000000E+00  0.00000000E+00
  0.00000000E+00  0.00000000E+00  0.00000000E+00  0.00000000E+00  0.00000000E+00
IOpCl                                      I                0
IROHF                                      I                0
Alpha Orbital Energies                     R   N=         207
 -2.07196578E+01 -2.06868418E+01 -2.06685611E+01 -1.58256562E+01 -1.64389921E+00
 -1.50507274E+00 -1.29368955E+00 -9.60143190E-01 -8.33862316E-01 -7.58678016E-01
 -7.40124606E-01 -6.38472566E-01 -6.19276808E-01 -6.16288195E-01 -5.04441088E-01
 -4.97635407E-01  3.49478432E-02  6.05216547E-02  9.51179509E-02  1.00417119E-01
  1.18947067E-01  1.22656863E-01  1.49989123E-01  1.51847718E-01  1.76607350E-01
  1.81262877E-01  1.89012396E-01  2.11996842E-01  2.16944089E-01  2.42246903E-01
  2.46218387E-01  2.68899523E-01  3.02176480E-01  3.26741121E-01  3.38408235E-01
  3.43977872E-01  3.47267735E-01  3.92700688E-01  4.43122684E-01  4.85850742E-01
  5.09536346E-01  5.18592780E-01  5.44514285E-01  5.61736965E-01  5.98606256E-01
  6.20487710E-01  6.37481842E-01  6.89902339E-01  7.11864436E-01  7.28683295E-01
  7.43314059E-01  7.60291012E-01  7.71354841E-01  7.91048132E-01  8.06133977E-01
  8.40261299E-01  8.44846529E-01  8.54165146E-01  8.89301573E-01  9.06867239E-01
  9.28565007E-01  9.53570719E-01  9.54055888E-01  1.01715963E+00  1.03513430E+00
  1.05642215E+00  1.06421222E+00  1.09677559E+00  1.13979220E+00  1.15549525E+00
  1.17183765E+00  1.21436611E+00  1.23394990E+00  1.24690134E+00  1.34690778E+00
  1.36070298E+00  1.36922365E+00  1.46019786E+00  1.49822902E+00  1.50751844E+00
  1.53552005E+00  1.57779237E+00  1.60189752E+00  1.61852737E+00  1.63052775E+00
  1.69443114E+00  1.73763357E+00  1.80269384E+00  1.82897347E+00  1.89025797E+00
  1.89397143E+00  1.92927798E+00  1.97551201E+00  1.99547397E+00  2.05028355E+00
  2.12250898E+00  2.12810421E+00  2.16993309E+00  2.19048095E+00  2.24099099E+00
  2.26270430E+00  2.29882784E+00  2.35007054E+00  2.36457079E+00  2.38892282E+00
  2.40028791E+00  2.43117706E+00  2.46491875E+00  2.48258742E+00  2.52655953E+00
  2.53301778E+00  2.54916997E+00  2.56611633E+00  2.61578615E+00  2.63054089E+00
  2.66084284E+00  2.67367414E+00  2.75348288E+00  2.80837078E+00  2.82030924E+00
  2.84730099E+00  2.91809448E+00  2.98243449E+00  3.04258995E+00  3.05196801E+00
  3.11089949E+00  3.12374441E+00  3.16722971E+00  3.21007417E+00  3.30253866E+00
  3.33636490E+00  3.36019620E+00  3.47504452E+00  3.67826253E+00  3.86096614E+00
  3.93050156E+00  4.16213623E+00  4.22053704E+00  4.24276246E+00  4.27992842E+00
  4.37524191E+00  4.49954802E+00  4.51857542E+00  4.55449551E+00  4.60664743E+00
  4.69400852E+00  4.80967386E+00  4.89482485E+00  4.92024029E+00  4.94516539E+00
  4.99507045E+00  5.00790866E+00  5.10507518E+00  5.13130823E+00  5.18420104E+00
  5.24952318E+00  5.26048278E+00  5.31503178E+00  5.34156922E+00  5.35727770E+00
  5.54792378E+00  5.64458742E+00  5.70435307E+00  5.88898828E+00  5.99621813E+00
  6.26876143E+00  6.29672619E+00  6.35746619E+00  6.37600199E+00  6.60120653E+00
  6.65210555E+00  6.66990230E+00  6.69247624E+00  6.72547304E+00  6.77878229E+00
  6.81254851E+00  6.85790057E+00  6.96536732E+00  7.01555019E+00  7.06933493E+00
  7.08638220E+00  7.14002513E+00  7.16795796E+00  7.18037927E+00  7.20221509E+00
  7.24506248E+00  7.24930534E+00  7.27532392E+00  7.34914936E+00  7.39408211E+00
  7.42532480E+00  7.44401295E+00  7.46059298E+00  7.56057545E+00  7.65953459E+00
  7.66453919E+00  7.79800375E+00  7.88423189E+00  7.95107722E+00  8.04879942E+00
  8.30539553E+00  8.49517680E+00  8.64995637E+00  1.36185860E+01  1.47643752E+01
  1.50839418E+01  1.57511356E+01
Alpha MO coefficients                      R   N=       42849
  6.51364480E-05 -8.33767144E-05 -1.02468281E-03  1.16533844E-05  1.63160362E-05
  6.38215112E-05  5.89788666E-06  2.41057989E-04 -2.03011794E-04 -1.53466603E-05
  2.05375849E-04 -2.64057313E-04 -2.72326440E-05  4.42446388E-05 -8.70647035E-06
 -6.11381113E-06  6.31868740E-06 -2.74076824E-05  2.17453906E-04 -4.70011831E-05
 -2.19623664E-05 -1.88592127E-04  2.45045067E-05  3.09587820E-03 -9.92441023E-05
 -9.83331483E-05  3.54587017E-03  2.43669647E-03 -5.11750290E-05 -1.03805838E-04
 -3.42273576E-06  4.18751670E-04  6.62018423E-04  2.65574677E-05  9.80809893E-04
  2.06143831E-03  1.07009795E-04  4.01866787E-04  3.48778826E-04  3.72283039E-05
  2.00632011E-05 -2.28342095E-06  9.68694988E-07  3.89674976E-05 -2.17043056E-05
 -4.41488751E-04  2.07569275E-05  4.92835938E-06 -5.00428431E-04  6.05388353E-04
 -3.67535280E-04  2.02646656E-05  1.16756776E-05 -5.17563793E-04  7.34466790E-04
  5.16759320E-07 -2.88935182E-05 -8.57226167E-05 -2.62886835E-06  2.43052604E-06
 -1.11736465E-04 -8.91105165E-06 -1.87868584E-05 -1.37433746E-04 -1.64478264E-04
 -3.17489086E-06  1.35038621E-05 -3.35774848E-04  6.15185600E-05  9.76903599E-01
 -9.17335122E-03  4.34075831E-02  4.83410318E-04 -2.20041362E-03  9.07632589E-04
 -1.99757380E-03 -1.59760069E-05 -1.07561669E-03  2.00603144E-03  1.20075479E-05
  2.13388617E-03  9.91184846E-04  3.56217235E-05  1.18654840E-04  2.05208200E-04
  1.73216508E-06  7.12559694E-06 -3.43583610E-07 -6.69135613E-07  3.46957280E-05
 -1.62901338E-05  8.27869930E-04 -4.55124765E-06 -9.71049299E-06 -3.05735642E-04
 -4.01095788E-04 -1.39952116E-04  9.40345576E-06 -6.94674598E-06  1.80352194E-04
 -6.21002179E-04  8.95415267E-08  5.21251632E-05 -6.00512054E-05 -4.76155847E-07
  6.52370908E-07 -4.85935232E-05 -7.11050415E-06 -6.13721866E-06 -7.49099174E-05
 -5.44895617E-05 -1.53448281E-06  3.21350782E-06 -4.67259106E-04  1.95315100E-04
  1.04516081E-04  4.58455862E-04 -3.23412641E-04 -8.16660678E-04  3.84732112E-04
  9.46974649E-05 -5.45909120E-05  1.06871221E-06 -1.21875568E-03  4.81802765E-04
 -2.32730997E-06  1.01263403E-03 -8.35966570E-05 -8.92839686E-06 -2.86429036E-04
  5.31911017E-05  3.85479658E-07 -5.24007950E-05 -4.97225532E-07 -4.81050180E-07
  9.44252248E-05 -9.05929339E-06 -4.16200325E-04  8.07396639E-06 -2.72197745E-06
  1.04547608E-03 -2.88842807E-04  2.36228099E-05  6.92654005E-06 -4.50545486E-06
 -6.31261936E-05 -3.13915590E-04  5.65691101E-07  1.30673066E-04 -4.53797318E-05
 -1.21286907E-06 -1.64088125E-06 -1.31852244E-04  5.67685801E-05  3.27594134E-06
  7.25324501E-05  1.12033583E-04 -4.72878869E-06  4.53258395E-06 -4.91203094E-04
 -1.83173489E-04 -6.99311791E-04  4.91763779E-05 -6.99199111E-05  1.75723548E-04
 -2.15584031E-04  4.73760183E-05 -1.61310476E-05  1.30464092E-06 -2.84684023E-04
  1.03073454E-04 -7.35465694E-06 -6.07543496E-04 -4.68545776E-05  4.53691339E-05
  2.17703607E-04  7.14974153E-05  4.81156553E-06 -1.32631218E-05  1.14929400E-06
  4.05895346E-07  1.57085006E-05 -8.74794597E-07 -9.28454514E-07 -4.33717717E-06
 -7.80478025E-07 -3.99362357E-05 -1.62555142E-04 -1.48734314E-05 -4.28402509E-05
 -1.42304307E-05 -8.82911293E-05 -1.60882392E-04  3.50706612E-06  1.09863658E-05
 -3.32430305E-06 -3.22806287E-06 -2.44501581E-06 -1.51918911E-05  1.69139863E-05
 -1.22397116E-05 -7.13066778E-05  2.35878762E-05  1.15045280E-05  6.93106485E-06
  1.47847856E-04 -1.12017711E-04  4.07542995E-05  8.14469141E-05 -1.78346482E-04
 -3.21709980E-05 -1.93877866E-05 -1.45869831E-06 -1.07929240E-06 -2.24263499E-04
 -7.62446951E-05 -6.30161415E-06 -1.01622367E-04 -5.90771864E-05  1.40774688E-05
  1.40493912E-05  6.24102869E-06  3.29825193E-06  7.58059192E-06 -1.87287968E-05
  3.10070645E-05 -2.49825414E-06  2.12459734E-06  1.25726636E-05 -1.12573746E-04
 -2.65722061E-04  2.63784949E-05 -1.57148334E-05 -5.54835761E-04  1.93654231E-04
 -1.37555181E-05  6.95831975E-06  1.29910445E-06  2.33686802E-05 -3.44218923E-05
 -9.69481986E-06 -2.55956330E-04 -1.93173766E-05 -1.89478893E-05  1.53598914E-05
  5.88676999E-05 -4.06534897E-06 -1.24366206E-06 -8.60750563E-07 -1.15276715E-06
 -1.27388521E-05 -4.57907600E-06  2.04588566E-05 -9.82886460E-09  7.51440505E-06
  1.12531688E-04  1.61679376E-05  6.05426232E-05  1.48535611E-06  1.00676562E-05
 -1.02698971E-04 -1.73769445E-06  2.14456514E-06 -1.25310797E-05  3.43865305E-06
 -1.87534908E-06  4.22820880E-07  2.29857788E-05  8.83767058E-06 -5.26800907E-06
  3.33735332E-05 -1.83809514E-05  1.05524974E-05  5.38856075E-06  1.21192273E-05
  1.26885885E-05  7.27825745E-04  2.25138483E-05 -1.84924369E-05  2.81864729E-04
 -4.04719060E-04 -2.94312323E-05  1.17023467E-05  7.01472817E-07  1.44359762E-04
 -8.14380315E-05 -3.35397553E-06 -1.75610516E-05 -2.60706352E-04  1.40174062E-05
  3.65357028E-05  2.08673320E-04  7.78399323E-06 -4.02565854E-06 -8.92208178E-07
 -2.64426250E-07 -1.81228103E-05 -2.50570871E-05 -5.06249287E-05  4.29446063E-06
  2.58282982E-06  1.40123997E-04  3.83220668E-05 -6.32359060E-05  1.08397893E-05
 -3.72169809E-06  2.80591157E-05  3.40180151E-05  1.12660631E-06 -4.71534755E-06
  8.12184982E-07  3.53533606E-07  1.63720820E-07 -4.66674864E-07  8.18714565E-06
 -3.93593778E-06  1.33630963E-05 -2.21358253E-05  3.46614954E-06 -4.57367668E-06
  1.75407297E-04 -4.07935440E-05  2.37497378E-04  1.35987103E-03 -1.47891529E-04
 -6.25382896E-04  9.16743250E-04 -9.03630128E-06 -9.45914602E-05 -2.58618273E-07
  7.71380450E-04 -2.01914461E-03 -2.42249466E-05 -4.01568160E-04  3.13433547E-04
 -1.89321704E-05  3.03653361E-05 -3.57908764E-04 -3.81963298E-06 -1.27600100E-04
 -2.15537242E-06  4.48400662E-06 -2.12431717E-04 -1.46968972E-04 -4.63345334E-04
  4.00145878E-06  1.93759512E-05 -1.05762397E-03 -3.03588006E-04 -4.46629572E-05
  8.27038516E-06  1.62521414E-06  1.27136318E-04  2.68445372E-05  8.23279358E-07
 -2.86802215E-05  2.49028006E-05  6.28700936E-07 -1.04438087E-06 -4.42145636E-06
  2.47557268E-05  7.06770851E-06  1.56739031E-05  2.07642426E-04  3.45646870E-06
  2.15996843E-06 -7.02127323E-05  3.08789364E-04  9.76646211E-01 -9.88689803E-03
  4.35755463E-02  3.66573669E-03 -9.02358631E-04 -8.97257506E-04  1.98526429E-03
  3.22533156E-05  1.06922503E-03 -2.32501549E-03 -3.54388437E-05 -4.26346390E-04
  6.75132341E-04  3.57092506E-05 -4.48194695E-05 -1.14780195E-04 -9.70684402E-07
 -1.94413575E-04  1.53218143E-06  5.57210004E-06 -6.37053870E-05 -5.75964784E-05
  4.09703612E-04  6.53115633E-06 -1.91912283E-05  7.19813907E-04  6.74341026E-04
 -2.06288138E-04 -1.94065739E-05  8.54176650E-06 -7.16322366E-05 -1.13651472E-04
  3.65616105E-06 -3.78421030E-05  5.93912101E-05 -8.39882255E-07  6.98560099E-07
 -1.95475024E-05  2.47348773E-05 -4.74277710E-06  1.71589056E-05  1.27310640E-04
  1.37636990E-05  6.12650509E-06 -2.46878641E-04  9.00683312E-05  3.77100215E-04
  1.97200782E-03  1.31522251E-03 -1.41191130E-05 -2.00253809E-04  1.86391706E-04
 -2.84990488E-05 -8.96606446E-04  5.87509267E-04 -1.54399468E-04 -5.30263568E-05
  2.44615586E-04 -5.62494886E-05 -2.27428862E-05 -4.04485014E-06 -1.19571675E-06
 -1.70265261E-05  3.95751269E-05 -2.05325014E-04  5.58741754E-05 -6.05551010E-05
  2.80024711E-04 -4.40265856E-04  9.76835425E-01 -9.18395235E-03  4.34642364E-02
  1.55009312E-04 -1.88286534E-03  2.13120101E-03  5.40491704E-04  2.15740163E-04
 -2.12492273E-03 -6.17193854E-04 -1.97517162E-04 -2.81671990E-05  7.37830578E-04
 -8.38663120E-05  1.90033984E-06 -3.62792463E-04  1.48475492E-06  3.14766987E-05
  1.39985541E-06 -3.42114499E-06  3.78798748E-05 -8.98976106E-05  7.51235375E-04
 -9.33157071E-05  6.96428374E-05  2.76513087E-04 -3.10237149E-04 -2.40840654E-04
  1.76844126E-06  3.72564561E-05  1.16416601E-04  3.13967413E-04  6.90623258E-06
  6.30466542E-05  4.89615115E-05 -4.68350550E-06  3.96151307E-07  4.61594516E-05