 Entering Gaussian System, Link 0=g16
 Input=hoono_d1_175p6121.gjf
 Output=hoono_d1_175p6121.log
 Initial command:
 /sw/contrib/gaussian/g16/B01/g16/l1.exe "/scr/Gau-2940.inp" -scrdir="/scr/"
 Entering Link 1 = /sw/contrib/gaussian/g16/B01/g16/l1.exe PID=      2941.
  
 Copyright (c) 1988-2017, Gaussian, Inc.  All Rights Reserved.
  
 This is part of the Gaussian(R) 16 program.  It is based on
 the Gaussian(R) 09 system (copyright 2009, Gaussian, Inc.),
 the Gaussian(R) 03 system (copyright 2003, Gaussian, Inc.),
 the Gaussian(R) 98 system (copyright 1998, Gaussian, Inc.),
 the Gaussian(R) 94 system (copyright 1995, Gaussian, Inc.),
 the Gaussian 92(TM) system (copyright 1992, Gaussian, Inc.),
 the Gaussian 90(TM) system (copyright 1990, Gaussian, Inc.),
 the Gaussian 88(TM) system (copyright 1988, Gaussian, Inc.),
 the Gaussian 86(TM) system (copyright 1986, Carnegie Mellon
 University), and the Gaussian 82(TM) system (copyright 1983,
 Carnegie Mellon University). Gaussian is a federally registered
 trademark of Gaussian, Inc.
  
 This software contains proprietary and confidential information,
 including trade secrets, belonging to Gaussian, Inc.
  
 This software is provided under written license and may be
 used, copied, transmitted, or stored only in accord with that
 written license.
  
 The following legend is applicable only to US Government
 contracts under FAR:
  
                    RESTRICTED RIGHTS LEGEND
  
 Use, reproduction and disclosure by the US Government is
 subject to restrictions as set forth in subparagraphs (a)
 and (c) of the Commercial Computer Software - Restricted
 Rights clause in FAR 52.227-19.
  
 Gaussian, Inc.
 340 Quinnipiac St., Bldg. 40, Wallingford CT 06492
  
  
 ---------------------------------------------------------------
 Warning -- This program may not be used in any manner that
 competes with the business of Gaussian, Inc. or will provide
 assistance to any competitor of Gaussian, Inc.  The licensee
 of this program is prohibited from giving any competitor of
 Gaussian, Inc. access to this program.  By using this program,
 the user acknowledges that Gaussian, Inc. is engaged in the
 business of creating and licensing software in the field of
 computational chemistry and represents and warrants to the
 licensee that it is not a competitor of Gaussian, Inc. and that
 it will not use this program in any manner prohibited above.
 ---------------------------------------------------------------
  

 Cite this work as:
 Gaussian 16, Revision B.01,
 M. J. Frisch, G. W. Trucks, H. B. Schlegel, G. E. Scuseria, 
 M. A. Robb, J. R. Cheeseman, G. Scalmani, V. Barone, 
 G. A. Petersson, H. Nakatsuji, X. Li, M. Caricato, A. V. Marenich, 
 J. Bloino, B. G. Janesko, R. Gomperts, B. Mennucci, H. P. Hratchian, 
 J. V. Ortiz, A. F. Izmaylov, J. L. Sonnenberg, D. Williams-Young, 
 F. Ding, F. Lipparini, F. Egidi, J. Goings, B. Peng, A. Petrone, 
 T. Henderson, D. Ranasinghe, V. G. Zakrzewski, J. Gao, N. Rega, 
 G. Zheng, W. Liang, M. Hada, M. Ehara, K. Toyota, R. Fukuda, 
 J. Hasegawa, M. Ishida, T. Nakajima, Y. Honda, O. Kitao, H. Nakai, 
 T. Vreven, K. Throssell, J. A. Montgomery, Jr., J. E. Peralta, 
 F. Ogliaro, M. J. Bearpark, J. J. Heyd, E. N. Brothers, K. N. Kudin, 
 V. N. Staroverov, T. A. Keith, R. Kobayashi, J. Normand, 
 K. Raghavachari, A. P. Rendell, J. C. Burant, S. S. Iyengar, 
 J. Tomasi, M. Cossi, J. M. Millam, M. Klene, C. Adamo, R. Cammi, 
 J. W. Ochterski, R. L. Martin, K. Morokuma, O. Farkas, 
 J. B. Foresman, and D. J. Fox, Gaussian, Inc., Wallingford CT, 2016.
 
 ******************************************
 Gaussian 16:  ES64L-G16RevB.01 20-Dec-2017
                21-Feb-2022 
 ******************************************
 %nproc=28
 Will use up to   28 processors via shared memory.
 %mem=120GB
 %chk=hoono_d1_175p6121.chk
 ---------------------------------------
 #p freq mp2/aug-cc-pvtz density=current
 ---------------------------------------
 1/10=4,30=1,38=1/1,3;
 2/12=2,17=6,18=5,40=1/2;
 3/5=16,6=1,7=10,11=9,25=1,30=1,71=2,140=1/1,2,3;
 4//1;
 5/5=2,38=5,98=1/2;
 8/6=3,8=1,10=1,19=11,30=-1/1;
 9/15=3,16=-3/6;
 11/6=1,8=1,15=11,17=12,24=-1,27=1,28=-2,29=300,32=6,42=3/1,2,10;
 10/6=2,21=1/2;
 8/6=4,8=1,10=1,19=11,30=-1/11,4;
 10/5=1,20=4/2;
 11/12=2,14=11,16=1,17=2,28=-2,42=3,76=2/2,10,12;
 6/7=2,8=2,9=2,10=2,22=-1/1;
 7/8=1,10=1,12=2,25=1,44=2/1,2,3,16;
 1/10=4,30=1/3;
 99//99;
 Leave Link    1 at Mon Feb 21 21:03:45 2022, MaxMem= 16106127360 cpu:               3.3 elap:               0.1
 (Enter /sw/contrib/gaussian/g16/B01/g16/l101.exe)
 -----
 title
 -----
 Symbolic Z-matrix:
 Charge =  0 Multiplicity = 1
 H
 O                    1    r1
 O                    2    r2       1    a1
 N                    3    r3       2    a2       1    d1       0
 O                    4    r4       3    a3       2    d2       0
       Variables:
  r1                    0.96898                  
  r2                    1.45492                  
  r3                    1.45878                  
  r4                    1.17073                  
  a1                   97.59495                  
  a2                  102.29752                  
  a3                  109.06955                  
  d1                  175.61211                  
  d2                  180.                       
 
 ITRead=  0  0  0  0  0
 MicOpt= -1 -1 -1 -1 -1
 NAtoms=      5 NQM=        5 NQMF=       0 NMMI=      0 NMMIF=      0
                NMic=       0 NMicF=      0.
                    Isotopes and Nuclear Properties:
 (Nuclear quadrupole moments (NQMom) in fm**2, nuclear magnetic moments (NMagM)
  in nuclear magnetons)

  Atom         1           2           3           4           5
 IAtWgt=           1          16          16          14          16
 AtmWgt=   1.0078250  15.9949146  15.9949146  14.0030740  15.9949146
 NucSpn=           1           0           0           2           0
 AtZEff=  -0.0000000  -0.0000000  -0.0000000  -0.0000000  -0.0000000
 NQMom=    0.0000000   0.0000000   0.0000000   2.0440000   0.0000000
 NMagM=    2.7928460   0.0000000   0.0000000   0.4037610   0.0000000
 AtZNuc=   1.0000000   8.0000000   8.0000000   7.0000000   8.0000000
 Leave Link  101 at Mon Feb 21 21:03:45 2022, MaxMem= 16106127360 cpu:               2.5 elap:               0.1
 (Enter /sw/contrib/gaussian/g16/B01/g16/l103.exe)

 GradGradGradGradGradGradGradGradGradGradGradGradGradGradGradGradGradGrad
 Berny optimization.
 Initialization pass.
                       ----------------------------
                       !    Initial Parameters    !
                       ! (Angstroms and Degrees)  !
 ----------------------                            ----------------------
 !      Name          Value   Derivative information (Atomic Units)     !
 ------------------------------------------------------------------------
 !       r1          0.969    calculate D2E/DX2 analytically            !
 !       r2          1.4549   calculate D2E/DX2 analytically            !
 !       r3          1.4588   calculate D2E/DX2 analytically            !
 !       r4          1.1707   calculate D2E/DX2 analytically            !
 !       a1         97.5949   calculate D2E/DX2 analytically            !
 !       a2        102.2975   calculate D2E/DX2 analytically            !
 !       a3        109.0696   calculate D2E/DX2 analytically            !
 !       d1        175.6121   calculate D2E/DX2 analytically            !
 !       d2        180.0      calculate D2E/DX2 analytically            !
 ------------------------------------------------------------------------
 Trust Radius=3.00D-01 FncErr=1.00D-07 GrdErr=1.00D-07 EigMax=2.50D+02 EigMin=1.00D-04
 Number of steps in this run=      2 maximum allowed number of steps=      2.
 GradGradGradGradGradGradGradGradGradGradGradGradGradGradGradGradGradGrad

 Leave Link  103 at Mon Feb 21 21:03:45 2022, MaxMem= 16106127360 cpu:               1.3 elap:               0.1
 (Enter /sw/contrib/gaussian/g16/B01/g16/l202.exe)
                          Input orientation:                          
 ---------------------------------------------------------------------
 Center     Atomic      Atomic             Coordinates (Angstroms)
 Number     Number       Type             X           Y           Z
 ---------------------------------------------------------------------
      1          1           0        0.000000    0.000000    0.000000
      2          8           0        0.000000    0.000000    0.968976
      3          8           0        1.442156    0.000000    1.161271
      4          7           0        1.562304    0.109048    2.611003
      5          8           0        2.696473    0.119610    2.901097
 ---------------------------------------------------------------------
                    Distance matrix (angstroms):
                    1          2          3          4          5
     1  H    0.000000
     2  O    0.968976   0.000000
     3  O    1.851584   1.454919   0.000000
     4  N    3.044671   2.269127   1.458784   0.000000
     5  O    3.962529   3.319392   2.148165   1.170729   0.000000
 Stoichiometry    HNO3
 Framework group  C1[X(HNO3)]
 Deg. of freedom     9
 Full point group                 C1      NOp   1
 Largest Abelian subgroup         C1      NOp   1
 Largest concise Abelian subgroup C1      NOp   1
                         Standard orientation:                         
 ---------------------------------------------------------------------
 Center     Atomic      Atomic             Coordinates (Angstroms)
 Number     Number       Type             X           Y           Z
 ---------------------------------------------------------------------
      1          1           0       -2.247496    0.433155    0.061248
      2          8           0       -1.598917   -0.283659   -0.005359
      3          8           0       -0.400327    0.541065   -0.007211
      4          7           0        0.663567   -0.456973    0.002869
      5          8           0        1.699560    0.088301    0.002404
 ---------------------------------------------------------------------
 Rotational constants (GHZ):          54.9377965           5.0112282           4.5927448
 Leave Link  202 at Mon Feb 21 21:03:45 2022, MaxMem= 16106127360 cpu:               0.8 elap:               0.1
 (Enter /sw/contrib/gaussian/g16/B01/g16/l301.exe)
 Standard basis: Aug-CC-pVTZ (5D, 7F)
 Ernie: Thresh=  0.10000D-02 Tol=  0.10000D-05 Strict=F.
 Ernie:  12 primitive shells out of 131 were deleted.
 There are   245 symmetry adapted cartesian basis functions of A   symmetry.
 There are   207 symmetry adapted basis functions of A   symmetry.
   207 basis functions,   315 primitive gaussians,   245 cartesian basis functions
    16 alpha electrons       16 beta electrons
       nuclear repulsion energy       116.8728371514 Hartrees.
 IExCor=    0 DFT=F Ex=HF Corr=None ExCW=0 ScaHFX=  1.000000
 ScaDFX=  1.000000  1.000000  1.000000  1.000000 ScalE2=  1.000000  1.000000
 IRadAn=      5 IRanWt=     -1 IRanGd=            0 ICorTp=0 IEmpDi=  4
 NAtoms=    5 NActive=    5 NUniq=    5 SFac= 1.00D+00 NAtFMM=   60 NAOKFM=F Big=F
 Integral buffers will be    131072 words long.
 Raffenetti 1 integral format.
 Two-electron integral symmetry is turned on.
 Leave Link  301 at Mon Feb 21 21:03:45 2022, MaxMem= 16106127360 cpu:               1.6 elap:               0.1
 (Enter /sw/contrib/gaussian/g16/B01/g16/l302.exe)
 NPDir=0 NMtPBC=     1 NCelOv=     1 NCel=       1 NClECP=     1 NCelD=      1
         NCelK=      1 NCelE2=     1 NClLst=     1 CellRange=     0.0.
 One-electron integrals computed using PRISM.
 One-electron integral symmetry used in STVInt
 NBasis=   207 RedAO= T EigKep=  1.82D-04  NBF=   207
 NBsUse=   207 1.00D-06 EigRej= -1.00D+00 NBFU=   207
 Leave Link  302 at Mon Feb 21 21:03:45 2022, MaxMem= 16106127360 cpu:               5.4 elap:               0.2
 (Enter /sw/contrib/gaussian/g16/B01/g16/l303.exe)
 DipDrv:  MaxL=1.
 Leave Link  303 at Mon Feb 21 21:03:45 2022, MaxMem= 16106127360 cpu:               1.4 elap:               0.1
 (Enter /sw/contrib/gaussian/g16/B01/g16/l401.exe)
 ExpMin= 2.53D-02 ExpMax= 1.53D+04 ExpMxC= 5.22D+02 IAcc=3 IRadAn=         5 AccDes= 0.00D+00
 Harris functional with IExCor=  205 and IRadAn=       5 diagonalized for initial guess.
 HarFok:  IExCor=  205 AccDes= 0.00D+00 IRadAn=         5 IDoV= 1 UseB2=F ITyADJ=14
 ICtDFT=  3500011 ScaDFX=  1.000000  1.000000  1.000000  1.000000
 FoFCou: FMM=F IPFlag=           0 FMFlag=      100000 FMFlg1=           0
         NFxFlg=           0 DoJE=T BraDBF=F KetDBF=T FulRan=T
         wScrn=  0.000000 ICntrl=       500 IOpCl=  0 I1Cent=   200000004 NGrid=           0
         NMat0=    1 NMatS0=      1 NMatT0=    0 NMatD0=    1 NMtDS0=    0 NMtDT0=    0
 Petite list used in FoFCou.
 Harris En= -279.628713775989    
 JPrj=0 DoOrth=F DoCkMO=F.
 Leave Link  401 at Mon Feb 21 21:03:46 2022, MaxMem= 16106127360 cpu:               7.3 elap:               0.3
 (Enter /sw/contrib/gaussian/g16/B01/g16/l502.exe)
 Keep R1 ints in memory in canonical form, NReq=245616937.
 FoFCou: FMM=F IPFlag=           0 FMFlag=           0 FMFlg1=           0
         NFxFlg=           0 DoJE=F BraDBF=F KetDBF=F FulRan=T
         wScrn=  0.000000 ICntrl=       600 IOpCl=  0 I1Cent=           0 NGrid=           0
         NMat0=    1 NMatS0=  21528 NMatT0=    0 NMatD0=    1 NMtDS0=    0 NMtDT0=    0
 Symmetry not used in FoFCou.
 Two-electron integral symmetry not used.
 Closed shell SCF:
 Using DIIS extrapolation, IDIIS=  1040.
 NGot= 16106127360 LenX= 15874260251 LenY= 15874199785
 Requested convergence on RMS density matrix=1.00D-08 within 128 cycles.
 Requested convergence on MAX density matrix=1.00D-06.
 Requested convergence on             energy=1.00D-06.
 No special actions if energy rises.

 Cycle   1  Pass 1  IDiag  1:
 E= -279.370489670048    
 DIIS: error= 2.62D-02 at cycle   1 NSaved=   1.
 NSaved= 1 IEnMin= 1 EnMin= -279.370489670048     IErMin= 1 ErrMin= 2.62D-02
 ErrMax= 2.62D-02  0.00D+00 EMaxC= 1.00D-01 BMatC= 4.38D-01 BMatP= 4.38D-01
 IDIUse=3 WtCom= 7.38D-01 WtEn= 2.62D-01
 Coeff-Com:  0.100D+01
 Coeff-En:   0.100D+01
 Coeff:      0.100D+01
 Gap=     0.519 Goal=   None    Shift=    0.000
 GapD=    0.519 DampG=2.000 DampE=0.500 DampFc=1.0000 IDamp=-1.
 RMSDP=1.62D-03 MaxDP=9.92D-02              OVMax= 1.13D-01

 Cycle   2  Pass 1  IDiag  1:
 E= -279.452425147432     Delta-E=       -0.081935477383 Rises=F Damp=F
 DIIS: error= 1.77D-02 at cycle   2 NSaved=   2.
 NSaved= 2 IEnMin= 2 EnMin= -279.452425147432     IErMin= 2 ErrMin= 1.77D-02
 ErrMax= 1.77D-02  0.00D+00 EMaxC= 1.00D-01 BMatC= 7.18D-02 BMatP= 4.38D-01
 IDIUse=3 WtCom= 8.23D-01 WtEn= 1.77D-01
 Coeff-Com:  0.195D+00 0.805D+00
 Coeff-En:   0.000D+00 0.100D+01
 Coeff:      0.160D+00 0.840D+00
 Gap=     0.533 Goal=   None    Shift=    0.000
 RMSDP=9.00D-04 MaxDP=3.73D-02 DE=-8.19D-02 OVMax= 6.89D-02

 Cycle   3  Pass 1  IDiag  1:
 E= -279.481573331747     Delta-E=       -0.029148184316 Rises=F Damp=F
 DIIS: error= 1.03D-02 at cycle   3 NSaved=   3.
 NSaved= 3 IEnMin= 3 EnMin= -279.481573331747     IErMin= 3 ErrMin= 1.03D-02
 ErrMax= 1.03D-02  0.00D+00 EMaxC= 1.00D-01 BMatC= 2.87D-02 BMatP= 7.18D-02
 IDIUse=3 WtCom= 8.97D-01 WtEn= 1.03D-01
 Coeff-Com: -0.330D-01 0.378D+00 0.655D+00
 Coeff-En:   0.000D+00 0.240D+00 0.760D+00
 Coeff:     -0.296D-01 0.364D+00 0.666D+00
 Gap=     0.510 Goal=   None    Shift=    0.000
 RMSDP=3.76D-04 MaxDP=1.54D-02 DE=-2.91D-02 OVMax= 3.81D-02

 Cycle   4  Pass 1  IDiag  1:
 E= -279.500630319133     Delta-E=       -0.019056987386 Rises=F Damp=F
 DIIS: error= 1.28D-03 at cycle   4 NSaved=   4.
 NSaved= 4 IEnMin= 4 EnMin= -279.500630319133     IErMin= 4 ErrMin= 1.28D-03
 ErrMax= 1.28D-03  0.00D+00 EMaxC= 1.00D-01 BMatC= 4.92D-04 BMatP= 2.87D-02
 IDIUse=3 WtCom= 9.87D-01 WtEn= 1.28D-02
 Coeff-Com: -0.117D-01 0.575D-01 0.158D+00 0.796D+00
 Coeff-En:   0.000D+00 0.000D+00 0.000D+00 0.100D+01
 Coeff:     -0.115D-01 0.567D-01 0.156D+00 0.798D+00
 Gap=     0.502 Goal=   None    Shift=    0.000
 RMSDP=9.02D-05 MaxDP=2.18D-03 DE=-1.91D-02 OVMax= 1.11D-02

 Cycle   5  Pass 1  IDiag  1:
 E= -279.501305746295     Delta-E=       -0.000675427162 Rises=F Damp=F
 DIIS: error= 7.31D-04 at cycle   5 NSaved=   5.
 NSaved= 5 IEnMin= 5 EnMin= -279.501305746295     IErMin= 5 ErrMin= 7.31D-04
 ErrMax= 7.31D-04  0.00D+00 EMaxC= 1.00D-01 BMatC= 8.72D-05 BMatP= 4.92D-04
 IDIUse=3 WtCom= 9.93D-01 WtEn= 7.31D-03
 Coeff-Com:  0.613D-02-0.724D-01-0.118D+00 0.203D-01 0.116D+01
 Coeff-En:   0.000D+00 0.000D+00 0.000D+00 0.000D+00 0.100D+01
 Coeff:      0.608D-02-0.718D-01-0.117D+00 0.201D-01 0.116D+01
 Gap=     0.502 Goal=   None    Shift=    0.000
 RMSDP=7.63D-05 MaxDP=2.10D-03 DE=-6.75D-04 OVMax= 1.11D-02

 Cycle   6  Pass 1  IDiag  1:
 E= -279.501620988167     Delta-E=       -0.000315241871 Rises=F Damp=F
 DIIS: error= 2.84D-04 at cycle   6 NSaved=   6.
 NSaved= 6 IEnMin= 6 EnMin= -279.501620988167     IErMin= 6 ErrMin= 2.84D-04
 ErrMax= 2.84D-04  0.00D+00 EMaxC= 1.00D-01 BMatC= 1.67D-05 BMatP= 8.72D-05
 IDIUse=3 WtCom= 9.97D-01 WtEn= 2.84D-03
 Coeff-Com:  0.596D-03 0.159D-02 0.450D-02-0.130D+00-0.231D+00 0.135D+01
 Coeff-En:   0.000D+00 0.000D+00 0.000D+00 0.000D+00 0.000D+00 0.100D+01
 Coeff:      0.595D-03 0.159D-02 0.449D-02-0.129D+00-0.230D+00 0.135D+01
 Gap=     0.502 Goal=   None    Shift=    0.000
 RMSDP=4.53D-05 MaxDP=1.06D-03 DE=-3.15D-04 OVMax= 5.55D-03

 Cycle   7  Pass 1  IDiag  1:
 E= -279.501693762234     Delta-E=       -0.000072774067 Rises=F Damp=F
 DIIS: error= 1.02D-04 at cycle   7 NSaved=   7.
 NSaved= 7 IEnMin= 7 EnMin= -279.501693762234     IErMin= 7 ErrMin= 1.02D-04
 ErrMax= 1.02D-04  0.00D+00 EMaxC= 1.00D-01 BMatC= 4.52D-06 BMatP= 1.67D-05
 IDIUse=3 WtCom= 9.99D-01 WtEn= 1.02D-03
 Coeff-Com: -0.939D-03 0.136D-01 0.265D-01-0.243D-01-0.287D+00 0.392D+00
 Coeff-Com:  0.881D+00
 Coeff-En:   0.000D+00 0.000D+00 0.000D+00 0.000D+00 0.000D+00 0.000D+00
 Coeff-En:   0.100D+01
 Coeff:     -0.938D-03 0.135D-01 0.265D-01-0.243D-01-0.287D+00 0.391D+00
 Coeff:      0.881D+00
 Gap=     0.502 Goal=   None    Shift=    0.000
 RMSDP=1.33D-05 MaxDP=3.78D-04 DE=-7.28D-05 OVMax= 1.55D-03

 Cycle   8  Pass 1  IDiag  1:
 E= -279.501702672850     Delta-E=       -0.000008910616 Rises=F Damp=F
 DIIS: error= 5.09D-05 at cycle   8 NSaved=   8.
 NSaved= 8 IEnMin= 8 EnMin= -279.501702672850     IErMin= 8 ErrMin= 5.09D-05
 ErrMax= 5.09D-05  0.00D+00 EMaxC= 1.00D-01 BMatC= 6.07D-07 BMatP= 4.52D-06
 IDIUse=1 WtCom= 1.00D+00 WtEn= 0.00D+00
 Coeff-Com: -0.449D-03 0.345D-02 0.760D-02 0.274D-01-0.409D-01-0.197D+00
 Coeff-Com:  0.171D+00 0.103D+01
 Coeff:     -0.449D-03 0.345D-02 0.760D-02 0.274D-01-0.409D-01-0.197D+00
 Coeff:      0.171D+00 0.103D+01
 Gap=     0.502 Goal=   None    Shift=    0.000
 RMSDP=6.91D-06 MaxDP=2.03D-04 DE=-8.91D-06 OVMax= 7.47D-04

 Cycle   9  Pass 1  IDiag  1:
 E= -279.501704451824     Delta-E=       -0.000001778974 Rises=F Damp=F
 DIIS: error= 1.58D-05 at cycle   9 NSaved=   9.
 NSaved= 9 IEnMin= 9 EnMin= -279.501704451824     IErMin= 9 ErrMin= 1.58D-05
 ErrMax= 1.58D-05  0.00D+00 EMaxC= 1.00D-01 BMatC= 6.92D-08 BMatP= 6.07D-07
 IDIUse=1 WtCom= 1.00D+00 WtEn= 0.00D+00
 Coeff-Com:  0.123D-03-0.172D-02-0.307D-02-0.206D-02 0.342D-01-0.498D-04
 Coeff-Com: -0.166D+00-0.103D+00 0.124D+01
 Coeff:      0.123D-03-0.172D-02-0.307D-02-0.206D-02 0.342D-01-0.498D-04
 Coeff:     -0.166D+00-0.103D+00 0.124D+01
 Gap=     0.502 Goal=   None    Shift=    0.000
 RMSDP=1.94D-06 MaxDP=5.18D-05 DE=-1.78D-06 OVMax= 1.75D-04

 Cycle  10  Pass 1  IDiag  1:
 E= -279.501704612123     Delta-E=       -0.000000160299 Rises=F Damp=F
 DIIS: error= 4.05D-06 at cycle  10 NSaved=  10.
 NSaved=10 IEnMin=10 EnMin= -279.501704612123     IErMin=10 ErrMin= 4.05D-06
 ErrMax= 4.05D-06  0.00D+00 EMaxC= 1.00D-01 BMatC= 5.55D-09 BMatP= 6.92D-08
 IDIUse=1 WtCom= 1.00D+00 WtEn= 0.00D+00
 Coeff-Com:  0.310D-04-0.243D-03-0.324D-03-0.270D-02 0.163D-02 0.196D-01
 Coeff-Com: -0.130D-01-0.743D-01-0.801D-01 0.115D+01
 Coeff:      0.310D-04-0.243D-03-0.324D-03-0.270D-02 0.163D-02 0.196D-01
 Coeff:     -0.130D-01-0.743D-01-0.801D-01 0.115D+01
 Gap=     0.502 Goal=   None    Shift=    0.000
 RMSDP=5.05D-07 MaxDP=2.11D-05 DE=-1.60D-07 OVMax= 4.16D-05

 Cycle  11  Pass 1  IDiag  1:
 E= -279.501704624680     Delta-E=       -0.000000012557 Rises=F Damp=F
 DIIS: error= 1.83D-06 at cycle  11 NSaved=  11.
 NSaved=11 IEnMin=11 EnMin= -279.501704624680     IErMin=11 ErrMin= 1.83D-06
 ErrMax= 1.83D-06  0.00D+00 EMaxC= 1.00D-01 BMatC= 6.63D-10 BMatP= 5.55D-09
 IDIUse=1 WtCom= 1.00D+00 WtEn= 0.00D+00
 Coeff-Com: -0.213D-04 0.244D-03 0.488D-03 0.533D-03-0.429D-02-0.356D-02
 Coeff-Com:  0.210D-01 0.311D-01-0.139D+00-0.179D+00 0.127D+01
 Coeff:     -0.213D-04 0.244D-03 0.488D-03 0.533D-03-0.429D-02-0.356D-02
 Coeff:      0.210D-01 0.311D-01-0.139D+00-0.179D+00 0.127D+01
 Gap=     0.502 Goal=   None    Shift=    0.000
 RMSDP=1.79D-07 MaxDP=6.52D-06 DE=-1.26D-08 OVMax= 1.73D-05

 Cycle  12  Pass 1  IDiag  1:
 E= -279.501704626503     Delta-E=       -0.000000001823 Rises=F Damp=F
 DIIS: error= 5.69D-07 at cycle  12 NSaved=  12.
 NSaved=12 IEnMin=12 EnMin= -279.501704626503     IErMin=12 ErrMin= 5.69D-07
 ErrMax= 5.69D-07  0.00D+00 EMaxC= 1.00D-01 BMatC= 7.28D-11 BMatP= 6.63D-10
 IDIUse=1 WtCom= 1.00D+00 WtEn= 0.00D+00
 Coeff-Com:  0.126D-05-0.294D-04-0.636D-04 0.183D-03 0.109D-02-0.231D-02
 Coeff-Com: -0.414D-02 0.546D-02 0.419D-01-0.114D+00-0.282D+00 0.135D+01
 Coeff:      0.126D-05-0.294D-04-0.636D-04 0.183D-03 0.109D-02-0.231D-02
 Coeff:     -0.414D-02 0.546D-02 0.419D-01-0.114D+00-0.282D+00 0.135D+01
 Gap=     0.502 Goal=   None    Shift=    0.000
 RMSDP=7.30D-08 MaxDP=2.83D-06 DE=-1.82D-09 OVMax= 6.68D-06

 Cycle  13  Pass 1  IDiag  1:
 E= -279.501704626740     Delta-E=       -0.000000000237 Rises=F Damp=F
 DIIS: error= 1.68D-07 at cycle  13 NSaved=  13.
 NSaved=13 IEnMin=13 EnMin= -279.501704626740     IErMin=13 ErrMin= 1.68D-07
 ErrMax= 1.68D-07  0.00D+00 EMaxC= 1.00D-01 BMatC= 4.44D-12 BMatP= 7.28D-11
 IDIUse=1 WtCom= 1.00D+00 WtEn= 0.00D+00
 Coeff-Com:  0.130D-05-0.141D-04-0.226D-04-0.915D-04 0.119D-03 0.785D-03
 Coeff-Com: -0.833D-03-0.335D-02 0.381D-03 0.424D-01-0.350D-01-0.337D+00
 Coeff-Com:  0.133D+01
 Coeff:      0.130D-05-0.141D-04-0.226D-04-0.915D-04 0.119D-03 0.785D-03
 Coeff:     -0.833D-03-0.335D-02 0.381D-03 0.424D-01-0.350D-01-0.337D+00
 Coeff:      0.133D+01
 Gap=     0.502 Goal=   None    Shift=    0.000
 RMSDP=2.06D-08 MaxDP=5.64D-07 DE=-2.37D-10 OVMax= 2.11D-06

 Cycle  14  Pass 1  IDiag  1:
 E= -279.501704626758     Delta-E=       -0.000000000018 Rises=F Damp=F
 DIIS: error= 4.46D-08 at cycle  14 NSaved=  14.
 NSaved=14 IEnMin=14 EnMin= -279.501704626758     IErMin=14 ErrMin= 4.46D-08
 ErrMax= 4.46D-08  0.00D+00 EMaxC= 1.00D-01 BMatC= 3.77D-13 BMatP= 4.44D-12
 IDIUse=1 WtCom= 1.00D+00 WtEn= 0.00D+00
 Coeff-Com: -0.256D-06 0.395D-05 0.696D-05 0.787D-05-0.956D-04 0.250D-04
 Coeff-Com:  0.345D-03 0.347D-03-0.273D-02 0.234D-03 0.203D-01-0.180D-01
 Coeff-Com: -0.261D+00 0.126D+01
 Coeff:     -0.256D-06 0.395D-05 0.696D-05 0.787D-05-0.956D-04 0.250D-04
 Coeff:      0.345D-03 0.347D-03-0.273D-02 0.234D-03 0.203D-01-0.180D-01
 Coeff:     -0.261D+00 0.126D+01
 Gap=     0.502 Goal=   None    Shift=    0.000
 RMSDP=5.85D-09 MaxDP=1.31D-07 DE=-1.76D-11 OVMax= 8.84D-07

 SCF Done:  E(RHF) =  -279.501704627     A.U. after   14 cycles
            NFock= 14  Conv=0.58D-08     -V/T= 2.0024
 KE= 2.788453664591D+02 PE=-8.950723079328D+02 EE= 2.198523996955D+02
 Leave Link  502 at Mon Feb 21 21:03:52 2022, MaxMem= 16106127360 cpu:              39.4 elap:               6.7
 (Enter /sw/contrib/gaussian/g16/B01/g16/l801.exe)
 ExpMin= 2.53D-02 ExpMax= 1.53D+04 ExpMxC= 5.22D+02 IAcc=3 IRadAn=         5 AccDes= 0.00D+00
 HarFok:  IExCor=  205 AccDes= 0.00D+00 IRadAn=         5 IDoV=-2 UseB2=F ITyADJ=14
 ICtDFT= 12500011 ScaDFX=  1.000000  1.000000  1.000000  1.000000
 Largest valence mixing into a core orbital is  2.08D-04
 Largest core mixing into a valence orbital is  3.63D-05
 Range of M.O.s used for correlation:     5   207
 NBasis=   207 NAE=    16 NBE=    16 NFC=     4 NFV=     0
 NROrb=    203 NOA=    12 NOB=    12 NVA=   191 NVB=   191

 **** Warning!!: The largest alpha MO coefficient is  0.17698452D+02

 Leave Link  801 at Mon Feb 21 21:03:53 2022, MaxMem= 16106127360 cpu:               2.0 elap:               0.1
 (Enter /sw/contrib/gaussian/g16/B01/g16/l906.exe)
 Frozen-core derivative calculation, NFC=   4 NFV=   0.
 FulOut=F Deriv=T AODrv=T NAtomX=     5
   MMem=           0  MDisk=          12 MDiskD=          12
  W3Min=      811440 MinDsk=     2425030 NBas6D=         245
 NBas2D=       30762    NTT=       30135    LW2=     7400000
    MDV= 16105638402 MDiskM=      328645 NBas2p=       30702
 Disk-based method using ON**2 memory for 12 occupieds at a time.
 Permanent disk used for amplitudes=    11516536 words.
 Estimated scratch disk usage=   321251614 words.
 IMap=   1   2   3   4   5   6   7   8   9  10  11  12  13  14  15  16
 Actual    scratch disk usage=   310331678 words.
 JobTyp=1 Pass  1:  I=   5 to  16 NPSUse= 28 ParTrn=T ParDer=T DoDerP=T.
 (rs|ai) integrals will be sorted in core.
 Spin components of T(2) and E(2):
     alpha-alpha T2 =       0.3402543541D-01 E2=     -0.1224062006D+00
     alpha-beta  T2 =       0.1868506338D+00 E2=     -0.7002404576D+00
     beta-beta   T2 =       0.3402543541D-01 E2=     -0.1224062006D+00
 The integrals were generated   1 times.
 ANorm=    0.1120223864D+01
 E2 =    -0.9450528587D+00 EUMP2 =    -0.28044675748543D+03
 Leave Link  906 at Mon Feb 21 21:05:31 2022, MaxMem= 16106127360 cpu:            2742.3 elap:              98.1
 (Enter /sw/contrib/gaussian/g16/B01/g16/l1101.exe)
 Using compressed Sx but separate Hx and Fx, NAtomX=     5.
 Will process      6 centers per pass.
 Leave Link 1101 at Mon Feb 21 21:05:31 2022, MaxMem= 16106127360 cpu:               7.0 elap:               0.3
 (Enter /sw/contrib/gaussian/g16/B01/g16/l1102.exe)
 Leave Link 1102 at Mon Feb 21 21:05:31 2022, MaxMem= 16106127360 cpu:               0.5 elap:               0.0
 (Enter /sw/contrib/gaussian/g16/B01/g16/l1110.exe)
 Forming Gx(P) for the SCF density, NAtomX=     5.
 Integral derivatives from FoFJK, PRISM(SPDF).
 Do as many integral derivatives as possible in FoFJK.
 G2DrvN: MDV=   16106126844.
 G2DrvN: will do     6 centers at a time, making    1 passes.
 Calling FoFCou, ICntrl=  3107 FMM=F I1Cent=   0 AccDes= 0.00D+00.
 FoFJK:  IHMeth= 1 ICntrl=    3107 DoSepK=F KAlg= 0 I1Cent=           0 FoldK=F
 IRaf=         0 NMat=       1 IRICut=       1 DoRegI=T DoRafI=F ISym2E= 0 IDoP0=0 IntGTp=1.
 FoFCou: FMM=F IPFlag=           0 FMFlag=      100000 FMFlg1=           0
         NFxFlg=           0 DoJE=F BraDBF=F KetDBF=F FulRan=T
         wScrn=  0.000000 ICntrl=      3107 IOpCl=  0 I1Cent=           0 NGrid=           0
         NMat0=    1 NMatS0=      1 NMatT0=    0 NMatD0=    1 NMtDS0=    0 NMtDT0=    0
 Symmetry not used in FoFCou.
 End of G2Drv F.D. properties file   721 does not exist.
 End of G2Drv F.D. properties file   722 does not exist.
 End of G2Drv F.D. properties file   788 does not exist.
 Leave Link 1110 at Mon Feb 21 21:05:34 2022, MaxMem= 16106127360 cpu:              83.8 elap:               3.0
 (Enter /sw/contrib/gaussian/g16/B01/g16/l1002.exe)
 Minotr:  Closed shell wavefunction.
          IDoAtm=11111
          Frozen-core window.
          Direct CPHF calculation.
          Differentiating once with respect to electric field.
                with respect to dipole field.
          Differentiating once with respect to nuclear coordinates.
          Requested convergence is 1.0D-08 RMS, and 1.0D-07 maximum.
          Secondary convergence is 1.0D-12 RMS, and 1.0D-12 maximum.
          NewPWx=T KeepS1=T KeepF1=T KeepIn=T MapXYZ=F SortEE=F KeepMc=T.
 Keep R1 ints in memory in canonical form, NReq=245618178.
 FoFCou: FMM=F IPFlag=           0 FMFlag=           0 FMFlg1=           0
         NFxFlg=           0 DoJE=F BraDBF=F KetDBF=F FulRan=T
         wScrn=  0.000000 ICntrl=       600 IOpCl=  0 I1Cent=           0 NGrid=           0
         NMat0=    1 NMatS0=  21528 NMatT0=    0 NMatD0=    1 NMtDS0=    0 NMtDT0=    0
 Symmetry not used in FoFCou.
 Two-electron integral symmetry not used.
          MDV=   16106127360 using IRadAn=       1.
          Solving linear equations simultaneously, MaxMat=       0.
          There are    18 degrees of freedom in the 1st order CPHF.  IDoFFX=6 NUNeed=    18.
     15 vectors produced by pass  0 Test12= 1.70D-14 5.56D-09 XBig12= 9.51D+00 1.10D+00.
 AX will form    15 AO Fock derivatives at one time.
     15 vectors produced by pass  1 Test12= 1.70D-14 5.56D-09 XBig12= 1.17D+00 2.28D-01.
     15 vectors produced by pass  2 Test12= 1.70D-14 5.56D-09 XBig12= 1.24D-01 9.40D-02.
     15 vectors produced by pass  3 Test12= 1.70D-14 5.56D-09 XBig12= 4.09D-03 1.04D-02.
     15 vectors produced by pass  4 Test12= 1.70D-14 5.56D-09 XBig12= 7.49D-05 1.57D-03.
     15 vectors produced by pass  5 Test12= 1.70D-14 5.56D-09 XBig12= 9.95D-07 1.31D-04.
     15 vectors produced by pass  6 Test12= 1.70D-14 5.56D-09 XBig12= 8.74D-09 1.22D-05.
     12 vectors produced by pass  7 Test12= 1.70D-14 5.56D-09 XBig12= 6.56D-11 9.77D-07.
      3 vectors produced by pass  8 Test12= 1.70D-14 5.56D-09 XBig12= 6.18D-13 1.16D-07.
      2 vectors produced by pass  9 Test12= 1.70D-14 5.56D-09 XBig12= 4.67D-15 9.66D-09.
 InvSVY:  IOpt=1 It=  1 EMax= 1.55D-15
 Solved reduced A of dimension   122 with    15 vectors.
 FullF1:  Do perturbations      1 to      18.
 Saving first derivative matrices.
 End of Minotr F.D. properties file   721 does not exist.
 End of Minotr F.D. properties file   722 does not exist.
 End of Minotr F.D. properties file   788 does not exist.
 Leave Link 1002 at Mon Feb 21 21:05:38 2022, MaxMem= 16106127360 cpu:              99.9 elap:               3.6
 (Enter /sw/contrib/gaussian/g16/B01/g16/l811.exe)
 MDV= 16106127360.
 Form MO integral derivatives with frozen-active canonical formalism.
 MOERI=1 MOERIx=1 NAtoms=     5 NAtomX=     5.
 Discarding MO integrals.
 MO basis two electron integral derivatives will not be stored on disk.
 IAlg= 3 DoFC=T DoPWx=T Debug=F.
 Frozen-core window:  NFC=   4 NFV=   0.
 Reordered first order wavefunction length =     18678272
 In DefCFB: NBatch=  1 ICI= 16 ICA=191 LFMax= 96
            Large arrays: LIAPS=   619940160 LIARS=   288257200 words.
 In StABat: MaxSiz= 55 MinSiz= 25 NAtomB=  5
 DoIAMN: NPSUse= 28.
 Leave Link  811 at Mon Feb 21 21:07:09 2022, MaxMem= 16106127360 cpu:            2543.9 elap:              91.1
 (Enter /sw/contrib/gaussian/g16/B01/g16/l804.exe)
 Frozen-core window:  NFC=   4 NFV=   0.
 Closed-shell transformation, MDV= 16106127360 ITran=4 ISComp=1.
 Semi-Direct transformation.
 ModeAB=           2 MOrb=            16 LenV=   16104925835
 LASXX=     67341636 LTotXX=    67341636 LenRXX=    67341636
 LTotAB=    68301760 MaxLAS=    99807120 LenRXY=    99807120
 NonZer=   134683272 LenScr=   202817536 LnRSAI=           0
 LnScr1=           0 LExtra=           0 Total=    369966292
 MaxDsk=          -1 SrtSym=           F ITran=            4
 DoSDTr:  NPSUse= 28
 JobTyp=0 Pass  1:  I=   1 to  16.
 (rs|ai) integrals will be sorted in core.
 Complete sort for first half transformation.
 First half transformation complete.
 Begin second half transformation for I=  10.
 Begin second half transformation for I=  10.
 Complete sort for second half transformation.
 Second half transformation complete.
 SymMOI:  orbitals are not symmetric.
 Spin components of T(2) and E(2):
     alpha-alpha T2 =       0.3402543541D-01 E2=     -0.1224062006D+00
     alpha-beta  T2 =       0.1868506338D+00 E2=     -0.7002404576D+00
     beta-beta   T2 =       0.3402543541D-01 E2=     -0.1224062006D+00
 ANorm=    0.1584235781D+01
 E2 =    -0.9450528587D+00 EUMP2 =    -0.28044675748543D+03
 Leave Link  804 at Mon Feb 21 21:07:23 2022, MaxMem= 16106127360 cpu:             384.1 elap:              13.8
 (Enter /sw/contrib/gaussian/g16/B01/g16/l1002.exe)
 Minotr:  Closed shell wavefunction.
          Computing MP2/KS-MP2 derivatives.
          Using Z-Vector for PSCF gradient.
          Skipping F1 and S1 gradient terms here.
          IDoAtm=11111
          Frozen-core window.
          Using MO integrals in the linear equations.
          Forming densities via direct SCF.
          Differentiating once with respect to electric field.
                with respect to dipole field.
          Differentiating once with respect to nuclear coordinates.
          Requested convergence is 1.0D-10 RMS, and 1.0D-09 maximum.
          NewPWx=F KeepS1=T KeepF1=T KeepIn=T MapXYZ=F SortEE=F KeepMc=T.
          MDV=   16106127360 using IRadAn=       5.
          Solving linear equations separately, MaxMat=       0.
          There are     1 degrees of freedom in the 1st order CPHF.  IDoFFX=0 NUNeed=     1.
 FoFJK:  IHMeth= 1 ICntrl=       0 DoSepK=F KAlg= 0 I1Cent=           0 FoldK=F
 IRaf=         0 NMat=       1 IRICut=       1 DoRegI=T DoRafI=F ISym2E= 0 IDoP0=0 IntGTp=1.
 FoFCou: FMM=F IPFlag=           0 FMFlag=      100000 FMFlg1=           0
         NFxFlg=           0 DoJE=F BraDBF=F KetDBF=F FulRan=T
         wScrn=  0.000000 ICntrl=         0 IOpCl=  0 I1Cent=           0 NGrid=           0
         NMat0=    1 NMatS0=      1 NMatT0=    0 NMatD0=    1 NMtDS0=    0 NMtDT0=    0
 Symmetry not used in FoFCou.
 LinEq1:  Iter=  0 NonCon=     1 RMS=5.96D-03 Max=1.32D-01 NDo=     1
 LinEq1:  Iter=  1 NonCon=     1 RMS=1.90D-03 Max=3.81D-02 NDo=     1
 LinEq1:  Iter=  2 NonCon=     1 RMS=8.68D-04 Max=1.39D-02 NDo=     1
 LinEq1:  Iter=  3 NonCon=     1 RMS=3.87D-04 Max=7.77D-03 NDo=     1
 LinEq1:  Iter=  4 NonCon=     1 RMS=1.19D-04 Max=1.88D-03 NDo=     1
 LinEq1:  Iter=  5 NonCon=     1 RMS=4.55D-05 Max=7.21D-04 NDo=     1
 LinEq1:  Iter=  6 NonCon=     1 RMS=2.03D-05 Max=2.36D-04 NDo=     1
 LinEq1:  Iter=  7 NonCon=     1 RMS=8.17D-06 Max=1.59D-04 NDo=     1
 LinEq1:  Iter=  8 NonCon=     1 RMS=3.50D-06 Max=3.36D-05 NDo=     1
 LinEq1:  Iter=  9 NonCon=     1 RMS=9.69D-07 Max=1.26D-05 NDo=     1
 LinEq1:  Iter= 10 NonCon=     1 RMS=2.10D-07 Max=4.46D-06 NDo=     1
 LinEq1:  Iter= 11 NonCon=     1 RMS=5.60D-08 Max=1.80D-06 NDo=     1
 LinEq1:  Iter= 12 NonCon=     1 RMS=1.80D-08 Max=4.09D-07 NDo=     1
 LinEq1:  Iter= 13 NonCon=     1 RMS=3.76D-09 Max=4.48D-08 NDo=     1
 LinEq1:  Iter= 14 NonCon=     1 RMS=6.10D-10 Max=9.74D-09 NDo=     1
 LinEq1:  Iter= 15 NonCon=     1 RMS=1.23D-10 Max=2.06D-09 NDo=     1
 LinEq1:  Iter= 16 NonCon=     0 RMS=2.93D-11 Max=2.91D-10 NDo=     1
 Linear equations converged to 1.000D-10 1.000D-09 after    16 iterations.
 End of Minotr F.D. properties file   721 does not exist.
 End of Minotr F.D. properties file   722 does not exist.
 End of Minotr F.D. properties file   788 does not exist.
 Leave Link 1002 at Mon Feb 21 21:07:25 2022, MaxMem= 16106127360 cpu:              65.3 elap:               2.4
 (Enter /sw/contrib/gaussian/g16/B01/g16/l1102.exe)
 Use density number 2.
 Symmetrizing basis deriv contribution to polar:
 IMax=3 JMax=2 DiffMx= 0.00D+00
 Leave Link 1102 at Mon Feb 21 21:07:25 2022, MaxMem= 16106127360 cpu:               0.6 elap:               0.0
 (Enter /sw/contrib/gaussian/g16/B01/g16/l1110.exe)
 Forming Gx(P) for generalized density number  2 NAtomX=     5.
 Integral derivatives from FoFJK, PRISM(SPDF).
 Do as many integral derivatives as possible in FoFJK.
 G2DrvN: MDV=   16106126844.
 G2DrvN: will do     6 centers at a time, making    1 passes.
 Calling FoFCou, ICntrl=  3107 FMM=F I1Cent=   0 AccDes= 0.00D+00.
 FoFJK:  IHMeth= 1 ICntrl=    3107 DoSepK=F KAlg= 0 I1Cent=           0 FoldK=F
 IRaf=         0 NMat=       1 IRICut=       1 DoRegI=T DoRafI=F ISym2E= 0 IDoP0=0 IntGTp=1.
 FoFCou: FMM=F IPFlag=           0 FMFlag=      100000 FMFlg1=           0
         NFxFlg=           0 DoJE=F BraDBF=F KetDBF=F FulRan=T
         wScrn=  0.000000 ICntrl=      3107 IOpCl=  0 I1Cent=           0 NGrid=           0
         NMat0=    1 NMatS0=      1 NMatT0=    0 NMatD0=    1 NMtDS0=    0 NMtDT0=    0
 Symmetry not used in FoFCou.
 End of G2Drv F.D. properties file   721 does not exist.
 End of G2Drv F.D. properties file   722 does not exist.
 End of G2Drv F.D. properties file   788 does not exist.
 Leave Link 1110 at Mon Feb 21 21:07:28 2022, MaxMem= 16106127360 cpu:              83.2 elap:               3.0
 (Enter /sw/contrib/gaussian/g16/B01/g16/l1112.exe)
 MP22nd: MDV=   16106127360
 This link is doing NAtomX=     5 total of    18 degrees of freedom.
 Using ON3 I/O method in MakUI.
 Frozen-core window:  NFC=   4 NFV=   0.
 Using Ix for Sx.
 Use MO integrals over full window.
 Using OV2 memory method for fx*t*t/D, MaxI=    16 DoOO2=F NP=  28.
 R2 and R3 integrals will be kept in memory, NReq=   915591705.
 FoFCou: FMM=F IPFlag=           0 FMFlag=           0 FMFlg1=           0
         NFxFlg=           0 DoJE=F BraDBF=F KetDBF=F FulRan=T
         wScrn=  0.000000 ICntrl=       600 IOpCl=  0 I1Cent=           0 NGrid=           0
         NMat0=    1 NMatS0=      1 NMatT0=    0 NMatD0=    1 NMtDS0=    0 NMtDT0=    0
 Symmetry not used in FoFCou.
 DD1Dir will call FoFMem   1 times, MxPair=       272
 NAB=   136 NAA=     0 NBB=     0.
 Symmetry is being used.
 FoFJK:  IHMeth= 1 ICntrl=       0 DoSepK=F KAlg= 0 I1Cent=           0 FoldK=F
 IRaf=         0 NMat=      18 IRICut=      45 DoRegI=T DoRafI=T ISym2E= 2 IDoP0=3 IntGTp=3.
 Discarding MO integrals.
 Leave Link 1112 at Mon Feb 21 21:08:06 2022, MaxMem= 16106127360 cpu:            1037.7 elap:              37.5
 (Enter /sw/contrib/gaussian/g16/B01/g16/l601.exe)
 Copying SCF densities to generalized density rwf, IOpCl= 0 IROHF=0.

 **********************************************************************

            Population analysis using the MP2 Density.

 **********************************************************************

 Orbital symmetries:
       Occupied  (A) (A) (A) (A) (A) (A) (A) (A) (A) (A) (A) (A)
                 (A) (A) (A) (A)
       Virtual   (A) (A) (A) (A) (A) (A) (A) (A) (A) (A) (A) (A)
                 (A) (A) (A) (A) (A) (A) (A) (A) (A) (A) (A) (A)
                 (A) (A) (A) (A) (A) (A) (A) (A) (A) (A) (A) (A)
                 (A) (A) (A) (A) (A) (A) (A) (A) (A) (A) (A) (A)
                 (A) (A) (A) (A) (A) (A) (A) (A) (A) (A) (A) (A)
                 (A) (A) (A) (A) (A) (A) (A) (A) (A) (A) (A) (A)
                 (A) (A) (A) (A) (A) (A) (A) (A) (A) (A) (A) (A)
                 (A) (A) (A) (A) (A) (A) (A) (A) (A) (A) (A) (A)
                 (A) (A) (A) (A) (A) (A) (A) (A) (A) (A) (A) (A)
                 (A) (A) (A) (A) (A) (A) (A) (A) (A) (A) (A) (A)
                 (A) (A) (A) (A) (A) (A) (A) (A) (A) (A) (A) (A)
                 (A) (A) (A) (A) (A) (A) (A) (A) (A) (A) (A) (A)
                 (A) (A) (A) (A) (A) (A) (A) (A) (A) (A) (A) (A)
                 (A) (A) (A) (A) (A) (A) (A) (A) (A) (A) (A) (A)
                 (A) (A) (A) (A) (A) (A) (A) (A) (A) (A) (A) (A)
                 (A) (A) (A) (A) (A) (A) (A) (A) (A) (A) (A)
 The electronic state is 1-A.
 Alpha  occ. eigenvalues --  -20.69091 -20.68429 -20.66000 -15.81282  -1.62403
 Alpha  occ. eigenvalues --   -1.49576  -1.25441  -0.94807  -0.77274  -0.75922
 Alpha  occ. eigenvalues --   -0.71195  -0.67929  -0.62038  -0.58935  -0.48548
 Alpha  occ. eigenvalues --   -0.47238
 Alpha virt. eigenvalues --    0.02962   0.07167   0.08594   0.10172   0.13344
 Alpha virt. eigenvalues --    0.13440   0.14405   0.15452   0.17824   0.19417
 Alpha virt. eigenvalues --    0.19972   0.20640   0.22081   0.23541   0.23736
 Alpha virt. eigenvalues --    0.26618   0.29331   0.30311   0.31082   0.34345
 Alpha virt. eigenvalues --    0.35039   0.38727   0.42130   0.43112   0.52728
 Alpha virt. eigenvalues --    0.52956   0.55852   0.58155   0.62595   0.63826
 Alpha virt. eigenvalues --    0.67436   0.68429   0.70648   0.71145   0.72293
 Alpha virt. eigenvalues --    0.73026   0.74517   0.78961   0.79345   0.81028
 Alpha virt. eigenvalues --    0.81292   0.83118   0.86814   0.90831   0.92034
 Alpha virt. eigenvalues --    0.92815   0.95645   0.97574   0.98588   1.01629
 Alpha virt. eigenvalues --    1.05323   1.05475   1.08255   1.11714   1.13869
 Alpha virt. eigenvalues --    1.19151   1.22048   1.23289   1.33855   1.35050
 Alpha virt. eigenvalues --    1.38662   1.45379   1.48856   1.50885   1.53789
 Alpha virt. eigenvalues --    1.56699   1.57987   1.61164   1.66459   1.66893
 Alpha virt. eigenvalues --    1.70369   1.79246   1.83099   1.83519   1.87871
 Alpha virt. eigenvalues --    1.90933   1.95618   1.98904   2.01058   2.07769
 Alpha virt. eigenvalues --    2.12009   2.13111   2.15101   2.22391   2.26218
 Alpha virt. eigenvalues --    2.26725   2.28924   2.31383   2.34398   2.38645
 Alpha virt. eigenvalues --    2.41715   2.43648   2.45408   2.46347   2.47631
 Alpha virt. eigenvalues --    2.50227   2.58954   2.59700   2.62050   2.62484
 Alpha virt. eigenvalues --    2.63520   2.66724   2.75636   2.82553   2.85394
 Alpha virt. eigenvalues --    2.88588   2.89415   2.92303   2.95845   3.02416
 Alpha virt. eigenvalues --    3.06967   3.12137   3.20466   3.22711   3.31651
 Alpha virt. eigenvalues --    3.34149   3.51655   3.64414   3.83820   3.84528
 Alpha virt. eigenvalues --    4.14580   4.16303   4.18787   4.25703   4.34952
 Alpha virt. eigenvalues --    4.39351   4.46541   4.51994   4.66011   4.71075
 Alpha virt. eigenvalues --    4.80500   4.82452   4.82839   4.89596   5.02313
 Alpha virt. eigenvalues --    5.07657   5.10316   5.14467   5.17984   5.24365
 Alpha virt. eigenvalues --    5.27205   5.30761   5.32966   5.35463   5.60549
 Alpha virt. eigenvalues --    5.67362   5.76824   5.82953   5.95690   6.16874
 Alpha virt. eigenvalues --    6.30931   6.33872   6.39405   6.49373   6.50535
 Alpha virt. eigenvalues --    6.61505   6.66558   6.70093   6.75502   6.76547
 Alpha virt. eigenvalues --    6.83305   6.89833   7.01321   7.05592   7.05714
 Alpha virt. eigenvalues --    7.09083   7.12481   7.14904   7.18290   7.22499
 Alpha virt. eigenvalues --    7.24119   7.30675   7.32450   7.34906   7.39827
 Alpha virt. eigenvalues --    7.43087   7.48485   7.60767   7.61813   7.62789
 Alpha virt. eigenvalues --    7.66706   7.78861   7.88641   8.09267   8.31428
 Alpha virt. eigenvalues --    8.40758   8.54381  13.39013  14.39445  15.16162
 Alpha virt. eigenvalues --   16.15206
          Condensed to atoms (all electrons):
               1          2          3          4          5
     1  H    0.589668   0.128395   0.020080   0.012275  -0.000642
     2  O    0.128395   8.321521  -0.173423  -0.090342   0.015442
     3  O    0.020080  -0.173423   8.469151  -0.129890  -0.038775
     4  N    0.012275  -0.090342  -0.129890   6.971718  -0.055541
     5  O   -0.000642   0.015442  -0.038775  -0.055541   8.272786
 Mulliken charges:
               1
     1  H    0.250224
     2  O   -0.201592
     3  O   -0.147143
     4  N    0.291780
     5  O   -0.193269
 Sum of Mulliken charges =  -0.00000
 Mulliken charges with hydrogens summed into heavy atoms:
               1
     2  O    0.048632
     3  O   -0.147143
     4  N    0.291780
     5  O   -0.193269
 APT charges:
               1
     1  H    0.298986
     2  O   -0.288074
     3  O   -0.495347
     4  N    0.876518
     5  O   -0.392082
 Sum of APT charges =  -0.00000
 APT charges with hydrogens summed into heavy atoms:
               1
     2  O    0.010912
     3  O   -0.495347
     4  N    0.876518
     5  O   -0.392082
 Electronic spatial extent (au):  <R**2>=            252.8865
 Charge=             -0.0000 electrons
 Dipole moment (field-independent basis, Debye):
    X=             -1.2158    Y=              0.7885    Z=              0.1163  Tot=              1.4537
 Quadrupole moment (field-independent basis, Debye-Ang):
   XX=            -18.0055   YY=            -23.0973   ZZ=            -21.9996
   XY=             -2.7840   XZ=             -0.3074   YZ=              0.0950
 Traceless Quadrupole moment (field-independent basis, Debye-Ang):
   XX=              3.0287   YY=             -2.0631   ZZ=             -0.9655
   XY=             -2.7840   XZ=             -0.3074   YZ=              0.0950
 Octapole moment (field-independent basis, Debye-Ang**2):
  XXX=            -18.1519  YYY=              1.7581  ZZZ=              0.0365  XYY=             -1.0828
  XXY=              6.1763  XXZ=              0.7379  XZZ=              1.7538  YZZ=              0.2549
  YYZ=              0.0157  XYZ=             -0.1626
 Hexadecapole moment (field-independent basis, Debye-Ang**3):
 XXXX=           -190.2593 YYYY=            -41.0871 ZZZZ=            -18.2489 XXXY=            -12.0729
 XXXZ=             -1.8738 YYYX=             -1.0007 YYYZ=              0.0881 ZZZX=             -0.1101
 ZZZY=              0.0621 XXYY=            -42.4733 XXZZ=            -41.6105 YYZZ=             -9.8767
 XXYZ=              0.3868 YYXZ=             -0.0829 ZZXY=             -0.4833
 N-N= 1.168728371514D+02 E-N=-8.958561838948D+02  KE= 2.801974667185D+02
  Exact polarizability:  41.727  -0.972  22.519  -0.060   0.012  17.933
 Approx polarizability:  31.945   1.135  20.576  -0.053   0.044  15.529
 No NMR shielding tensors so no spin-rotation constants.
 Leave Link  601 at Mon Feb 21 21:08:06 2022, MaxMem= 16106127360 cpu:               5.0 elap:               0.2
 (Enter /sw/contrib/gaussian/g16/B01/g16/l701.exe)
 ... and contract with generalized density number  2.
 Compute integral second derivatives.
 Leave Link  701 at Mon Feb 21 21:08:06 2022, MaxMem= 16106127360 cpu:               5.9 elap:               0.2
 (Enter /sw/contrib/gaussian/g16/B01/g16/l702.exe)
 L702 exits ... SP integral derivatives will be done elsewhere.
 Leave Link  702 at Mon Feb 21 21:08:06 2022, MaxMem= 16106127360 cpu:               0.9 elap:               0.1
 (Enter /sw/contrib/gaussian/g16/B01/g16/l703.exe)
 Integral derivatives from FoFJK, PRISM(SPDF).
 Compute integral second derivatives, UseDBF=F ICtDFT=           0.
 Calling FoFJK, ICntrl=  10100127 FMM=F ISym2X=0 I1Cent= 0 IOpClX= 0 NMat=1 NMatS=1 NMatT=0.
 FoFJK:  IHMeth= 1 ICntrl=10100127 DoSepK=F KAlg= 0 I1Cent=           0 FoldK=F
 IRaf=         0 NMat=       1 IRICut=       1 DoRegI=T DoRafI=F ISym2E= 0 IDoP0=0 IntGTp=1.
 FoFCou: FMM=F IPFlag=           0 FMFlag=      100000 FMFlg1=         800
         NFxFlg=           0 DoJE=F BraDBF=F KetDBF=F FulRan=T
         wScrn=  0.000000 ICntrl=  10100127 IOpCl=  0 I1Cent=           0 NGrid=           0
         NMat0=    1 NMatS0=      1 NMatT0=    0 NMatD0=    1 NMtDS0=    0 NMtDT0=    0
 Symmetry not used in FoFCou.
 Leave Link  703 at Mon Feb 21 21:08:21 2022, MaxMem= 16106127360 cpu:             423.6 elap:              15.2
 (Enter /sw/contrib/gaussian/g16/B01/g16/l716.exe)
 Dipole        =-4.78330004D-01 3.10206285D-01 4.57756131D-02
 Polarizability= 4.17265933D+01-9.72175432D-01 2.25187259D+01
                -6.04129149D-02 1.17948639D-02 1.79331695D+01
 Full mass-weighted force constant matrix:
 Low frequencies --- -267.6913   -4.6743   -0.0002    0.0011    0.0013    2.4545
 Low frequencies ---    5.6497  228.8887  341.6044
 ******    1 imaginary frequencies (negative Signs) ****** 
 Diagonal vibrational polarizability:
       34.7672802       4.6698011      46.9722730
 Harmonic frequencies (cm**-1), IR intensities (KM/Mole), Raman scattering
 activities (A**4/AMU), depolarization ratios for plane and unpolarized
 incident light, reduced masses (AMU), force constants (mDyne/A),
 and normal coordinates:
                      1                      2                      3
                      A                      A                      A
 Frequencies --   -267.6911               228.8807               341.6036
 Red. masses --      1.1393                10.5354                 8.6186
 Frc consts  --      0.0481                 0.3252                 0.5926
 IR Inten    --    124.8657                 0.7886                 4.6510
  Atom  AN      X      Y      Z        X      Y      Z        X      Y      Z
     1   1     0.04  -0.06   0.99    -0.04  -0.02  -0.57    -0.17  -0.67   0.02
     2   8    -0.00   0.01  -0.06     0.00  -0.00  -0.31     0.30  -0.25   0.00
     3   8    -0.00  -0.00  -0.04    -0.00   0.00   0.33    -0.14   0.43  -0.01
     4   7     0.00  -0.00   0.06    -0.00   0.00   0.52    -0.19   0.18  -0.00
     5   8     0.00   0.00  -0.01     0.00  -0.00  -0.44     0.02  -0.30   0.00
                      4                      5                      6
                      A                      A                      A
 Frequencies --    451.8503               785.4975               967.1003
 Red. masses --     12.2917                12.9236                15.3851
 Frc consts  --      1.4786                 4.6981                 8.4780
 IR Inten    --    199.2106               170.5756                22.8585
  Atom  AN      X      Y      Z        X      Y      Z        X      Y      Z
     1   1    -0.45  -0.09  -0.04     0.16   0.35   0.04    -0.16  -0.07   0.04
     2   8    -0.38  -0.03   0.00    -0.39  -0.18  -0.00    -0.40  -0.33  -0.00
     3   8    -0.40   0.25  -0.00     0.21  -0.18   0.00     0.59   0.46  -0.00
     4   7     0.52  -0.12   0.00    -0.26   0.58  -0.00     0.05  -0.27   0.00
     5   8     0.35  -0.11   0.00     0.39  -0.17   0.00    -0.22   0.11  -0.00
                      7                      8                      9
                      A                      A                      A
 Frequencies --   1371.3346              1677.3222              3778.6126
 Red. masses --      1.1331                13.2169                 1.0676
 Frc consts  --      1.2555                21.9085                 8.9806
 IR Inten    --    152.5870               140.5657                82.4038
  Atom  AN      X      Y      Z        X      Y      Z        X      Y      Z
     1   1     0.77   0.63   0.01     0.27   0.21   0.00    -0.67   0.74   0.07
     2   8     0.01  -0.06  -0.00     0.03  -0.03  -0.00     0.04  -0.05  -0.00
     3   8    -0.05   0.03   0.00    -0.09   0.12  -0.00    -0.00  -0.00  -0.00
     4   7     0.02   0.00   0.00    -0.54  -0.46   0.00     0.00  -0.00   0.00
     5   8    -0.03  -0.01  -0.00     0.52   0.30  -0.00    -0.00  -0.00  -0.00

 -------------------
 - Thermochemistry -
 -------------------
 Temperature   298.150 Kelvin.  Pressure   1.00000 Atm.
 Atom     1 has atomic number  1 and mass   1.00783
 Atom     2 has atomic number  8 and mass  15.99491
 Atom     3 has atomic number  8 and mass  15.99491
 Atom     4 has atomic number  7 and mass  14.00307
 Atom     5 has atomic number  8 and mass  15.99491
 Molecular mass:    62.99564 amu.
 Principal axes and moments of inertia in atomic units:
                           1         2         3
     Eigenvalues --    32.85063 360.13950 392.95482
           X            0.99994  -0.01067  -0.00140
           Y            0.01067   0.99994   0.00306
           Z            0.00137  -0.00307   0.99999
 This molecule is an asymmetric top.
 Rotational symmetry number  1.
 Rotational temperatures (Kelvin)      2.63660     0.24050     0.22042
 Rotational constants (GHZ):          54.93780     5.01123     4.59274
    1 imaginary frequencies ignored.
 Zero-point vibrational energy      57433.9 (Joules/Mol)
                                   13.72704 (Kcal/Mol)
 Warning -- explicit consideration of   3 degrees of freedom as
           vibrations may cause significant error
 Vibrational temperatures:    329.31   491.49   650.11  1130.16  1391.44
          (Kelvin)           1973.04  2413.29  5436.58
 
 Zero-point correction=                           0.021875 (Hartree/Particle)
 Thermal correction to Energy=                    0.025993
 Thermal correction to Enthalpy=                  0.026937
 Thermal correction to Gibbs Free Energy=        -0.004247
 Sum of electronic and zero-point Energies=           -280.424882
 Sum of electronic and thermal Energies=              -280.420765
 Sum of electronic and thermal Enthalpies=            -280.419820
 Sum of electronic and thermal Free Energies=         -280.451004
 
                     E (Thermal)             CV                S
                      KCal/Mol        Cal/Mol-Kelvin    Cal/Mol-Kelvin
 Total                   16.311             11.954             65.632
 Electronic               0.000              0.000              0.000
 Translational            0.889              2.981             38.341
 Rotational               0.889              2.981             23.057
 Vibrational             14.533              5.992              4.235
 Vibration     1          0.652              1.797              1.888
 Vibration     2          0.721              1.592              1.205
 Vibration     3          0.811              1.357              0.790
                       Q            Log10(Q)             Ln(Q)
 Total Bot       0.898156D+02          1.953352          4.497759
 Total V=0       0.103595D+13         12.015340         27.666343
 Vib (Bot)       0.187244D-09         -9.727592        -22.398608
 Vib (Bot)    1  0.860948D+00         -0.065023         -0.149721
 Vib (Bot)    2  0.543016D+00         -0.265187         -0.610616
 Vib (Bot)    3  0.378951D+00         -0.421417         -0.970348
 Vib (V=0)       0.215971D+01          0.334396          0.769976
 Vib (V=0)    1  0.149561D+01          0.174817          0.402532
 Vib (V=0)    2  0.123815D+01          0.092774          0.213619
 Vib (V=0)    3  0.112738D+01          0.052070          0.119895
 Electronic      0.100000D+01          0.000000          0.000000
 Translational   0.196526D+08          7.293420         16.793719
 Rotational      0.244075D+05          4.387524         10.102648
 
                                                                title
                                                             IR Spectrum
 
     3                                                                      1         1                                              
     7                                                                      6         3             9     7          4   3   2       
     7                                                                      7         7             6     8          5   4   2       
     9                                                                      7         1             7     5          2   2   9       
 
     X                                                                      X         X             X     X          X   X   X       
     X                                                                      X         X             X     X          X               
     X                                                                      X         X                   X          X               
     X                                                                      X         X                   X          X               
     X                                                                      X         X                   X          X               
     X                                                                      X         X                   X          X               
     X                                                                      X         X                   X          X               
     X                                                                      X         X                   X          X               
                                                                            X         X                   X          X               
                                                                            X         X                   X          X               
                                                                            X         X                   X          X               
                                                                            X         X                   X          X               
                                                                            X         X                   X          X               
                                                                            X         X                   X          X               
                                                                                      X                   X          X               
                                                                                                          X          X               
                                                                                                          X          X               
                                                                                                                     X               
                                                                                                                     X               
                                                                                                                     X               
 
 ***** Axes restored to original set *****
 -------------------------------------------------------------------
 Center     Atomic                   Forces (Hartrees/Bohr)
 Number     Number              X              Y              Z
 -------------------------------------------------------------------
      1        1           0.000043733    0.000326182    0.000002546
      2        8           0.000236079   -0.000419502    0.000061177
      3        8          -0.000272170   -0.000136271   -0.000002608
      4        7          -0.000389227    0.000369618   -0.000151634
      5        8           0.000381585   -0.000140026    0.000090519
 -------------------------------------------------------------------
 Cartesian Forces:  Max     0.000419502 RMS     0.000247782
 -----------------------------------------------------------------------------------------------
                       Internal Coordinate Forces (Hartree/Bohr or radian)
  Cent   Atom   N1       Length/X         N2         Alpha/Y        N3         Beta/Z          J
 -----------------------------------------------------------------------------------------------
      1  H 
      2  O        1  -0.000003(     1)
      3  O        2  -0.000286(     2)      1  -0.000080(     5)
      4  N        3  -0.000044(     3)      2   0.000022(     6)      1  -0.000592(     8)     0
      5  O        4   0.000391(     4)      3  -0.000039(     7)      2  -0.000298(     9)     0
 -----------------------------------------------------------------------------------------------
 Internal  Forces:  Max     0.000591649 RMS     0.000275639
 Force constants in Cartesian coordinates: 
                1             2             3             4             5 
      1  0.646589D-01
      2  0.364876D-03 -0.232448D-02
      3  0.528180D-02 -0.184357D-03  0.512334D+00
      4 -0.357747D-01 -0.100445D-02 -0.162636D-01  0.272667D+00
      5 -0.150061D-03  0.303376D-02  0.289988D-03  0.224710D-02  0.232729D-02
      6  0.482655D-01  0.715556D-03 -0.508543D+00  0.334901D-01  0.204330D-02
      7 -0.184165D-01  0.116483D-02  0.125072D-01 -0.220047D+00  0.140798D-02
      8 -0.540543D-03  0.991184D-03  0.133708D-03 -0.872818D-03 -0.679522D-02
      9 -0.531408D-01 -0.452604D-04 -0.459337D-03 -0.194355D-01 -0.199058D-02
     10 -0.922318D-02 -0.418693D-03 -0.485804D-02 -0.172172D-01 -0.340727D-02
     11  0.952864D-03 -0.271062D-02 -0.283417D-03 -0.177113D-03 -0.478272D-02
     12  0.529794D-02 -0.310786D-03 -0.473673D-02  0.115468D-01  0.138680D-02
     13 -0.124448D-02 -0.106564D-03  0.333264D-02  0.372362D-03 -0.977527D-04
     14 -0.627135D-03  0.101016D-02  0.440782D-04 -0.192721D-03  0.621689D-02
     15 -0.570443D-02 -0.175151D-03  0.140506D-02 -0.933776D-02 -0.172951D-02
                6             7             8             9            10 
      6  0.594503D+00
      7 -0.212731D-01  0.341431D+00
      8 -0.319092D-02 -0.236384D-02  0.504082D-02
      9 -0.784279D-01  0.360675D-01  0.102717D-01  0.180401D+00
     10 -0.523656D-01 -0.780159D-01  0.140880D-01  0.174336D+00  0.828462D+00
     11  0.286071D-02  0.669331D-02  0.783000D-02 -0.874640D-02 -0.995744D-02
     12  0.169617D-01  0.627861D-01 -0.698413D-02 -0.812050D-01 -0.173837D-01
     13 -0.811694D-02 -0.249509D-01 -0.103108D-01 -0.137827D+00 -0.724005D+00
     14 -0.242864D-02 -0.690228D-02 -0.706679D-02  0.510520D-03 -0.304647D-03
     15 -0.244938D-01 -0.900877D-01 -0.230377D-03 -0.203085D-01 -0.997284D-01
               11            12            13            14            15 
     11  0.966919D-02
     12  0.134022D-01  0.185652D+00
     13  0.248837D-02 -0.622471D-01  0.749828D+00
     14 -0.100058D-01 -0.749409D-02  0.802678D-02  0.984558D-02
     15 -0.723310D-02 -0.116672D+00  0.204858D+00  0.936813D-02  0.160069D+00
 Force constants in internal coordinates: 
                1             2             3             4             5 
      1  0.512334D+00
      2 -0.103844D-01  0.281245D+00
      3  0.345453D-02  0.255740D-02  0.117240D+00
      4 -0.357712D-02  0.591098D-02  0.153017D+00  0.812092D+00
      5  0.971516D-02  0.653852D-01  0.227410D-02  0.480612D-02  0.216794D+00
      6  0.461563D-02  0.592172D-01  0.409997D-01  0.218772D-01  0.312509D-01
      7 -0.118309D-02  0.377498D-01  0.321385D-01  0.847186D-01  0.212659D-01
      8 -0.113052D-04 -0.102321D-02  0.118596D-02  0.249706D-03  0.113477D-02
      9  0.604430D-04 -0.465266D-03  0.480863D-05  0.320933D-04  0.786707D-03
                6             7             8             9 
      6  0.283027D+00
      7  0.958763D-01  0.482654D+00
      8  0.201676D-02  0.265814D-03 -0.765149D-02
      9  0.174489D-04 -0.179087D-03 -0.386833D-02  0.410781D-01
 Leave Link  716 at Mon Feb 21 21:08:22 2022, MaxMem= 16106127360 cpu:               1.1 elap:               0.1
 (Enter /sw/contrib/gaussian/g16/B01/g16/l103.exe)

 GradGradGradGradGradGradGradGradGradGradGradGradGradGradGradGradGradGrad
 Berny optimization.
 Search for a local minimum.
 Step number   1 out of a maximum of    2
 All quantities printed in internal units (Hartrees-Bohrs-Radians)
 Second derivative matrix not updated -- analytic derivatives used.
 The second derivative matrix:
                          r1        r2        r3        r4        a1
           r1           0.51233
           r2          -0.01038   0.28125
           r3           0.00345   0.00256   0.11724
           r4          -0.00358   0.00591   0.15302   0.81209
           a1           0.00972   0.06539   0.00227   0.00481   0.21679
           a2           0.00462   0.05922   0.04100   0.02188   0.03125
           a3          -0.00118   0.03775   0.03214   0.08472   0.02127
           d1          -0.00001  -0.00102   0.00119   0.00025   0.00113
           d2           0.00006  -0.00047   0.00000   0.00003   0.00079
                          a2        a3        d1        d2
           a2           0.28303
           a3           0.09588   0.48265
           d1           0.00202   0.00027  -0.00765
           d2           0.00002  -0.00018  -0.00387   0.04108
 ITU=  0
     Eigenvalues ---   -0.00799   0.04138   0.07833   0.17528   0.22543
     Eigenvalues ---    0.32511   0.51297   0.51732   0.87100
 Eigenvalue     1 is  -7.99D-03 should be greater than     0.000000 Eigenvector:
                          d1        d2        r3        a2        r2
   1                    0.99679   0.07874  -0.00939  -0.00664   0.00638
                          a1        r4        a3        r1
   1                   -0.00628   0.00152   0.00092   0.00039
 Angle between quadratic step and forces=  39.22 degrees.
 Linear search not attempted -- first point.
 Variable       Old X    -DE/DX   Delta X   Delta X   Delta X     New X
                                 (Linear)    (Quad)   (Total)
    r1        1.83110  -0.00000   0.00000  -0.00004  -0.00004   1.83106
    r2        2.74940  -0.00029   0.00000  -0.00157  -0.00157   2.74783
    r3        2.75670  -0.00004   0.00000  -0.00085  -0.00085   2.75585
    r4        2.21236   0.00039   0.00000   0.00067   0.00067   2.21303
    a1        1.70335  -0.00008   0.00000   0.00038   0.00038   1.70373
    a2        1.78543   0.00002   0.00000   0.00102   0.00102   1.78645
    a3        1.90362  -0.00004   0.00000  -0.00020  -0.00020   1.90342
    d1        3.06501  -0.00059   0.00000  -0.07605  -0.07605   2.98896
    d2        3.14159  -0.00030   0.00000  -0.01209  -0.01209   3.12950
         Item               Value     Threshold  Converged?
 Maximum Force            0.000592     0.000450     NO 
 RMS     Force            0.000276     0.000300     YES
 Maximum Displacement     0.076047     0.001800     NO 
 RMS     Displacement     0.025678     0.001200     NO 
 Predicted change in Energy=-7.178657D-05
                       ----------------------------
                       ! Non-Optimized Parameters !
                       ! (Angstroms and Degrees)  !
 ----------------------                            ----------------------
 !      Name          Value   Derivative information (Atomic Units)     !
 ------------------------------------------------------------------------
 !       r1          0.969    -DE/DX =    0.0                           !
 !       r2          1.4541   -DE/DX =   -0.0003                        !
 !       r3          1.4583   -DE/DX =    0.0                           !
 !       r4          1.1711   -DE/DX =    0.0004                        !
 !       a1         97.6167   -DE/DX =   -0.0001                        !
 !       a2        102.3558   -DE/DX =    0.0                           !
 !       a3        109.0582   -DE/DX =    0.0                           !
 !       d1        171.2549   -DE/DX =   -0.0006                        !
 !       d2        179.307    -DE/DX =   -0.0003                        !
 ------------------------------------------------------------------------
 GradGradGradGradGradGradGradGradGradGradGradGradGradGradGradGradGradGrad

 Leave Link  103 at Mon Feb 21 21:08:22 2022, MaxMem= 16106127360 cpu:               1.4 elap:               0.1
 (Enter /sw/contrib/gaussian/g16/B01/g16/l9999.exe)

 ----------------------------------------------------------------------

 Electric dipole moment (input orientation):
 (Debye = 10**-18 statcoulomb cm , SI units = C m)
                  (au)            (Debye)         (10**-30 SI)
   Tot        0.571947D+00      0.145374D+01      0.484917D+01
   x         -0.146497D+00     -0.372359D+00     -0.124206D+01
   y          0.895285D-02      0.227559D-01      0.759054D-01
   z         -0.552794D+00     -0.140506D+01     -0.468678D+01

 Dipole polarizability, Alpha (input orientation).
 (esu units = cm**3 , SI units = C**2 m**2 J**-1)
 Alpha(0;0):
               (au)            (10**-24 esu)      (10**-40 SI)
   iso        0.273928D+02      0.405920D+01      0.451647D+01
   aniso      0.219293D+02      0.324959D+01      0.361566D+01
   xx         0.321219D+02      0.475997D+01      0.529618D+01
   yx         0.515125D+00      0.763337D-01      0.849326D-01
   yy         0.179845D+02      0.266503D+01      0.296524D+01
   zx         0.963972D+01      0.142846D+01      0.158937D+01
   zy         0.848802D+00      0.125779D+00      0.139948D+00
   zz         0.320721D+02      0.475260D+01      0.528798D+01

 ----------------------------------------------------------------------

 Dipole orientation:
     1         -0.00000000          0.00000000          0.00000000
     8         -0.46901464         -0.02866274         -1.76978111
     8          2.07226666         -0.03990733         -2.81904655
     7          1.59044302         -0.28929950         -5.52183351
     8          3.52183487         -0.32220733         -6.60033507

 Electric dipole moment (dipole orientation):
 (Debye = 10**-18 statcoulomb cm , SI units = C m)
                  (au)            (Debye)         (10**-30 SI)
   Tot        0.571947D+00      0.145374D+01      0.484917D+01
   x          0.000000D+00      0.000000D+00      0.000000D+00
   y          0.000000D+00      0.000000D+00      0.000000D+00
   z          0.571947D+00      0.145374D+01      0.484917D+01

 Dipole polarizability, Alpha (dipole orientation).
 (esu units = cm**3 , SI units = C**2 m**2 J**-1)
 Alpha(0;0):
               (au)            (10**-24 esu)      (10**-40 SI)
   iso        0.273928D+02      0.405920D+01      0.451647D+01
   aniso      0.219293D+02      0.324959D+01      0.361566D+01
   xx         0.273462D+02      0.405229D+01      0.450879D+01
   yx        -0.392727D+00     -0.581962D-01     -0.647520D-01
   yy         0.180173D+02      0.266989D+01      0.297065D+01
   zx        -0.838397D+01     -0.124238D+01     -0.138233D+01
   zy         0.123014D+01      0.182288D+00      0.202823D+00
   zz         0.368150D+02      0.545542D+01      0.606997D+01

 ----------------------------------------------------------------------
 1\1\GINC-N2108\Freq\RMP2-FC\Aug-CC-pVTZ\H1N1O3\CGAVINH\21-Feb-2022\1\\
 #p freq mp2/aug-cc-pvtz density=current\\title\\0,1\H\O,1,r1\O,2,r2,1,
 a1\N,3,r3,2,a2,1,d1,0\O,4,r4,3,a3,2,d2,0\\r1=0.96897556\r2=1.45491931\
 r3=1.45878406\r4=1.17072885\a1=97.59494903\a2=102.29752444\a3=109.0695
 5123\d1=175.61210998\d2=180.\\Version=ES64L-G16RevB.01\State=1-A\HF=-2
 79.5017046\MP2=-280.4467575\RMSD=5.847e-09\RMSF=2.478e-04\ZeroPoint=0.
 0218754\Thermal=0.025993\Dipole=-0.1464975,0.0089529,-0.5527941\Dipole
 Deriv=0.2662593,-0.0006642,0.0482444,-0.000776,0.3553532,-0.0007794,0.
 0820396,0.0033196,0.275345,-0.3279942,-0.0067169,-0.2066342,0.0051448,
 -0.3139841,0.0020718,-0.1113347,-0.0053413,-0.2222441,-0.046635,0.0066
 428,0.1474474,-0.0623573,-0.0931368,-0.0953952,-0.7500862,-0.0827612,-
 1.3462695,0.8954073,0.0589606,0.9074513,0.0596629,0.0734721,0.109725,0
 .9210686,0.1084642,1.660674,-0.7870375,-0.0582222,-0.896509,-0.0016744
 ,-0.0217044,-0.0156221,-0.1416873,-0.0236813,-0.3675055\Polar=32.12187
 53,0.515125,17.9844828,9.6397176,0.8488016,32.0721306\Quadrupole=-1.51
 14951,-0.7325178,2.2440129,0.0280466,2.0931226,-0.0181538\PG=C01 [X(H1
 N1O3)]\NImag=1\\0.06465889,0.00036488,-0.00232448,0.00528180,-0.000184
 36,0.51233394,-0.03577470,-0.00100445,-0.01626361,0.27266671,-0.000150
 06,0.00303376,0.00028999,0.00224710,0.00232729,0.04826553,0.00071556,-
 0.50854293,0.03349009,0.00204330,0.59450287,-0.01841653,0.00116483,0.0
 1250722,-0.22004721,0.00140798,-0.02127306,0.34143055,-0.00054054,0.00
 099118,0.00013371,-0.00087282,-0.00679522,-0.00319092,-0.00236384,0.00
 504082,-0.05314084,-0.00004526,-0.00045934,-0.01943553,-0.00199058,-0.
 07842791,0.03606746,0.01027172,0.18040081,-0.00922318,-0.00041869,-0.0
 0485804,-0.01721716,-0.00340727,-0.05236561,-0.07801595,0.01408805,0.1
 7433580,0.82846171,0.00095286,-0.00271062,-0.00028342,-0.00017711,-0.0
 0478272,0.00286071,0.00669331,0.00783000,-0.00874640,-0.00995744,0.009
 66919,0.00529794,-0.00031079,-0.00473673,0.01154681,0.00138680,0.01696
 172,0.06278611,-0.00698413,-0.08120503,-0.01738373,0.01340221,0.185651
 81,-0.00124448,-0.00010656,0.00333264,0.00037236,-0.00009775,-0.008116
 94,-0.02495086,-0.01031084,-0.13782689,-0.72400543,0.00248837,-0.06224
 714,0.74982841,-0.00062714,0.00101016,0.00004408,-0.00019272,0.0062168
 9,-0.00242864,-0.00690228,-0.00706679,0.00051052,-0.00030465,-0.010005
 84,-0.00749409,0.00802678,0.00984558,-0.00570443,-0.00017515,0.0014050
 6,-0.00933776,-0.00172951,-0.02449375,-0.09008772,-0.00023038,-0.02030
 854,-0.09972841,-0.00723310,-0.11667177,0.20485832,0.00936813,0.160069
 00\\-0.00004373,-0.00032618,-0.00000255,-0.00023608,0.00041950,-0.0000
 6118,0.00027217,0.00013627,0.00000261,0.00038923,-0.00036962,0.0001516
 3,-0.00038159,0.00014003,-0.00009052\\\@


 CHINESE FORTUNE COOKIE OF JAN 1 1967 SAY....
 ALL THINGS ARE DIFFICULT BEFORE THEY ARE EASY.
 WE LEARN SO LITTLE AND FORGET SO MUCH.
 YOU WILL OVERCOME OBSTACLES TO ACHIEVE SUCCESS.
 AH SO.
 Job cpu time:       0 days  2 hours  5 minutes 54.4 seconds.
 Elapsed time:       0 days  0 hours  4 minutes 36.8 seconds.
 File lengths (MBytes):  RWF=   7239 Int=      0 D2E=      0 Chk=      8 Scr=      1
 Normal termination of Gaussian 16 at Mon Feb 21 21:08:23 2022.
