title                                                                   
Freq      RMP2-FC                                                     Aug-CC-pVTZ         
Number of atoms                            I                5
Info1-9                                    I   N=           9
          33          24           0           0           0         100
           6           2           1
Full Title                                 C   N=           1
title       
Route                                      C   N=           4
#p freq mp2/aug-cc-pvtz density=current         
Charge                                     I                0
Multiplicity                               I                1
Number of electrons                        I               32
Number of alpha electrons                  I               16
Number of beta electrons                   I               16
Number of basis functions                  I              207
Number of independent functions            I              207
Number of point charges in /Mol/           I                0
Number of translation vectors              I                0
Atomic numbers                             I   N=           5
           1           8           8           7           8
Nuclear charges                            R   N=           5
  1.00000000E+00  8.00000000E+00  8.00000000E+00  7.00000000E+00  8.00000000E+00
Current cartesian coordinates              R   N=          15
  2.07947321E+00 -1.15176242E+00  0.00000000E+00  2.48048664E+00  6.66636537E-01
  0.00000000E+00  2.81674843E-16  1.72321840E+00  0.00000000E+00 -1.86265415E+00
 -6.23966298E-02  0.00000000E+00 -1.11059841E+00 -2.19128758E+00  0.00000000E+00
Number of symbols in /Mol/                 I                0
Force Field                                I                0
Atom Types                                 C   N=           5
                                                            
Int Atom Types                             I   N=           5
           0           0           0           0           0
MM charges                                 R   N=           5
  0.00000000E+00  0.00000000E+00  0.00000000E+00  0.00000000E+00  0.00000000E+00
Integer atomic weights                     I   N=           5
           1          16          16          14          16
Real atomic weights                        R   N=           5
  1.00782504E+00  1.59949146E+01  1.59949146E+01  1.40030740E+01  1.59949146E+01
Atom fragment info                         I   N=           5
           0           0           0           0           0
Atom residue num                           I   N=           5
           0           0           0           0           0
Nuclear spins                              I   N=           5
           1           0           0           2           0
Nuclear ZEff                               R   N=           5
 -1.00000000E+00 -5.60000000E+00 -5.60000000E+00 -4.55000000E+00 -5.60000000E+00
Nuclear ZNuc                               R   N=           5
  1.00000000E+00  8.00000000E+00  8.00000000E+00  7.00000000E+00  8.00000000E+00
Nuclear QMom                               R   N=           5
  0.00000000E+00  0.00000000E+00  0.00000000E+00  2.04400000E+00  0.00000000E+00
Nuclear GFac                               R   N=           5
  2.79284600E+00  0.00000000E+00  0.00000000E+00  4.03761000E-01  0.00000000E+00
MicOpt                                     I   N=           5
          -1          -1          -1          -1          -1
Number of residues                         I                0
Number of secondary structures             I                0
SymInf integers                            I   N=          26
           1           2           1           1           1           1
           1          -1           0           0           0           0
           0           0           0           0           0           0
           0           0           0           0           0           0
           0           0
RotTr to input orientation                 R   N=          12
 -9.76535520E-01  0.00000000E+00  2.15356400E-01  2.15356400E-01  0.00000000E+00
  9.76535520E-01  0.00000000E+00  1.00000000E+00  0.00000000E+00  2.27871886E+00
  0.00000000E+00  6.76909049E-01
Number of contracted shells                I               65
Number of primitive shells                 I              119
Pure/Cartesian d shells                    I                0
Pure/Cartesian f shells                    I                0
Highest angular momentum                   I                3
Largest degree of contraction              I                7
Shell types                                I   N=          65
           0           0           0           0           1           1
           1          -2          -2           0           0           0
           0           0           1           1           1           1
          -2          -2          -2          -3          -3           0
           0           0           0           0           1           1
           1           1          -2          -2          -2          -3
          -3           0           0           0           0           0
           1           1           1           1          -2          -2
          -2          -3          -3           0           0           0
           0           0           1           1           1           1
          -2          -2          -2          -3          -3
Number of primitives per shell             I   N=          65
           3           1           1           1           1           1
           1           1           1           7           6           1
           1           1           3           1           1           1
           1           1           1           1           1           7
           6           1           1           1           3           1
           1           1           1           1           1           1
           1           7           6           1           1           1
           3           1           1           1           1           1
           1           1           1           7           6           1
           1           1           3           1           1           1
           1           1           1           1           1
Shell to atom map                          I   N=          65
           1           1           1           1           1           1
           1           1           1           2           2           2
           2           2           2           2           2           2
           2           2           2           2           2           3
           3           3           3           3           3           3
           3           3           3           3           3           3
           3           4           4           4           4           4
           4           4           4           4           4           4
           4           4           4           5           5           5
           5           5           5           5           5           5
           5           5           5           5           5
Primitive exponents                        R   N=         119
  3.38700000E+01  5.09500000E+00  1.15900000E+00  3.25800000E-01  1.02700000E-01
  2.52600000E-02  1.40700000E+00  3.88000000E-01  1.02000000E-01  1.05700000E+00
  2.47000000E-01  1.53300000E+04  2.29900000E+03  5.22400000E+02  1.47300000E+02
  4.75500000E+01  1.67600000E+01  6.20700000E+00  5.22400000E+02  1.47300000E+02
  4.75500000E+01  1.67600000E+01  6.20700000E+00  6.88200000E-01  1.75200000E+00
  2.38400000E-01  7.37600000E-02  3.44600000E+01  7.74900000E+00  2.28000000E+00
  7.15600000E-01  2.14000000E-01  5.97400000E-02  2.31400000E+00  6.45000000E-01
  2.14000000E-01  1.42800000E+00  5.00000000E-01  1.53300000E+04  2.29900000E+03
  5.22400000E+02  1.47300000E+02  4.75500000E+01  1.67600000E+01  6.20700000E+00
  5.22400000E+02  1.47300000E+02  4.75500000E+01  1.67600000E+01  6.20700000E+00
  6.88200000E-01  1.75200000E+00  2.38400000E-01  7.37600000E-02  3.44600000E+01
  7.74900000E+00  2.28000000E+00  7.15600000E-01  2.14000000E-01  5.97400000E-02
  2.31400000E+00  6.45000000E-01  2.14000000E-01  1.42800000E+00  5.00000000E-01
  1.14200000E+04  1.71200000E+03  3.89300000E+02  1.10000000E+02  3.55700000E+01
  1.25400000E+01  4.64400000E+00  3.89300000E+02  1.10000000E+02  3.55700000E+01
  1.25400000E+01  4.64400000E+00  5.11800000E-01  1.29300000E+00  1.78700000E-01
  5.76000000E-02  2.66300000E+01  5.94800000E+00  1.74200000E+00  5.55000000E-01
  1.72500000E-01  4.91000000E-02  1.65400000E+00  4.69000000E-01  1.51000000E-01
  1.09300000E+00  3.64000000E-01  1.53300000E+04  2.29900000E+03  5.22400000E+02
  1.47300000E+02  4.75500000E+01  1.67600000E+01  6.20700000E+00  5.22400000E+02
  1.47300000E+02  4.75500000E+01  1.67600000E+01  6.20700000E+00  6.88200000E-01
  1.75200000E+00  2.38400000E-01  7.37600000E-02  3.44600000E+01  7.74900000E+00
  2.28000000E+00  7.15600000E-01  2.14000000E-01  5.97400000E-02  2.31400000E+00
  6.45000000E-01  2.14000000E-01  1.42800000E+00  5.00000000E-01
Contraction coefficients                   R   N=         119
  2.54948632E-02  1.90362766E-01  8.52162022E-01  1.00000000E+00  1.00000000E+00
  1.00000000E+00  1.00000000E+00  1.00000000E+00  1.00000000E+00  1.00000000E+00
  1.00000000E+00  5.19808943E-04  4.02025621E-03  2.07128267E-02  8.10105536E-02
  2.35962985E-01  4.42653446E-01  3.57064423E-01 -4.42115008E-05 -1.22591041E-03
 -1.05517725E-02 -6.74452633E-02 -1.71198607E-01  1.07329856E+00  1.00000000E+00
  1.00000000E+00  1.00000000E+00  4.11634896E-02  2.57762836E-01  8.02419274E-01
  1.00000000E+00  1.00000000E+00  1.00000000E+00  1.00000000E+00  1.00000000E+00
  1.00000000E+00  1.00000000E+00  1.00000000E+00  5.19808943E-04  4.02025621E-03
  2.07128267E-02  8.10105536E-02  2.35962985E-01  4.42653446E-01  3.57064423E-01
 -4.42115008E-05 -1.22591041E-03 -1.05517725E-02 -6.74452633E-02 -1.71198607E-01
  1.07329856E+00  1.00000000E+00  1.00000000E+00  1.00000000E+00  4.11634896E-02
  2.57762836E-01  8.02419274E-01  1.00000000E+00  1.00000000E+00  1.00000000E+00
  1.00000000E+00  1.00000000E+00  1.00000000E+00  1.00000000E+00  1.00000000E+00
  5.34563860E-04  4.13435660E-03  2.12335358E-02  8.25006224E-02  2.38138871E-01
  4.42551547E-01  3.53757422E-01 -4.89867350E-05 -1.19527323E-03 -1.03490714E-02
 -6.48680190E-02 -1.71552477E-01  1.07289568E+00  1.00000000E+00  1.00000000E+00
  1.00000000E+00  3.98072123E-02  2.49002660E-01  8.10479727E-01  1.00000000E+00
  1.00000000E+00  1.00000000E+00  1.00000000E+00  1.00000000E+00  1.00000000E+00
  1.00000000E+00  1.00000000E+00  5.19808943E-04  4.02025621E-03  2.07128267E-02
  8.10105536E-02  2.35962985E-01  4.42653446E-01  3.57064423E-01 -4.42115008E-05
 -1.22591041E-03 -1.05517725E-02 -6.74452633E-02 -1.71198607E-01  1.07329856E+00
  1.00000000E+00  1.00000000E+00  1.00000000E+00  4.11634896E-02  2.57762836E-01
  8.02419274E-01  1.00000000E+00  1.00000000E+00  1.00000000E+00  1.00000000E+00
  1.00000000E+00  1.00000000E+00  1.00000000E+00  1.00000000E+00
Coordinates of each shell                  R   N=         195
  2.07947321E+00 -1.15176242E+00  0.00000000E+00  2.07947321E+00 -1.15176242E+00
  0.00000000E+00  2.07947321E+00 -1.15176242E+00  0.00000000E+00  2.07947321E+00
 -1.15176242E+00  0.00000000E+00  2.07947321E+00 -1.15176242E+00  0.00000000E+00
  2.07947321E+00 -1.15176242E+00  0.00000000E+00  2.07947321E+00 -1.15176242E+00
  0.00000000E+00  2.07947321E+00 -1.15176242E+00  0.00000000E+00  2.07947321E+00
 -1.15176242E+00  0.00000000E+00  2.48048664E+00  6.66636537E-01  0.00000000E+00
  2.48048664E+00  6.66636537E-01  0.00000000E+00  2.48048664E+00  6.66636537E-01
  0.00000000E+00  2.48048664E+00  6.66636537E-01  0.00000000E+00  2.48048664E+00
  6.66636537E-01  0.00000000E+00  2.48048664E+00  6.66636537E-01  0.00000000E+00
  2.48048664E+00  6.66636537E-01  0.00000000E+00  2.48048664E+00  6.66636537E-01
  0.00000000E+00  2.48048664E+00  6.66636537E-01  0.00000000E+00  2.48048664E+00
  6.66636537E-01  0.00000000E+00  2.48048664E+00  6.66636537E-01  0.00000000E+00
  2.48048664E+00  6.66636537E-01  0.00000000E+00  2.48048664E+00  6.66636537E-01
  0.00000000E+00  2.48048664E+00  6.66636537E-01  0.00000000E+00  2.81990188E-17
  1.72321840E+00  0.00000000E+00  2.81990188E-17  1.72321840E+00  0.00000000E+00
  2.81990188E-17  1.72321840E+00  0.00000000E+00  2.81990188E-17  1.72321840E+00
  0.00000000E+00  2.81990188E-17  1.72321840E+00  0.00000000E+00  2.81990188E-17
  1.72321840E+00  0.00000000E+00  2.81990188E-17  1.72321840E+00  0.00000000E+00
  2.81990188E-17  1.72321840E+00  0.00000000E+00  2.81990188E-17  1.72321840E+00
  0.00000000E+00  2.81990188E-17  1.72321840E+00  0.00000000E+00  2.81990188E-17
  1.72321840E+00  0.00000000E+00  2.81990188E-17  1.72321840E+00  0.00000000E+00
  2.81990188E-17  1.72321840E+00  0.00000000E+00  2.81990188E-17  1.72321840E+00
  0.00000000E+00 -1.86265415E+00 -6.23966298E-02  0.00000000E+00 -1.86265415E+00
 -6.23966298E-02  0.00000000E+00 -1.86265415E+00 -6.23966298E-02  0.00000000E+00
 -1.86265415E+00 -6.23966298E-02  0.00000000E+00 -1.86265415E+00 -6.23966298E-02
  0.00000000E+00 -1.86265415E+00 -6.23966298E-02  0.00000000E+00 -1.86265415E+00
 -6.23966298E-02  0.00000000E+00 -1.86265415E+00 -6.23966298E-02  0.00000000E+00
 -1.86265415E+00 -6.23966298E-02  0.00000000E+00 -1.86265415E+00 -6.23966298E-02
  0.00000000E+00 -1.86265415E+00 -6.23966298E-02  0.00000000E+00 -1.86265415E+00
 -6.23966298E-02  0.00000000E+00 -1.86265415E+00 -6.23966298E-02  0.00000000E+00
 -1.86265415E+00 -6.23966298E-02  0.00000000E+00 -1.11059841E+00 -2.19128758E+00
  0.00000000E+00 -1.11059841E+00 -2.19128758E+00  0.00000000E+00 -1.11059841E+00
 -2.19128758E+00  0.00000000E+00 -1.11059841E+00 -2.19128758E+00  0.00000000E+00
 -1.11059841E+00 -2.19128758E+00  0.00000000E+00 -1.11059841E+00 -2.19128758E+00
  0.00000000E+00 -1.11059841E+00 -2.19128758E+00  0.00000000E+00 -1.11059841E+00
 -2.19128758E+00  0.00000000E+00 -1.11059841E+00 -2.19128758E+00  0.00000000E+00
 -1.11059841E+00 -2.19128758E+00  0.00000000E+00 -1.11059841E+00 -2.19128758E+00
  0.00000000E+00 -1.11059841E+00 -2.19128758E+00  0.00000000E+00 -1.11059841E+00
 -2.19128758E+00  0.00000000E+00 -1.11059841E+00 -2.19128758E+00  0.00000000E+00
Num ILSW                                   I              100
ILSW                                       I   N=         100
           0           0           0           0           2           0
           0           0           0           0           0          -1
           5           0           0           0           2           0
           0           0           0           0           1           0
           1           0           0           0           0           0
           0           0      100000           0          -1           0
           0           0           0           0           0           0
           0           0           0           1           1           0
           0 -2000000000           1           0           0           0
           0           0           4          52           0           0
           0           0           0           0           0           0
           0           0           0           5           4           1
           0           0           0           0           0           0
           0           0           0           0           0           0
           0           0           0           0           0           0
           0           0           0           0           0           0
           0           0           0           0
Num RLSW                                   I               52
RLSW                                       R   N=          52
  1.00000000E+00  1.00000000E+00  1.00000000E+00  1.00000000E+00  1.00000000E+00
  0.00000000E+00  0.00000000E+00  1.00000000E+00  0.00000000E+00  0.00000000E+00
  0.00000000E+00  0.00000000E+00  1.00000000E+00  0.00000000E+00  0.00000000E+00
  0.00000000E+00  0.00000000E+00  1.00000000E+00  0.00000000E+00  0.00000000E+00
  0.00000000E+00  0.00000000E+00  1.00000000E+00  0.00000000E+00  0.00000000E+00
  0.00000000E+00  0.00000000E+00  1.00000000E+00  0.00000000E+00  0.00000000E+00
  0.00000000E+00  0.00000000E+00  1.00000000E+00  0.00000000E+00  0.00000000E+00
  0.00000000E+00  0.00000000E+00  0.00000000E+00  1.00000000E+00  1.00000000E+00
  0.00000000E+00  1.00000000E+00  0.00000000E+00  0.00000000E+00  0.00000000E+00
  0.00000000E+00  0.00000000E+00  0.00000000E+00  0.00000000E+00  0.00000000E+00
  0.00000000E+00  0.00000000E+00
MxBond                                     I                2
NBond                                      I   N=           5
           1           2           2           2           1
IBond                                      I   N=          10
           2           0           1           3           2           4
           3           5           4           0
RBond                                      R   N=          10
  1.00000000E+00  0.00000000E+00  1.00000000E+00  1.00000000E+00  1.00000000E+00
  1.00000000E+00  1.00000000E+00  2.00000000E+00  2.00000000E+00  0.00000000E+00
Virial Ratio                               R      2.002108937230320E+00
SCF Energy                                 R     -2.795076579058484E+02
MP2 Energy                                 R     -2.804551517679590E+02
Total Energy                               R     -2.804551517679590E+02
Post-SCF wavefunction norm                 R      1.582835037019914E+00
RMS Force                                  R      2.192624930097240E-03
RMS Density                                R      4.011228384023830E-09
NImag                                      I                0
Job Status                                 I                1
Nuclear derivative order                   I                2
External E-field                           R   N=          35
  0.00000000E+00  0.00000000E+00  0.00000000E+00  0.00000000E+00  0.00000000E+00
  0.00000000E+00  0.00000000E+00  0.00000000E+00  0.00000000E+00  0.00000000E+00
  0.00000000E+00  0.00000000E+00  0.00000000E+00  0.00000000E+00  0.00000000E+00
  0.00000000E+00  0.00000000E+00  0.00000000E+00  0.00000000E+00  0.00000000E+00
  0.00000000E+00  0.00000000E+00  0.00000000E+00  0.00000000E+00  0.00000000E+00
  0.00000000E+00  0.00000000E+00  0.00000000E+00  0.00000000E+00  0.00000000E+00
  0.00000000E+00  0.00000000E+00  0.00000000E+00  0.00000000E+00  0.00000000E+00
IOpCl                                      I                0
IROHF                                      I                0
Alpha Orbital Energies                     R   N=         207
 -2.07224260E+01 -2.06835769E+01 -2.06691605E+01 -1.58240927E+01 -1.64837886E+00
 -1.50514011E+00 -1.29943784E+00 -9.59552192E-01 -8.36383774E-01 -7.60941833E-01
 -7.43626325E-01 -6.37968219E-01 -6.18203296E-01 -6.16913283E-01 -5.04815354E-01
 -4.99044439E-01  3.49967378E-02  6.26037615E-02  9.51458892E-02  1.00449612E-01
  1.19708937E-01  1.22925984E-01  1.48868058E-01  1.51718533E-01  1.77435941E-01
  1.80586854E-01  1.89669215E-01  2.11155245E-01  2.16644402E-01  2.42683466E-01
  2.46424909E-01  2.69462207E-01  3.13563693E-01  3.17348775E-01  3.38496424E-01
  3.44802790E-01  3.52221203E-01  3.96788713E-01  4.49495010E-01  4.88975370E-01
  5.05222607E-01  5.18763595E-01  5.45812459E-01  5.61571444E-01  5.99891907E-01
  6.20447392E-01  6.39852512E-01  6.90057073E-01  7.15081516E-01  7.24627178E-01
  7.43882641E-01  7.64317436E-01  7.67831383E-01  7.95714378E-01  8.07777181E-01
  8.39665962E-01  8.42639221E-01  8.51747536E-01  8.86304325E-01  9.08304953E-01
  9.32372258E-01  9.49088598E-01  9.52649753E-01  1.01898603E+00  1.03289834E+00
  1.06537783E+00  1.06689187E+00  1.09691421E+00  1.14517654E+00  1.15792375E+00
  1.17143866E+00  1.22332147E+00  1.22683533E+00  1.24644615E+00  1.35502077E+00
  1.35690430E+00  1.37277856E+00  1.46936727E+00  1.48578470E+00  1.50445526E+00
  1.54212799E+00  1.59717904E+00  1.59909791E+00  1.60952076E+00  1.63416264E+00
  1.69679483E+00  1.74049709E+00  1.80116680E+00  1.83223689E+00  1.88930017E+00
  1.89611605E+00  1.93478400E+00  1.98142088E+00  1.99212762E+00  2.05297003E+00
  2.12798493E+00  2.13255418E+00  2.16825769E+00  2.19001903E+00  2.24581545E+00
  2.25984550E+00  2.29344678E+00  2.35408478E+00  2.36940583E+00  2.38582061E+00
  2.40233715E+00  2.43929823E+00  2.47129448E+00  2.48180921E+00  2.52933323E+00
  2.54435971E+00  2.55180990E+00  2.56206134E+00  2.62034658E+00  2.63178588E+00
  2.67769883E+00  2.67965271E+00  2.75828850E+00  2.81346551E+00  2.82395636E+00
  2.84024919E+00  2.92385621E+00  2.99411192E+00  3.05234150E+00  3.05439053E+00
  3.11719520E+00  3.12021265E+00  3.17509040E+00  3.21376563E+00  3.31132950E+00
  3.33496515E+00  3.37104426E+00  3.47562018E+00  3.69150019E+00  3.87711427E+00
  3.93530182E+00  4.18693163E+00  4.22769629E+00  4.22994516E+00  4.27697848E+00
  4.37223375E+00  4.50295499E+00  4.54128551E+00  4.55907959E+00  4.60268431E+00
  4.69569445E+00  4.81207935E+00  4.91034175E+00  4.91677763E+00  4.94321674E+00
  5.00805491E+00  5.00924497E+00  5.11406535E+00  5.13580288E+00  5.18100071E+00
  5.25253488E+00  5.25989441E+00  5.32789827E+00  5.34590422E+00  5.36736165E+00
  5.54867855E+00  5.64876854E+00  5.71192604E+00  5.89147436E+00  5.99465040E+00
  6.26440550E+00  6.30175796E+00  6.37228666E+00  6.37911393E+00  6.59968840E+00
  6.66251605E+00  6.66716720E+00  6.69736025E+00  6.73055174E+00  6.78990843E+00
  6.80182390E+00  6.86341745E+00  6.98176724E+00  7.02062849E+00  7.06467640E+00
  7.08037318E+00  7.13673372E+00  7.18028045E+00  7.18969744E+00  7.20239616E+00
  7.24855156E+00  7.24992337E+00  7.27493724E+00  7.35477045E+00  7.40665624E+00
  7.43921338E+00  7.44543080E+00  7.46285828E+00  7.57870887E+00  7.66780563E+00
  7.68044985E+00  7.79958461E+00  7.89027832E+00  7.97513212E+00  8.08118910E+00
  8.31049172E+00  8.50597423E+00  8.66348466E+00  1.37184817E+01  1.48517683E+01
  1.51739159E+01  1.58084114E+01
Alpha MO coefficients                      R   N=       42849
  6.16351593E-05 -1.92142765E-06 -1.06487175E-03  1.68185819E-05 -5.08963986E-05
  4.08214579E-05  0.00000000E+00 -8.79514484E-05 -2.76232646E-04  0.00000000E+00
 -5.62946797E-06 -3.39146970E-04  0.00000000E+00  4.12265331E-05  0.00000000E+00
  0.00000000E+00 -2.49190085E-05  1.13607194E-05  2.26892759E-04  0.00000000E+00
  0.00000000E+00 -3.81650307E-05 -2.11596764E-04  2.97079263E-03 -9.86829308E-05
 -1.02073329E-04  3.58425371E-03  2.47493833E-03  1.01348177E-04 -5.39606400E-05
  0.00000000E+00 -7.26156723E-04  2.93708421E-04  0.00000000E+00 -2.00775388E-03
  1.15908657E-03  0.00000000E+00 -5.37251959E-04  5.04049083E-05  0.00000000E+00
  2.01915474E-05  0.00000000E+00  0.00000000E+00 -7.56762065E-06  4.39460354E-05
 -4.41270016E-04  0.00000000E+00  0.00000000E+00  4.15621283E-04 -6.68299267E-04
 -3.65171298E-04  0.00000000E+00  0.00000000E+00  5.43738668E-04 -7.51730978E-04
  0.00000000E+00  7.30799744E-05 -5.25631480E-05  0.00000000E+00  0.00000000E+00
 -2.59245463E-05  1.09132267E-04  0.00000000E+00  2.05935179E-04 -5.15184971E-05
  0.00000000E+00  0.00000000E+00 -1.58503199E-04  2.99653521E-04  9.76889927E-01
 -9.19468143E-03  4.34313722E-02  4.41782088E-04 -2.21767936E-03  4.06667064E-04
 -2.17211277E-03  0.00000000E+00 -2.59154570E-04  2.29333222E-03  0.00000000E+00
 -2.39917522E-03 -4.29523288E-04  0.00000000E+00 -2.35842443E-04  9.65589839E-05
  0.00000000E+00  1.24966413E-06  0.00000000E+00  0.00000000E+00 -6.22445049E-06
  4.36580160E-05  8.36985187E-04  0.00000000E+00  0.00000000E+00 -4.68735616E-04
 -1.94904594E-04 -1.24097831E-04  0.00000000E+00  0.00000000E+00 -5.46813982E-04
  3.72023431E-04  0.00000000E+00 -9.12136455E-06 -7.93237892E-05  0.00000000E+00
  0.00000000E+00 -7.62105597E-06  4.77505095E-05  0.00000000E+00  9.27475385E-05
 -6.47418762E-06  0.00000000E+00  0.00000000E+00 -3.45243500E-04  3.90408297E-04
  1.11364053E-04  5.11715046E-04 -3.21178724E-04 -9.53723598E-04  3.14197591E-04
 -4.14899861E-05 -9.67160218E-05  0.00000000E+00  7.65372260E-04  1.18592834E-03
  0.00000000E+00 -7.74065361E-04 -6.47619917E-04  0.00000000E+00  1.95437423E-04
  2.13496837E-04  0.00000000E+00 -6.00620036E-05  0.00000000E+00  0.00000000E+00
  1.79079357E-05  1.08369609E-04 -4.16609445E-04  0.00000000E+00  0.00000000E+00
  9.86644231E-05  1.09892326E-03  3.17083490E-05  0.00000000E+00  0.00000000E+00
 -2.96127777E-04  2.00281039E-05  0.00000000E+00 -7.78885450E-05 -1.12553582E-04
  0.00000000E+00  0.00000000E+00 -9.05576646E-05  1.03198624E-04  0.00000000E+00
 -1.27151222E-04  5.01359196E-05  0.00000000E+00  0.00000000E+00  3.65190044E-05
  5.19545824E-04 -6.00625458E-04  5.78716405E-05 -6.62050185E-05  2.80717540E-04
 -1.39808915E-04 -2.66216695E-05 -4.12231481E-05  0.00000000E+00  1.56632073E-04
  2.67913371E-04  0.00000000E+00  4.93537276E-04  3.51510165E-04  0.00000000E+00
 -2.25817530E-04 -5.29660849E-05  0.00000000E+00 -1.40738460E-05  0.00000000E+00
  0.00000000E+00  2.46746025E-06  1.67281407E-05 -2.19704225E-06  0.00000000E+00
  0.00000000E+00 -1.63860809E-04 -8.49147574E-06 -2.72635172E-05  0.00000000E+00
  0.00000000E+00 -1.75993342E-04 -5.50325629E-05  0.00000000E+00 -4.29921135E-06
 -7.86417806E-06  0.00000000E+00  0.00000000E+00 -1.77491743E-05  1.12649509E-05
  0.00000000E+00  3.90529582E-05  5.99520779E-05  0.00000000E+00  0.00000000E+00
  1.62857097E-04 -1.05052462E-04  3.89414421E-05  8.63871550E-05 -8.31226585E-05
 -2.88782961E-05  2.29231802E-05  1.44851478E-05  0.00000000E+00  2.33258901E-04
  5.26598056E-05  0.00000000E+00  1.14814685E-04  2.02788882E-05  0.00000000E+00
  1.13004928E-05  0.00000000E+00  0.00000000E+00 -9.72281903E-06  1.96117678E-05
  1.93998763E-05  0.00000000E+00  0.00000000E+00 -8.59248305E-05  7.01552193E-05
 -3.66289517E-04  3.27327098E-05 -1.91423129E-05 -5.58259675E-04  1.43658252E-04
  7.52117220E-06  1.36482452E-05  0.00000000E+00 -8.94921815E-07 -4.38241853E-05
  0.00000000E+00  1.83514316E-04  1.63045088E-04  0.00000000E+00 -3.98416952E-05
  5.41116522E-05  0.00000000E+00 -2.20873921E-06  0.00000000E+00  0.00000000E+00
 -8.43876237E-06 -1.08929547E-05  2.57642888E-05  0.00000000E+00  0.00000000E+00
  5.33345042E-05  1.08688263E-04  6.72600332E-05  0.00000000E+00  0.00000000E+00
 -2.70870307E-05 -8.73823419E-05  0.00000000E+00  7.72341970E-06  9.99241277E-06
  0.00000000E+00  0.00000000E+00 -1.41929256E-06 -2.66321094E-05  0.00000000E+00
 -1.52860601E-05 -3.93064655E-05  0.00000000E+00  0.00000000E+00 -3.13328917E-06
 -1.84285855E-05  6.31620367E-04  2.65098786E-05 -2.42434215E-05  3.41769571E-04
 -3.65812032E-04  1.73297227E-05  2.68591346E-05  0.00000000E+00 -7.50415691E-05
 -1.59737672E-04  0.00000000E+00  1.04438809E-04 -2.41988017E-04  0.00000000E+00
 -1.65930890E-04  1.38994093E-04  0.00000000E+00 -4.32582603E-06  0.00000000E+00
  0.00000000E+00 -3.11432676E-05 -9.69797537E-06 -5.35616008E-05  0.00000000E+00
  0.00000000E+00  9.11688548E-05  1.28948459E-04 -7.11745132E-05  0.00000000E+00
  0.00000000E+00  3.38058459E-05  4.35959679E-05  0.00000000E+00  3.10739078E-06
  1.88704834E-06  0.00000000E+00  0.00000000E+00 -9.20766611E-06 -4.95124266E-06
  0.00000000E+00  4.49573760E-06 -2.37980061E-05  0.00000000E+00  0.00000000E+00
  9.53856698E-05 -1.62065382E-04  2.34872328E-04  1.34807483E-03 -1.44070437E-04
 -7.83960167E-04  8.87816949E-04  6.30151472E-05 -6.99037693E-05  0.00000000E+00
  5.48926363E-04 -2.10907415E-03  0.00000000E+00  8.77300857E-05  5.04820647E-04
  0.00000000E+00  1.84245508E-04 -3.11877612E-04  0.00000000E+00 -1.27341105E-04
  0.00000000E+00  0.00000000E+00 -2.07455748E-04 -1.57017535E-04 -4.56226888E-04
  0.00000000E+00  0.00000000E+00 -6.02128166E-04 -9.28130522E-04 -3.68661997E-05
  0.00000000E+00  0.00000000E+00  6.56391518E-05  1.16787177E-04  0.00000000E+00
  8.69999026E-06  3.80540471E-05  0.00000000E+00  0.00000000E+00 -2.20955497E-05
 -4.26347510E-06  0.00000000E+00 -1.35997481E-04  1.56452447E-04  0.00000000E+00
  0.00000000E+00 -3.11490445E-04 -3.60761452E-05  9.76641401E-01 -9.88131041E-03
  4.35855779E-02  3.70964695E-03 -8.98927129E-04 -4.33004520E-04  2.13800263E-03
  0.00000000E+00  4.95060417E-04 -2.51178399E-03  0.00000000E+00 -8.22183657E-05
  8.18199579E-04  0.00000000E+00  1.02213078E-04 -6.55320485E-05  0.00000000E+00
 -1.93232652E-04  0.00000000E+00  0.00000000E+00 -7.52764223E-05 -4.09910556E-05
  4.12546002E-04  0.00000000E+00  0.00000000E+00  8.69768678E-04  4.72748453E-04
 -2.02241101E-04  0.00000000E+00  0.00000000E+00 -1.41538494E-04 -3.58098566E-05
  0.00000000E+00 -4.66214756E-06  7.04730263E-05  0.00000000E+00  0.00000000E+00
 -2.78511307E-05  1.10910936E-05  0.00000000E+00 -8.82968224E-05  9.39341938E-05
  0.00000000E+00  0.00000000E+00 -1.64555343E-04  2.09771925E-04  3.71732689E-04
  2.00499127E-03  1.44362232E-03 -1.84396303E-05  5.35507109E-05  2.67351453E-04
  0.00000000E+00  3.73807224E-04  1.02037216E-03  0.00000000E+00 -1.42129389E-04
  2.48260703E-04  0.00000000E+00 -2.43398678E-05  0.00000000E+00  0.00000000E+00
  3.39344924E-05 -3.01660259E-05 -2.20032011E-04  0.00000000E+00  0.00000000E+00
 -3.37487151E-04  4.09822124E-04  9.76833066E-01 -9.18990356E-03  4.34686342E-02
  1.59134460E-04 -1.94054669E-03 -2.05269575E-03 -8.18310721E-04  0.00000000E+00
  2.09218389E-03  7.53912206E-04  0.00000000E+00 -4.17265755E-04  6.59952837E-04
  0.00000000E+00  2.29932909E-04 -3.01098583E-04  0.00000000E+00  2.98573605E-05
  0.00000000E+00  0.00000000E+00 -7.42522418E-05  6.53251168E-05  7.66790140E-04
  0.00000000E+00  0.00000000E+00 -2.11339413E-04  3.55468456E-04 -2.39818696E-04
  0.00000000E+00  0.00000000E+00  3.37397602E-04  2.52841850E-07  0.00000000E+00
 -8.11662120E-05  2.42571132E-06  0.00000000E+00  0.00000000E+00  1.52069235E-05