title                                                                   
Freq      RMP2-FC                                                     Aug-CC-pVTZ         
Number of atoms                            I                5
Info1-9                                    I   N=           9
          33          24           0           0           0         100
           6           2           1
Full Title                                 C   N=           1
title       
Route                                      C   N=           4
#p freq mp2/aug-cc-pvtz density=current         
Charge                                     I                0
Multiplicity                               I                1
Number of electrons                        I               32
Number of alpha electrons                  I               16
Number of beta electrons                   I               16
Number of basis functions                  I              207
Number of independent functions            I              207
Number of point charges in /Mol/           I                0
Number of translation vectors              I                0
Atomic numbers                             I   N=           5
           1           8           8           7           8
Nuclear charges                            R   N=           5
  1.00000000E+00  8.00000000E+00  8.00000000E+00  7.00000000E+00  8.00000000E+00
Current cartesian coordinates              R   N=          15
  2.08469546E+00 -1.11648738E+00  0.00000000E+00  2.46890913E+00  7.05535235E-01
  0.00000000E+00  1.98043171E-16  1.73036901E+00  0.00000000E+00 -1.86728966E+00
 -9.30581555E-02  0.00000000E+00 -1.09561762E+00 -2.21491744E+00  0.00000000E+00
Number of symbols in /Mol/                 I                0
Force Field                                I                0
Atom Types                                 C   N=           5
                                                            
Int Atom Types                             I   N=           5
           0           0           0           0           0
MM charges                                 R   N=           5
  0.00000000E+00  0.00000000E+00  0.00000000E+00  0.00000000E+00  0.00000000E+00
Integer atomic weights                     I   N=           5
           1          16          16          14          16
Real atomic weights                        R   N=           5
  1.00782504E+00  1.59949146E+01  1.59949146E+01  1.40030740E+01  1.59949146E+01
Atom fragment info                         I   N=           5
           0           0           0           0           0
Atom residue num                           I   N=           5
           0           0           0           0           0
Nuclear spins                              I   N=           5
           1           0           0           2           0
Nuclear ZEff                               R   N=           5
 -1.00000000E+00 -5.60000000E+00 -5.60000000E+00 -4.55000000E+00 -5.60000000E+00
Nuclear ZNuc                               R   N=           5
  1.00000000E+00  8.00000000E+00  8.00000000E+00  7.00000000E+00  8.00000000E+00
Nuclear QMom                               R   N=           5
  0.00000000E+00  0.00000000E+00  0.00000000E+00  2.04400000E+00  0.00000000E+00
Nuclear GFac                               R   N=           5
  2.79284600E+00  0.00000000E+00  0.00000000E+00  4.03761000E-01  0.00000000E+00
MicOpt                                     I   N=           5
          -1          -1          -1          -1          -1
Number of residues                         I                0
Number of secondary structures             I                0
SymInf integers                            I   N=          26
           1           2           1           1           1           1
           1          -1           0           0           0           0
           0           0           0           0           0           0
           0           0           0           0           0           0
           0           0
RotTr to input orientation                 R   N=          12
 -9.78481531E-01  0.00000000E+00  2.06334421E-01  2.06334421E-01  0.00000000E+00
  9.78481531E-01  0.00000000E+00  1.00000000E+00  0.00000000E+00  2.27020579E+00
  0.00000000E+00  6.62317845E-01
Number of contracted shells                I               65
Number of primitive shells                 I              119
Pure/Cartesian d shells                    I                0
Pure/Cartesian f shells                    I                0
Highest angular momentum                   I                3
Largest degree of contraction              I                7
Shell types                                I   N=          65
           0           0           0           0           1           1
           1          -2          -2           0           0           0
           0           0           1           1           1           1
          -2          -2          -2          -3          -3           0
           0           0           0           0           1           1
           1           1          -2          -2          -2          -3
          -3           0           0           0           0           0
           1           1           1           1          -2          -2
          -2          -3          -3           0           0           0
           0           0           1           1           1           1
          -2          -2          -2          -3          -3
Number of primitives per shell             I   N=          65
           3           1           1           1           1           1
           1           1           1           7           6           1
           1           1           3           1           1           1
           1           1           1           1           1           7
           6           1           1           1           3           1
           1           1           1           1           1           1
           1           7           6           1           1           1
           3           1           1           1           1           1
           1           1           1           7           6           1
           1           1           3           1           1           1
           1           1           1           1           1
Shell to atom map                          I   N=          65
           1           1           1           1           1           1
           1           1           1           2           2           2
           2           2           2           2           2           2
           2           2           2           2           2           3
           3           3           3           3           3           3
           3           3           3           3           3           3
           3           4           4           4           4           4
           4           4           4           4           4           4
           4           4           4           5           5           5
           5           5           5           5           5           5
           5           5           5           5           5
Primitive exponents                        R   N=         119
  3.38700000E+01  5.09500000E+00  1.15900000E+00  3.25800000E-01  1.02700000E-01
  2.52600000E-02  1.40700000E+00  3.88000000E-01  1.02000000E-01  1.05700000E+00
  2.47000000E-01  1.53300000E+04  2.29900000E+03  5.22400000E+02  1.47300000E+02
  4.75500000E+01  1.67600000E+01  6.20700000E+00  5.22400000E+02  1.47300000E+02
  4.75500000E+01  1.67600000E+01  6.20700000E+00  6.88200000E-01  1.75200000E+00
  2.38400000E-01  7.37600000E-02  3.44600000E+01  7.74900000E+00  2.28000000E+00
  7.15600000E-01  2.14000000E-01  5.97400000E-02  2.31400000E+00  6.45000000E-01
  2.14000000E-01  1.42800000E+00  5.00000000E-01  1.53300000E+04  2.29900000E+03
  5.22400000E+02  1.47300000E+02  4.75500000E+01  1.67600000E+01  6.20700000E+00
  5.22400000E+02  1.47300000E+02  4.75500000E+01  1.67600000E+01  6.20700000E+00
  6.88200000E-01  1.75200000E+00  2.38400000E-01  7.37600000E-02  3.44600000E+01
  7.74900000E+00  2.28000000E+00  7.15600000E-01  2.14000000E-01  5.97400000E-02
  2.31400000E+00  6.45000000E-01  2.14000000E-01  1.42800000E+00  5.00000000E-01
  1.14200000E+04  1.71200000E+03  3.89300000E+02  1.10000000E+02  3.55700000E+01
  1.25400000E+01  4.64400000E+00  3.89300000E+02  1.10000000E+02  3.55700000E+01
  1.25400000E+01  4.64400000E+00  5.11800000E-01  1.29300000E+00  1.78700000E-01
  5.76000000E-02  2.66300000E+01  5.94800000E+00  1.74200000E+00  5.55000000E-01
  1.72500000E-01  4.91000000E-02  1.65400000E+00  4.69000000E-01  1.51000000E-01
  1.09300000E+00  3.64000000E-01  1.53300000E+04  2.29900000E+03  5.22400000E+02
  1.47300000E+02  4.75500000E+01  1.67600000E+01  6.20700000E+00  5.22400000E+02
  1.47300000E+02  4.75500000E+01  1.67600000E+01  6.20700000E+00  6.88200000E-01
  1.75200000E+00  2.38400000E-01  7.37600000E-02  3.44600000E+01  7.74900000E+00
  2.28000000E+00  7.15600000E-01  2.14000000E-01  5.97400000E-02  2.31400000E+00
  6.45000000E-01  2.14000000E-01  1.42800000E+00  5.00000000E-01
Contraction coefficients                   R   N=         119
  2.54948632E-02  1.90362766E-01  8.52162022E-01  1.00000000E+00  1.00000000E+00
  1.00000000E+00  1.00000000E+00  1.00000000E+00  1.00000000E+00  1.00000000E+00
  1.00000000E+00  5.19808943E-04  4.02025621E-03  2.07128267E-02  8.10105536E-02
  2.35962985E-01  4.42653446E-01  3.57064423E-01 -4.42115008E-05 -1.22591041E-03
 -1.05517725E-02 -6.74452633E-02 -1.71198607E-01  1.07329856E+00  1.00000000E+00
  1.00000000E+00  1.00000000E+00  4.11634896E-02  2.57762836E-01  8.02419274E-01
  1.00000000E+00  1.00000000E+00  1.00000000E+00  1.00000000E+00  1.00000000E+00
  1.00000000E+00  1.00000000E+00  1.00000000E+00  5.19808943E-04  4.02025621E-03
  2.07128267E-02  8.10105536E-02  2.35962985E-01  4.42653446E-01  3.57064423E-01
 -4.42115008E-05 -1.22591041E-03 -1.05517725E-02 -6.74452633E-02 -1.71198607E-01
  1.07329856E+00  1.00000000E+00  1.00000000E+00  1.00000000E+00  4.11634896E-02
  2.57762836E-01  8.02419274E-01  1.00000000E+00  1.00000000E+00  1.00000000E+00
  1.00000000E+00  1.00000000E+00  1.00000000E+00  1.00000000E+00  1.00000000E+00
  5.34563860E-04  4.13435660E-03  2.12335358E-02  8.25006224E-02  2.38138871E-01
  4.42551547E-01  3.53757422E-01 -4.89867350E-05 -1.19527323E-03 -1.03490714E-02
 -6.48680190E-02 -1.71552477E-01  1.07289568E+00  1.00000000E+00  1.00000000E+00
  1.00000000E+00  3.98072123E-02  2.49002660E-01  8.10479727E-01  1.00000000E+00
  1.00000000E+00  1.00000000E+00  1.00000000E+00  1.00000000E+00  1.00000000E+00
  1.00000000E+00  1.00000000E+00  5.19808943E-04  4.02025621E-03  2.07128267E-02
  8.10105536E-02  2.35962985E-01  4.42653446E-01  3.57064423E-01 -4.42115008E-05
 -1.22591041E-03 -1.05517725E-02 -6.74452633E-02 -1.71198607E-01  1.07329856E+00
  1.00000000E+00  1.00000000E+00  1.00000000E+00  4.11634896E-02  2.57762836E-01
  8.02419274E-01  1.00000000E+00  1.00000000E+00  1.00000000E+00  1.00000000E+00
  1.00000000E+00  1.00000000E+00  1.00000000E+00  1.00000000E+00
Coordinates of each shell                  R   N=         195
  2.08469546E+00 -1.11648738E+00  0.00000000E+00  2.08469546E+00 -1.11648738E+00
  0.00000000E+00  2.08469546E+00 -1.11648738E+00  0.00000000E+00  2.08469546E+00
 -1.11648738E+00  0.00000000E+00  2.08469546E+00 -1.11648738E+00  0.00000000E+00
  2.08469546E+00 -1.11648738E+00  0.00000000E+00  2.08469546E+00 -1.11648738E+00
  0.00000000E+00  2.08469546E+00 -1.11648738E+00  0.00000000E+00  2.08469546E+00
 -1.11648738E+00  0.00000000E+00  2.46890913E+00  7.05535235E-01  0.00000000E+00
  2.46890913E+00  7.05535235E-01  0.00000000E+00  2.46890913E+00  7.05535235E-01
  0.00000000E+00  2.46890913E+00  7.05535235E-01  0.00000000E+00  2.46890913E+00
  7.05535235E-01  0.00000000E+00  2.46890913E+00  7.05535235E-01  0.00000000E+00
  2.46890913E+00  7.05535235E-01  0.00000000E+00  2.46890913E+00  7.05535235E-01
  0.00000000E+00  2.46890913E+00  7.05535235E-01  0.00000000E+00  2.46890913E+00
  7.05535235E-01  0.00000000E+00  2.46890913E+00  7.05535235E-01  0.00000000E+00
  2.46890913E+00  7.05535235E-01  0.00000000E+00  2.46890913E+00  7.05535235E-01
  0.00000000E+00  2.46890913E+00  7.05535235E-01  0.00000000E+00  1.21274646E-17
  1.73036901E+00  0.00000000E+00  1.21274646E-17  1.73036901E+00  0.00000000E+00
  1.21274646E-17  1.73036901E+00  0.00000000E+00  1.21274646E-17  1.73036901E+00
  0.00000000E+00  1.21274646E-17  1.73036901E+00  0.00000000E+00  1.21274646E-17
  1.73036901E+00  0.00000000E+00  1.21274646E-17  1.73036901E+00  0.00000000E+00
  1.21274646E-17  1.73036901E+00  0.00000000E+00  1.21274646E-17  1.73036901E+00
  0.00000000E+00  1.21274646E-17  1.73036901E+00  0.00000000E+00  1.21274646E-17
  1.73036901E+00  0.00000000E+00  1.21274646E-17  1.73036901E+00  0.00000000E+00
  1.21274646E-17  1.73036901E+00  0.00000000E+00  1.21274646E-17  1.73036901E+00
  0.00000000E+00 -1.86728966E+00 -9.30581555E-02  0.00000000E+00 -1.86728966E+00
 -9.30581555E-02  0.00000000E+00 -1.86728966E+00 -9.30581555E-02  0.00000000E+00
 -1.86728966E+00 -9.30581555E-02  0.00000000E+00 -1.86728966E+00 -9.30581555E-02
  0.00000000E+00 -1.86728966E+00 -9.30581555E-02  0.00000000E+00 -1.86728966E+00
 -9.30581555E-02  0.00000000E+00 -1.86728966E+00 -9.30581555E-02  0.00000000E+00
 -1.86728966E+00 -9.30581555E-02  0.00000000E+00 -1.86728966E+00 -9.30581555E-02
  0.00000000E+00 -1.86728966E+00 -9.30581555E-02  0.00000000E+00 -1.86728966E+00
 -9.30581555E-02  0.00000000E+00 -1.86728966E+00 -9.30581555E-02  0.00000000E+00
 -1.86728966E+00 -9.30581555E-02  0.00000000E+00 -1.09561762E+00 -2.21491744E+00
  0.00000000E+00 -1.09561762E+00 -2.21491744E+00  0.00000000E+00 -1.09561762E+00
 -2.21491744E+00  0.00000000E+00 -1.09561762E+00 -2.21491744E+00  0.00000000E+00
 -1.09561762E+00 -2.21491744E+00  0.00000000E+00 -1.09561762E+00 -2.21491744E+00
  0.00000000E+00 -1.09561762E+00 -2.21491744E+00  0.00000000E+00 -1.09561762E+00
 -2.21491744E+00  0.00000000E+00 -1.09561762E+00 -2.21491744E+00  0.00000000E+00
 -1.09561762E+00 -2.21491744E+00  0.00000000E+00 -1.09561762E+00 -2.21491744E+00
  0.00000000E+00 -1.09561762E+00 -2.21491744E+00  0.00000000E+00 -1.09561762E+00
 -2.21491744E+00  0.00000000E+00 -1.09561762E+00 -2.21491744E+00  0.00000000E+00
Num ILSW                                   I              100
ILSW                                       I   N=         100
           0           0           0           0           2           0
           0           0           0           0           0          -1
           5           0           0           0           2           0
           0           0           0           0           1           0
           1           0           0           0           0           0
           0           0      100000           0          -1           0
           0           0           0           0           0           0
           0           0           0           1           1           0
           0 -2000000000           1           0           0           0
           0           0           4          52           0           0
           0           0           0           0           0           0
           0           0           0           5           4           1
           0           0           0           0           0           0
           0           0           0           0           0           0
           0           0           0           0           0           0
           0           0           0           0           0           0
           0           0           0           0
Num RLSW                                   I               52
RLSW                                       R   N=          52
  1.00000000E+00  1.00000000E+00  1.00000000E+00  1.00000000E+00  1.00000000E+00
  0.00000000E+00  0.00000000E+00  1.00000000E+00  0.00000000E+00  0.00000000E+00
  0.00000000E+00  0.00000000E+00  1.00000000E+00  0.00000000E+00  0.00000000E+00
  0.00000000E+00  0.00000000E+00  1.00000000E+00  0.00000000E+00  0.00000000E+00
  0.00000000E+00  0.00000000E+00  1.00000000E+00  0.00000000E+00  0.00000000E+00
  0.00000000E+00  0.00000000E+00  1.00000000E+00  0.00000000E+00  0.00000000E+00
  0.00000000E+00  0.00000000E+00  1.00000000E+00  0.00000000E+00  0.00000000E+00
  0.00000000E+00  0.00000000E+00  0.00000000E+00  1.00000000E+00  1.00000000E+00
  0.00000000E+00  1.00000000E+00  0.00000000E+00  0.00000000E+00  0.00000000E+00
  0.00000000E+00  0.00000000E+00  0.00000000E+00  0.00000000E+00  0.00000000E+00
  0.00000000E+00  0.00000000E+00
MxBond                                     I                2
NBond                                      I   N=           5
           1           2           2           2           1
IBond                                      I   N=          10
           2           0           1           3           2           4
           3           5           4           0
RBond                                      R   N=          10
  1.00000000E+00  0.00000000E+00  1.00000000E+00  1.00000000E+00  1.00000000E+00
  1.00000000E+00  1.00000000E+00  2.00000000E+00  2.00000000E+00  0.00000000E+00
Virial Ratio                               R      2.002149048375181E+00
SCF Energy                                 R     -2.795070751502735E+02
MP2 Energy                                 R     -2.804551672159259E+02
Total Energy                               R     -2.804551672159259E+02
Post-SCF wavefunction norm                 R      1.583140943800465E+00
RMS Force                                  R      2.092054946367166E-03
RMS Density                                R      4.212389973126811E-09
NImag                                      I                0
Job Status                                 I                1
Nuclear derivative order                   I                2
External E-field                           R   N=          35
  0.00000000E+00  0.00000000E+00  0.00000000E+00  0.00000000E+00  0.00000000E+00
  0.00000000E+00  0.00000000E+00  0.00000000E+00  0.00000000E+00  0.00000000E+00
  0.00000000E+00  0.00000000E+00  0.00000000E+00  0.00000000E+00  0.00000000E+00
  0.00000000E+00  0.00000000E+00  0.00000000E+00  0.00000000E+00  0.00000000E+00
  0.00000000E+00  0.00000000E+00  0.00000000E+00  0.00000000E+00  0.00000000E+00
  0.00000000E+00  0.00000000E+00  0.00000000E+00  0.00000000E+00  0.00000000E+00
  0.00000000E+00  0.00000000E+00  0.00000000E+00  0.00000000E+00  0.00000000E+00
IOpCl                                      I                0
IROHF                                      I                0
Alpha Orbital Energies                     R   N=         207
 -2.07198802E+01 -2.06874434E+01 -2.06671339E+01 -1.58258488E+01 -1.64633286E+00
 -1.50931691E+00 -1.29221238E+00 -9.61037212E-01 -8.36932863E-01 -7.59808734E-01
 -7.41728759E-01 -6.35648038E-01 -6.21579324E-01 -6.19639779E-01 -5.05138842E-01
 -4.95425219E-01  3.52056544E-02  6.01950089E-02  9.51348846E-02  1.00503957E-01
  1.19625566E-01  1.22850307E-01  1.49633938E-01  1.53195863E-01  1.77492447E-01
  1.80164123E-01  1.89703325E-01  2.11070781E-01  2.16827073E-01  2.46366347E-01
  2.48363617E-01  2.68887061E-01  3.13505014E-01  3.17072723E-01  3.38268441E-01
  3.44291597E-01  3.47850507E-01  3.92410514E-01  4.49299968E-01  4.89493285E-01
  5.05310764E-01  5.18632290E-01  5.44588545E-01  5.61136351E-01  5.99189969E-01
  6.20599731E-01  6.38967753E-01  6.89957307E-01  7.16946625E-01  7.23864831E-01
  7.44433929E-01  7.64278316E-01  7.68449468E-01  7.94930885E-01  8.06647761E-01
  8.39055747E-01  8.43329717E-01  8.51488412E-01  8.85771260E-01  9.08991039E-01
  9.32336558E-01  9.48072995E-01  9.53563560E-01  1.01888275E+00  1.03333052E+00
  1.06515307E+00  1.06623128E+00  1.09669763E+00  1.14537159E+00  1.15705977E+00
  1.16941344E+00  1.22316863E+00  1.22735390E+00  1.24669469E+00  1.35576509E+00
  1.35972570E+00  1.37201158E+00  1.46792198E+00  1.48461537E+00  1.50442270E+00
  1.54285386E+00  1.59759134E+00  1.59769490E+00  1.60587027E+00  1.63001309E+00
  1.69629662E+00  1.74248282E+00  1.80117513E+00  1.82987365E+00  1.88847308E+00
  1.89962935E+00  1.93058808E+00  1.98122123E+00  1.99012175E+00  2.05227523E+00
  2.12502900E+00  2.13101404E+00  2.16733195E+00  2.18825224E+00  2.24359879E+00
  2.26481486E+00  2.29629592E+00  2.35491594E+00  2.36733271E+00  2.38696143E+00
  2.40173436E+00  2.43995200E+00  2.47053493E+00  2.48157327E+00  2.52982468E+00
  2.53892600E+00  2.55198970E+00  2.55951008E+00  2.61712053E+00  2.63377959E+00
  2.67647849E+00  2.67714619E+00  2.76095496E+00  2.81314377E+00  2.81879051E+00
  2.84338488E+00  2.92192113E+00  2.98694706E+00  3.05025201E+00  3.05381369E+00
  3.11682529E+00  3.12059293E+00  3.17921279E+00  3.22044891E+00  3.31356146E+00
  3.33557404E+00  3.36276814E+00  3.49024571E+00  3.67823529E+00  3.87105955E+00
  3.93531041E+00  4.18804233E+00  4.22660914E+00  4.22743015E+00  4.27121849E+00
  4.37120841E+00  4.51132895E+00  4.53479143E+00  4.56037431E+00  4.60284032E+00
  4.69221334E+00  4.81292652E+00  4.89996716E+00  4.91524855E+00  4.94289386E+00
  4.99905173E+00  5.00529414E+00  5.10777160E+00  5.13579906E+00  5.17927935E+00
  5.25131912E+00  5.25852815E+00  5.32032666E+00  5.35015831E+00  5.36406580E+00
  5.54544858E+00  5.64510064E+00  5.70906719E+00  5.90650166E+00  6.00312854E+00
  6.24454813E+00  6.29816969E+00  6.37013596E+00  6.37152933E+00  6.59409343E+00
  6.65112941E+00  6.66147671E+00  6.68974716E+00  6.72463380E+00  6.79702477E+00
  6.80831349E+00  6.84893119E+00  6.96990604E+00  7.02945301E+00  7.07227800E+00
  7.08607043E+00  7.14428999E+00  7.18088167E+00  7.18243305E+00  7.21636026E+00
  7.24990307E+00  7.25701574E+00  7.27355407E+00  7.35303919E+00  7.40088911E+00
  7.43773030E+00  7.44257719E+00  7.47074916E+00  7.56235115E+00  7.67208342E+00
  7.67505988E+00  7.80484977E+00  7.89666668E+00  7.95850882E+00  8.07569151E+00
  8.32735823E+00  8.50785558E+00  8.66559389E+00  1.36669662E+01  1.47838560E+01
  1.51238032E+01  1.57839297E+01
Alpha MO coefficients                      R   N=       42849
  6.45157784E-05 -1.71316755E-05 -1.12092959E-03  1.63373105E-05 -4.76928263E-05
  3.95951846E-05  0.00000000E+00 -7.06706047E-05 -2.79612876E-04  0.00000000E+00
  1.86943300E-05 -3.38649903E-04  0.00000000E+00  4.14977961E-05  0.00000000E+00
  0.00000000E+00 -2.55802887E-05  1.86918949E-05  2.30520825E-04  0.00000000E+00
  0.00000000E+00 -4.45588290E-05 -2.14973691E-04  3.11277622E-03 -7.00020540E-05
 -1.08804778E-04  3.69500497E-03  2.54974288E-03  1.06465195E-04 -5.45576631E-05
  0.00000000E+00 -7.86721289E-04  3.15554028E-04  0.00000000E+00 -2.07178317E-03
  1.14024169E-03  0.00000000E+00 -5.56622639E-04  4.66792774E-05  0.00000000E+00
  1.67174011E-05  0.00000000E+00  0.00000000E+00 -5.01814866E-06  3.76300230E-05
 -4.55581887E-04  0.00000000E+00  0.00000000E+00  4.53558559E-04 -6.68783733E-04
 -3.72704117E-04  0.00000000E+00  0.00000000E+00  5.64295397E-04 -7.40169173E-04
  0.00000000E+00  7.60664096E-05 -5.34585661E-05  0.00000000E+00  0.00000000E+00
 -2.94001441E-05  1.10240505E-04  0.00000000E+00  2.09003592E-04 -4.63084968E-05
  0.00000000E+00  0.00000000E+00 -1.71364999E-04  2.89810354E-04  9.76895214E-01
 -9.17612111E-03  4.34277073E-02  3.34427537E-04 -2.27259912E-03  4.87598780E-04
 -2.15872801E-03  0.00000000E+00 -3.74991659E-04  2.26893238E-03  0.00000000E+00
 -2.40603959E-03 -4.59055679E-04  0.00000000E+00 -2.40723344E-04  9.95496437E-05
  0.00000000E+00  4.04076229E-06  0.00000000E+00  0.00000000E+00 -1.60752383E-06
  3.37978824E-05  8.41543020E-04  0.00000000E+00  0.00000000E+00 -4.94291713E-04
 -1.54280709E-04 -1.27374071E-04  0.00000000E+00  0.00000000E+00 -5.68330642E-04
  3.67046637E-04  0.00000000E+00 -3.79026597E-06 -8.00045384E-05  0.00000000E+00
  0.00000000E+00 -1.06135233E-05  5.01195347E-05  0.00000000E+00  9.80186984E-05
 -1.78916501E-06  0.00000000E+00  0.00000000E+00 -3.41275648E-04  3.87838060E-04
  1.04411331E-04  4.58398223E-04 -3.22021963E-04 -8.37351992E-04  3.29184307E-04
 -4.30301363E-05 -9.98574978E-05  0.00000000E+00  6.91781122E-04  1.11425243E-03
  0.00000000E+00 -7.72859159E-04 -6.73304377E-04  0.00000000E+00  1.89044697E-04
  2.08516569E-04  0.00000000E+00 -5.23597149E-05  0.00000000E+00  0.00000000E+00
  1.85565253E-05  9.37725046E-05 -4.14366255E-04  0.00000000E+00  0.00000000E+00
  2.78077174E-05  1.07631802E-03  2.73348088E-05  0.00000000E+00  0.00000000E+00
 -3.19831249E-04  1.96146723E-05  0.00000000E+00 -7.74136978E-05 -1.13528468E-04
  0.00000000E+00  0.00000000E+00 -9.80849097E-05  1.04038831E-04  0.00000000E+00
 -1.24389040E-04  4.79047900E-05  0.00000000E+00  0.00000000E+00  7.52070422E-06
  5.17583540E-04 -7.08064259E-04  4.12233370E-05 -7.04894735E-05  2.18867429E-04
 -1.56372764E-04 -2.88187219E-05 -4.15347120E-05  0.00000000E+00  1.67821984E-04
  2.52224962E-04  0.00000000E+00  5.40730555E-04  3.30037596E-04  0.00000000E+00
 -2.11921155E-04 -5.83117216E-05  0.00000000E+00 -1.27877627E-05  0.00000000E+00
  0.00000000E+00  3.10736285E-06  1.51173645E-05 -2.89860130E-06  0.00000000E+00
  0.00000000E+00 -1.62540314E-04  9.41200988E-06 -2.42761052E-05  0.00000000E+00
  0.00000000E+00 -1.67993506E-04 -4.09680028E-05  0.00000000E+00 -5.78576046E-06
 -9.06458171E-06  0.00000000E+00  0.00000000E+00 -2.12176368E-05  9.30712750E-06
  0.00000000E+00  3.93130344E-05  6.04178994E-05  0.00000000E+00  0.00000000E+00
  1.57737909E-04 -1.01250593E-04  3.90169245E-05  6.85794260E-05 -1.03805736E-04
 -3.06552042E-05  2.12385370E-05  1.24779832E-05  0.00000000E+00  2.38606816E-04
  6.22775048E-05  0.00000000E+00  1.19940663E-04  2.38927062E-05  0.00000000E+00
  1.19424273E-05  0.00000000E+00  0.00000000E+00 -1.11094393E-05  1.75045870E-05
  1.93305976E-05  0.00000000E+00  0.00000000E+00 -9.55005324E-05  6.55901884E-05
 -2.43729028E-04  2.53215649E-05 -1.43621391E-05 -5.77211465E-04  1.53905568E-04
  7.43747753E-06  1.37002019E-05  0.00000000E+00  5.74157015E-07 -4.35012291E-05
  0.00000000E+00  1.94948786E-04  1.41909105E-04  0.00000000E+00 -4.32032880E-05
  4.90211234E-05  0.00000000E+00 -1.62422449E-06  0.00000000E+00  0.00000000E+00
 -8.32158659E-06 -1.15781275E-05  2.27321329E-05  0.00000000E+00  0.00000000E+00
  5.08090294E-05  1.11136356E-04  6.36850552E-05  0.00000000E+00  0.00000000E+00
 -3.20877047E-05 -8.28220587E-05  0.00000000E+00  7.75746625E-06  1.03024878E-05
  0.00000000E+00  0.00000000E+00 -9.34241251E-07 -2.58628488E-05  0.00000000E+00
 -1.35853283E-05 -3.78161412E-05  0.00000000E+00  0.00000000E+00 -1.74317470E-06
 -1.91244104E-05  7.35072295E-04  2.14654823E-05 -1.95948891E-05  3.17816082E-04
 -3.93774969E-04  1.62723356E-05  2.73967761E-05  0.00000000E+00 -6.47770061E-05
 -1.54591763E-04  0.00000000E+00  1.63371918E-04 -2.21211753E-04  0.00000000E+00
 -1.56477307E-04  1.41971812E-04  0.00000000E+00 -3.95887963E-06  0.00000000E+00
  0.00000000E+00 -2.97433284E-05 -1.03574728E-05 -5.28638108E-05  0.00000000E+00
  0.00000000E+00  8.10732638E-05  1.23812296E-04 -6.66753583E-05  0.00000000E+00
  0.00000000E+00  3.54123084E-05  2.43481734E-05  0.00000000E+00  2.87672042E-06
  3.25027297E-06  0.00000000E+00  0.00000000E+00 -7.57074609E-06 -2.54944808E-06
  0.00000000E+00  3.71857014E-06 -2.45843484E-05  0.00000000E+00  0.00000000E+00
  9.97057673E-05 -1.54351995E-04  2.36875051E-04  1.35657655E-03 -1.46479328E-04
 -7.04063933E-04  9.10379845E-04  6.35270472E-05 -7.06745835E-05  0.00000000E+00
  5.77225957E-04 -2.08416110E-03  0.00000000E+00  1.02462006E-04  5.09265716E-04
  0.00000000E+00  1.87801736E-04 -3.06353929E-04  0.00000000E+00 -1.27749751E-04
  0.00000000E+00  0.00000000E+00 -2.03184778E-04 -1.59742591E-04 -4.59870394E-04
  0.00000000E+00  0.00000000E+00 -5.95854742E-04 -9.28217806E-04 -4.19540946E-05
  0.00000000E+00  0.00000000E+00  5.62092764E-05  1.20550213E-04  0.00000000E+00
  8.30499560E-06  3.71099273E-05  0.00000000E+00  0.00000000E+00 -2.44819305E-05
 -4.54761800E-06  0.00000000E+00 -1.36524521E-04  1.57009032E-04  0.00000000E+00
  0.00000000E+00 -3.15312862E-04 -4.03653641E-05  9.76645804E-01 -9.88613846E-03
  4.35757601E-02  3.69631049E-03 -8.99097093E-04 -4.51503493E-04  2.13210191E-03
  0.00000000E+00  5.18471305E-04 -2.50664079E-03  0.00000000E+00 -7.66816976E-05
  8.21775069E-04  0.00000000E+00  1.04616249E-04 -6.47512714E-05  0.00000000E+00
 -1.93554047E-04  0.00000000E+00  0.00000000E+00 -7.43368482E-05 -4.42174761E-05
  4.09352364E-04  0.00000000E+00  0.00000000E+00  8.57498791E-04  4.88728021E-04
 -2.04970710E-04  0.00000000E+00  0.00000000E+00 -1.43289659E-04 -3.54855527E-05
  0.00000000E+00 -5.12327839E-06  7.03760805E-05  0.00000000E+00  0.00000000E+00
 -2.85806641E-05  1.04279488E-05  0.00000000E+00 -8.92814716E-05  9.12980254E-05
  0.00000000E+00  0.00000000E+00 -1.69810634E-04  2.04372431E-04  3.71521563E-04
  1.97344422E-03  1.41349324E-03 -2.33115663E-05  4.96857606E-05  2.63542272E-04
  0.00000000E+00  3.79289189E-04  1.01117703E-03  0.00000000E+00 -1.44589292E-04
  2.31031294E-04  0.00000000E+00 -2.26085061E-05  0.00000000E+00  0.00000000E+00
  3.72715627E-05 -2.93748189E-05 -2.18266615E-04  0.00000000E+00  0.00000000E+00
 -3.46662549E-04  4.11393346E-04  9.76823926E-01 -9.18891538E-03  4.34892978E-02
  2.13208847E-05 -2.00357911E-03 -2.06836892E-03 -8.24064071E-04  0.00000000E+00
  2.12236554E-03  7.47184923E-04  0.00000000E+00 -3.29227602E-04  6.27322703E-04
  0.00000000E+00  2.43359540E-04 -3.11149972E-04  0.00000000E+00  2.69975400E-05
  0.00000000E+00  0.00000000E+00 -7.00129776E-05  5.97251051E-05  7.79214607E-04
  0.00000000E+00  0.00000000E+00 -2.40023639E-04  3.72987580E-04 -2.27932282E-04
  0.00000000E+00  0.00000000E+00  3.14886990E-04  1.47640621E-05  0.00000000E+00
 -8.27571377E-05  3.70240196E-06  0.00000000E+00  0.00000000E+00  1.82708084E-05