 Entering Gaussian System, Link 0=g16
 Input=hoono_a2_114p7447.gjf
 Output=hoono_a2_114p7447.log
 Initial command:
 /sw/contrib/gaussian/g16/B01/g16/l1.exe "/scr/Gau-31150.inp" -scrdir="/scr/"
 Entering Link 1 = /sw/contrib/gaussian/g16/B01/g16/l1.exe PID=     31151.
  
 Copyright (c) 1988-2017, Gaussian, Inc.  All Rights Reserved.
  
 This is part of the Gaussian(R) 16 program.  It is based on
 the Gaussian(R) 09 system (copyright 2009, Gaussian, Inc.),
 the Gaussian(R) 03 system (copyright 2003, Gaussian, Inc.),
 the Gaussian(R) 98 system (copyright 1998, Gaussian, Inc.),
 the Gaussian(R) 94 system (copyright 1995, Gaussian, Inc.),
 the Gaussian 92(TM) system (copyright 1992, Gaussian, Inc.),
 the Gaussian 90(TM) system (copyright 1990, Gaussian, Inc.),
 the Gaussian 88(TM) system (copyright 1988, Gaussian, Inc.),
 the Gaussian 86(TM) system (copyright 1986, Carnegie Mellon
 University), and the Gaussian 82(TM) system (copyright 1983,
 Carnegie Mellon University). Gaussian is a federally registered
 trademark of Gaussian, Inc.
  
 This software contains proprietary and confidential information,
 including trade secrets, belonging to Gaussian, Inc.
  
 This software is provided under written license and may be
 used, copied, transmitted, or stored only in accord with that
 written license.
  
 The following legend is applicable only to US Government
 contracts under FAR:
  
                    RESTRICTED RIGHTS LEGEND
  
 Use, reproduction and disclosure by the US Government is
 subject to restrictions as set forth in subparagraphs (a)
 and (c) of the Commercial Computer Software - Restricted
 Rights clause in FAR 52.227-19.
  
 Gaussian, Inc.
 340 Quinnipiac St., Bldg. 40, Wallingford CT 06492
  
  
 ---------------------------------------------------------------
 Warning -- This program may not be used in any manner that
 competes with the business of Gaussian, Inc. or will provide
 assistance to any competitor of Gaussian, Inc.  The licensee
 of this program is prohibited from giving any competitor of
 Gaussian, Inc. access to this program.  By using this program,
 the user acknowledges that Gaussian, Inc. is engaged in the
 business of creating and licensing software in the field of
 computational chemistry and represents and warrants to the
 licensee that it is not a competitor of Gaussian, Inc. and that
 it will not use this program in any manner prohibited above.
 ---------------------------------------------------------------
  

 Cite this work as:
 Gaussian 16, Revision B.01,
 M. J. Frisch, G. W. Trucks, H. B. Schlegel, G. E. Scuseria, 
 M. A. Robb, J. R. Cheeseman, G. Scalmani, V. Barone, 
 G. A. Petersson, H. Nakatsuji, X. Li, M. Caricato, A. V. Marenich, 
 J. Bloino, B. G. Janesko, R. Gomperts, B. Mennucci, H. P. Hratchian, 
 J. V. Ortiz, A. F. Izmaylov, J. L. Sonnenberg, D. Williams-Young, 
 F. Ding, F. Lipparini, F. Egidi, J. Goings, B. Peng, A. Petrone, 
 T. Henderson, D. Ranasinghe, V. G. Zakrzewski, J. Gao, N. Rega, 
 G. Zheng, W. Liang, M. Hada, M. Ehara, K. Toyota, R. Fukuda, 
 J. Hasegawa, M. Ishida, T. Nakajima, Y. Honda, O. Kitao, H. Nakai, 
 T. Vreven, K. Throssell, J. A. Montgomery, Jr., J. E. Peralta, 
 F. Ogliaro, M. J. Bearpark, J. J. Heyd, E. N. Brothers, K. N. Kudin, 
 V. N. Staroverov, T. A. Keith, R. Kobayashi, J. Normand, 
 K. Raghavachari, A. P. Rendell, J. C. Burant, S. S. Iyengar, 
 J. Tomasi, M. Cossi, J. M. Millam, M. Klene, C. Adamo, R. Cammi, 
 J. W. Ochterski, R. L. Martin, K. Morokuma, O. Farkas, 
 J. B. Foresman, and D. J. Fox, Gaussian, Inc., Wallingford CT, 2016.
 
 ******************************************
 Gaussian 16:  ES64L-G16RevB.01 20-Dec-2017
                 6-Mar-2022 
 ******************************************
 %nproc=28
 Will use up to   28 processors via shared memory.
 %mem=120GB
 %chk=hoono_a2_114p7447.chk
 ---------------------------------------
 #p freq mp2/aug-cc-pvtz density=current
 ---------------------------------------
 1/10=4,30=1,38=1/1,3;
 2/12=2,17=6,18=5,40=1/2;
 3/5=16,6=1,7=10,11=9,25=1,30=1,71=2,140=1/1,2,3;
 4//1;
 5/5=2,38=5,98=1/2;
 8/6=3,8=1,10=1,19=11,30=-1/1;
 9/15=3,16=-3/6;
 11/6=1,8=1,15=11,17=12,24=-1,27=1,28=-2,29=300,32=6,42=3/1,2,10;
 10/6=2,21=1/2;
 8/6=4,8=1,10=1,19=11,30=-1/11,4;
 10/5=1,20=4/2;
 11/12=2,14=11,16=1,17=2,28=-2,42=3,76=2/2,10,12;
 6/7=2,8=2,9=2,10=2,22=-1/1;
 7/8=1,10=1,12=2,25=1,44=2/1,2,3,16;
 1/10=4,30=1/3;
 99//99;
 Leave Link    1 at Sun Mar  6 19:31:09 2022, MaxMem= 16106127360 cpu:               3.0 elap:               0.1
 (Enter /sw/contrib/gaussian/g16/B01/g16/l101.exe)
 -----
 title
 -----
 Symbolic Z-matrix:
 Charge =  0 Multiplicity = 1
 H
 O                    1    r1
 O                    2    r2       1    a1
 N                    3    r3       2    a2       1    d1       0
 O                    4    r4       3    a3       2    d2       0
       Variables:
  r1                    0.98538                  
  r2                    1.42674                  
  r3                    1.38111                  
  r4                    1.19479                  
  a1                  100.63551                  
  a2                  114.74475                  
  a3                  114.33392                  
  d1                    0.                       
  d2                    0.                       
 
 ITRead=  0  0  0  0  0
 MicOpt= -1 -1 -1 -1 -1
 NAtoms=      5 NQM=        5 NQMF=       0 NMMI=      0 NMMIF=      0
                NMic=       0 NMicF=      0.
                    Isotopes and Nuclear Properties:
 (Nuclear quadrupole moments (NQMom) in fm**2, nuclear magnetic moments (NMagM)
  in nuclear magnetons)

  Atom         1           2           3           4           5
 IAtWgt=           1          16          16          14          16
 AtmWgt=   1.0078250  15.9949146  15.9949146  14.0030740  15.9949146
 NucSpn=           1           0           0           2           0
 AtZEff=  -0.0000000  -0.0000000  -0.0000000  -0.0000000  -0.0000000
 NQMom=    0.0000000   0.0000000   0.0000000   2.0440000   0.0000000
 NMagM=    2.7928460   0.0000000   0.0000000   0.4037610   0.0000000
 AtZNuc=   1.0000000   8.0000000   8.0000000   7.0000000   8.0000000
 Leave Link  101 at Sun Mar  6 19:31:09 2022, MaxMem= 16106127360 cpu:               2.6 elap:               0.1
 (Enter /sw/contrib/gaussian/g16/B01/g16/l103.exe)

 GradGradGradGradGradGradGradGradGradGradGradGradGradGradGradGradGradGrad
 Berny optimization.
 Initialization pass.
                       ----------------------------
                       !    Initial Parameters    !
                       ! (Angstroms and Degrees)  !
 ----------------------                            ----------------------
 !      Name          Value   Derivative information (Atomic Units)     !
 ------------------------------------------------------------------------
 !       r1          0.9854   calculate D2E/DX2 analytically            !
 !       r2          1.4267   calculate D2E/DX2 analytically            !
 !       r3          1.3811   calculate D2E/DX2 analytically            !
 !       r4          1.1948   calculate D2E/DX2 analytically            !
 !       a1        100.6355   calculate D2E/DX2 analytically            !
 !       a2        114.7448   calculate D2E/DX2 analytically            !
 !       a3        114.3339   calculate D2E/DX2 analytically            !
 !       d1          0.0      calculate D2E/DX2 analytically            !
 !       d2          0.0      calculate D2E/DX2 analytically            !
 ------------------------------------------------------------------------
 Trust Radius=3.00D-01 FncErr=1.00D-07 GrdErr=1.00D-07 EigMax=2.50D+02 EigMin=1.00D-04
 Number of steps in this run=      2 maximum allowed number of steps=      2.
 GradGradGradGradGradGradGradGradGradGradGradGradGradGradGradGradGradGrad

 Leave Link  103 at Sun Mar  6 19:31:09 2022, MaxMem= 16106127360 cpu:               0.5 elap:               0.0
 (Enter /sw/contrib/gaussian/g16/B01/g16/l202.exe)
                          Input orientation:                          
 ---------------------------------------------------------------------
 Center     Atomic      Atomic             Coordinates (Angstroms)
 Number     Number       Type             X           Y           Z
 ---------------------------------------------------------------------
      1          1           0        0.000000    0.000000    0.000000
      2          8           0        0.000000    0.000000    0.985377
      3          8           0        1.402227    0.000000    1.248696
      4          7           0        2.201889    0.000000    0.122641
      5          8           0        1.599340    0.000000   -0.909083
 ---------------------------------------------------------------------
                    Distance matrix (angstroms):
                    1          2          3          4          5
     1  H    0.000000
     2  O    0.985377   0.000000
     3  O    1.877627   1.426737   0.000000
     4  N    2.205301   2.364873   1.381108   0.000000
     5  O    1.839652   2.479288   2.166763   1.194788   0.000000
 Stoichiometry    HNO3
 Framework group  CS[SG(HNO3)]
 Deg. of freedom     7
 Full point group                 CS      NOp   2
 Largest Abelian subgroup         CS      NOp   2
 Largest concise Abelian subgroup C1      NOp   1
                         Standard orientation:                         
 ---------------------------------------------------------------------
 Center     Atomic      Atomic             Coordinates (Angstroms)
 Number     Number       Type             X           Y           Z
 ---------------------------------------------------------------------
      1          1           0        1.142960   -0.582940    0.000000
      2          8           0        1.327892    0.384928    0.000000
      3          8           0        0.000000    0.906733    0.000000
      4          7           0       -0.996786   -0.049236    0.000000
      5          8           0       -0.598574   -1.175711    0.000000
 ---------------------------------------------------------------------
 Rotational constants (GHZ):          21.6600421           7.9197257           5.7992880
 Leave Link  202 at Sun Mar  6 19:31:09 2022, MaxMem= 16106127360 cpu:               0.3 elap:               0.0
 (Enter /sw/contrib/gaussian/g16/B01/g16/l301.exe)
 Standard basis: Aug-CC-pVTZ (5D, 7F)
 Ernie: Thresh=  0.10000D-02 Tol=  0.10000D-05 Strict=F.
 Ernie:  12 primitive shells out of 131 were deleted.
 There are   166 symmetry adapted cartesian basis functions of A'  symmetry.
 There are    79 symmetry adapted cartesian basis functions of A"  symmetry.
 There are   136 symmetry adapted basis functions of A'  symmetry.
 There are    71 symmetry adapted basis functions of A"  symmetry.
   207 basis functions,   315 primitive gaussians,   245 cartesian basis functions
    16 alpha electrons       16 beta electrons
       nuclear repulsion energy       122.3500888728 Hartrees.
 IExCor=    0 DFT=F Ex=HF Corr=None ExCW=0 ScaHFX=  1.000000
 ScaDFX=  1.000000  1.000000  1.000000  1.000000 ScalE2=  1.000000  1.000000
 IRadAn=      5 IRanWt=     -1 IRanGd=            0 ICorTp=0 IEmpDi=  4
 NAtoms=    5 NActive=    5 NUniq=    5 SFac= 1.00D+00 NAtFMM=   60 NAOKFM=F Big=F
 Integral buffers will be    131072 words long.
 Raffenetti 1 integral format.
 Two-electron integral symmetry is turned on.
 Leave Link  301 at Sun Mar  6 19:31:09 2022, MaxMem= 16106127360 cpu:               2.0 elap:               0.1
 (Enter /sw/contrib/gaussian/g16/B01/g16/l302.exe)
 NPDir=0 NMtPBC=     1 NCelOv=     1 NCel=       1 NClECP=     1 NCelD=      1
         NCelK=      1 NCelE2=     1 NClLst=     1 CellRange=     0.0.
 One-electron integrals computed using PRISM.
 One-electron integral symmetry used in STVInt
 NBasis=   207 RedAO= T EigKep=  1.31D-04  NBF=   136    71
 NBsUse=   207 1.00D-06 EigRej= -1.00D+00 NBFU=   136    71
 Leave Link  302 at Sun Mar  6 19:31:10 2022, MaxMem= 16106127360 cpu:               4.6 elap:               0.2
 (Enter /sw/contrib/gaussian/g16/B01/g16/l303.exe)
 DipDrv:  MaxL=1.
 Leave Link  303 at Sun Mar  6 19:31:10 2022, MaxMem= 16106127360 cpu:               0.8 elap:               0.1
 (Enter /sw/contrib/gaussian/g16/B01/g16/l401.exe)
 ExpMin= 2.53D-02 ExpMax= 1.53D+04 ExpMxC= 5.22D+02 IAcc=3 IRadAn=         5 AccDes= 0.00D+00
 Harris functional with IExCor=  205 and IRadAn=       5 diagonalized for initial guess.
 HarFok:  IExCor=  205 AccDes= 0.00D+00 IRadAn=         5 IDoV= 1 UseB2=F ITyADJ=14
 ICtDFT=  3500011 ScaDFX=  1.000000  1.000000  1.000000  1.000000
 FoFCou: FMM=F IPFlag=           0 FMFlag=      100000 FMFlg1=           0
         NFxFlg=           0 DoJE=T BraDBF=F KetDBF=T FulRan=T
         wScrn=  0.000000 ICntrl=       500 IOpCl=  0 I1Cent=   200000004 NGrid=           0
         NMat0=    1 NMatS0=      1 NMatT0=    0 NMatD0=    1 NMtDS0=    0 NMtDT0=    0
 Petite list used in FoFCou.
 Harris En= -279.644414178642    
 JPrj=0 DoOrth=F DoCkMO=F.
 Initial guess orbital symmetries:
       Occupied  (A') (A') (A') (A') (A') (A') (A') (A') (A') (A')
                 (A") (A') (A") (A') (A") (A')
       Virtual   (A") (A') (A') (A') (A') (A") (A') (A') (A') (A')
                 (A") (A') (A") (A') (A') (A") (A') (A') (A") (A')
                 (A') (A') (A') (A') (A") (A') (A') (A') (A") (A')
                 (A') (A") (A') (A") (A') (A") (A') (A") (A') (A")
                 (A') (A") (A') (A") (A') (A') (A') (A') (A") (A')
                 (A') (A") (A') (A") (A') (A") (A') (A') (A') (A")
                 (A') (A') (A") (A') (A') (A') (A") (A") (A') (A')
                 (A") (A') (A") (A") (A') (A') (A") (A') (A') (A')
                 (A") (A') (A') (A") (A') (A") (A") (A') (A') (A')
                 (A') (A") (A') (A") (A') (A') (A") (A') (A") (A')
                 (A") (A') (A') (A") (A") (A') (A') (A') (A") (A')
                 (A") (A') (A') (A') (A") (A') (A') (A') (A") (A')
                 (A") (A') (A') (A") (A") (A") (A") (A') (A') (A')
                 (A') (A') (A') (A") (A') (A") (A') (A") (A') (A')
                 (A") (A') (A") (A') (A') (A") (A') (A') (A') (A")
                 (A') (A') (A') (A") (A') (A") (A") (A') (A") (A')
                 (A') (A") (A") (A') (A") (A') (A') (A") (A") (A')
                 (A") (A") (A") (A') (A') (A") (A') (A') (A') (A")
                 (A') (A') (A') (A') (A') (A') (A') (A') (A') (A')
                 (A')
 The electronic state of the initial guess is 1-A'.
 Leave Link  401 at Sun Mar  6 19:31:10 2022, MaxMem= 16106127360 cpu:               7.3 elap:               0.3
 (Enter /sw/contrib/gaussian/g16/B01/g16/l502.exe)
 Keep R1 ints in memory in symmetry-blocked form, NReq=348887737.
 FoFCou: FMM=F IPFlag=           0 FMFlag=           0 FMFlg1=           0
         NFxFlg=           0 DoJE=F BraDBF=F KetDBF=F FulRan=T
         wScrn=  0.000000 ICntrl=       600 IOpCl=  0 I1Cent=           0 NGrid=           0
         NMat0=    1 NMatS0=  21528 NMatT0=    0 NMatD0=    1 NMtDS0=    0 NMtDT0=    0
 Petite list used in FoFCou.
 Closed shell SCF:
 Using DIIS extrapolation, IDIIS=  1040.
 NGot= 16106127360 LenX= 15988850015 LenY= 15988789549
 Requested convergence on RMS density matrix=1.00D-08 within 128 cycles.
 Requested convergence on MAX density matrix=1.00D-06.
 Requested convergence on             energy=1.00D-06.
 No special actions if energy rises.

 Cycle   1  Pass 1  IDiag  1:
 E= -279.364535332179    
 DIIS: error= 2.76D-02 at cycle   1 NSaved=   1.
 NSaved= 1 IEnMin= 1 EnMin= -279.364535332179     IErMin= 1 ErrMin= 2.76D-02
 ErrMax= 2.76D-02  0.00D+00 EMaxC= 1.00D-01 BMatC= 4.50D-01 BMatP= 4.50D-01
 IDIUse=3 WtCom= 7.24D-01 WtEn= 2.76D-01
 Coeff-Com:  0.100D+01
 Coeff-En:   0.100D+01
 Coeff:      0.100D+01
 Gap=     0.498 Goal=   None    Shift=    0.000
 GapD=    0.498 DampG=2.000 DampE=0.500 DampFc=1.0000 IDamp=-1.
 RMSDP=1.67D-03 MaxDP=8.75D-02              OVMax= 1.22D-01

 Cycle   2  Pass 1  IDiag  1:
 E= -279.446430368855     Delta-E=       -0.081895036676 Rises=F Damp=F
 DIIS: error= 1.90D-02 at cycle   2 NSaved=   2.
 NSaved= 2 IEnMin= 2 EnMin= -279.446430368855     IErMin= 2 ErrMin= 1.90D-02
 ErrMax= 1.90D-02  0.00D+00 EMaxC= 1.00D-01 BMatC= 8.58D-02 BMatP= 4.50D-01
 IDIUse=3 WtCom= 8.10D-01 WtEn= 1.90D-01
 Coeff-Com:  0.218D+00 0.782D+00
 Coeff-En:   0.765D-01 0.923D+00
 Coeff:      0.191D+00 0.809D+00
 Gap=     0.560 Goal=   None    Shift=    0.000
 RMSDP=9.64D-04 MaxDP=3.62D-02 DE=-8.19D-02 OVMax= 9.12D-02

 Cycle   3  Pass 1  IDiag  1:
 E= -279.484159598594     Delta-E=       -0.037729229739 Rises=F Damp=F
 DIIS: error= 1.09D-02 at cycle   3 NSaved=   3.
 NSaved= 3 IEnMin= 3 EnMin= -279.484159598594     IErMin= 3 ErrMin= 1.09D-02
 ErrMax= 1.09D-02  0.00D+00 EMaxC= 1.00D-01 BMatC= 3.09D-02 BMatP= 8.58D-02
 IDIUse=3 WtCom= 8.91D-01 WtEn= 1.09D-01
 Coeff-Com: -0.348D-01 0.365D+00 0.670D+00
 Coeff-En:   0.000D+00 0.218D+00 0.782D+00
 Coeff:     -0.310D-01 0.348D+00 0.682D+00
 Gap=     0.540 Goal=   None    Shift=    0.000
 RMSDP=4.09D-04 MaxDP=1.58D-02 DE=-3.77D-02 OVMax= 3.92D-02

 Cycle   4  Pass 1  IDiag  1:
 E= -279.505271151065     Delta-E=       -0.021111552471 Rises=F Damp=F
 DIIS: error= 1.60D-03 at cycle   4 NSaved=   4.
 NSaved= 4 IEnMin= 4 EnMin= -279.505271151065     IErMin= 4 ErrMin= 1.60D-03
 ErrMax= 1.60D-03  0.00D+00 EMaxC= 1.00D-01 BMatC= 5.88D-04 BMatP= 3.09D-02
 IDIUse=3 WtCom= 9.84D-01 WtEn= 1.60D-02
 Coeff-Com: -0.118D-01 0.458D-01 0.151D+00 0.815D+00
 Coeff-En:   0.000D+00 0.000D+00 0.000D+00 0.100D+01
 Coeff:     -0.116D-01 0.451D-01 0.149D+00 0.818D+00
 Gap=     0.527 Goal=   None    Shift=    0.000
 RMSDP=9.88D-05 MaxDP=2.31D-03 DE=-2.11D-02 OVMax= 1.18D-02

 Cycle   5  Pass 1  IDiag  1:
 E= -279.506077007766     Delta-E=       -0.000805856701 Rises=F Damp=F
 DIIS: error= 1.08D-03 at cycle   5 NSaved=   5.
 NSaved= 5 IEnMin= 5 EnMin= -279.506077007766     IErMin= 5 ErrMin= 1.08D-03
 ErrMax= 1.08D-03  0.00D+00 EMaxC= 1.00D-01 BMatC= 1.02D-04 BMatP= 5.88D-04
 IDIUse=3 WtCom= 9.89D-01 WtEn= 1.08D-02
 Coeff-Com:  0.537D-02-0.658D-01-0.110D+00 0.628D-01 0.111D+01
 Coeff-En:   0.000D+00 0.000D+00 0.000D+00 0.000D+00 0.100D+01
 Coeff:      0.531D-02-0.651D-01-0.109D+00 0.621D-01 0.111D+01
 Gap=     0.531 Goal=   None    Shift=    0.000
 RMSDP=7.95D-05 MaxDP=2.12D-03 DE=-8.06D-04 OVMax= 1.29D-02

 Cycle   6  Pass 1  IDiag  1:
 E= -279.506437729076     Delta-E=       -0.000360721310 Rises=F Damp=F
 DIIS: error= 3.26D-04 at cycle   6 NSaved=   6.
 NSaved= 6 IEnMin= 6 EnMin= -279.506437729076     IErMin= 6 ErrMin= 3.26D-04
 ErrMax= 3.26D-04  0.00D+00 EMaxC= 1.00D-01 BMatC= 2.43D-05 BMatP= 1.02D-04
 IDIUse=3 WtCom= 9.97D-01 WtEn= 3.26D-03
 Coeff-Com:  0.188D-02-0.705D-02-0.176D-01-0.185D+00 0.179D-01 0.119D+01
 Coeff-En:   0.000D+00 0.000D+00 0.000D+00 0.000D+00 0.000D+00 0.100D+01
 Coeff:      0.187D-02-0.702D-02-0.175D-01-0.185D+00 0.179D-01 0.119D+01
 Gap=     0.531 Goal=   None    Shift=    0.000
 RMSDP=4.67D-05 MaxDP=1.08D-03 DE=-3.61D-04 OVMax= 6.09D-03

 Cycle   7  Pass 1  IDiag  1:
 E= -279.506524022913     Delta-E=       -0.000086293837 Rises=F Damp=F
 DIIS: error= 1.39D-04 at cycle   7 NSaved=   7.
 NSaved= 7 IEnMin= 7 EnMin= -279.506524022913     IErMin= 7 ErrMin= 1.39D-04
 ErrMax= 1.39D-04  0.00D+00 EMaxC= 1.00D-01 BMatC= 3.64D-06 BMatP= 2.43D-05
 IDIUse=3 WtCom= 9.99D-01 WtEn= 1.39D-03
 Coeff-Com: -0.110D-02 0.115D-01 0.252D-01 0.160D-01-0.184D+00-0.148D+00
 Coeff-Com:  0.128D+01
 Coeff-En:   0.000D+00 0.000D+00 0.000D+00 0.000D+00 0.000D+00 0.000D+00
 Coeff-En:   0.100D+01
 Coeff:     -0.109D-02 0.115D-01 0.251D-01 0.160D-01-0.183D+00-0.148D+00
 Coeff:      0.128D+01
 Gap=     0.532 Goal=   None    Shift=    0.000
 RMSDP=1.77D-05 MaxDP=5.14D-04 DE=-8.63D-05 OVMax= 2.35D-03

 Cycle   8  Pass 1  IDiag  1:
 E= -279.506536249934     Delta-E=       -0.000012227021 Rises=F Damp=F
 DIIS: error= 4.74D-05 at cycle   8 NSaved=   8.
 NSaved= 8 IEnMin= 8 EnMin= -279.506536249934     IErMin= 8 ErrMin= 4.74D-05
 ErrMax= 4.74D-05  0.00D+00 EMaxC= 1.00D-01 BMatC= 6.07D-07 BMatP= 3.64D-06
 IDIUse=1 WtCom= 1.00D+00 WtEn= 0.00D+00
 Coeff-Com: -0.563D-03 0.412D-02 0.978D-02 0.253D-01-0.584D-01-0.192D+00
 Coeff-Com:  0.352D+00 0.860D+00
 Coeff:     -0.563D-03 0.412D-02 0.978D-02 0.253D-01-0.584D-01-0.192D+00
 Coeff:      0.352D+00 0.860D+00
 Gap=     0.532 Goal=   None    Shift=    0.000
 RMSDP=5.51D-06 MaxDP=1.56D-04 DE=-1.22D-05 OVMax= 6.63D-04

 Cycle   9  Pass 1  IDiag  1:
 E= -279.506537659554     Delta-E=       -0.000001409620 Rises=F Damp=F
 DIIS: error= 2.58D-05 at cycle   9 NSaved=   9.
 NSaved= 9 IEnMin= 9 EnMin= -279.506537659554     IErMin= 9 ErrMin= 2.58D-05
 ErrMax= 2.58D-05  0.00D+00 EMaxC= 1.00D-01 BMatC= 1.18D-07 BMatP= 6.07D-07
 IDIUse=1 WtCom= 1.00D+00 WtEn= 0.00D+00
 Coeff-Com:  0.243D-03-0.259D-02-0.537D-02-0.565D-02 0.474D-01 0.497D-01
 Coeff-Com: -0.341D+00 0.297D-01 0.123D+01
 Coeff:      0.243D-03-0.259D-02-0.537D-02-0.565D-02 0.474D-01 0.497D-01
 Coeff:     -0.341D+00 0.297D-01 0.123D+01
 Gap=     0.532 Goal=   None    Shift=    0.000
 RMSDP=2.48D-06 MaxDP=6.66D-05 DE=-1.41D-06 OVMax= 2.60D-04

 Cycle  10  Pass 1  IDiag  1:
 E= -279.506537928640     Delta-E=       -0.000000269086 Rises=F Damp=F
 DIIS: error= 6.09D-06 at cycle  10 NSaved=  10.
 NSaved=10 IEnMin=10 EnMin= -279.506537928640     IErMin=10 ErrMin= 6.09D-06
 ErrMax= 6.09D-06  0.00D+00 EMaxC= 1.00D-01 BMatC= 8.47D-09 BMatP= 1.18D-07
 IDIUse=1 WtCom= 1.00D+00 WtEn= 0.00D+00
 Coeff-Com: -0.400D-04 0.517D-03 0.125D-02-0.188D-02-0.113D-01 0.464D-02
 Coeff-Com:  0.758D-01-0.533D-01-0.450D+00 0.143D+01
 Coeff:     -0.400D-04 0.517D-03 0.125D-02-0.188D-02-0.113D-01 0.464D-02
 Coeff:      0.758D-01-0.533D-01-0.450D+00 0.143D+01
 Gap=     0.532 Goal=   None    Shift=    0.000
 RMSDP=7.22D-07 MaxDP=2.67D-05 DE=-2.69D-07 OVMax= 7.56D-05

 Cycle  11  Pass 1  IDiag  1:
 E= -279.506537954153     Delta-E=       -0.000000025513 Rises=F Damp=F
 DIIS: error= 2.25D-06 at cycle  11 NSaved=  11.
 NSaved=11 IEnMin=11 EnMin= -279.506537954153     IErMin=11 ErrMin= 2.25D-06
 ErrMax= 2.25D-06  0.00D+00 EMaxC= 1.00D-01 BMatC= 8.00D-10 BMatP= 8.47D-09
 IDIUse=1 WtCom= 1.00D+00 WtEn= 0.00D+00
 Coeff-Com: -0.143D-04 0.139D-03 0.278D-03 0.981D-03-0.162D-02-0.724D-02
 Coeff-Com:  0.147D-01 0.217D-01-0.254D-01-0.383D+00 0.138D+01
 Coeff:     -0.143D-04 0.139D-03 0.278D-03 0.981D-03-0.162D-02-0.724D-02
 Coeff:      0.147D-01 0.217D-01-0.254D-01-0.383D+00 0.138D+01
 Gap=     0.532 Goal=   None    Shift=    0.000
 RMSDP=2.44D-07 MaxDP=9.01D-06 DE=-2.55D-08 OVMax= 2.84D-05

 Cycle  12  Pass 1  IDiag  1:
 E= -279.506537957091     Delta-E=       -0.000000002938 Rises=F Damp=F
 DIIS: error= 6.35D-07 at cycle  12 NSaved=  12.
 NSaved=12 IEnMin=12 EnMin= -279.506537957091     IErMin=12 ErrMin= 6.35D-07
 ErrMax= 6.35D-07  0.00D+00 EMaxC= 1.00D-01 BMatC= 7.77D-11 BMatP= 8.00D-10
 IDIUse=1 WtCom= 1.00D+00 WtEn= 0.00D+00
 Coeff-Com:  0.312D-05-0.491D-04-0.102D-03 0.668D-04 0.111D-02-0.266D-03
 Coeff-Com: -0.751D-02 0.468D-02 0.383D-01-0.827D-01-0.233D+00 0.128D+01
 Coeff:      0.312D-05-0.491D-04-0.102D-03 0.668D-04 0.111D-02-0.266D-03
 Coeff:     -0.751D-02 0.468D-02 0.383D-01-0.827D-01-0.233D+00 0.128D+01
 Gap=     0.532 Goal=   None    Shift=    0.000
 RMSDP=8.08D-08 MaxDP=2.60D-06 DE=-2.94D-09 OVMax= 9.23D-06

 Cycle  13  Pass 1  IDiag  1:
 E= -279.506537957362     Delta-E=       -0.000000000272 Rises=F Damp=F
 DIIS: error= 1.49D-07 at cycle  13 NSaved=  13.
 NSaved=13 IEnMin=13 EnMin= -279.506537957362     IErMin=13 ErrMin= 1.49D-07
 ErrMax= 1.49D-07  0.00D+00 EMaxC= 1.00D-01 BMatC= 5.93D-12 BMatP= 7.77D-11
 IDIUse=1 WtCom= 1.00D+00 WtEn= 0.00D+00
 Coeff-Com:  0.101D-05-0.860D-05-0.104D-04-0.115D-03-0.128D-04 0.856D-03
 Coeff-Com: -0.530D-03-0.248D-02-0.403D-02 0.541D-01-0.115D+00-0.161D+00
 Coeff-Com:  0.123D+01
 Coeff:      0.101D-05-0.860D-05-0.104D-04-0.115D-03-0.128D-04 0.856D-03
 Coeff:     -0.530D-03-0.248D-02-0.403D-02 0.541D-01-0.115D+00-0.161D+00
 Coeff:      0.123D+01
 Gap=     0.532 Goal=   None    Shift=    0.000
 RMSDP=2.02D-08 MaxDP=5.86D-07 DE=-2.72D-10 OVMax= 1.97D-06

 Cycle  14  Pass 1  IDiag  1:
 E= -279.506537957379     Delta-E=       -0.000000000017 Rises=F Damp=F
 DIIS: error= 3.95D-08 at cycle  14 NSaved=  14.
 NSaved=14 IEnMin=14 EnMin= -279.506537957379     IErMin=14 ErrMin= 3.95D-08
 ErrMax= 3.95D-08  0.00D+00 EMaxC= 1.00D-01 BMatC= 4.25D-13 BMatP= 5.93D-12
 IDIUse=1 WtCom= 1.00D+00 WtEn= 0.00D+00
 Coeff-Com: -0.320D-06 0.451D-05 0.871D-05-0.167D-06-0.105D-03 0.275D-04
 Coeff-Com:  0.614D-03-0.208D-03-0.321D-02 0.604D-02 0.172D-01-0.844D-01
 Coeff-Com: -0.168D-01 0.108D+01
 Coeff:     -0.320D-06 0.451D-05 0.871D-05-0.167D-06-0.105D-03 0.275D-04
 Coeff:      0.614D-03-0.208D-03-0.321D-02 0.604D-02 0.172D-01-0.844D-01
 Coeff:     -0.168D-01 0.108D+01
 Gap=     0.532 Goal=   None    Shift=    0.000
 RMSDP=3.95D-09 MaxDP=9.70D-08 DE=-1.67D-11 OVMax= 4.45D-07

 SCF Done:  E(RHF) =  -279.506537957     A.U. after   14 cycles
            NFock= 14  Conv=0.39D-08     -V/T= 2.0023
 KE= 2.788748876596D+02 PE=-9.055742285683D+02 EE= 2.248427140785D+02
 Leave Link  502 at Sun Mar  6 19:31:14 2022, MaxMem= 16106127360 cpu:              63.9 elap:               4.0
 (Enter /sw/contrib/gaussian/g16/B01/g16/l801.exe)
 ExpMin= 2.53D-02 ExpMax= 1.53D+04 ExpMxC= 5.22D+02 IAcc=3 IRadAn=         5 AccDes= 0.00D+00
 HarFok:  IExCor=  205 AccDes= 0.00D+00 IRadAn=         5 IDoV=-2 UseB2=F ITyADJ=14
 ICtDFT= 12500011 ScaDFX=  1.000000  1.000000  1.000000  1.000000
 Largest valence mixing into a core orbital is  2.07D-04
 Largest core mixing into a valence orbital is  3.09D-05
 Range of M.O.s used for correlation:     5   207
 NBasis=   207 NAE=    16 NBE=    16 NFC=     4 NFV=     0
 NROrb=    203 NOA=    12 NOB=    12 NVA=   191 NVB=   191

 **** Warning!!: The largest alpha MO coefficient is  0.16603113D+02

 Leave Link  801 at Sun Mar  6 19:31:14 2022, MaxMem= 16106127360 cpu:               2.2 elap:               0.1
 (Enter /sw/contrib/gaussian/g16/B01/g16/l906.exe)
 Frozen-core derivative calculation, NFC=   4 NFV=   0.
 FulOut=F Deriv=T AODrv=T NAtomX=     5
   MMem=           0  MDisk=          12 MDiskD=          12
  W3Min=      811440 MinDsk=     2425030 NBas6D=         245
 NBas2D=       30762    NTT=       30135    LW2=     7400000
    MDV= 16105571630 MDiskM=      328644 NBas2p=       30759
 Disk-based method using ON**2 memory for 12 occupieds at a time.
 Permanent disk used for amplitudes=    11516536 words.
 Estimated scratch disk usage=   321863743 words.
 IMap=   1   2   3   4   5   6   7   8   9  10  11  12  13  14  15  16
 Actual    scratch disk usage=   310892607 words.
 JobTyp=1 Pass  1:  I=   5 to  16 NPSUse= 28 ParTrn=T ParDer=T DoDerP=T.
 (rs|ai) integrals will be sorted in core.
 Spin components of T(2) and E(2):
     alpha-alpha T2 =       0.3478686459D-01 E2=     -0.1244524222D+00
     alpha-beta  T2 =       0.1846204627D+00 E2=     -0.6996088553D+00
     beta-beta   T2 =       0.3478686459D-01 E2=     -0.1244524222D+00
 The integrals were generated   1 times.
 ANorm=    0.1119908118D+01
 E2 =    -0.9485136996D+00 EUMP2 =    -0.28045505165695D+03
 Leave Link  906 at Sun Mar  6 19:32:51 2022, MaxMem= 16106127360 cpu:            2706.3 elap:              96.8
 (Enter /sw/contrib/gaussian/g16/B01/g16/l1101.exe)
 Using compressed Sx but separate Hx and Fx, NAtomX=     5.
 Will process      6 centers per pass.
 Leave Link 1101 at Sun Mar  6 19:32:51 2022, MaxMem= 16106127360 cpu:               6.7 elap:               0.3
 (Enter /sw/contrib/gaussian/g16/B01/g16/l1102.exe)
 Leave Link 1102 at Sun Mar  6 19:32:51 2022, MaxMem= 16106127360 cpu:               1.3 elap:               0.1
 (Enter /sw/contrib/gaussian/g16/B01/g16/l1110.exe)
 Forming Gx(P) for the SCF density, NAtomX=     5.
 Integral derivatives from FoFJK, PRISM(SPDF).
 Do as many integral derivatives as possible in FoFJK.
 G2DrvN: MDV=   16106126844.
 G2DrvN: will do     6 centers at a time, making    1 passes.
 Calling FoFCou, ICntrl=  3107 FMM=F I1Cent=   0 AccDes= 0.00D+00.
 FoFJK:  IHMeth= 1 ICntrl=    3107 DoSepK=F KAlg= 0 I1Cent=           0 FoldK=F
 IRaf=         0 NMat=       1 IRICut=       1 DoRegI=T DoRafI=F ISym2E= 1 IDoP0=0 IntGTp=1.
 FoFCou: FMM=F IPFlag=           0 FMFlag=      100000 FMFlg1=           0
         NFxFlg=           0 DoJE=F BraDBF=F KetDBF=F FulRan=T
         wScrn=  0.000000 ICntrl=      3107 IOpCl=  0 I1Cent=           0 NGrid=           0
         NMat0=    1 NMatS0=      1 NMatT0=    0 NMatD0=    1 NMtDS0=    0 NMtDT0=    0
 Petite list used in FoFCou.
 End of G2Drv F.D. properties file   721 does not exist.
 End of G2Drv F.D. properties file   722 does not exist.
 End of G2Drv F.D. properties file   788 does not exist.
 Leave Link 1110 at Sun Mar  6 19:32:54 2022, MaxMem= 16106127360 cpu:              86.9 elap:               3.1
 (Enter /sw/contrib/gaussian/g16/B01/g16/l1002.exe)
 Minotr:  Closed shell wavefunction.
          IDoAtm=11111
          Frozen-core window.
          Direct CPHF calculation.
          Differentiating once with respect to electric field.
                with respect to dipole field.
          Differentiating once with respect to nuclear coordinates.
          Requested convergence is 1.0D-08 RMS, and 1.0D-07 maximum.
          Secondary convergence is 1.0D-12 RMS, and 1.0D-12 maximum.
          NewPWx=T KeepS1=T KeepF1=T KeepIn=T MapXYZ=F SortEE=F KeepMc=T.
 Keep R1 ints in memory in symmetry-blocked form, NReq=348888983.
 FoFCou: FMM=F IPFlag=           0 FMFlag=           0 FMFlg1=           0
         NFxFlg=           0 DoJE=F BraDBF=F KetDBF=F FulRan=T
         wScrn=  0.000000 ICntrl=       600 IOpCl=  0 I1Cent=           0 NGrid=           0
         NMat0=    1 NMatS0=  21528 NMatT0=    0 NMatD0=    1 NMtDS0=    0 NMtDT0=    0
 Petite list used in FoFCou.
          MDV=   16106127360 using IRadAn=       1.
          Solving linear equations simultaneously, MaxMat=       0.
          There are    18 degrees of freedom in the 1st order CPHF.  IDoFFX=6 NUNeed=    18.
     15 vectors produced by pass  0 Test12= 1.70D-14 5.56D-09 XBig12= 7.91D+00 1.24D+00.
 AX will form    15 AO Fock derivatives at one time.
     15 vectors produced by pass  1 Test12= 1.70D-14 5.56D-09 XBig12= 1.35D+00 2.21D-01.
     15 vectors produced by pass  2 Test12= 1.70D-14 5.56D-09 XBig12= 6.85D-02 5.90D-02.
     15 vectors produced by pass  3 Test12= 1.70D-14 5.56D-09 XBig12= 2.04D-03 1.10D-02.
     15 vectors produced by pass  4 Test12= 1.70D-14 5.56D-09 XBig12= 4.63D-05 1.21D-03.
     15 vectors produced by pass  5 Test12= 1.70D-14 5.56D-09 XBig12= 6.71D-07 1.16D-04.
     15 vectors produced by pass  6 Test12= 1.70D-14 5.56D-09 XBig12= 5.04D-09 1.14D-05.
     14 vectors produced by pass  7 Test12= 1.70D-14 5.56D-09 XBig12= 3.63D-11 8.80D-07.
      3 vectors produced by pass  8 Test12= 1.70D-14 5.56D-09 XBig12= 2.48D-13 6.25D-08.
      1 vectors produced by pass  9 Test12= 1.70D-14 5.56D-09 XBig12= 1.70D-15 6.74D-09.
 InvSVY:  IOpt=1 It=  1 EMax= 8.88D-16
 Solved reduced A of dimension   123 with    15 vectors.
 FullF1:  Do perturbations      1 to      18.
 Saving first derivative matrices.
 End of Minotr F.D. properties file   721 does not exist.
 End of Minotr F.D. properties file   722 does not exist.
 End of Minotr F.D. properties file   788 does not exist.
 Leave Link 1002 at Sun Mar  6 19:32:57 2022, MaxMem= 16106127360 cpu:              77.3 elap:               2.9
 (Enter /sw/contrib/gaussian/g16/B01/g16/l811.exe)
 MDV= 16106127360.
 Form MO integral derivatives with frozen-active canonical formalism.
 MOERI=1 MOERIx=1 NAtoms=     5 NAtomX=     5.
 Discarding MO integrals.
 MO basis two electron integral derivatives will not be stored on disk.
 IAlg= 3 DoFC=T DoPWx=T Debug=F.
 Frozen-core window:  NFC=   4 NFV=   0.
 Reordered first order wavefunction length =     18678272
 In DefCFB: NBatch=  1 ICI= 16 ICA=191 LFMax= 96
            Large arrays: LIAPS=   619940160 LIARS=   288257200 words.
 In StABat: MaxSiz= 55 MinSiz= 25 NAtomB=  5
 DoIAMN: NPSUse= 28.
 Leave Link  811 at Sun Mar  6 19:34:20 2022, MaxMem= 16106127360 cpu:            2295.2 elap:              82.1
 (Enter /sw/contrib/gaussian/g16/B01/g16/l804.exe)
 Frozen-core window:  NFC=   4 NFV=   0.
 Closed-shell transformation, MDV= 16106127360 ITran=4 ISComp=1.
 Semi-Direct transformation.
 ModeAB=           2 MOrb=            16 LenV=   16104920009
 LASXX=     67341636 LTotXX=    67341636 LenRXX=    67341636
 LTotAB=    68301760 MaxLAS=    99807120 LenRXY=    99807120
 NonZer=   134683272 LenScr=   202817536 LnRSAI=           0
 LnScr1=           0 LExtra=           0 Total=    369966292
 MaxDsk=          -1 SrtSym=           F ITran=            4
 DoSDTr:  NPSUse= 28
 JobTyp=0 Pass  1:  I=   1 to  16.
 (rs|ai) integrals will be sorted in core.
 Complete sort for first half transformation.
 First half transformation complete.
 Begin second half transformation for I=  10.
 Begin second half transformation for I=  10.
 Complete sort for second half transformation.
 Second half transformation complete.
 Spin components of T(2) and E(2):
     alpha-alpha T2 =       0.3478686459D-01 E2=     -0.1244524222D+00
     alpha-beta  T2 =       0.1846204627D+00 E2=     -0.6996088553D+00
     beta-beta   T2 =       0.3478686459D-01 E2=     -0.1244524222D+00
 ANorm=    0.1583789249D+01
 E2 =    -0.9485136996D+00 EUMP2 =    -0.28045505165695D+03
 Leave Link  804 at Sun Mar  6 19:34:35 2022, MaxMem= 16106127360 cpu:             428.1 elap:              15.3
 (Enter /sw/contrib/gaussian/g16/B01/g16/l1002.exe)
 Minotr:  Closed shell wavefunction.
          Computing MP2/KS-MP2 derivatives.
          Using Z-Vector for PSCF gradient.
          Skipping F1 and S1 gradient terms here.
          IDoAtm=11111
          Frozen-core window.
          Using MO integrals in the linear equations.
          Forming densities via direct SCF.
          Differentiating once with respect to electric field.
                with respect to dipole field.
          Differentiating once with respect to nuclear coordinates.
          Using symmetry in CPHF.
          Requested convergence is 1.0D-10 RMS, and 1.0D-09 maximum.
          NewPWx=F KeepS1=T KeepF1=T KeepIn=T MapXYZ=F SortEE=F KeepMc=T.
          MDV=   16106127360 using IRadAn=       5.
          Solving linear equations separately, MaxMat=       0.
          There are     1 degrees of freedom in the 1st order CPHF.  IDoFFX=0 NUNeed=     1.
 FoFJK:  IHMeth= 1 ICntrl=       0 DoSepK=F KAlg= 0 I1Cent=           0 FoldK=F
 IRaf=         0 NMat=       1 IRICut=       1 DoRegI=T DoRafI=F ISym2E= 0 IDoP0=0 IntGTp=1.
 FoFCou: FMM=F IPFlag=           0 FMFlag=      100000 FMFlg1=           0
         NFxFlg=           0 DoJE=F BraDBF=F KetDBF=F FulRan=T
         wScrn=  0.000000 ICntrl=         0 IOpCl=  0 I1Cent=           0 NGrid=           0
         NMat0=    1 NMatS0=      1 NMatT0=    0 NMatD0=    1 NMtDS0=    0 NMtDT0=    0
 Symmetry not used in FoFCou.
 LinEq1:  Iter=  0 NonCon=     1 RMS=6.59D-03 Max=1.68D-01 NDo=     1
 LinEq1:  Iter=  1 NonCon=     1 RMS=2.00D-03 Max=3.08D-02 NDo=     1
 LinEq1:  Iter=  2 NonCon=     1 RMS=8.85D-04 Max=1.44D-02 NDo=     1
 LinEq1:  Iter=  3 NonCon=     1 RMS=3.81D-04 Max=8.20D-03 NDo=     1
 LinEq1:  Iter=  4 NonCon=     1 RMS=1.38D-04 Max=1.83D-03 NDo=     1
 LinEq1:  Iter=  5 NonCon=     1 RMS=7.68D-05 Max=1.38D-03 NDo=     1
 LinEq1:  Iter=  6 NonCon=     1 RMS=2.44D-05 Max=3.79D-04 NDo=     1
 LinEq1:  Iter=  7 NonCon=     1 RMS=8.01D-06 Max=1.06D-04 NDo=     1
 LinEq1:  Iter=  8 NonCon=     1 RMS=3.95D-06 Max=6.18D-05 NDo=     1
 LinEq1:  Iter=  9 NonCon=     1 RMS=1.04D-06 Max=1.28D-05 NDo=     1
 LinEq1:  Iter= 10 NonCon=     1 RMS=2.29D-07 Max=3.18D-06 NDo=     1
 LinEq1:  Iter= 11 NonCon=     1 RMS=4.88D-08 Max=8.70D-07 NDo=     1
 LinEq1:  Iter= 12 NonCon=     1 RMS=1.15D-08 Max=1.85D-07 NDo=     1
 LinEq1:  Iter= 13 NonCon=     1 RMS=2.02D-09 Max=2.62D-08 NDo=     1
 LinEq1:  Iter= 14 NonCon=     1 RMS=4.14D-10 Max=5.63D-09 NDo=     1
 LinEq1:  Iter= 15 NonCon=     0 RMS=8.54D-11 Max=7.69D-10 NDo=     1
 Linear equations converged to 1.000D-10 1.000D-09 after    15 iterations.
 End of Minotr F.D. properties file   721 does not exist.
 End of Minotr F.D. properties file   722 does not exist.
 End of Minotr F.D. properties file   788 does not exist.
 Leave Link 1002 at Sun Mar  6 19:34:37 2022, MaxMem= 16106127360 cpu:              65.9 elap:               2.4
 (Enter /sw/contrib/gaussian/g16/B01/g16/l1102.exe)
 Use density number 2.
 Symmetrizing basis deriv contribution to polar:
 IMax=3 JMax=2 DiffMx= 0.00D+00
 Leave Link 1102 at Sun Mar  6 19:34:37 2022, MaxMem= 16106127360 cpu:               0.8 elap:               0.1
 (Enter /sw/contrib/gaussian/g16/B01/g16/l1110.exe)
 Forming Gx(P) for generalized density number  2 NAtomX=     5.
 Integral derivatives from FoFJK, PRISM(SPDF).
 Do as many integral derivatives as possible in FoFJK.
 G2DrvN: MDV=   16106126844.
 G2DrvN: will do     6 centers at a time, making    1 passes.
 Calling FoFCou, ICntrl=  3107 FMM=F I1Cent=   0 AccDes= 0.00D+00.
 FoFJK:  IHMeth= 1 ICntrl=    3107 DoSepK=F KAlg= 0 I1Cent=           0 FoldK=F
 IRaf=         0 NMat=       1 IRICut=       1 DoRegI=T DoRafI=F ISym2E= 1 IDoP0=0 IntGTp=1.
 FoFCou: FMM=F IPFlag=           0 FMFlag=      100000 FMFlg1=           0
         NFxFlg=           0 DoJE=F BraDBF=F KetDBF=F FulRan=T
         wScrn=  0.000000 ICntrl=      3107 IOpCl=  0 I1Cent=           0 NGrid=           0
         NMat0=    1 NMatS0=      1 NMatT0=    0 NMatD0=    1 NMtDS0=    0 NMtDT0=    0
 Petite list used in FoFCou.
 End of G2Drv F.D. properties file   721 does not exist.
 End of G2Drv F.D. properties file   722 does not exist.
 End of G2Drv F.D. properties file   788 does not exist.
 Leave Link 1110 at Sun Mar  6 19:34:41 2022, MaxMem= 16106127360 cpu:              87.6 elap:               3.2
 (Enter /sw/contrib/gaussian/g16/B01/g16/l1112.exe)
 MP22nd: MDV=   16106127360
 This link is doing NAtomX=     5 total of    18 degrees of freedom.
 Using ON3 I/O method in MakUI.
 Frozen-core window:  NFC=   4 NFV=   0.
 Using Ix for Sx.
 Use MO integrals over full window.
 Using OV2 memory method for fx*t*t/D, MaxI=    16 DoOO2=F NP=  28.
 R2 and R3 integrals will be kept in memory, NReq=   915591705.
 FoFCou: FMM=F IPFlag=           0 FMFlag=           0 FMFlg1=           0
         NFxFlg=           0 DoJE=F BraDBF=F KetDBF=F FulRan=T
         wScrn=  0.000000 ICntrl=       600 IOpCl=  0 I1Cent=           0 NGrid=           0
         NMat0=    1 NMatS0=      1 NMatT0=    0 NMatD0=    1 NMtDS0=    0 NMtDT0=    0
 Symmetry not used in FoFCou.
 DD1Dir will call FoFMem   1 times, MxPair=       272
 NAB=   136 NAA=     0 NBB=     0.
 Symmetry is being used.
 FoFJK:  IHMeth= 1 ICntrl=       0 DoSepK=F KAlg= 0 I1Cent=           0 FoldK=F
 IRaf=         0 NMat=      18 IRICut=      45 DoRegI=T DoRafI=T ISym2E= 2 IDoP0=3 IntGTp=3.
 Discarding MO integrals.
 Leave Link 1112 at Sun Mar  6 19:35:16 2022, MaxMem= 16106127360 cpu:             975.9 elap:              35.3
 (Enter /sw/contrib/gaussian/g16/B01/g16/l601.exe)
 Copying SCF densities to generalized density rwf, IOpCl= 0 IROHF=0.

 **********************************************************************

            Population analysis using the MP2 Density.

 **********************************************************************

 Orbital symmetries:
       Occupied  (A') (A') (A') (A') (A') (A') (A') (A') (A') (A')
                 (A") (A') (A") (A') (A') (A")
       Virtual   (A') (A") (A') (A') (A") (A') (A') (A') (A") (A')
                 (A") (A') (A') (A') (A") (A') (A') (A") (A') (A')
                 (A') (A') (A') (A') (A") (A') (A') (A") (A') (A')
                 (A') (A") (A") (A') (A') (A') (A") (A') (A") (A')
                 (A") (A") (A') (A') (A") (A') (A') (A") (A') (A')
                 (A') (A") (A') (A') (A") (A') (A") (A') (A") (A')
                 (A') (A') (A") (A') (A') (A') (A") (A") (A') (A')
                 (A") (A') (A") (A") (A') (A') (A") (A') (A') (A")
                 (A') (A') (A') (A") (A') (A") (A") (A') (A') (A')
                 (A') (A') (A") (A") (A') (A') (A") (A") (A') (A')
                 (A") (A') (A") (A') (A") (A') (A') (A") (A') (A')
                 (A") (A') (A') (A') (A") (A') (A') (A') (A") (A')
                 (A") (A") (A') (A') (A") (A') (A") (A") (A') (A')
                 (A') (A') (A") (A') (A') (A") (A") (A') (A') (A')
                 (A") (A') (A") (A') (A') (A") (A') (A') (A') (A")
                 (A') (A') (A') (A") (A") (A') (A") (A') (A') (A")
                 (A') (A") (A') (A") (A") (A') (A') (A") (A") (A")
                 (A') (A") (A") (A') (A') (A") (A') (A') (A') (A")
                 (A') (A') (A') (A') (A') (A') (A') (A') (A') (A')
                 (A')
 The electronic state is 1-A'.
 Alpha  occ. eigenvalues --  -20.71784 -20.68633 -20.67039 -15.82608  -1.64211
 Alpha  occ. eigenvalues --   -1.50534  -1.29386  -0.96009  -0.83168  -0.75811
 Alpha  occ. eigenvalues --   -0.73874  -0.63989  -0.61894  -0.61692  -0.50366
 Alpha  occ. eigenvalues --   -0.49699
 Alpha virt. eigenvalues --    0.03474   0.06094   0.09518   0.10096   0.11974
 Alpha virt. eigenvalues --    0.12241   0.14848   0.15125   0.17767   0.18075
 Alpha virt. eigenvalues --    0.18998   0.21106   0.21667   0.24035   0.24655
 Alpha virt. eigenvalues --    0.26897   0.31055   0.31453   0.33785   0.34526
 Alpha virt. eigenvalues --    0.34826   0.39097   0.44625   0.48762   0.50468
 Alpha virt. eigenvalues --    0.51966   0.54482   0.56158   0.60066   0.62067
 Alpha virt. eigenvalues --    0.63812   0.68846   0.71766   0.72517   0.74119
 Alpha virt. eigenvalues --    0.76070   0.76607   0.79542   0.80416   0.84215
 Alpha virt. eigenvalues --    0.84357   0.85141   0.88493   0.90657   0.92836
 Alpha virt. eigenvalues --    0.94740   0.95358   1.01876   1.02866   1.05217
 Alpha virt. eigenvalues --    1.06423   1.09100   1.13920   1.15584   1.16920
 Alpha virt. eigenvalues --    1.22141   1.22475   1.24740   1.34501   1.36787
 Alpha virt. eigenvalues --    1.37762   1.46652   1.48491   1.50682   1.53879
 Alpha virt. eigenvalues --    1.59135   1.59795   1.60536   1.62407   1.69600
 Alpha virt. eigenvalues --    1.74039   1.80284   1.83148   1.88872   1.88983
 Alpha virt. eigenvalues --    1.92531   1.97805   1.98694   2.05055   2.12678
 Alpha virt. eigenvalues --    2.12825   2.16302   2.18271   2.24081   2.25641
 Alpha virt. eigenvalues --    2.29612   2.34384   2.35920   2.38898   2.39830
 Alpha virt. eigenvalues --    2.43071   2.46709   2.47357   2.52492   2.53190
 Alpha virt. eigenvalues --    2.54892   2.55765   2.61190   2.62596   2.66736
 Alpha virt. eigenvalues --    2.66955   2.75383   2.80862   2.80920   2.84392
 Alpha virt. eigenvalues --    2.91274   2.98494   3.04337   3.04491   3.11610
 Alpha virt. eigenvalues --    3.12154   3.15670   3.21297   3.30712   3.33233
 Alpha virt. eigenvalues --    3.37042   3.47031   3.68504   3.86807   3.91431
 Alpha virt. eigenvalues --    4.17515   4.21354   4.22019   4.25594   4.36322
 Alpha virt. eigenvalues --    4.49282   4.50460   4.55672   4.59549   4.69968
 Alpha virt. eigenvalues --    4.81554   4.90304   4.91276   4.93609   5.00002
 Alpha virt. eigenvalues --    5.00725   5.10958   5.12784   5.18194   5.24726
 Alpha virt. eigenvalues --    5.25816   5.31656   5.31744   5.34912   5.55421
 Alpha virt. eigenvalues --    5.64584   5.70214   5.88612   6.00094   6.26852
 Alpha virt. eigenvalues --    6.29714   6.36060   6.38024   6.59566   6.64474
 Alpha virt. eigenvalues --    6.65622   6.68446   6.72972   6.80017   6.80503
 Alpha virt. eigenvalues --    6.84785   6.96694   7.02012   7.06602   7.08165
 Alpha virt. eigenvalues --    7.13226   7.15945   7.17447   7.20209   7.24485
 Alpha virt. eigenvalues --    7.24880   7.26921   7.34306   7.38576   7.42245
 Alpha virt. eigenvalues --    7.44348   7.46337   7.55350   7.65494   7.66585
 Alpha virt. eigenvalues --    7.79637   7.87906   7.94349   8.04170   8.29791
 Alpha virt. eigenvalues --    8.49271   8.65650  13.59899  14.79601  15.07252
 Alpha virt. eigenvalues --   15.70620
          Condensed to atoms (all electrons):
               1          2          3          4          5
     1  H    0.573580   0.127107   0.024709  -0.001709  -0.005465
     2  O    0.127107   8.386726  -0.235590  -0.000803  -0.005398
     3  O    0.024709  -0.235590   8.375852  -0.166852  -0.036450
     4  N   -0.001709  -0.000803  -0.166852   7.132211  -0.113955
     5  O   -0.005465  -0.005398  -0.036450  -0.113955   8.360445
 Mulliken charges:
               1
     1  H    0.281777
     2  O   -0.272041
     3  O    0.038331
     4  N    0.151109
     5  O   -0.199176
 Sum of Mulliken charges =  -0.00000
 Mulliken charges with hydrogens summed into heavy atoms:
               1
     2  O    0.009736
     3  O    0.038331
     4  N    0.151109
     5  O   -0.199176
 APT charges:
               1
     1  H    0.267207
     2  O   -0.303517
     3  O   -0.308229
     4  N    0.648265
     5  O   -0.303726
 Sum of APT charges =  -0.00000
 APT charges with hydrogens summed into heavy atoms:
               1
     2  O   -0.036310
     3  O   -0.308229
     4  N    0.648265
     5  O   -0.303726
 Electronic spatial extent (au):  <R**2>=            209.3309
 Charge=             -0.0000 electrons
 Dipole moment (field-independent basis, Debye):
    X=              0.1024    Y=             -1.1089    Z=              0.0000  Tot=              1.1137
 Quadrupole moment (field-independent basis, Debye-Ang):
   XX=            -23.2464   YY=            -23.0522   ZZ=            -21.9387
   XY=             -2.0096   XZ=              0.0000   YZ=              0.0000
 Traceless Quadrupole moment (field-independent basis, Debye-Ang):
   XX=             -0.5007   YY=             -0.3064   ZZ=              0.8071
   XY=             -2.0096   XZ=              0.0000   YZ=              0.0000
 Octapole moment (field-independent basis, Debye-Ang**2):
  XXX=              2.7461  YYY=              0.3241  ZZZ=              0.0000  XYY=              2.3623
  XXY=             -2.9006  XXZ=              0.0000  XZZ=             -0.5901  YZZ=             -0.7173
  YYZ=              0.0000  XYZ=              0.0000
 Hexadecapole moment (field-independent basis, Debye-Ang**3):
 XXXX=           -128.6209 YYYY=            -95.3870 ZZZZ=            -18.0490 XXXY=            -22.5980
 XXXZ=              0.0000 YYYX=            -20.6488 YYYZ=              0.0000 ZZZX=              0.0000
 ZZZY=              0.0000 XXYY=            -36.1582 XXZZ=            -24.6894 YYZZ=            -18.6605
 XXYZ=              0.0000 YYXZ=              0.0000 ZZXY=             -6.2121
 N-N= 1.223500888728D+02 E-N=-9.062656629108D+02  KE= 2.801942970060D+02
 Symmetry A'   KE= 2.663386994921D+02
 Symmetry A"   KE= 1.385559751388D+01
  Exact polarizability:  31.235   4.302  29.970   0.000   0.000  17.649
 Approx polarizability:  24.756   0.663  27.644  -0.000  -0.000  15.532
 No NMR shielding tensors so no spin-rotation constants.
 Leave Link  601 at Sun Mar  6 19:35:16 2022, MaxMem= 16106127360 cpu:               4.2 elap:               0.2
 (Enter /sw/contrib/gaussian/g16/B01/g16/l701.exe)
 ... and contract with generalized density number  2.
 Compute integral second derivatives.
 Leave Link  701 at Sun Mar  6 19:35:17 2022, MaxMem= 16106127360 cpu:               8.7 elap:               0.4
 (Enter /sw/contrib/gaussian/g16/B01/g16/l702.exe)
 L702 exits ... SP integral derivatives will be done elsewhere.
 Leave Link  702 at Sun Mar  6 19:35:17 2022, MaxMem= 16106127360 cpu:               0.8 elap:               0.1
 (Enter /sw/contrib/gaussian/g16/B01/g16/l703.exe)
 Integral derivatives from FoFJK, PRISM(SPDF).
 Compute integral second derivatives, UseDBF=F ICtDFT=           0.
 Calling FoFJK, ICntrl=  10100127 FMM=F ISym2X=1 I1Cent= 0 IOpClX= 0 NMat=1 NMatS=1 NMatT=0.
 FoFJK:  IHMeth= 1 ICntrl=10100127 DoSepK=F KAlg= 0 I1Cent=           0 FoldK=F
 IRaf=         0 NMat=       1 IRICut=       1 DoRegI=T DoRafI=F ISym2E= 1 IDoP0=0 IntGTp=1.
 FoFCou: FMM=F IPFlag=           0 FMFlag=      100000 FMFlg1=         800
         NFxFlg=           0 DoJE=F BraDBF=F KetDBF=F FulRan=T
         wScrn=  0.000000 ICntrl=  10100127 IOpCl=  0 I1Cent=           0 NGrid=           0
         NMat0=    1 NMatS0=      1 NMatT0=    0 NMatD0=    1 NMtDS0=    0 NMtDT0=    0
 Petite list used in FoFCou.
 Leave Link  703 at Sun Mar  6 19:35:33 2022, MaxMem= 16106127360 cpu:             447.2 elap:              16.0
 (Enter /sw/contrib/gaussian/g16/B01/g16/l716.exe)
 Dipole        = 4.02984767D-02-4.36291948D-01 0.00000000D+00
 Polarizability= 3.12345415D+01 4.30197254D+00 2.99699018D+01
                 0.00000000D+00 0.00000000D+00 1.76490701D+01
 Full mass-weighted force constant matrix:
 Low frequencies ---  -54.0418   -0.0008    0.0014    0.0016   25.5227   47.2690
 Low frequencies ---  354.4275  364.0957  516.3121
 Diagonal vibrational polarizability:
        7.3922275      10.1422833      16.3010474
 Harmonic frequencies (cm**-1), IR intensities (KM/Mole), Raman scattering
 activities (A**4/AMU), depolarization ratios for plane and unpolarized
 incident light, reduced masses (AMU), force constants (mDyne/A),
 and normal coordinates:
                      1                      2                      3
                     A"                     A'                     A"
 Frequencies --    354.2729               364.0957               516.2533
 Red. masses --      1.5439                 6.9901                 2.9736
 Frc consts  --      0.1142                 0.5460                 0.4669
 IR Inten    --     63.8684                 7.7098                25.8151
  Atom  AN      X      Y      Z        X      Y      Z        X      Y      Z
     1   1     0.00   0.00   0.98    -0.73  -0.26   0.00     0.00  -0.00   0.93
     2   8     0.00   0.00  -0.11    -0.32  -0.32  -0.00     0.00  -0.00   0.06
     3   8     0.00  -0.00   0.12    -0.07   0.09   0.00    -0.00  -0.00  -0.19
     4   7    -0.00  -0.00  -0.11     0.05   0.09  -0.00     0.00   0.00   0.27
     5   8    -0.00  -0.00   0.03     0.39   0.16   0.00     0.00   0.00  -0.17
                      4                      5                      6
                     A'                     A'                     A'
 Frequencies --    713.9659               834.6966               971.2665
 Red. masses --     13.1934                12.1634                 9.5104
 Frc consts  --      3.9624                 4.9930                 5.2860
 IR Inten    --    222.2238                27.6777                13.0911
  Atom  AN      X      Y      Z        X      Y      Z        X      Y      Z
     1   1    -0.37  -0.00   0.00     0.46  -0.15  -0.00    -0.64  -0.01   0.00
     2   8     0.01  -0.08   0.00     0.52  -0.19   0.00     0.21  -0.16  -0.00
     3   8     0.36   0.57  -0.00    -0.38  -0.05  -0.00    -0.36   0.40   0.00
     4   7    -0.42  -0.45   0.00    -0.43  -0.04   0.00     0.36   0.04   0.00
     5   8     0.02  -0.10  -0.00     0.21   0.28  -0.00    -0.13  -0.27  -0.00
                      7                      8                      9
                     A'                     A'                     A'
 Frequencies --   1429.8726              1564.7263              3498.2907
 Red. masses --      1.2813                 7.4063                 1.0640
 Frc consts  --      1.5435                10.6839                 7.6721
 IR Inten    --     77.3475               154.0975                37.8044
  Atom  AN      X      Y      Z        X      Y      Z        X      Y      Z
     1   1     0.97  -0.19  -0.00    -0.72   0.15   0.00     0.13   0.99   0.00
     2   8    -0.06  -0.05  -0.00     0.02   0.02   0.00    -0.01  -0.06  -0.00
     3   8    -0.03   0.06   0.00    -0.04  -0.06  -0.00     0.00  -0.00   0.00
     4   7     0.06  -0.05  -0.00     0.26  -0.44   0.00    -0.00   0.00   0.00
     5   8    -0.02   0.04   0.00    -0.16   0.41  -0.00     0.00  -0.00  -0.00

 -------------------
 - Thermochemistry -
 -------------------
 Temperature   298.150 Kelvin.  Pressure   1.00000 Atm.
 Atom     1 has atomic number  1 and mass   1.00783
 Atom     2 has atomic number  8 and mass  15.99491
 Atom     3 has atomic number  8 and mass  15.99491
 Atom     4 has atomic number  7 and mass  14.00307
 Atom     5 has atomic number  8 and mass  15.99491
 Molecular mass:    62.99564 amu.
 Principal axes and moments of inertia in atomic units:
                           1         2         3
     Eigenvalues --    83.32122 227.87926 311.20048
           X            0.79852  -0.60197   0.00000
           Y            0.60197   0.79852   0.00000
           Z            0.00000   0.00000   1.00000
 This molecule is an asymmetric top.
 Rotational symmetry number  1.
 Rotational temperatures (Kelvin)      1.03952     0.38009     0.27832
 Rotational constants (GHZ):          21.66004     7.91973     5.79929
 Zero-point vibrational energy      61293.3 (Joules/Mol)
                                   14.64945 (Kcal/Mol)
 Warning -- explicit consideration of   3 degrees of freedom as
           vibrations may cause significant error
 Vibrational temperatures:    509.72   523.85   742.77  1027.24  1200.94
          (Kelvin)           1397.44  2057.27  2251.29  5033.26
 
 Zero-point correction=                           0.023345 (Hartree/Particle)
 Thermal correction to Energy=                    0.027320
 Thermal correction to Enthalpy=                  0.028265
 Thermal correction to Gibbs Free Energy=        -0.002670
 Sum of electronic and zero-point Energies=           -280.431706
 Sum of electronic and thermal Energies=              -280.427731
 Sum of electronic and thermal Enthalpies=            -280.426787
 Sum of electronic and thermal Free Energies=         -280.457721
 
                     E (Thermal)             CV                S
                      KCal/Mol        Cal/Mol-Kelvin    Cal/Mol-Kelvin
 Total                   17.144             12.251             65.107
 Electronic               0.000              0.000              0.000
 Translational            0.889              2.981             38.341
 Rotational               0.889              2.981             23.295
 Vibrational             15.366              6.290              3.471
 Vibration     1          0.730              1.566              1.147
 Vibration     2          0.738              1.546              1.105
 Vibration     3          0.871              1.214              0.619
                       Q            Log10(Q)             Ln(Q)
 Total Bot       0.169022D+02          1.227944          2.827446
 Total V=0       0.924841D+12         11.966067         27.552888
 Vib (Bot)       0.312557D-10        -10.505071        -24.188821
 Vib (Bot)    1  0.519333D+00         -0.284554         -0.655210
 Vib (Bot)    2  0.502035D+00         -0.299266         -0.689086
 Vib (Bot)    3  0.313736D+00         -0.503435         -1.159203
 Vib (V=0)       0.171022D+01          0.233052          0.536621
 Vib (V=0)    1  0.122091D+01          0.086683          0.199594
 Vib (V=0)    2  0.120855D+01          0.082264          0.189419
 Vib (V=0)    3  0.109028D+01          0.037538          0.086435
 Electronic      0.100000D+01          0.000000          0.000000
 Translational   0.196526D+08          7.293420         16.793719
 Rotational      0.275167D+05          4.439596         10.222547
 
                                                                title
                                                             IR Spectrum
 
     3                                                                      1    1                                                   
     4                                                                      5    4               9    8    7      5    33            
     9                                                                      6    3               7    3    1      1    65            
     8                                                                      5    0               1    5    4      6    44            
 
     X                                                                      X    X               X    X    X      X    XX            
     X                                                                      X    X                    X    X      X     X            
     X                                                                      X    X                         X            X            
                                                                            X    X                         X            X            
                                                                            X    X                         X            X            
                                                                            X    X                         X            X            
                                                                            X    X                         X                         
                                                                            X                              X                         
                                                                            X                              X                         
                                                                            X                              X                         
                                                                            X                              X                         
                                                                            X                              X                         
                                                                            X                              X                         
                                                                            X                              X                         
                                                                                                           X                         
                                                                                                           X                         
                                                                                                           X                         
                                                                                                           X                         
                                                                                                           X                         
                                                                                                           X                         
 
 ***** Axes restored to original set *****
 -------------------------------------------------------------------
 Center     Atomic                   Forces (Hartrees/Bohr)
 Number     Number              X              Y              Z
 -------------------------------------------------------------------
      1        1          -0.000173492   -0.000000000    0.000308389
      2        8           0.001445440   -0.000000000   -0.005241537
      3        8           0.003938400   -0.000000000    0.005563155
      4        7          -0.004676551   -0.000000000   -0.000895205
      5        8          -0.000533796   -0.000000000    0.000265198
 -------------------------------------------------------------------
 Cartesian Forces:  Max     0.005563155 RMS     0.002571312
 -----------------------------------------------------------------------------------------------
                       Internal Coordinate Forces (Hartree/Bohr or radian)
  Cent   Atom   N1       Length/X         N2         Alpha/Y        N3         Beta/Z          J
 -----------------------------------------------------------------------------------------------
      1  H 
      2  O        1  -0.000308(     1)
      3  O        2  -0.000340(     2)      1   0.000323(     5)
      4  N        3  -0.002503(     3)      2  -0.013382(     6)      1   0.000000(     8)     0
      5  O        4   0.000040(     4)      3  -0.001343(     7)      2   0.000000(     9)     0
 -----------------------------------------------------------------------------------------------
 Internal  Forces:  Max     0.013382010 RMS     0.004563905
 Force constants in Cartesian coordinates: 
                1             2             3             4             5 
      1  0.707938D-01
      2  0.000000D+00  0.597087D-02
      3  0.230774D-01  0.000000D+00  0.439388D+00
      4 -0.516295D-01  0.000000D+00 -0.485157D-02  0.278205D+00
      5  0.000000D+00 -0.269399D-02  0.000000D+00  0.000000D+00  0.123623D-01
      6  0.336162D-01  0.000000D+00 -0.424338D+00 -0.679084D-02  0.000000D+00
      7 -0.253700D-01  0.000000D+00 -0.149632D-01 -0.172624D+00  0.000000D+00
      8  0.000000D+00 -0.385471D-02  0.000000D+00  0.000000D+00 -0.173783D-01
      9 -0.458332D-01  0.000000D+00 -0.186145D-01  0.836338D-02  0.000000D+00
     10 -0.395028D-02  0.000000D+00  0.611957D-02 -0.811685D-01  0.000000D+00
     11  0.000000D+00  0.758931D-02  0.000000D+00  0.000000D+00  0.187081D-01
     12 -0.173760D-01  0.000000D+00  0.104680D-01  0.687011D-02  0.000000D+00
     13  0.101560D-01  0.000000D+00 -0.938220D-02  0.272169D-01  0.000000D+00
     14  0.000000D+00 -0.701148D-02  0.000000D+00  0.000000D+00 -0.109981D-01
     15  0.651557D-02  0.000000D+00 -0.690368D-02 -0.359108D-02  0.000000D+00
                6             7             8             9            10 
      6  0.521934D+00
      7 -0.912938D-01  0.304019D+00
      8  0.000000D+00  0.000000D+00  0.381513D-01
      9 -0.993328D-01  0.815680D-01  0.000000D+00  0.323407D+00
     10  0.390397D-01 -0.143560D+00  0.000000D+00 -0.398804D-01  0.534032D+00
     11  0.000000D+00  0.000000D+00 -0.473376D-01  0.000000D+00  0.000000D+00
     12 -0.543527D-02  0.114179D-01  0.000000D+00 -0.297669D-01  0.245177D+00
     13  0.254287D-01  0.375351D-01  0.000000D+00 -0.421786D-02 -0.305353D+00
     14  0.000000D+00  0.000000D+00  0.304194D-01  0.000000D+00  0.000000D+00
     15  0.717269D-02  0.132710D-01  0.000000D+00 -0.175693D+00 -0.250456D+00
               11            12            13            14            15 
     11  0.584235D-01
     12  0.000000D+00  0.463810D+00
     13  0.000000D+00 -0.246089D+00  0.230445D+00
     14 -0.373833D-01  0.000000D+00  0.000000D+00  0.249735D-01
     15  0.000000D+00 -0.439076D+00  0.234261D+00  0.000000D+00  0.614500D+00
 Force constants in internal coordinates: 
                1             2             3             4             5 
      1  0.439388D+00
      2  0.206904D-01  0.257550D+00
      3  0.479518D-02  0.153521D-01  0.200759D+00
      4 -0.106930D-01  0.225423D-01  0.148614D+00  0.720856D+00
      5  0.427988D-01  0.545564D-01 -0.231791D-01  0.200140D-01  0.244894D+00
      6  0.119878D-01  0.115400D-01  0.699519D-01  0.859003D-02 -0.170868D-01
      7  0.104314D-01 -0.740582D-01  0.107779D+00  0.118340D+00 -0.230572D-01
      8  0.000000D+00  0.000000D+00  0.000000D+00  0.000000D+00  0.000000D+00
      9  0.000000D+00  0.000000D+00  0.000000D+00  0.000000D+00  0.000000D+00
                6             7             8             9 
      6  0.453007D+00
      7  0.244315D-01  0.632663D+00
      8  0.000000D+00  0.000000D+00  0.193849D-01
      9  0.000000D+00  0.000000D+00  0.263982D-01  0.106273D+00
 Leave Link  716 at Sun Mar  6 19:35:33 2022, MaxMem= 16106127360 cpu:               1.0 elap:               0.1
 (Enter /sw/contrib/gaussian/g16/B01/g16/l103.exe)

 GradGradGradGradGradGradGradGradGradGradGradGradGradGradGradGradGradGrad
 Berny optimization.
 Search for a local minimum.
 Step number   1 out of a maximum of    2
 All quantities printed in internal units (Hartrees-Bohrs-Radians)
 Second derivative matrix not updated -- analytic derivatives used.
 The second derivative matrix:
                          r1        r2        r3        r4        a1
           r1           0.43939
           r2           0.02069   0.25755
           r3           0.00480   0.01535   0.20076
           r4          -0.01069   0.02254   0.14861   0.72086
           a1           0.04280   0.05456  -0.02318   0.02001   0.24489
           a2           0.01199   0.01154   0.06995   0.00859  -0.01709
           a3           0.01043  -0.07406   0.10778   0.11834  -0.02306
           d1           0.00000   0.00000   0.00000   0.00000   0.00000
           d2           0.00000   0.00000   0.00000   0.00000   0.00000
                          a2        a3        d1        d2
           a2           0.45301
           a3           0.02443   0.63266
           d1           0.00000   0.00000   0.01938
           d2           0.00000   0.00000   0.02640   0.10627
 ITU=  0
     Eigenvalues ---    0.01199   0.11366   0.12590   0.20111   0.27178
     Eigenvalues ---    0.44651   0.46971   0.57506   0.85906
 Angle between quadratic step and forces=   8.06 degrees.
 Linear search not attempted -- first point.
 Variable       Old X    -DE/DX   Delta X   Delta X   Delta X     New X
                                 (Linear)    (Quad)   (Total)
    r1        1.86209  -0.00031   0.00000   0.00029   0.00029   1.86238
    r2        2.69614  -0.00034   0.00000   0.00008   0.00008   2.69622
    r3        2.60992  -0.00250   0.00000  -0.00293  -0.00293   2.60698
    r4        2.25782   0.00004   0.00000   0.00117   0.00117   2.25899
    a1        1.75642   0.00032   0.00000  -0.00123  -0.00123   1.75520
    a2        2.00267  -0.01338   0.00000  -0.02912  -0.02912   1.97355
    a3        1.99550  -0.00134   0.00000  -0.00076  -0.00076   1.99475
    d1        0.00000   0.00000   0.00000   0.00000   0.00000   0.00000
    d2        0.00000   0.00000   0.00000   0.00000   0.00000   0.00000
         Item               Value     Threshold  Converged?
 Maximum Force            0.013382     0.000450     NO 
 RMS     Force            0.004564     0.000300     NO 
 Maximum Displacement     0.029125     0.001800     NO 
 RMS     Displacement     0.009777     0.001200     NO 
 Predicted change in Energy=-1.988198D-04
                       ----------------------------
                       ! Non-Optimized Parameters !
                       ! (Angstroms and Degrees)  !
 ----------------------                            ----------------------
 !      Name          Value   Derivative information (Atomic Units)     !
 ------------------------------------------------------------------------
 !       r1          0.9855   -DE/DX =   -0.0003                        !
 !       r2          1.4268   -DE/DX =   -0.0003                        !
 !       r3          1.3796   -DE/DX =   -0.0025                        !
 !       r4          1.1954   -DE/DX =    0.0                           !
 !       a1        100.5653   -DE/DX =    0.0003                        !
 !       a2        113.076    -DE/DX =   -0.0134                        !
 !       a3        114.2906   -DE/DX =   -0.0013                        !
 !       d1          0.0      -DE/DX =    0.0                           !
 !       d2          0.0      -DE/DX =    0.0                           !
 ------------------------------------------------------------------------
 GradGradGradGradGradGradGradGradGradGradGradGradGradGradGradGradGradGrad

 Leave Link  103 at Sun Mar  6 19:35:33 2022, MaxMem= 16106127360 cpu:               0.5 elap:               0.0
 (Enter /sw/contrib/gaussian/g16/B01/g16/l9999.exe)

 ----------------------------------------------------------------------

 Electric dipole moment (input orientation):
 (Debye = 10**-18 statcoulomb cm , SI units = C m)
                  (au)            (Debye)         (10**-30 SI)
   Tot        0.438149D+00      0.111366D+01      0.371478D+01
   x         -0.121464D+00     -0.308731D+00     -0.102981D+01
   y          0.000000D+00      0.000000D+00      0.000000D+00
   z         -0.420976D+00     -0.107002D+01     -0.356919D+01

 Dipole polarizability, Alpha (input orientation).
 (esu units = cm**3 , SI units = C**2 m**2 J**-1)
 Alpha(0;0):
               (au)            (10**-24 esu)      (10**-40 SI)
   iso        0.262845D+02      0.389496D+01      0.433373D+01
   aniso      0.149835D+02      0.222032D+01      0.247044D+01
   xx         0.296039D+02      0.438685D+01      0.488103D+01
   yx         0.000000D+00      0.000000D+00      0.000000D+00
   yy         0.176491D+02      0.261532D+01      0.290994D+01
   zx        -0.423205D+01     -0.627125D+00     -0.697770D+00
   zy         0.000000D+00      0.000000D+00      0.000000D+00
   zz         0.316005D+02      0.468271D+01      0.521022D+01

 ----------------------------------------------------------------------

 Dipole orientation:
     1         -0.00000000          0.00000000          0.00000000
     8         -0.51621042          0.00000000         -1.78910965
     8          1.89181273         -0.00000000         -3.00179416
     7          3.93363471         -0.00000000         -1.37618035
     8          3.38010162          0.00000000          0.81273848

 Electric dipole moment (dipole orientation):
 (Debye = 10**-18 statcoulomb cm , SI units = C m)
                  (au)            (Debye)         (10**-30 SI)
   Tot        0.438149D+00      0.111366D+01      0.371478D+01
   x          0.000000D+00      0.000000D+00      0.000000D+00
   y          0.000000D+00      0.000000D+00      0.000000D+00
   z          0.438149D+00      0.111366D+01      0.371478D+01

 Dipole polarizability, Alpha (dipole orientation).
 (esu units = cm**3 , SI units = C**2 m**2 J**-1)
 Alpha(0;0):
               (au)            (10**-24 esu)      (10**-40 SI)
   iso        0.262845D+02      0.389496D+01      0.433373D+01
   aniso      0.149835D+02      0.222032D+01      0.247044D+01
   xx         0.320118D+02      0.474366D+01      0.527804D+01
   yx         0.000000D+00      0.000000D+00      0.000000D+00
   yy         0.176491D+02      0.261532D+01      0.290994D+01
   zx         0.411337D+01      0.609538D+00      0.678203D+00
   zy         0.000000D+00      0.000000D+00      0.000000D+00
   zz         0.291926D+02      0.432590D+01      0.481321D+01

 ----------------------------------------------------------------------
 1\1\GINC-N2110\Freq\RMP2-FC\Aug-CC-pVTZ\H1N1O3\CGAVINH\06-Mar-2022\1\\
 #p freq mp2/aug-cc-pvtz density=current\\title\\0,1\H\O,1,r1\O,2,r2,1,
 a1\N,3,r3,2,a2,1,d1,0\O,4,r4,3,a3,2,d2,0\\r1=0.98537664\r2=1.42673666\
 r3=1.38110764\r4=1.19478846\a1=100.6355057\a2=114.74475165\a3=114.3339
 2022\d1=0.\d2=0.\\Version=ES64L-G16RevB.01\State=1-A'\HF=-279.506538\M
 P2=-280.4550517\RMSD=3.945e-09\RMSF=2.571e-03\ZeroPoint=0.0233454\Ther
 mal=0.0273205\Dipole=-0.121464,0.,-0.4209764\DipoleDeriv=0.3125716,0.,
 0.0437115,0.,0.3007245,0.,-0.0141771,0.,0.1883252,-0.542552,0.,0.27805
 7,0.,-0.2521288,0.,-0.1168382,0.,-0.115871,-0.0080031,0.,0.3584489,0.,
 -0.0166426,0.,0.4630694,0.,-0.9000416,0.2205469,0.,-0.1796727,0.,0.016
 8691,0.,-0.7118169,0.,1.7073796,0.0174365,0.,-0.5005448,0.,-0.0488222,
 0.,0.3797628,0.,-0.8797922\Polar=29.6039355,0.,17.6490701,-4.2320469,0
 .,31.6005078\Quadrupole=0.183713,0.6000269,-0.7837399,0.,1.4154857,0.\
 PG=CS [SG(H1N1O3)]\NImag=0\\0.07079376,0.,0.00597087,0.02307741,0.,0.4
 3938845,-0.05162954,0.,-0.00485157,0.27820495,0.,-0.00269399,0.,0.,0.0
 1236226,0.03361616,0.,-0.42433833,-0.00679084,0.,0.52193372,-0.0253699
 7,0.,-0.01496321,-0.17262380,0.,-0.09129378,0.30401900,0.,-0.00385471,
 0.,0.,-0.01737834,0.,0.,0.03815133,-0.04583317,0.,-0.01861446,0.008363
 38,0.,-0.09933280,0.08156803,0.,0.32340728,-0.00395028,0.,0.00611957,-
 0.08116854,0.,0.03903975,-0.14356032,0.,-0.03988039,0.53403198,0.,0.00
 758931,0.,0.,0.01870815,0.,0.,-0.04733764,0.,0.,0.05842353,-0.01737598
 ,0.,0.01046803,0.00687011,0.,-0.00543527,0.01141792,0.,-0.02976688,0.2
 4517727,0.,0.46380964,0.01015604,0.,-0.00938220,0.02721694,0.,0.025428
 71,0.03753509,0.,-0.00421786,-0.30535284,0.,-0.24608932,0.23044478,0.,
 -0.00701148,0.,0.,-0.01099808,0.,0.,0.03041936,0.,0.,-0.03738335,0.,0.
 ,0.02497355,0.00651557,0.,-0.00690368,-0.00359108,0.,0.00717269,0.0132
 7104,0.,-0.17569314,-0.25045620,0.,-0.43907551,0.23426067,0.,0.6144996
 4\\0.00017349,0.,-0.00030839,-0.00144544,0.,0.00524154,-0.00393840,0.,
 -0.00556315,0.00467655,0.,0.00089521,0.00053380,0.,-0.00026520\\\@


 OLD HORSE! OLD HORSE! WHAT BROUGHT YOU HERE?
 FROM SACARAP' TO PORTLAND PIER
 I'VE CARTED STONE THIS MANY A YEAR;
 TILL, KILLED BY BLOWS AND SORE ABUSE,
 THEY SALTED ME DOWN FOR SAILORS' USE.
 THE SAILORS THEY DO ME DESPISE;
 THEY TURN ME OVER AND DAMN MY EYES;
 CUT OFF MY MEAT, AND SCRAPE MY BONES,
 AND PITCH ME OVER TO DAVY JONES.

    SAILORS' COMPLAINT ABOUT THE BEEF
    SERVED ON SHIPBOARD, CIRCA 1835.
 Job cpu time:       0 days  2 hours  1 minutes 22.9 seconds.
 Elapsed time:       0 days  0 hours  4 minutes 23.5 seconds.
 File lengths (MBytes):  RWF=   7239 Int=      0 D2E=      0 Chk=      8 Scr=      1
 Normal termination of Gaussian 16 at Sun Mar  6 19:35:34 2022.
