 Entering Gaussian System, Link 0=g16
 Input=hoono_a2_101p2688.gjf
 Output=hoono_a2_101p2688.log
 Initial command:
 /sw/contrib/gaussian/g16/B01/g16/l1.exe "/scr/Gau-29556.inp" -scrdir="/scr/"
 Entering Link 1 = /sw/contrib/gaussian/g16/B01/g16/l1.exe PID=     29557.
  
 Copyright (c) 1988-2017, Gaussian, Inc.  All Rights Reserved.
  
 This is part of the Gaussian(R) 16 program.  It is based on
 the Gaussian(R) 09 system (copyright 2009, Gaussian, Inc.),
 the Gaussian(R) 03 system (copyright 2003, Gaussian, Inc.),
 the Gaussian(R) 98 system (copyright 1998, Gaussian, Inc.),
 the Gaussian(R) 94 system (copyright 1995, Gaussian, Inc.),
 the Gaussian 92(TM) system (copyright 1992, Gaussian, Inc.),
 the Gaussian 90(TM) system (copyright 1990, Gaussian, Inc.),
 the Gaussian 88(TM) system (copyright 1988, Gaussian, Inc.),
 the Gaussian 86(TM) system (copyright 1986, Carnegie Mellon
 University), and the Gaussian 82(TM) system (copyright 1983,
 Carnegie Mellon University). Gaussian is a federally registered
 trademark of Gaussian, Inc.
  
 This software contains proprietary and confidential information,
 including trade secrets, belonging to Gaussian, Inc.
  
 This software is provided under written license and may be
 used, copied, transmitted, or stored only in accord with that
 written license.
  
 The following legend is applicable only to US Government
 contracts under FAR:
  
                    RESTRICTED RIGHTS LEGEND
  
 Use, reproduction and disclosure by the US Government is
 subject to restrictions as set forth in subparagraphs (a)
 and (c) of the Commercial Computer Software - Restricted
 Rights clause in FAR 52.227-19.
  
 Gaussian, Inc.
 340 Quinnipiac St., Bldg. 40, Wallingford CT 06492
  
  
 ---------------------------------------------------------------
 Warning -- This program may not be used in any manner that
 competes with the business of Gaussian, Inc. or will provide
 assistance to any competitor of Gaussian, Inc.  The licensee
 of this program is prohibited from giving any competitor of
 Gaussian, Inc. access to this program.  By using this program,
 the user acknowledges that Gaussian, Inc. is engaged in the
 business of creating and licensing software in the field of
 computational chemistry and represents and warrants to the
 licensee that it is not a competitor of Gaussian, Inc. and that
 it will not use this program in any manner prohibited above.
 ---------------------------------------------------------------
  

 Cite this work as:
 Gaussian 16, Revision B.01,
 M. J. Frisch, G. W. Trucks, H. B. Schlegel, G. E. Scuseria, 
 M. A. Robb, J. R. Cheeseman, G. Scalmani, V. Barone, 
 G. A. Petersson, H. Nakatsuji, X. Li, M. Caricato, A. V. Marenich, 
 J. Bloino, B. G. Janesko, R. Gomperts, B. Mennucci, H. P. Hratchian, 
 J. V. Ortiz, A. F. Izmaylov, J. L. Sonnenberg, D. Williams-Young, 
 F. Ding, F. Lipparini, F. Egidi, J. Goings, B. Peng, A. Petrone, 
 T. Henderson, D. Ranasinghe, V. G. Zakrzewski, J. Gao, N. Rega, 
 G. Zheng, W. Liang, M. Hada, M. Ehara, K. Toyota, R. Fukuda, 
 J. Hasegawa, M. Ishida, T. Nakajima, Y. Honda, O. Kitao, H. Nakai, 
 T. Vreven, K. Throssell, J. A. Montgomery, Jr., J. E. Peralta, 
 F. Ogliaro, M. J. Bearpark, J. J. Heyd, E. N. Brothers, K. N. Kudin, 
 V. N. Staroverov, T. A. Keith, R. Kobayashi, J. Normand, 
 K. Raghavachari, A. P. Rendell, J. C. Burant, S. S. Iyengar, 
 J. Tomasi, M. Cossi, J. M. Millam, M. Klene, C. Adamo, R. Cammi, 
 J. W. Ochterski, R. L. Martin, K. Morokuma, O. Farkas, 
 J. B. Foresman, and D. J. Fox, Gaussian, Inc., Wallingford CT, 2016.
 
 ******************************************
 Gaussian 16:  ES64L-G16RevB.01 20-Dec-2017
                21-Feb-2022 
 ******************************************
 %nproc=28
 Will use up to   28 processors via shared memory.
 %mem=120GB
 %chk=hoono_a2_101p2688.chk
 ---------------------------------------
 #p freq mp2/aug-cc-pvtz density=current
 ---------------------------------------
 1/10=4,30=1,38=1/1,3;
 2/12=2,17=6,18=5,40=1/2;
 3/5=16,6=1,7=10,11=9,25=1,30=1,71=2,140=1/1,2,3;
 4//1;
 5/5=2,38=5,98=1/2;
 8/6=3,8=1,10=1,19=11,30=-1/1;
 9/15=3,16=-3/6;
 11/6=1,8=1,15=11,17=12,24=-1,27=1,28=-2,29=300,32=6,42=3/1,2,10;
 10/6=2,21=1/2;
 8/6=4,8=1,10=1,19=11,30=-1/11,4;
 10/5=1,20=4/2;
 11/12=2,14=11,16=1,17=2,28=-2,42=3,76=2/2,10,12;
 6/7=2,8=2,9=2,10=2,22=-1/1;
 7/8=1,10=1,12=2,25=1,44=2/1,2,3,16;
 1/10=4,30=1/3;
 99//99;
 Leave Link    1 at Mon Feb 21 20:42:43 2022, MaxMem= 16106127360 cpu:               1.7 elap:               0.1
 (Enter /sw/contrib/gaussian/g16/B01/g16/l101.exe)
 -----
 title
 -----
 Symbolic Z-matrix:
 Charge =  0 Multiplicity = 1
 H
 O                    1    r1
 O                    2    r2       1    a1
 N                    3    r3       2    a2       1    d1       0
 O                    4    r4       3    a3       2    d2       0
       Variables:
  r1                    0.96898                  
  r2                    1.45492                  
  r3                    1.45878                  
  r4                    1.17073                  
  a1                   97.59495                  
  a2                  101.2689                   
  a3                  109.06955                  
  d1                  180.                       
  d2                  180.                       
 
 ITRead=  0  0  0  0  0
 MicOpt= -1 -1 -1 -1 -1
 NAtoms=      5 NQM=        5 NQMF=       0 NMMI=      0 NMMIF=      0
                NMic=       0 NMicF=      0.
                    Isotopes and Nuclear Properties:
 (Nuclear quadrupole moments (NQMom) in fm**2, nuclear magnetic moments (NMagM)
  in nuclear magnetons)

  Atom         1           2           3           4           5
 IAtWgt=           1          16          16          14          16
 AtmWgt=   1.0078250  15.9949146  15.9949146  14.0030740  15.9949146
 NucSpn=           1           0           0           2           0
 AtZEff=  -0.0000000  -0.0000000  -0.0000000  -0.0000000  -0.0000000
 NQMom=    0.0000000   0.0000000   0.0000000   2.0440000   0.0000000
 NMagM=    2.7928460   0.0000000   0.0000000   0.4037610   0.0000000
 AtZNuc=   1.0000000   8.0000000   8.0000000   7.0000000   8.0000000
 Leave Link  101 at Mon Feb 21 20:42:43 2022, MaxMem= 16106127360 cpu:               2.9 elap:               0.2
 (Enter /sw/contrib/gaussian/g16/B01/g16/l103.exe)

 GradGradGradGradGradGradGradGradGradGradGradGradGradGradGradGradGradGrad
 Berny optimization.
 Initialization pass.
                       ----------------------------
                       !    Initial Parameters    !
                       ! (Angstroms and Degrees)  !
 ----------------------                            ----------------------
 !      Name          Value   Derivative information (Atomic Units)     !
 ------------------------------------------------------------------------
 !       r1          0.969    calculate D2E/DX2 analytically            !
 !       r2          1.4549   calculate D2E/DX2 analytically            !
 !       r3          1.4588   calculate D2E/DX2 analytically            !
 !       r4          1.1707   calculate D2E/DX2 analytically            !
 !       a1         97.5949   calculate D2E/DX2 analytically            !
 !       a2        101.2689   calculate D2E/DX2 analytically            !
 !       a3        109.0696   calculate D2E/DX2 analytically            !
 !       d1        180.0      calculate D2E/DX2 analytically            !
 !       d2        180.0      calculate D2E/DX2 analytically            !
 ------------------------------------------------------------------------
 Trust Radius=3.00D-01 FncErr=1.00D-07 GrdErr=1.00D-07 EigMax=2.50D+02 EigMin=1.00D-04
 Number of steps in this run=      2 maximum allowed number of steps=      2.
 GradGradGradGradGradGradGradGradGradGradGradGradGradGradGradGradGradGrad

 Leave Link  103 at Mon Feb 21 20:42:43 2022, MaxMem= 16106127360 cpu:               0.5 elap:               0.0
 (Enter /sw/contrib/gaussian/g16/B01/g16/l202.exe)
                          Input orientation:                          
 ---------------------------------------------------------------------
 Center     Atomic      Atomic             Coordinates (Angstroms)
 Number     Number       Type             X           Y           Z
 ---------------------------------------------------------------------
      1          1           0        0.000000    0.000000    0.000000
      2          8           0        0.000000    0.000000    0.968976
      3          8           0        1.442156    0.000000    1.161271
      4          7           0        1.535632    0.000000    2.617057
      5          8           0        2.664350    0.000000    2.927864
 ---------------------------------------------------------------------
                    Distance matrix (angstroms):
                    1          2          3          4          5
     1  H    0.000000
     2  O    0.968976   0.000000
     3  O    1.851584   1.454919   0.000000
     4  N    3.034329   2.252629   1.458784   0.000000
     5  O    3.958681   3.306964   2.148165   1.170729   0.000000
 Stoichiometry    HNO3
 Framework group  CS[SG(HNO3)]
 Deg. of freedom     7
 Full point group                 CS      NOp   2
 Largest Abelian subgroup         CS      NOp   2
 Largest concise Abelian subgroup C1      NOp   1
                         Standard orientation:                         
 ---------------------------------------------------------------------
 Center     Atomic      Atomic             Coordinates (Angstroms)
 Number     Number       Type             X           Y           Z
 ---------------------------------------------------------------------
      1          1           0        1.568121    1.664971    0.000000
      2          8           0        1.454749    0.702651   -0.000000
      3          8           0        0.000000    0.680411    0.000000
      4          7           0       -0.263165   -0.754439   -0.000000
      5          8           0       -1.420495   -0.931049    0.000000
 ---------------------------------------------------------------------
 Rotational constants (GHZ):          54.0717690           5.0499793           4.6186272
 Leave Link  202 at Mon Feb 21 20:42:43 2022, MaxMem= 16106127360 cpu:               0.4 elap:               0.0
 (Enter /sw/contrib/gaussian/g16/B01/g16/l301.exe)
 Standard basis: Aug-CC-pVTZ (5D, 7F)
 Ernie: Thresh=  0.10000D-02 Tol=  0.10000D-05 Strict=F.
 Ernie:  12 primitive shells out of 131 were deleted.
 There are   166 symmetry adapted cartesian basis functions of A'  symmetry.
 There are    79 symmetry adapted cartesian basis functions of A"  symmetry.
 There are   136 symmetry adapted basis functions of A'  symmetry.
 There are    71 symmetry adapted basis functions of A"  symmetry.
   207 basis functions,   315 primitive gaussians,   245 cartesian basis functions
    16 alpha electrons       16 beta electrons
       nuclear repulsion energy       117.0120157816 Hartrees.
 IExCor=    0 DFT=F Ex=HF Corr=None ExCW=0 ScaHFX=  1.000000
 ScaDFX=  1.000000  1.000000  1.000000  1.000000 ScalE2=  1.000000  1.000000
 IRadAn=      5 IRanWt=     -1 IRanGd=            0 ICorTp=0 IEmpDi=  4
 NAtoms=    5 NActive=    5 NUniq=    5 SFac= 1.00D+00 NAtFMM=   60 NAOKFM=F Big=F
 Integral buffers will be    131072 words long.
 Raffenetti 1 integral format.
 Two-electron integral symmetry is turned on.
 Leave Link  301 at Mon Feb 21 20:42:43 2022, MaxMem= 16106127360 cpu:               3.4 elap:               0.2
 (Enter /sw/contrib/gaussian/g16/B01/g16/l302.exe)
 NPDir=0 NMtPBC=     1 NCelOv=     1 NCel=       1 NClECP=     1 NCelD=      1
         NCelK=      1 NCelE2=     1 NClLst=     1 CellRange=     0.0.
 One-electron integrals computed using PRISM.
 One-electron integral symmetry used in STVInt
 NBasis=   207 RedAO= T EigKep=  1.82D-04  NBF=   136    71
 NBsUse=   207 1.00D-06 EigRej= -1.00D+00 NBFU=   136    71
 Leave Link  302 at Mon Feb 21 20:42:43 2022, MaxMem= 16106127360 cpu:               4.6 elap:               0.2
 (Enter /sw/contrib/gaussian/g16/B01/g16/l303.exe)
 DipDrv:  MaxL=1.
 Leave Link  303 at Mon Feb 21 20:42:43 2022, MaxMem= 16106127360 cpu:               1.5 elap:               0.1
 (Enter /sw/contrib/gaussian/g16/B01/g16/l401.exe)
 ExpMin= 2.53D-02 ExpMax= 1.53D+04 ExpMxC= 5.22D+02 IAcc=3 IRadAn=         5 AccDes= 0.00D+00
 Harris functional with IExCor=  205 and IRadAn=       5 diagonalized for initial guess.
 HarFok:  IExCor=  205 AccDes= 0.00D+00 IRadAn=         5 IDoV= 1 UseB2=F ITyADJ=14
 ICtDFT=  3500011 ScaDFX=  1.000000  1.000000  1.000000  1.000000
 FoFCou: FMM=F IPFlag=           0 FMFlag=      100000 FMFlg1=           0
         NFxFlg=           0 DoJE=T BraDBF=F KetDBF=T FulRan=T
         wScrn=  0.000000 ICntrl=       500 IOpCl=  0 I1Cent=   200000004 NGrid=           0
         NMat0=    1 NMatS0=      1 NMatT0=    0 NMatD0=    1 NMtDS0=    0 NMtDT0=    0
 Petite list used in FoFCou.
 Harris En= -279.628475752621    
 JPrj=0 DoOrth=F DoCkMO=F.
 Initial guess orbital symmetries:
       Occupied  (A') (A') (A') (A') (A') (A') (A') (A') (A') (A')
                 (A") (A') (A') (A") (A") (A')
       Virtual   (A") (A') (A') (A') (A') (A') (A") (A') (A') (A')
                 (A") (A') (A") (A') (A') (A") (A') (A") (A') (A')
                 (A') (A') (A') (A') (A') (A") (A') (A") (A') (A')
                 (A") (A') (A") (A') (A') (A") (A') (A") (A') (A')
                 (A") (A') (A") (A') (A") (A') (A') (A') (A") (A")
                 (A') (A') (A') (A') (A") (A') (A") (A') (A") (A')
                 (A') (A') (A") (A') (A') (A") (A') (A") (A') (A')
                 (A") (A') (A') (A") (A") (A') (A') (A") (A') (A')
                 (A') (A") (A') (A") (A') (A") (A') (A") (A') (A')
                 (A') (A") (A') (A") (A') (A") (A") (A') (A') (A")
                 (A') (A') (A") (A') (A') (A') (A') (A") (A") (A')
                 (A") (A') (A') (A') (A") (A') (A') (A') (A") (A')
                 (A") (A') (A') (A") (A") (A') (A') (A") (A") (A')
                 (A') (A') (A') (A") (A") (A') (A") (A') (A') (A')
                 (A') (A") (A") (A') (A') (A") (A') (A') (A') (A')
                 (A") (A') (A') (A") (A') (A") (A') (A") (A") (A')
                 (A') (A") (A') (A") (A') (A") (A") (A") (A') (A')
                 (A") (A') (A") (A') (A") (A') (A") (A") (A') (A')
                 (A') (A') (A') (A') (A') (A') (A') (A') (A') (A')
                 (A')
 The electronic state of the initial guess is 1-A'.
 Leave Link  401 at Mon Feb 21 20:42:44 2022, MaxMem= 16106127360 cpu:               5.9 elap:               0.3
 (Enter /sw/contrib/gaussian/g16/B01/g16/l502.exe)
 Keep R1 ints in memory in symmetry-blocked form, NReq=348887737.
 FoFCou: FMM=F IPFlag=           0 FMFlag=           0 FMFlg1=           0
         NFxFlg=           0 DoJE=F BraDBF=F KetDBF=F FulRan=T
         wScrn=  0.000000 ICntrl=       600 IOpCl=  0 I1Cent=           0 NGrid=           0
         NMat0=    1 NMatS0=  21528 NMatT0=    0 NMatD0=    1 NMtDS0=    0 NMtDT0=    0
 Petite list used in FoFCou.
 Closed shell SCF:
 Using DIIS extrapolation, IDIIS=  1040.
 NGot= 16106127360 LenX= 15988850015 LenY= 15988789549
 Requested convergence on RMS density matrix=1.00D-08 within 128 cycles.
 Requested convergence on MAX density matrix=1.00D-06.
 Requested convergence on             energy=1.00D-06.
 No special actions if energy rises.

 Cycle   1  Pass 1  IDiag  1:
 E= -279.370206703175    
 DIIS: error= 2.80D-02 at cycle   1 NSaved=   1.
 NSaved= 1 IEnMin= 1 EnMin= -279.370206703175     IErMin= 1 ErrMin= 2.80D-02
 ErrMax= 2.80D-02  0.00D+00 EMaxC= 1.00D-01 BMatC= 4.39D-01 BMatP= 4.39D-01
 IDIUse=3 WtCom= 7.20D-01 WtEn= 2.80D-01
 Coeff-Com:  0.100D+01
 Coeff-En:   0.100D+01
 Coeff:      0.100D+01
 Gap=     0.514 Goal=   None    Shift=    0.000
 GapD=    0.514 DampG=2.000 DampE=0.500 DampFc=1.0000 IDamp=-1.
 RMSDP=1.62D-03 MaxDP=9.90D-02              OVMax= 1.14D-01

 Cycle   2  Pass 1  IDiag  1:
 E= -279.452166824894     Delta-E=       -0.081960121719 Rises=F Damp=F
 DIIS: error= 1.80D-02 at cycle   2 NSaved=   2.
 NSaved= 2 IEnMin= 2 EnMin= -279.452166824894     IErMin= 2 ErrMin= 1.80D-02
 ErrMax= 1.80D-02  0.00D+00 EMaxC= 1.00D-01 BMatC= 7.20D-02 BMatP= 4.39D-01
 IDIUse=3 WtCom= 8.20D-01 WtEn= 1.80D-01
 Coeff-Com:  0.195D+00 0.805D+00
 Coeff-En:   0.000D+00 0.100D+01
 Coeff:      0.160D+00 0.840D+00
 Gap=     0.530 Goal=   None    Shift=    0.000
 RMSDP=9.01D-04 MaxDP=3.74D-02 DE=-8.20D-02 OVMax= 6.94D-02

 Cycle   3  Pass 1  IDiag  1:
 E= -279.481381724672     Delta-E=       -0.029214899778 Rises=F Damp=F
 DIIS: error= 1.04D-02 at cycle   3 NSaved=   3.
 NSaved= 3 IEnMin= 3 EnMin= -279.481381724672     IErMin= 3 ErrMin= 1.04D-02
 ErrMax= 1.04D-02  0.00D+00 EMaxC= 1.00D-01 BMatC= 2.88D-02 BMatP= 7.20D-02
 IDIUse=3 WtCom= 8.96D-01 WtEn= 1.04D-01
 Coeff-Com: -0.330D-01 0.378D+00 0.655D+00
 Coeff-En:   0.000D+00 0.240D+00 0.760D+00
 Coeff:     -0.295D-01 0.364D+00 0.666D+00
 Gap=     0.510 Goal=   None    Shift=    0.000
 RMSDP=3.77D-04 MaxDP=1.54D-02 DE=-2.92D-02 OVMax= 3.82D-02

 Cycle   4  Pass 1  IDiag  1:
 E= -279.500475157690     Delta-E=       -0.019093433018 Rises=F Damp=F
 DIIS: error= 1.26D-03 at cycle   4 NSaved=   4.
 NSaved= 4 IEnMin= 4 EnMin= -279.500475157690     IErMin= 4 ErrMin= 1.26D-03
 ErrMax= 1.26D-03  0.00D+00 EMaxC= 1.00D-01 BMatC= 4.93D-04 BMatP= 2.88D-02
 IDIUse=3 WtCom= 9.87D-01 WtEn= 1.26D-02
 Coeff-Com: -0.117D-01 0.573D-01 0.159D+00 0.796D+00
 Coeff-En:   0.000D+00 0.000D+00 0.000D+00 0.100D+01
 Coeff:     -0.115D-01 0.566D-01 0.157D+00 0.798D+00
 Gap=     0.502 Goal=   None    Shift=    0.000
 RMSDP=9.02D-05 MaxDP=2.77D-03 DE=-1.91D-02 OVMax= 1.12D-02

 Cycle   5  Pass 1  IDiag  1:
 E= -279.501150341846     Delta-E=       -0.000675184156 Rises=F Damp=F
 DIIS: error= 7.28D-04 at cycle   5 NSaved=   5.
 NSaved= 5 IEnMin= 5 EnMin= -279.501150341846     IErMin= 5 ErrMin= 7.28D-04
 ErrMax= 7.28D-04  0.00D+00 EMaxC= 1.00D-01 BMatC= 8.69D-05 BMatP= 4.93D-04
 IDIUse=3 WtCom= 9.93D-01 WtEn= 7.28D-03
 Coeff-Com:  0.612D-02-0.722D-01-0.118D+00 0.195D-01 0.116D+01
 Coeff-En:   0.000D+00 0.000D+00 0.000D+00 0.000D+00 0.100D+01
 Coeff:      0.608D-02-0.717D-01-0.117D+00 0.194D-01 0.116D+01
 Gap=     0.502 Goal=   None    Shift=    0.000
 RMSDP=7.61D-05 MaxDP=2.10D-03 DE=-6.75D-04 OVMax= 1.10D-02

 Cycle   6  Pass 1  IDiag  1:
 E= -279.501464476290     Delta-E=       -0.000314134444 Rises=F Damp=F
 DIIS: error= 2.84D-04 at cycle   6 NSaved=   6.
 NSaved= 6 IEnMin= 6 EnMin= -279.501464476290     IErMin= 6 ErrMin= 2.84D-04
 ErrMax= 2.84D-04  0.00D+00 EMaxC= 1.00D-01 BMatC= 1.66D-05 BMatP= 8.69D-05
 IDIUse=3 WtCom= 9.97D-01 WtEn= 2.84D-03
 Coeff-Com:  0.610D-03 0.141D-02 0.414D-02-0.129D+00-0.229D+00 0.135D+01
 Coeff-En:   0.000D+00 0.000D+00 0.000D+00 0.000D+00 0.000D+00 0.100D+01
 Coeff:      0.609D-03 0.140D-02 0.413D-02-0.129D+00-0.228D+00 0.135D+01
 Gap=     0.502 Goal=   None    Shift=    0.000
 RMSDP=4.51D-05 MaxDP=1.24D-03 DE=-3.14D-04 OVMax= 5.53D-03

 Cycle   7  Pass 1  IDiag  1:
 E= -279.501536829837     Delta-E=       -0.000072353547 Rises=F Damp=F
 DIIS: error= 1.23D-04 at cycle   7 NSaved=   7.
 NSaved= 7 IEnMin= 7 EnMin= -279.501536829837     IErMin= 7 ErrMin= 1.23D-04
 ErrMax= 1.23D-04  0.00D+00 EMaxC= 1.00D-01 BMatC= 4.56D-06 BMatP= 1.66D-05
 IDIUse=3 WtCom= 9.99D-01 WtEn= 1.23D-03
 Coeff-Com: -0.933D-03 0.135D-01 0.264D-01-0.248D-01-0.289D+00 0.399D+00
 Coeff-Com:  0.876D+00
 Coeff-En:   0.000D+00 0.000D+00 0.000D+00 0.000D+00 0.000D+00 0.000D+00
 Coeff-En:   0.100D+01
 Coeff:     -0.931D-03 0.135D-01 0.264D-01-0.247D-01-0.289D+00 0.399D+00
 Coeff:      0.876D+00
 Gap=     0.503 Goal=   None    Shift=    0.000
 RMSDP=1.32D-05 MaxDP=3.76D-04 DE=-7.24D-05 OVMax= 1.55D-03

 Cycle   8  Pass 1  IDiag  1:
 E= -279.501545720721     Delta-E=       -0.000008890884 Rises=F Damp=F
 DIIS: error= 5.60D-05 at cycle   8 NSaved=   8.
 NSaved= 8 IEnMin= 8 EnMin= -279.501545720721     IErMin= 8 ErrMin= 5.60D-05
 ErrMax= 5.60D-05  0.00D+00 EMaxC= 1.00D-01 BMatC= 6.03D-07 BMatP= 4.56D-06
 IDIUse=1 WtCom= 1.00D+00 WtEn= 0.00D+00
 Coeff-Com: -0.448D-03 0.343D-02 0.759D-02 0.274D-01-0.407D-01-0.197D+00
 Coeff-Com:  0.165D+00 0.103D+01
 Coeff:     -0.448D-03 0.343D-02 0.759D-02 0.274D-01-0.407D-01-0.197D+00
 Coeff:      0.165D+00 0.103D+01
 Gap=     0.502 Goal=   None    Shift=    0.000
 RMSDP=6.89D-06 MaxDP=2.02D-04 DE=-8.89D-06 OVMax= 7.44D-04

 Cycle   9  Pass 1  IDiag  1:
 E= -279.501547491911     Delta-E=       -0.000001771191 Rises=F Damp=F
 DIIS: error= 1.64D-05 at cycle   9 NSaved=   9.
 NSaved= 9 IEnMin= 9 EnMin= -279.501547491911     IErMin= 9 ErrMin= 1.64D-05
 ErrMax= 1.64D-05  0.00D+00 EMaxC= 1.00D-01 BMatC= 6.80D-08 BMatP= 6.03D-07
 IDIUse=1 WtCom= 1.00D+00 WtEn= 0.00D+00
 Coeff-Com:  0.123D-03-0.172D-02-0.307D-02-0.218D-02 0.342D-01 0.545D-03
 Coeff-Com: -0.164D+00-0.110D+00 0.125D+01
 Coeff:      0.123D-03-0.172D-02-0.307D-02-0.218D-02 0.342D-01 0.545D-03
 Coeff:     -0.164D+00-0.110D+00 0.125D+01
 Gap=     0.502 Goal=   None    Shift=    0.000
 RMSDP=1.92D-06 MaxDP=6.63D-05 DE=-1.77D-06 OVMax= 1.75D-04

 Cycle  10  Pass 1  IDiag  1:
 E= -279.501547650141     Delta-E=       -0.000000158230 Rises=F Damp=F
 DIIS: error= 4.31D-06 at cycle  10 NSaved=  10.
 NSaved=10 IEnMin=10 EnMin= -279.501547650141     IErMin=10 ErrMin= 4.31D-06
 ErrMax= 4.31D-06  0.00D+00 EMaxC= 1.00D-01 BMatC= 5.49D-09 BMatP= 6.80D-08
 IDIUse=1 WtCom= 1.00D+00 WtEn= 0.00D+00
 Coeff-Com:  0.303D-04-0.235D-03-0.309D-03-0.267D-02 0.149D-02 0.194D-01
 Coeff-Com: -0.120D-01-0.738D-01-0.829D-01 0.115D+01
 Coeff:      0.303D-04-0.235D-03-0.309D-03-0.267D-02 0.149D-02 0.194D-01
 Coeff:     -0.120D-01-0.738D-01-0.829D-01 0.115D+01
 Gap=     0.502 Goal=   None    Shift=    0.000
 RMSDP=5.00D-07 MaxDP=2.09D-05 DE=-1.58D-07 OVMax= 4.17D-05

 Cycle  11  Pass 1  IDiag  1:
 E= -279.501547662484     Delta-E=       -0.000000012343 Rises=F Damp=F
 DIIS: error= 2.02D-06 at cycle  11 NSaved=  11.
 NSaved=11 IEnMin=11 EnMin= -279.501547662484     IErMin=11 ErrMin= 2.02D-06
 ErrMax= 2.02D-06  0.00D+00 EMaxC= 1.00D-01 BMatC= 6.53D-10 BMatP= 5.49D-09
 IDIUse=1 WtCom= 1.00D+00 WtEn= 0.00D+00
 Coeff-Com: -0.212D-04 0.243D-03 0.485D-03 0.533D-03-0.428D-02-0.349D-02
 Coeff-Com:  0.206D-01 0.315D-01-0.139D+00-0.176D+00 0.127D+01
 Coeff:     -0.212D-04 0.243D-03 0.485D-03 0.533D-03-0.428D-02-0.349D-02
 Coeff:      0.206D-01 0.315D-01-0.139D+00-0.176D+00 0.127D+01
 Gap=     0.502 Goal=   None    Shift=    0.000
 RMSDP=1.76D-07 MaxDP=6.41D-06 DE=-1.23D-08 OVMax= 1.73D-05

 Cycle  12  Pass 1  IDiag  1:
 E= -279.501547664265     Delta-E=       -0.000000001781 Rises=F Damp=F
 DIIS: error= 5.78D-07 at cycle  12 NSaved=  12.
 NSaved=12 IEnMin=12 EnMin= -279.501547664265     IErMin=12 ErrMin= 5.78D-07
 ErrMax= 5.78D-07  0.00D+00 EMaxC= 1.00D-01 BMatC= 7.07D-11 BMatP= 6.53D-10
 IDIUse=1 WtCom= 1.00D+00 WtEn= 0.00D+00
 Coeff-Com:  0.122D-05-0.287D-04-0.623D-04 0.182D-03 0.108D-02-0.230D-02
 Coeff-Com: -0.406D-02 0.545D-02 0.416D-01-0.116D+00-0.273D+00 0.135D+01
 Coeff:      0.122D-05-0.287D-04-0.623D-04 0.182D-03 0.108D-02-0.230D-02
 Coeff:     -0.406D-02 0.545D-02 0.416D-01-0.116D+00-0.273D+00 0.135D+01
 Gap=     0.502 Goal=   None    Shift=    0.000
 RMSDP=7.08D-08 MaxDP=2.77D-06 DE=-1.78D-09 OVMax= 6.70D-06

 Cycle  13  Pass 1  IDiag  1:
 E= -279.501547664490     Delta-E=       -0.000000000225 Rises=F Damp=F
 DIIS: error= 1.67D-07 at cycle  13 NSaved=  13.
 NSaved=13 IEnMin=13 EnMin= -279.501547664490     IErMin=13 ErrMin= 1.67D-07
 ErrMax= 1.67D-07  0.00D+00 EMaxC= 1.00D-01 BMatC= 3.97D-12 BMatP= 7.07D-11
 IDIUse=1 WtCom= 1.00D+00 WtEn= 0.00D+00
 Coeff-Com:  0.128D-05-0.139D-04-0.224D-04-0.888D-04 0.123D-03 0.753D-03
 Coeff-Com: -0.823D-03-0.327D-02 0.614D-03 0.413D-01-0.372D-01-0.324D+00
 Coeff-Com:  0.132D+01
 Coeff:      0.128D-05-0.139D-04-0.224D-04-0.888D-04 0.123D-03 0.753D-03
 Coeff:     -0.823D-03-0.327D-02 0.614D-03 0.413D-01-0.372D-01-0.324D+00
 Coeff:      0.132D+01
 Gap=     0.502 Goal=   None    Shift=    0.000
 RMSDP=1.89D-08 MaxDP=5.59D-07 DE=-2.25D-10 OVMax= 1.56D-06

 Cycle  14  Pass 1  IDiag  1:
 E= -279.501547664503     Delta-E=       -0.000000000013 Rises=F Damp=F
 DIIS: error= 2.42D-08 at cycle  14 NSaved=  14.
 NSaved=14 IEnMin=14 EnMin= -279.501547664503     IErMin=14 ErrMin= 2.42D-08
 ErrMax= 2.42D-08  0.00D+00 EMaxC= 1.00D-01 BMatC= 1.96D-13 BMatP= 3.97D-12
 IDIUse=1 WtCom= 1.00D+00 WtEn= 0.00D+00
 Coeff-Com: -0.191D-06 0.311D-05 0.557D-05 0.453D-05-0.824D-04 0.456D-04
 Coeff-Com:  0.277D-03 0.235D-03-0.246D-02 0.151D-02 0.169D-01-0.254D-01
 Coeff-Com: -0.201D+00 0.121D+01
 Coeff:     -0.191D-06 0.311D-05 0.557D-05 0.453D-05-0.824D-04 0.456D-04
 Coeff:      0.277D-03 0.235D-03-0.246D-02 0.151D-02 0.169D-01-0.254D-01
 Coeff:     -0.201D+00 0.121D+01
 Gap=     0.502 Goal=   None    Shift=    0.000
 RMSDP=3.78D-09 MaxDP=9.00D-08 DE=-1.28D-11 OVMax= 3.42D-07

 SCF Done:  E(RHF) =  -279.501547665     A.U. after   14 cycles
            NFock= 14  Conv=0.38D-08     -V/T= 2.0023
 KE= 2.788515542403D+02 PE=-8.953584874892D+02 EE= 2.199933698028D+02
 Leave Link  502 at Mon Feb 21 20:42:47 2022, MaxMem= 16106127360 cpu:              54.1 elap:               3.5
 (Enter /sw/contrib/gaussian/g16/B01/g16/l801.exe)
 ExpMin= 2.53D-02 ExpMax= 1.53D+04 ExpMxC= 5.22D+02 IAcc=3 IRadAn=         5 AccDes= 0.00D+00
 HarFok:  IExCor=  205 AccDes= 0.00D+00 IRadAn=         5 IDoV=-2 UseB2=F ITyADJ=14
 ICtDFT= 12500011 ScaDFX=  1.000000  1.000000  1.000000  1.000000
 Largest valence mixing into a core orbital is  2.08D-04
 Largest core mixing into a valence orbital is  3.63D-05
 Range of M.O.s used for correlation:     5   207
 NBasis=   207 NAE=    16 NBE=    16 NFC=     4 NFV=     0
 NROrb=    203 NOA=    12 NOB=    12 NVA=   191 NVB=   191

 **** Warning!!: The largest alpha MO coefficient is  0.17935320D+02

 Leave Link  801 at Mon Feb 21 20:42:47 2022, MaxMem= 16106127360 cpu:               2.1 elap:               0.1
 (Enter /sw/contrib/gaussian/g16/B01/g16/l906.exe)
 Frozen-core derivative calculation, NFC=   4 NFV=   0.
 FulOut=F Deriv=T AODrv=T NAtomX=     5
   MMem=           0  MDisk=          12 MDiskD=          12
  W3Min=      811440 MinDsk=     2425030 NBas6D=         245
 NBas2D=       30762    NTT=       30135    LW2=     7400000
    MDV= 16105574283 MDiskM=      328644 NBas2p=       30702
 Disk-based method using ON**2 memory for 12 occupieds at a time.
 Permanent disk used for amplitudes=    11516536 words.
 Estimated scratch disk usage=   321251614 words.
 IMap=   1   2   3   4   5   6   7   8   9  10  11  12  13  14  15  16
 Actual    scratch disk usage=   310331678 words.
 JobTyp=1 Pass  1:  I=   5 to  16 NPSUse= 28 ParTrn=T ParDer=T DoDerP=T.
 (rs|ai) integrals will be sorted in core.
 Spin components of T(2) and E(2):
     alpha-alpha T2 =       0.3402287998D-01 E2=     -0.1224207271D+00
     alpha-beta  T2 =       0.1868561628D+00 E2=     -0.7003003144D+00
     beta-beta   T2 =       0.3402287998D-01 E2=     -0.1224207271D+00
 The integrals were generated   1 times.
 ANorm=    0.1120224050D+01
 E2 =    -0.9451417687D+00 EUMP2 =    -0.28044668943320D+03
 Leave Link  906 at Mon Feb 21 20:44:24 2022, MaxMem= 16106127360 cpu:            2706.8 elap:              96.8
 (Enter /sw/contrib/gaussian/g16/B01/g16/l1101.exe)
 Using compressed Sx but separate Hx and Fx, NAtomX=     5.
 Will process      6 centers per pass.
 Leave Link 1101 at Mon Feb 21 20:44:24 2022, MaxMem= 16106127360 cpu:               5.1 elap:               0.2
 (Enter /sw/contrib/gaussian/g16/B01/g16/l1102.exe)
 Leave Link 1102 at Mon Feb 21 20:44:24 2022, MaxMem= 16106127360 cpu:               1.4 elap:               0.1
 (Enter /sw/contrib/gaussian/g16/B01/g16/l1110.exe)
 Forming Gx(P) for the SCF density, NAtomX=     5.
 Integral derivatives from FoFJK, PRISM(SPDF).
 Do as many integral derivatives as possible in FoFJK.
 G2DrvN: MDV=   16106126844.
 G2DrvN: will do     6 centers at a time, making    1 passes.
 Calling FoFCou, ICntrl=  3107 FMM=F I1Cent=   0 AccDes= 0.00D+00.
 FoFJK:  IHMeth= 1 ICntrl=    3107 DoSepK=F KAlg= 0 I1Cent=           0 FoldK=F
 IRaf=         0 NMat=       1 IRICut=       1 DoRegI=T DoRafI=F ISym2E= 1 IDoP0=0 IntGTp=1.
 FoFCou: FMM=F IPFlag=           0 FMFlag=      100000 FMFlg1=           0
         NFxFlg=           0 DoJE=F BraDBF=F KetDBF=F FulRan=T
         wScrn=  0.000000 ICntrl=      3107 IOpCl=  0 I1Cent=           0 NGrid=           0
         NMat0=    1 NMatS0=      1 NMatT0=    0 NMatD0=    1 NMtDS0=    0 NMtDT0=    0
 Petite list used in FoFCou.
 End of G2Drv F.D. properties file   721 does not exist.
 End of G2Drv F.D. properties file   722 does not exist.
 End of G2Drv F.D. properties file   788 does not exist.
 Leave Link 1110 at Mon Feb 21 20:44:27 2022, MaxMem= 16106127360 cpu:              83.5 elap:               3.0
 (Enter /sw/contrib/gaussian/g16/B01/g16/l1002.exe)
 Minotr:  Closed shell wavefunction.
          IDoAtm=11111
          Frozen-core window.
          Direct CPHF calculation.
          Differentiating once with respect to electric field.
                with respect to dipole field.
          Differentiating once with respect to nuclear coordinates.
          Requested convergence is 1.0D-08 RMS, and 1.0D-07 maximum.
          Secondary convergence is 1.0D-12 RMS, and 1.0D-12 maximum.
          NewPWx=T KeepS1=T KeepF1=T KeepIn=T MapXYZ=F SortEE=F KeepMc=T.
 Keep R1 ints in memory in symmetry-blocked form, NReq=348888983.
 FoFCou: FMM=F IPFlag=           0 FMFlag=           0 FMFlg1=           0
         NFxFlg=           0 DoJE=F BraDBF=F KetDBF=F FulRan=T
         wScrn=  0.000000 ICntrl=       600 IOpCl=  0 I1Cent=           0 NGrid=           0
         NMat0=    1 NMatS0=  21528 NMatT0=    0 NMatD0=    1 NMtDS0=    0 NMtDT0=    0
 Petite list used in FoFCou.
          MDV=   16106127360 using IRadAn=       1.
          Solving linear equations simultaneously, MaxMat=       0.
          There are    18 degrees of freedom in the 1st order CPHF.  IDoFFX=6 NUNeed=    18.
     15 vectors produced by pass  0 Test12= 1.70D-14 5.56D-09 XBig12= 8.28D+00 1.07D+00.
 AX will form    15 AO Fock derivatives at one time.
     15 vectors produced by pass  1 Test12= 1.70D-14 5.56D-09 XBig12= 1.34D+00 2.71D-01.
     15 vectors produced by pass  2 Test12= 1.70D-14 5.56D-09 XBig12= 1.41D-01 9.67D-02.
     15 vectors produced by pass  3 Test12= 1.70D-14 5.56D-09 XBig12= 4.88D-03 1.08D-02.
     15 vectors produced by pass  4 Test12= 1.70D-14 5.56D-09 XBig12= 9.78D-05 1.90D-03.
     15 vectors produced by pass  5 Test12= 1.70D-14 5.56D-09 XBig12= 1.40D-06 1.74D-04.
     15 vectors produced by pass  6 Test12= 1.70D-14 5.56D-09 XBig12= 1.11D-08 1.46D-05.
     13 vectors produced by pass  7 Test12= 1.70D-14 5.56D-09 XBig12= 8.15D-11 1.30D-06.
      3 vectors produced by pass  8 Test12= 1.70D-14 5.56D-09 XBig12= 5.63D-13 1.20D-07.
      2 vectors produced by pass  9 Test12= 1.70D-14 5.56D-09 XBig12= 3.63D-15 1.00D-08.
 InvSVY:  IOpt=1 It=  1 EMax= 6.66D-16
 Solved reduced A of dimension   123 with    15 vectors.
 FullF1:  Do perturbations      1 to      18.
 Saving first derivative matrices.
 End of Minotr F.D. properties file   721 does not exist.
 End of Minotr F.D. properties file   722 does not exist.
 End of Minotr F.D. properties file   788 does not exist.
 Leave Link 1002 at Mon Feb 21 20:44:30 2022, MaxMem= 16106127360 cpu:              80.1 elap:               2.9
 (Enter /sw/contrib/gaussian/g16/B01/g16/l811.exe)
 MDV= 16106127360.
 Form MO integral derivatives with frozen-active canonical formalism.
 MOERI=1 MOERIx=1 NAtoms=     5 NAtomX=     5.
 Discarding MO integrals.
 MO basis two electron integral derivatives will not be stored on disk.
 IAlg= 3 DoFC=T DoPWx=T Debug=F.
 Frozen-core window:  NFC=   4 NFV=   0.
 Reordered first order wavefunction length =     18678272
 In DefCFB: NBatch=  1 ICI= 16 ICA=191 LFMax= 96
            Large arrays: LIAPS=   619940160 LIARS=   288257200 words.
 In StABat: MaxSiz= 55 MinSiz= 25 NAtomB=  5
 DoIAMN: NPSUse= 28.
 Leave Link  811 at Mon Feb 21 20:45:51 2022, MaxMem= 16106127360 cpu:            2245.0 elap:              80.3
 (Enter /sw/contrib/gaussian/g16/B01/g16/l804.exe)
 Frozen-core window:  NFC=   4 NFV=   0.
 Closed-shell transformation, MDV= 16106127360 ITran=4 ISComp=1.
 Semi-Direct transformation.
 ModeAB=           2 MOrb=            16 LenV=   16104923037
 LASXX=     67341636 LTotXX=    67341636 LenRXX=    67341636
 LTotAB=    68301760 MaxLAS=    99807120 LenRXY=    99807120
 NonZer=   134683272 LenScr=   202817536 LnRSAI=           0
 LnScr1=           0 LExtra=           0 Total=    369966292
 MaxDsk=          -1 SrtSym=           F ITran=            4
 DoSDTr:  NPSUse= 28
 JobTyp=0 Pass  1:  I=   1 to  16.
 (rs|ai) integrals will be sorted in core.
 Complete sort for first half transformation.
 First half transformation complete.
 Begin second half transformation for I=  10.
 Begin second half transformation for I=  10.
 Complete sort for second half transformation.
 Second half transformation complete.
 Spin components of T(2) and E(2):
     alpha-alpha T2 =       0.3402287998D-01 E2=     -0.1224207271D+00
     alpha-beta  T2 =       0.1868561628D+00 E2=     -0.7003003144D+00
     beta-beta   T2 =       0.3402287998D-01 E2=     -0.1224207271D+00
 ANorm=    0.1584236045D+01
 E2 =    -0.9451417687D+00 EUMP2 =    -0.28044668943320D+03
 Leave Link  804 at Mon Feb 21 20:46:06 2022, MaxMem= 16106127360 cpu:             434.4 elap:              15.6
 (Enter /sw/contrib/gaussian/g16/B01/g16/l1002.exe)
 Minotr:  Closed shell wavefunction.
          Computing MP2/KS-MP2 derivatives.
          Using Z-Vector for PSCF gradient.
          Skipping F1 and S1 gradient terms here.
          IDoAtm=11111
          Frozen-core window.
          Using MO integrals in the linear equations.
          Forming densities via direct SCF.
          Differentiating once with respect to electric field.
                with respect to dipole field.
          Differentiating once with respect to nuclear coordinates.
          Using symmetry in CPHF.
          Requested convergence is 1.0D-10 RMS, and 1.0D-09 maximum.
          NewPWx=F KeepS1=T KeepF1=T KeepIn=T MapXYZ=F SortEE=F KeepMc=T.
          MDV=   16106127360 using IRadAn=       5.
          Solving linear equations separately, MaxMat=       0.
          There are     1 degrees of freedom in the 1st order CPHF.  IDoFFX=0 NUNeed=     1.
 FoFJK:  IHMeth= 1 ICntrl=       0 DoSepK=F KAlg= 0 I1Cent=           0 FoldK=F
 IRaf=         0 NMat=       1 IRICut=       1 DoRegI=T DoRafI=F ISym2E= 0 IDoP0=0 IntGTp=1.
 FoFCou: FMM=F IPFlag=           0 FMFlag=      100000 FMFlg1=           0
         NFxFlg=           0 DoJE=F BraDBF=F KetDBF=F FulRan=T
         wScrn=  0.000000 ICntrl=         0 IOpCl=  0 I1Cent=           0 NGrid=           0
         NMat0=    1 NMatS0=      1 NMatT0=    0 NMatD0=    1 NMtDS0=    0 NMtDT0=    0
 Symmetry not used in FoFCou.
 LinEq1:  Iter=  0 NonCon=     1 RMS=5.94D-03 Max=1.33D-01 NDo=     1
 LinEq1:  Iter=  1 NonCon=     1 RMS=1.90D-03 Max=3.83D-02 NDo=     1
 LinEq1:  Iter=  2 NonCon=     1 RMS=8.67D-04 Max=1.44D-02 NDo=     1
 LinEq1:  Iter=  3 NonCon=     1 RMS=3.86D-04 Max=7.77D-03 NDo=     1
 LinEq1:  Iter=  4 NonCon=     1 RMS=1.19D-04 Max=1.88D-03 NDo=     1
 LinEq1:  Iter=  5 NonCon=     1 RMS=4.44D-05 Max=7.09D-04 NDo=     1
 LinEq1:  Iter=  6 NonCon=     1 RMS=1.99D-05 Max=2.26D-04 NDo=     1
 LinEq1:  Iter=  7 NonCon=     1 RMS=8.05D-06 Max=1.60D-04 NDo=     1
 LinEq1:  Iter=  8 NonCon=     1 RMS=3.44D-06 Max=3.39D-05 NDo=     1
 LinEq1:  Iter=  9 NonCon=     1 RMS=9.41D-07 Max=1.32D-05 NDo=     1
 LinEq1:  Iter= 10 NonCon=     1 RMS=1.85D-07 Max=2.02D-06 NDo=     1
 LinEq1:  Iter= 11 NonCon=     1 RMS=3.47D-08 Max=3.73D-07 NDo=     1
 LinEq1:  Iter= 12 NonCon=     1 RMS=8.38D-09 Max=1.34D-07 NDo=     1
 LinEq1:  Iter= 13 NonCon=     1 RMS=1.52D-09 Max=2.60D-08 NDo=     1
 LinEq1:  Iter= 14 NonCon=     1 RMS=2.72D-10 Max=3.92D-09 NDo=     1
 LinEq1:  Iter= 15 NonCon=     0 RMS=4.88D-11 Max=5.42D-10 NDo=     1
 Linear equations converged to 1.000D-10 1.000D-09 after    15 iterations.
 End of Minotr F.D. properties file   721 does not exist.
 End of Minotr F.D. properties file   722 does not exist.
 End of Minotr F.D. properties file   788 does not exist.
 Leave Link 1002 at Mon Feb 21 20:46:09 2022, MaxMem= 16106127360 cpu:              64.1 elap:               2.4
 (Enter /sw/contrib/gaussian/g16/B01/g16/l1102.exe)
 Use density number 2.
 Symmetrizing basis deriv contribution to polar:
 IMax=3 JMax=2 DiffMx= 0.00D+00
 Leave Link 1102 at Mon Feb 21 20:46:09 2022, MaxMem= 16106127360 cpu:               0.8 elap:               0.1
 (Enter /sw/contrib/gaussian/g16/B01/g16/l1110.exe)
 Forming Gx(P) for generalized density number  2 NAtomX=     5.
 Integral derivatives from FoFJK, PRISM(SPDF).
 Do as many integral derivatives as possible in FoFJK.
 G2DrvN: MDV=   16106126844.
 G2DrvN: will do     6 centers at a time, making    1 passes.
 Calling FoFCou, ICntrl=  3107 FMM=F I1Cent=   0 AccDes= 0.00D+00.
 FoFJK:  IHMeth= 1 ICntrl=    3107 DoSepK=F KAlg= 0 I1Cent=           0 FoldK=F
 IRaf=         0 NMat=       1 IRICut=       1 DoRegI=T DoRafI=F ISym2E= 1 IDoP0=0 IntGTp=1.
 FoFCou: FMM=F IPFlag=           0 FMFlag=      100000 FMFlg1=           0
         NFxFlg=           0 DoJE=F BraDBF=F KetDBF=F FulRan=T
         wScrn=  0.000000 ICntrl=      3107 IOpCl=  0 I1Cent=           0 NGrid=           0
         NMat0=    1 NMatS0=      1 NMatT0=    0 NMatD0=    1 NMtDS0=    0 NMtDT0=    0
 Petite list used in FoFCou.
 End of G2Drv F.D. properties file   721 does not exist.
 End of G2Drv F.D. properties file   722 does not exist.
 End of G2Drv F.D. properties file   788 does not exist.
 Leave Link 1110 at Mon Feb 21 20:46:12 2022, MaxMem= 16106127360 cpu:              83.7 elap:               3.0
 (Enter /sw/contrib/gaussian/g16/B01/g16/l1112.exe)
 MP22nd: MDV=   16106127360
 This link is doing NAtomX=     5 total of    18 degrees of freedom.
 Using ON3 I/O method in MakUI.
 Frozen-core window:  NFC=   4 NFV=   0.
 Using Ix for Sx.
 Use MO integrals over full window.
 Using OV2 memory method for fx*t*t/D, MaxI=    16 DoOO2=F NP=  28.
 R2 and R3 integrals will be kept in memory, NReq=   915591705.
 FoFCou: FMM=F IPFlag=           0 FMFlag=           0 FMFlg1=           0
         NFxFlg=           0 DoJE=F BraDBF=F KetDBF=F FulRan=T
         wScrn=  0.000000 ICntrl=       600 IOpCl=  0 I1Cent=           0 NGrid=           0
         NMat0=    1 NMatS0=      1 NMatT0=    0 NMatD0=    1 NMtDS0=    0 NMtDT0=    0
 Symmetry not used in FoFCou.
 DD1Dir will call FoFMem   1 times, MxPair=       272
 NAB=   136 NAA=     0 NBB=     0.
 Symmetry is being used.
 FoFJK:  IHMeth= 1 ICntrl=       0 DoSepK=F KAlg= 0 I1Cent=           0 FoldK=F
 IRaf=         0 NMat=      18 IRICut=      45 DoRegI=T DoRafI=T ISym2E= 2 IDoP0=3 IntGTp=3.
 Discarding MO integrals.
 Leave Link 1112 at Mon Feb 21 20:46:47 2022, MaxMem= 16106127360 cpu:             984.0 elap:              35.5
 (Enter /sw/contrib/gaussian/g16/B01/g16/l601.exe)
 Copying SCF densities to generalized density rwf, IOpCl= 0 IROHF=0.

 **********************************************************************

            Population analysis using the MP2 Density.

 **********************************************************************

 Orbital symmetries:
       Occupied  (A') (A') (A') (A') (A') (A') (A') (A') (A') (A')
                 (A") (A') (A") (A') (A") (A')
       Virtual   (A') (A") (A') (A') (A') (A") (A') (A') (A") (A')
                 (A") (A') (A') (A') (A") (A') (A') (A") (A') (A')
                 (A') (A') (A') (A') (A") (A') (A') (A") (A') (A')
                 (A") (A') (A") (A') (A') (A") (A') (A') (A") (A')
                 (A") (A') (A") (A') (A') (A") (A') (A') (A") (A')
                 (A") (A') (A') (A') (A") (A') (A") (A') (A") (A')
                 (A') (A') (A") (A') (A') (A") (A') (A") (A') (A')
                 (A") (A') (A') (A") (A") (A') (A') (A") (A') (A')
                 (A') (A") (A') (A") (A') (A") (A') (A") (A') (A')
                 (A") (A') (A') (A") (A') (A") (A') (A") (A') (A')
                 (A") (A') (A") (A') (A') (A") (A') (A') (A") (A')
                 (A") (A') (A') (A') (A") (A') (A') (A') (A") (A')
                 (A") (A') (A") (A') (A') (A") (A") (A') (A") (A')
                 (A') (A') (A') (A") (A") (A") (A') (A') (A') (A')
                 (A") (A') (A") (A') (A') (A") (A') (A') (A') (A')
                 (A") (A') (A') (A") (A') (A") (A') (A") (A') (A")
                 (A') (A") (A') (A') (A") (A") (A") (A') (A") (A')
                 (A") (A') (A") (A') (A") (A') (A") (A") (A') (A')
                 (A') (A') (A') (A') (A') (A') (A') (A') (A') (A')
                 (A')
 The electronic state is 1-A'.
 Alpha  occ. eigenvalues --  -20.69114 -20.68407 -20.65963 -15.81252  -1.62407
 Alpha  occ. eigenvalues --   -1.49604  -1.25391  -0.94828  -0.77360  -0.75875
 Alpha  occ. eigenvalues --   -0.71195  -0.67776  -0.62017  -0.59019  -0.48531
 Alpha  occ. eigenvalues --   -0.47271
 Alpha virt. eigenvalues --    0.02962   0.07180   0.08593   0.10144   0.13405
 Alpha virt. eigenvalues --    0.13407   0.14420   0.15486   0.17821   0.19405
 Alpha virt. eigenvalues --    0.19971   0.20641   0.22096   0.23551   0.23747
 Alpha virt. eigenvalues --    0.26533   0.29326   0.30446   0.31026   0.34320
 Alpha virt. eigenvalues --    0.35007   0.38769   0.42163   0.43096   0.52718
 Alpha virt. eigenvalues --    0.53005   0.55986   0.58323   0.62615   0.63743
 Alpha virt. eigenvalues --    0.67427   0.68438   0.70579   0.71186   0.72386
 Alpha virt. eigenvalues --    0.72999   0.74470   0.79042   0.79196   0.80979
 Alpha virt. eigenvalues --    0.81284   0.83159   0.86825   0.90779   0.92244
 Alpha virt. eigenvalues --    0.92601   0.95824   0.98118   0.98553   1.01652
 Alpha virt. eigenvalues --    1.05275   1.05404   1.08524   1.12018   1.14304
 Alpha virt. eigenvalues --    1.18834   1.22174   1.23160   1.33798   1.34968
 Alpha virt. eigenvalues --    1.38745   1.45278   1.48760   1.50895   1.53930
 Alpha virt. eigenvalues --    1.56790   1.58044   1.61482   1.66614   1.66844
 Alpha virt. eigenvalues --    1.70326   1.79303   1.82881   1.83341   1.87919
 Alpha virt. eigenvalues --    1.91188   1.95796   1.99306   2.00588   2.07709
 Alpha virt. eigenvalues --    2.11862   2.13131   2.15023   2.22491   2.26405
 Alpha virt. eigenvalues --    2.26512   2.28854   2.31621   2.34986   2.38743
 Alpha virt. eigenvalues --    2.42623   2.42863   2.45361   2.46386   2.47692
 Alpha virt. eigenvalues --    2.50503   2.59000   2.59551   2.61972   2.62586
 Alpha virt. eigenvalues --    2.63226   2.66949   2.76036   2.82912   2.86447
 Alpha virt. eigenvalues --    2.88938   2.89499   2.92263   2.95634   3.03137
 Alpha virt. eigenvalues --    3.07090   3.12434   3.20607   3.22993   3.31556
 Alpha virt. eigenvalues --    3.33635   3.50949   3.64962   3.83958   3.84470
 Alpha virt. eigenvalues --    4.15001   4.16249   4.18495   4.26016   4.34866
 Alpha virt. eigenvalues --    4.39539   4.46370   4.51824   4.66818   4.71131
 Alpha virt. eigenvalues --    4.80836   4.82428   4.82903   4.89669   5.02221
 Alpha virt. eigenvalues --    5.07725   5.10224   5.14083   5.18284   5.24535
 Alpha virt. eigenvalues --    5.27150   5.30835   5.33255   5.36095   5.61487
 Alpha virt. eigenvalues --    5.67385   5.77177   5.82860   5.95740   6.17227
 Alpha virt. eigenvalues --    6.30870   6.33715   6.39345   6.49317   6.50454
 Alpha virt. eigenvalues --    6.61574   6.66607   6.69833   6.76117   6.76356
 Alpha virt. eigenvalues --    6.83367   6.89688   7.01091   7.05322   7.05759
 Alpha virt. eigenvalues --    7.09028   7.12561   7.15156   7.18235   7.22349
 Alpha virt. eigenvalues --    7.24320   7.30901   7.32480   7.35339   7.40174
 Alpha virt. eigenvalues --    7.42989   7.48632   7.60463   7.61788   7.63232
 Alpha virt. eigenvalues --    7.66874   7.79251   7.89215   8.08961   8.31544
 Alpha virt. eigenvalues --    8.40923   8.54371  13.39993  14.37278  15.17421
 Alpha virt. eigenvalues --   16.15455
          Condensed to atoms (all electrons):
               1          2          3          4          5
     1  H    0.591660   0.127982   0.019206   0.013109  -0.000737
     2  O    0.127982   8.321717  -0.171810  -0.094450   0.015884
     3  O    0.019206  -0.171810   8.469811  -0.128514  -0.039911
     4  N    0.013109  -0.094450  -0.128514   6.972314  -0.055954
     5  O   -0.000737   0.015884  -0.039911  -0.055954   8.274888
 Mulliken charges:
               1
     1  H    0.248780
     2  O   -0.199323
     3  O   -0.148782
     4  N    0.293495
     5  O   -0.194170
 Sum of Mulliken charges =  -0.00000
 Mulliken charges with hydrogens summed into heavy atoms:
               1
     2  O    0.049457
     3  O   -0.148782
     4  N    0.293495
     5  O   -0.194170
 APT charges:
               1
     1  H    0.298738
     2  O   -0.283324
     3  O   -0.498095
     4  N    0.873892
     5  O   -0.391212
 Sum of APT charges =  -0.00000
 APT charges with hydrogens summed into heavy atoms:
               1
     2  O    0.015414
     3  O   -0.498095
     4  N    0.873892
     5  O   -0.391212
 Electronic spatial extent (au):  <R**2>=            251.7464
 Charge=             -0.0000 electrons
 Dipole moment (field-independent basis, Debye):
    X=              0.5338    Y=              1.3521    Z=              0.0000  Tot=              1.4537
 Quadrupole moment (field-independent basis, Debye-Ang):
   XX=            -22.3612   YY=            -18.7202   ZZ=            -22.0084
   XY=              3.2875   XZ=             -0.0000   YZ=              0.0000
 Traceless Quadrupole moment (field-independent basis, Debye-Ang):
   XX=             -1.3313   YY=              2.3097   ZZ=             -0.9784
   XY=              3.2875   XZ=             -0.0000   YZ=              0.0000
 Octapole moment (field-independent basis, Debye-Ang**2):
  XXX=              3.1543  YYY=             10.9215  ZZZ=              0.0000  XYY=              7.8620
  XXY=              6.7410  XXZ=              0.0000  XZZ=             -1.5803  YZZ=             -0.8441
  YYZ=              0.0000  XYZ=              0.0000
 Hexadecapole moment (field-independent basis, Debye-Ang**3):
 XXXX=           -158.2600 YYYY=            -88.8482 ZZZZ=            -18.2375 XXXY=            -35.6745
 XXXZ=             -0.0000 YYYX=            -30.4245 YYYZ=             -0.0000 ZZZX=              0.0000
 ZZZY=             -0.0000 XXYY=            -33.6848 XXZZ=            -30.9384 YYZZ=            -20.3769
 XXYZ=             -0.0000 YYXZ=              0.0000 ZZXY=            -14.8197
 N-N= 1.170120157816D+02 E-N=-8.961434402482D+02  KE= 2.802035646677D+02
 Symmetry A'   KE= 2.662314700493D+02
 Symmetry A"   KE= 1.397209461846D+01
  Exact polarizability:  34.007   9.334  30.058   0.000  -0.000  17.915
 Approx polarizability:  29.015   4.977  23.462  -0.000   0.000  15.517
 No NMR shielding tensors so no spin-rotation constants.
 Leave Link  601 at Mon Feb 21 20:46:48 2022, MaxMem= 16106127360 cpu:               4.6 elap:               0.2
 (Enter /sw/contrib/gaussian/g16/B01/g16/l701.exe)
 ... and contract with generalized density number  2.
 Compute integral second derivatives.
 Leave Link  701 at Mon Feb 21 20:46:48 2022, MaxMem= 16106127360 cpu:               5.8 elap:               0.2
 (Enter /sw/contrib/gaussian/g16/B01/g16/l702.exe)
 L702 exits ... SP integral derivatives will be done elsewhere.
 Leave Link  702 at Mon Feb 21 20:46:48 2022, MaxMem= 16106127360 cpu:               0.5 elap:               0.0
 (Enter /sw/contrib/gaussian/g16/B01/g16/l703.exe)
 Integral derivatives from FoFJK, PRISM(SPDF).
 Compute integral second derivatives, UseDBF=F ICtDFT=           0.
 Calling FoFJK, ICntrl=  10100127 FMM=F ISym2X=1 I1Cent= 0 IOpClX= 0 NMat=1 NMatS=1 NMatT=0.
 FoFJK:  IHMeth= 1 ICntrl=10100127 DoSepK=F KAlg= 0 I1Cent=           0 FoldK=F
 IRaf=         0 NMat=       1 IRICut=       1 DoRegI=T DoRafI=F ISym2E= 1 IDoP0=0 IntGTp=1.
 FoFCou: FMM=F IPFlag=           0 FMFlag=      100000 FMFlg1=         800
         NFxFlg=           0 DoJE=F BraDBF=F KetDBF=F FulRan=T
         wScrn=  0.000000 ICntrl=  10100127 IOpCl=  0 I1Cent=           0 NGrid=           0
         NMat0=    1 NMatS0=      1 NMatT0=    0 NMatD0=    1 NMtDS0=    0 NMtDT0=    0
 Petite list used in FoFCou.
 Leave Link  703 at Mon Feb 21 20:47:03 2022, MaxMem= 16106127360 cpu:             423.1 elap:              15.1
 (Enter /sw/contrib/gaussian/g16/B01/g16/l716.exe)
 Dipole        = 2.10011353D-01 5.31955994D-01 2.06614410D-33
 Polarizability= 3.40073673D+01 9.33437280D+00 3.00579651D+01
                 8.92236610D-32-2.05568767D-31 1.79150030D+01
 Full mass-weighted force constant matrix:
 Low frequencies --- -262.0933  -28.5683  -20.4915   -0.0008   -0.0003    0.0010
 Low frequencies ---   61.5439  226.5309  343.5286
 ******    1 imaginary frequencies (negative Signs) ****** 
 Diagonal vibrational polarizability:
       13.7744162      24.8569360      49.3199980
 Harmonic frequencies (cm**-1), IR intensities (KM/Mole), Raman scattering
 activities (A**4/AMU), depolarization ratios for plane and unpolarized
 incident light, reduced masses (AMU), force constants (mDyne/A),
 and normal coordinates:
                      1                      2                      3
                     A"                     A"                     A'
 Frequencies --   -262.0931               226.5256               343.5285
 Red. masses --      1.1379                10.4690                 8.5328
 Frc consts  --      0.0461                 0.3165                 0.5933
 IR Inten    --    124.8724                 0.7623                 9.5966
  Atom  AN      X      Y      Z        X      Y      Z        X      Y      Z
     1   1     0.00  -0.00   1.00     0.00   0.00  -0.58     0.55  -0.44  -0.00
     2   8     0.00  -0.00  -0.07     0.00   0.00  -0.31    -0.08  -0.36   0.00
     3   8    -0.00   0.00  -0.04     0.00   0.00   0.32    -0.13   0.45  -0.00
     4   7    -0.00   0.00   0.06    -0.00  -0.00   0.53     0.03   0.23  -0.00
     5   8     0.00  -0.00  -0.01    -0.00  -0.00  -0.44     0.16  -0.26   0.00
                      4                      5                      6
                     A'                     A'                     A'
 Frequencies --    460.4486               786.0631               966.8936
 Red. masses --     12.5635                13.0344                15.4737
 Frc consts  --      1.5694                 4.7452                 8.5232
 IR Inten    --    195.1081               169.5592                21.6053
  Atom  AN      X      Y      Z        X      Y      Z        X      Y      Z
     1   1     0.37   0.22   0.00    -0.32   0.19   0.00    -0.15  -0.04  -0.00
     2   8     0.33   0.23   0.00     0.42   0.08   0.00    -0.53   0.04   0.00
     3   8     0.19   0.41  -0.00    -0.06  -0.26  -0.00     0.75  -0.03  -0.00
     4   7    -0.36  -0.43  -0.00    -0.14   0.63  -0.00    -0.12   0.24  -0.00
     5   8    -0.23  -0.28   0.00    -0.22  -0.38   0.00    -0.11  -0.22   0.00
                      7                      8                      9
                     A'                     A'                     A'
 Frequencies --   1370.9490              1677.8740              3778.6712
 Red. masses --      1.1319                13.1821                 1.0675
 Frc consts  --      1.2534                21.8652                 8.9804
 IR Inten    --    151.7347               140.8448                80.5701
  Atom  AN      X      Y      Z        X      Y      Z        X      Y      Z
     1   1     0.99  -0.07   0.00    -0.35   0.01  -0.00     0.12   0.99  -0.00
     2   8    -0.03   0.05   0.00    -0.01  -0.04  -0.00    -0.01  -0.06   0.00
     3   8    -0.02  -0.05  -0.00     0.00   0.15   0.00     0.00   0.00   0.00
     4   7     0.02   0.01  -0.00     0.70  -0.05   0.00    -0.00  -0.00  -0.00
     5   8    -0.03  -0.01   0.00    -0.59  -0.07  -0.00     0.00   0.00  -0.00

 -------------------
 - Thermochemistry -
 -------------------
 Temperature   298.150 Kelvin.  Pressure   1.00000 Atm.
 Atom     1 has atomic number  1 and mass   1.00783
 Atom     2 has atomic number  8 and mass  15.99491
 Atom     3 has atomic number  8 and mass  15.99491
 Atom     4 has atomic number  7 and mass  14.00307
 Atom     5 has atomic number  8 and mass  15.99491
 Molecular mass:    62.99564 amu.
 Principal axes and moments of inertia in atomic units:
                           1         2         3
     Eigenvalues --    33.37677 357.37596 390.75274
           X            0.81448  -0.58019   0.00000
           Y            0.58019   0.81448   0.00000
           Z            0.00000  -0.00000   1.00000
 This molecule is an asymmetric top.
 Rotational symmetry number  1.
 Rotational temperatures (Kelvin)      2.59504     0.24236     0.22166
 Rotational constants (GHZ):          54.07177     5.04998     4.61863
    1 imaginary frequencies ignored.
 Zero-point vibrational energy      57486.3 (Joules/Mol)
                                   13.73955 (Kcal/Mol)
 Warning -- explicit consideration of   3 degrees of freedom as
           vibrations may cause significant error
 Vibrational temperatures:    325.92   494.26   662.48  1130.97  1391.14
          (Kelvin)           1972.49  2414.09  5436.67
 
 Zero-point correction=                           0.021895 (Hartree/Particle)
 Thermal correction to Energy=                    0.026007
 Thermal correction to Enthalpy=                  0.026951
 Thermal correction to Gibbs Free Energy=        -0.004226
 Sum of electronic and zero-point Energies=           -280.424794
 Sum of electronic and thermal Energies=              -280.420683
 Sum of electronic and thermal Enthalpies=            -280.419738
 Sum of electronic and thermal Free Energies=         -280.450916
 
                     E (Thermal)             CV                S
                      KCal/Mol        Cal/Mol-Kelvin    Cal/Mol-Kelvin
 Total                   16.320             11.934             65.618
 Electronic               0.000              0.000              0.000
 Translational            0.889              2.981             38.341
 Rotational               0.889              2.981             23.059
 Vibrational             14.542              5.972              4.218
 Vibration     1          0.650              1.801              1.906
 Vibration     2          0.722              1.588              1.196
 Vibration     3          0.818              1.338              0.765
                       Q            Log10(Q)             Ln(Q)
 Total Bot       0.878992D+02          1.943985          4.476191
 Total V=0       0.103549D+13         12.015144         27.665892
 Vib (Bot)       0.183014D-09         -9.737516        -22.421459
 Vib (Bot)    1  0.870787D+00         -0.060088         -0.138358
 Vib (Bot)    2  0.539312D+00         -0.268160         -0.617460
 Vib (Bot)    3  0.369259D+00         -0.432669         -0.996258
 Vib (V=0)       0.215597D+01          0.333643          0.768242
 Vib (V=0)    1  0.150413D+01          0.177284          0.408212
 Vib (V=0)    2  0.123543D+01          0.091818          0.211419
 Vib (V=0)    3  0.112157D+01          0.049827          0.114731
 Electronic      0.100000D+01          0.000000          0.000000
 Translational   0.196526D+08          7.293420         16.793719
 Rotational      0.244389D+05          4.388081         10.103931
 
                                                                title
                                                             IR Spectrum
 
     3                                                                      1         1                                              
     7                                                                      6         3             9     7          4   3   2       
     7                                                                      7         7             6     8          6   4   2       
     9                                                                      8         1             7     6          0   4   7       
 
     X                                                                      X         X             X     X          X   X   X       
     X                                                                      X         X             X     X          X               
     X                                                                      X         X                   X          X               
     X                                                                      X         X                   X          X               
     X                                                                      X         X                   X          X               
     X                                                                      X         X                   X          X               
     X                                                                      X         X                   X          X               
     X                                                                      X         X                   X          X               
                                                                            X         X                   X          X               
                                                                            X         X                   X          X               
                                                                            X         X                   X          X               
                                                                            X         X                   X          X               
                                                                            X         X                   X          X               
                                                                            X         X                   X          X               
                                                                                      X                   X          X               
                                                                                      X                   X          X               
                                                                                                          X          X               
                                                                                                                     X               
                                                                                                                     X               
                                                                                                                     X               
 
 ***** Axes restored to original set *****
 -------------------------------------------------------------------
 Center     Atomic                   Forces (Hartrees/Bohr)
 Number     Number              X              Y              Z
 -------------------------------------------------------------------
      1        1          -0.000240176   -0.000000000   -0.000085857
      2        8          -0.000345203   -0.000000000   -0.002042548
      3        8          -0.001928092   -0.000000000    0.001585826
      4        7           0.001975180    0.000000000   -0.000388979
      5        8           0.000538291    0.000000000    0.000931558
 -------------------------------------------------------------------
 Cartesian Forces:  Max     0.002042548 RMS     0.001026281
 -----------------------------------------------------------------------------------------------
                       Internal Coordinate Forces (Hartree/Bohr or radian)
  Cent   Atom   N1       Length/X         N2         Alpha/Y        N3         Beta/Z          J
 -----------------------------------------------------------------------------------------------
      1  H 
      2  O        1   0.000086(     1)
      3  O        2   0.000862(     2)      1   0.000440(     5)
      4  N        3   0.000703(     3)      2   0.005148(     6)      1  -0.000000(     8)     0
      5  O        4   0.000766(     4)      3   0.001671(     7)      2   0.000000(     9)     0
 -----------------------------------------------------------------------------------------------
 Internal  Forces:  Max     0.005147984 RMS     0.001865392
 Force constants in Cartesian coordinates: 
                1             2             3             4             5 
      1  0.646961D-01
      2  0.000000D+00 -0.223877D-02
      3  0.559448D-02  0.000000D+00  0.512373D+00
      4 -0.358475D-01  0.000000D+00 -0.165598D-01  0.274479D+00
      5  0.000000D+00  0.285213D-02  0.000000D+00  0.000000D+00  0.202544D-02
      6  0.480505D-01  0.000000D+00 -0.508272D+00  0.363443D-01  0.000000D+00
      7 -0.183087D-01  0.000000D+00  0.126136D-01 -0.219979D+00  0.000000D+00
      8  0.000000D+00  0.984142D-03  0.000000D+00  0.000000D+00 -0.683227D-02
      9 -0.527613D-01  0.000000D+00 -0.508436D-03 -0.212014D-01  0.000000D+00
     10 -0.956066D-02  0.000000D+00 -0.493251D-02 -0.192243D-01  0.000000D+00
     11  0.000000D+00 -0.262622D-02  0.000000D+00  0.000000D+00 -0.427732D-02
     12  0.486017D-02  0.000000D+00 -0.508634D-02  0.109932D-01  0.000000D+00
     13 -0.979275D-03  0.000000D+00  0.328428D-02  0.572248D-03  0.000000D+00
     14  0.000000D+00  0.102872D-02  0.000000D+00  0.000000D+00  0.623202D-02
     15 -0.574385D-02  0.000000D+00  0.149382D-02 -0.957629D-02  0.000000D+00
                6             7             8             9            10 
      6  0.596376D+00
      7 -0.217671D-01  0.340609D+00
      8  0.000000D+00  0.000000D+00  0.512716D-02
      9 -0.771920D-01  0.384407D-01  0.000000D+00  0.178597D+00
     10 -0.553984D-01 -0.813131D-01  0.000000D+00  0.174230D+00  0.830584D+00
     11  0.000000D+00  0.000000D+00  0.734886D-02  0.000000D+00  0.000000D+00
     12  0.138451D-01  0.606801D-01  0.000000D+00 -0.763939D-01 -0.278223D-02
     13 -0.722914D-02 -0.210073D-01  0.000000D+00 -0.138708D+00 -0.720486D+00
     14  0.000000D+00  0.000000D+00 -0.662789D-02  0.000000D+00  0.000000D+00
     15 -0.247576D-01 -0.899672D-01  0.000000D+00 -0.245026D-01 -0.111117D+00
               11            12            13            14            15 
     11  0.926429D-02
     12  0.000000D+00  0.188864D+00
     13  0.000000D+00 -0.737512D-01  0.741900D+00
     14 -0.970961D-02  0.000000D+00  0.000000D+00  0.907676D-02
     15  0.000000D+00 -0.121229D+00  0.216404D+00  0.000000D+00  0.168995D+00
 Force constants in internal coordinates: 
                1             2             3             4             5 
      1  0.512373D+00
      2 -0.103272D-01  0.283658D+00
      3  0.369076D-02  0.378421D-02  0.119145D+00
      4 -0.356300D-02  0.573950D-02  0.153020D+00  0.812301D+00
      5  0.100039D-01  0.653441D-01  0.285161D-02  0.452100D-02  0.217079D+00
      6  0.515702D-02  0.643233D-01  0.473357D-01  0.210552D-01  0.314268D-01
      7 -0.125727D-02  0.384059D-01  0.316458D-01  0.861044D-01  0.213817D-01
      8  0.000000D+00  0.000000D+00  0.000000D+00  0.000000D+00  0.000000D+00
      9  0.000000D+00  0.000000D+00  0.000000D+00  0.000000D+00  0.000000D+00
                6             7             8             9 
      6  0.297142D+00
      7  0.957473D-01  0.484267D+00
      8  0.000000D+00  0.000000D+00 -0.727781D-02
      9  0.000000D+00  0.000000D+00 -0.390349D-02  0.406826D-01
 Leave Link  716 at Mon Feb 21 20:47:03 2022, MaxMem= 16106127360 cpu:               1.2 elap:               0.1
 (Enter /sw/contrib/gaussian/g16/B01/g16/l103.exe)

 GradGradGradGradGradGradGradGradGradGradGradGradGradGradGradGradGradGrad
 Berny optimization.
 Search for a local minimum.
 Step number   1 out of a maximum of    2
 All quantities printed in internal units (Hartrees-Bohrs-Radians)
 Second derivative matrix not updated -- analytic derivatives used.
 The second derivative matrix:
                          r1        r2        r3        r4        a1
           r1           0.51237
           r2          -0.01033   0.28366
           r3           0.00369   0.00378   0.11915
           r4          -0.00356   0.00574   0.15302   0.81230
           a1           0.01000   0.06534   0.00285   0.00452   0.21708
           a2           0.00516   0.06432   0.04734   0.02106   0.03143
           a3          -0.00126   0.03841   0.03165   0.08610   0.02138
           d1           0.00000  -0.00000  -0.00000  -0.00000  -0.00000
           d2          -0.00000   0.00000   0.00000   0.00000   0.00000
                          a2        a3        d1        d2
           a2           0.29714
           a3           0.09575   0.48427
           d1          -0.00000  -0.00000  -0.00728
           d2          -0.00000  -0.00000  -0.00390   0.04068
 ITU=  0
     Eigenvalues ---   -0.00759   0.04100   0.07819   0.17592   0.23386
     Eigenvalues ---    0.33071   0.51304   0.52198   0.87226
 Eigenvalue     1 is  -7.59D-03 should be greater than     0.000000 Eigenvector:
                          d1        d2        a3        a2        r3
   1                    0.99675   0.08059   0.00000   0.00000  -0.00000
                          r4        a1        r2        r1
   1                    0.00000  -0.00000   0.00000  -0.00000
 Angle between quadratic step and forces=  27.03 degrees.
 Linear search not attempted -- first point.
 Variable       Old X    -DE/DX   Delta X   Delta X   Delta X     New X
                                 (Linear)    (Quad)   (Total)
    r1        1.83110   0.00009   0.00000  -0.00000  -0.00000   1.83110
    r2        2.74940   0.00086   0.00000  -0.00094  -0.00094   2.74846
    r3        2.75670   0.00070   0.00000  -0.00237  -0.00237   2.75434
    r4        2.21236   0.00077   0.00000   0.00093   0.00093   2.21329
    a1        1.70335   0.00044   0.00000  -0.00027  -0.00027   1.70309
    a2        1.76748   0.00515   0.00000   0.01787   0.01787   1.78535
    a3        1.90362   0.00167   0.00000  -0.00001  -0.00001   1.90361
    d1        3.14159  -0.00000   0.00000  -0.00000   0.00000   3.14159
    d2        3.14159   0.00000   0.00000   0.00000   0.00000   3.14159
         Item               Value     Threshold  Converged?
 Maximum Force            0.005148     0.000450     NO 
 RMS     Force            0.001865     0.000300     NO 
 Maximum Displacement     0.017870     0.001800     NO 
 RMS     Displacement     0.006025     0.001200     NO 
 Predicted change in Energy=-4.505378D-05
                       ----------------------------
                       ! Non-Optimized Parameters !
                       ! (Angstroms and Degrees)  !
 ----------------------                            ----------------------
 !      Name          Value   Derivative information (Atomic Units)     !
 ------------------------------------------------------------------------
 !       r1          0.969    -DE/DX =    0.0001                        !
 !       r2          1.4544   -DE/DX =    0.0009                        !
 !       r3          1.4575   -DE/DX =    0.0007                        !
 !       r4          1.1712   -DE/DX =    0.0008                        !
 !       a1         97.5797   -DE/DX =    0.0004                        !
 !       a2        102.2928   -DE/DX =    0.0051                        !
 !       a3        109.0691   -DE/DX =    0.0017                        !
 !       d1        180.0      -DE/DX =    0.0                           !
 !       d2        180.0      -DE/DX =    0.0                           !
 ------------------------------------------------------------------------
 GradGradGradGradGradGradGradGradGradGradGradGradGradGradGradGradGradGrad

 Leave Link  103 at Mon Feb 21 20:47:03 2022, MaxMem= 16106127360 cpu:               0.5 elap:               0.0
 (Enter /sw/contrib/gaussian/g16/B01/g16/l9999.exe)

 ----------------------------------------------------------------------

 Electric dipole moment (input orientation):
 (Debye = 10**-18 statcoulomb cm , SI units = C m)
                  (au)            (Debye)         (10**-30 SI)
   Tot        0.571911D+00      0.145365D+01      0.484886D+01
   x         -0.146329D+00     -0.371931D+00     -0.124063D+01
   y          0.000000D+00      0.000000D+00      0.000000D+00
   z         -0.552874D+00     -0.140527D+01     -0.468746D+01

 Dipole polarizability, Alpha (input orientation).
 (esu units = cm**3 , SI units = C**2 m**2 J**-1)
 Alpha(0;0):
               (au)            (10**-24 esu)      (10**-40 SI)
   iso        0.273268D+02      0.404941D+01      0.450558D+01
   aniso      0.217347D+02      0.322075D+01      0.358357D+01
   xx         0.317840D+02      0.470991D+01      0.524048D+01
   yx         0.000000D+00      0.000000D+00      0.000000D+00
   yy         0.179150D+02      0.265473D+01      0.295378D+01
   zx         0.953772D+01      0.141334D+01      0.157256D+01
   zy         0.000000D+00      0.000000D+00      0.000000D+00
   zz         0.322813D+02      0.478360D+01      0.532247D+01

 ----------------------------------------------------------------------

 Dipole orientation:
     1          0.00000000          0.00000000         -0.00000000
     8         -0.46850456          0.00000000         -1.77014828
     8          2.07308487          0.00000000         -2.81872742
     7          1.53997057          0.00000000         -5.52338951
     8          3.45166348          0.00000000         -6.63692139

 Electric dipole moment (dipole orientation):
 (Debye = 10**-18 statcoulomb cm , SI units = C m)
                  (au)            (Debye)         (10**-30 SI)
   Tot        0.571911D+00      0.145365D+01      0.484886D+01
   x          0.000000D+00      0.000000D+00      0.000000D+00
   y          0.000000D+00      0.000000D+00      0.000000D+00
   z          0.571911D+00      0.145365D+01      0.484886D+01

 Dipole polarizability, Alpha (dipole orientation).
 (esu units = cm**3 , SI units = C**2 m**2 J**-1)
 Alpha(0;0):
               (au)            (10**-24 esu)      (10**-40 SI)
   iso        0.273268D+02      0.404941D+01      0.450558D+01
   aniso      0.217347D+02      0.322075D+01      0.358357D+01
   xx         0.270984D+02      0.401557D+01      0.446792D+01
   yx         0.000000D+00      0.000000D+00      0.000000D+00
   yy         0.179150D+02      0.265473D+01      0.295378D+01
   zx        -0.816596D+01     -0.121007D+01     -0.134639D+01
   zy         0.000000D+00      0.000000D+00      0.000000D+00
   zz         0.369669D+02      0.547793D+01      0.609502D+01

 ----------------------------------------------------------------------
 1\1\GINC-N2228\Freq\RMP2-FC\Aug-CC-pVTZ\H1N1O3\CGAVINH\21-Feb-2022\1\\
 #p freq mp2/aug-cc-pvtz density=current\\title\\0,1\H\O,1,r1\O,2,r2,1,
 a1\N,3,r3,2,a2,1,d1,0\O,4,r4,3,a3,2,d2,0\\r1=0.96897556\r2=1.45491931\
 r3=1.45878406\r4=1.17072885\a1=97.59494903\a2=101.26889547\a3=109.0695
 5123\d1=180.\d2=180.\\Version=ES64L-G16RevB.01\State=1-A'\HF=-279.5015
 477\MP2=-280.4466894\RMSD=3.782e-09\RMSF=1.026e-03\ZeroPoint=0.0218954
 \Thermal=0.0260069\Dipole=-0.146329,0.,-0.5528741\DipoleDeriv=0.267629
 5,0.,0.0495623,0.,0.3554926,0.,0.0795667,0.,0.2730924,-0.3205,0.,-0.20
 21311,0.,-0.3155298,0.,-0.1061721,0.,-0.2139428,-0.0426142,0.,0.165760
 5,0.,-0.0854386,0.,-0.7338429,0.,-1.3662313,0.8644742,0.,0.8892145,0.,
 0.066785,0.,0.9075593,0.,1.6904178,-0.7689895,0.,-0.9024061,0.,-0.0213
 093,0.,-0.1471109,0.,-0.383336\Polar=31.7840236,0.,17.915003,9.5377218
 ,0.,32.2813088\Quadrupole=-1.5207294,-0.7274334,2.2481629,0.,2.0627142
 ,0.\PG=CS [SG(H1N1O3)]\NImag=1\\0.06469614,0.,-0.00223877,0.00559448,0
 .,0.51237277,-0.03584753,0.,-0.01655984,0.27447907,0.,0.00285213,0.,0.
 ,0.00202544,0.04805046,0.,-0.50827181,0.03634426,0.,0.59637636,-0.0183
 0867,0.,0.01261360,-0.21997950,0.,-0.02176714,0.34060860,0.,0.00098414
 ,0.,0.,-0.00683227,0.,0.,0.00512716,-0.05276126,0.,-0.00050844,-0.0212
 0136,0.,-0.07719204,0.03844068,0.,0.17859703,-0.00956066,0.,-0.0049325
 1,-0.01922429,0.,-0.05539844,-0.08131312,0.,0.17422986,0.83058390,0.,-
 0.00262622,0.,0.,-0.00427732,0.,0.,0.00734886,0.,0.,0.00926429,0.00486
 017,0.,-0.00508634,0.01099323,0.,0.01384513,0.06068006,0.,-0.07639390,
 -0.00278223,0.,0.18886372,-0.00097928,0.,0.00328428,0.00057225,0.,-0.0
 0722914,-0.02100732,0.,-0.13870792,-0.72048583,0.,-0.07375123,0.741900
 18,0.,0.00102872,0.,0.,0.00623202,0.,0.,-0.00662789,0.,0.,-0.00970961,
 0.,0.,0.00907676,-0.00574385,0.,0.00149382,-0.00957629,0.,-0.02475765,
 -0.08996720,0.,-0.02450265,-0.11111667,0.,-0.12122862,0.21640401,0.,0.
 16899510\\0.00024018,0.,0.00008586,0.00034520,0.,0.00204255,0.00192809
 ,0.,-0.00158583,-0.00197518,0.,0.00038898,-0.00053829,0.,-0.00093156\\
 \@


 FORGIVE MY NONSENSE AS I ALSO FORGIVE THOSE WHO THINK THEY TALK SENSE

                                                       -- ROBERT FROST
 Job cpu time:       0 days  2 hours  0 minutes  2.9 seconds.
 Elapsed time:       0 days  0 hours  4 minutes 20.3 seconds.
 File lengths (MBytes):  RWF=   7239 Int=      0 D2E=      0 Chk=      8 Scr=      1
 Normal termination of Gaussian 16 at Mon Feb 21 20:47:04 2022.
