title                                                                   
Freq      RMP2-FC                                                     Aug-CC-pVTZ         
Number of atoms                            I                5
Info1-9                                    I   N=           9
          33          24           0           0           0         100
           6           2           1
Full Title                                 C   N=           1
title       
Route                                      C   N=           4
#p freq mp2/aug-cc-pvtz density=current         
Charge                                     I                0
Multiplicity                               I                1
Number of electrons                        I               32
Number of alpha electrons                  I               16
Number of beta electrons                   I               16
Number of basis functions                  I              207
Number of independent functions            I              207
Number of point charges in /Mol/           I                0
Number of translation vectors              I                0
Atomic numbers                             I   N=           5
           1           8           8           7           8
Nuclear charges                            R   N=           5
  1.00000000E+00  8.00000000E+00  8.00000000E+00  7.00000000E+00  8.00000000E+00
Current cartesian coordinates              R   N=          15
  2.08346663E+00 -1.14201194E+00 -4.93038066E-32  2.48195260E+00  6.76942565E-01
 -4.93038066E-32 -2.66762021E-16  1.73007622E+00 -1.84889275E-32 -1.88152739E+00
 -7.86559307E-02  9.86076132E-32 -1.09604947E+00 -2.19544335E+00  1.23259516E-32
Number of symbols in /Mol/                 I                0
Force Field                                I                0
Atom Types                                 C   N=           5
                                                            
Int Atom Types                             I   N=           5
           0           0           0           0           0
MM charges                                 R   N=           5
  0.00000000E+00  0.00000000E+00  0.00000000E+00  0.00000000E+00  0.00000000E+00
Integer atomic weights                     I   N=           5
           1          16          16          14          16
Real atomic weights                        R   N=           5
  1.00782504E+00  1.59949146E+01  1.59949146E+01  1.40030740E+01  1.59949146E+01
Atom fragment info                         I   N=           5
           0           0           0           0           0
Atom residue num                           I   N=           5
           0           0           0           0           0
Nuclear spins                              I   N=           5
           1           0           0           2           0
Nuclear ZEff                               R   N=           5
 -1.00000000E+00 -5.60000000E+00 -5.60000000E+00 -4.55000000E+00 -5.60000000E+00
Nuclear ZNuc                               R   N=           5
  1.00000000E+00  8.00000000E+00  8.00000000E+00  7.00000000E+00  8.00000000E+00
Nuclear QMom                               R   N=           5
  0.00000000E+00  0.00000000E+00  0.00000000E+00  2.04400000E+00  0.00000000E+00
Nuclear GFac                               R   N=           5
  2.79284600E+00  0.00000000E+00  0.00000000E+00  4.03761000E-01  0.00000000E+00
MicOpt                                     I   N=           5
          -1          -1          -1          -1          -1
Number of residues                         I                0
Number of secondary structures             I                0
SymInf integers                            I   N=          26
           1           2           1           1           1           1
           1          -1           0           0           0           0
           0           0           0           0           0           0
           0           0           0           0           0           0
           0           0
RotTr to input orientation                 R   N=          12
 -9.76833862E-01 -1.25346168E-16  2.13999078E-01  2.13999078E-01  2.74601091E-17
  9.76833862E-01 -1.28318820E-16  1.00000000E+00  0.00000000E+00  2.27959026E+00
  0.00000000E+00  6.69695991E-01
Number of contracted shells                I               65
Number of primitive shells                 I              119
Pure/Cartesian d shells                    I                0
Pure/Cartesian f shells                    I                0
Highest angular momentum                   I                3
Largest degree of contraction              I                7
Shell types                                I   N=          65
           0           0           0           0           1           1
           1          -2          -2           0           0           0
           0           0           1           1           1           1
          -2          -2          -2          -3          -3           0
           0           0           0           0           1           1
           1           1          -2          -2          -2          -3
          -3           0           0           0           0           0
           1           1           1           1          -2          -2
          -2          -3          -3           0           0           0
           0           0           1           1           1           1
          -2          -2          -2          -3          -3
Number of primitives per shell             I   N=          65
           3           1           1           1           1           1
           1           1           1           7           6           1
           1           1           3           1           1           1
           1           1           1           1           1           7
           6           1           1           1           3           1
           1           1           1           1           1           1
           1           7           6           1           1           1
           3           1           1           1           1           1
           1           1           1           7           6           1
           1           1           3           1           1           1
           1           1           1           1           1
Shell to atom map                          I   N=          65
           1           1           1           1           1           1
           1           1           1           2           2           2
           2           2           2           2           2           2
           2           2           2           2           2           3
           3           3           3           3           3           3
           3           3           3           3           3           3
           3           4           4           4           4           4
           4           4           4           4           4           4
           4           4           4           5           5           5
           5           5           5           5           5           5
           5           5           5           5           5
Primitive exponents                        R   N=         119
  3.38700000E+01  5.09500000E+00  1.15900000E+00  3.25800000E-01  1.02700000E-01
  2.52600000E-02  1.40700000E+00  3.88000000E-01  1.02000000E-01  1.05700000E+00
  2.47000000E-01  1.53300000E+04  2.29900000E+03  5.22400000E+02  1.47300000E+02
  4.75500000E+01  1.67600000E+01  6.20700000E+00  5.22400000E+02  1.47300000E+02
  4.75500000E+01  1.67600000E+01  6.20700000E+00  6.88200000E-01  1.75200000E+00
  2.38400000E-01  7.37600000E-02  3.44600000E+01  7.74900000E+00  2.28000000E+00
  7.15600000E-01  2.14000000E-01  5.97400000E-02  2.31400000E+00  6.45000000E-01
  2.14000000E-01  1.42800000E+00  5.00000000E-01  1.53300000E+04  2.29900000E+03
  5.22400000E+02  1.47300000E+02  4.75500000E+01  1.67600000E+01  6.20700000E+00
  5.22400000E+02  1.47300000E+02  4.75500000E+01  1.67600000E+01  6.20700000E+00
  6.88200000E-01  1.75200000E+00  2.38400000E-01  7.37600000E-02  3.44600000E+01
  7.74900000E+00  2.28000000E+00  7.15600000E-01  2.14000000E-01  5.97400000E-02
  2.31400000E+00  6.45000000E-01  2.14000000E-01  1.42800000E+00  5.00000000E-01
  1.14200000E+04  1.71200000E+03  3.89300000E+02  1.10000000E+02  3.55700000E+01
  1.25400000E+01  4.64400000E+00  3.89300000E+02  1.10000000E+02  3.55700000E+01
  1.25400000E+01  4.64400000E+00  5.11800000E-01  1.29300000E+00  1.78700000E-01
  5.76000000E-02  2.66300000E+01  5.94800000E+00  1.74200000E+00  5.55000000E-01
  1.72500000E-01  4.91000000E-02  1.65400000E+00  4.69000000E-01  1.51000000E-01
  1.09300000E+00  3.64000000E-01  1.53300000E+04  2.29900000E+03  5.22400000E+02
  1.47300000E+02  4.75500000E+01  1.67600000E+01  6.20700000E+00  5.22400000E+02
  1.47300000E+02  4.75500000E+01  1.67600000E+01  6.20700000E+00  6.88200000E-01
  1.75200000E+00  2.38400000E-01  7.37600000E-02  3.44600000E+01  7.74900000E+00
  2.28000000E+00  7.15600000E-01  2.14000000E-01  5.97400000E-02  2.31400000E+00
  6.45000000E-01  2.14000000E-01  1.42800000E+00  5.00000000E-01
Contraction coefficients                   R   N=         119
  2.54948632E-02  1.90362766E-01  8.52162022E-01  1.00000000E+00  1.00000000E+00
  1.00000000E+00  1.00000000E+00  1.00000000E+00  1.00000000E+00  1.00000000E+00
  1.00000000E+00  5.19808943E-04  4.02025621E-03  2.07128267E-02  8.10105536E-02
  2.35962985E-01  4.42653446E-01  3.57064423E-01 -4.42115008E-05 -1.22591041E-03
 -1.05517725E-02 -6.74452633E-02 -1.71198607E-01  1.07329856E+00  1.00000000E+00
  1.00000000E+00  1.00000000E+00  4.11634896E-02  2.57762836E-01  8.02419274E-01
  1.00000000E+00  1.00000000E+00  1.00000000E+00  1.00000000E+00  1.00000000E+00
  1.00000000E+00  1.00000000E+00  1.00000000E+00  5.19808943E-04  4.02025621E-03
  2.07128267E-02  8.10105536E-02  2.35962985E-01  4.42653446E-01  3.57064423E-01
 -4.42115008E-05 -1.22591041E-03 -1.05517725E-02 -6.74452633E-02 -1.71198607E-01
  1.07329856E+00  1.00000000E+00  1.00000000E+00  1.00000000E+00  4.11634896E-02
  2.57762836E-01  8.02419274E-01  1.00000000E+00  1.00000000E+00  1.00000000E+00
  1.00000000E+00  1.00000000E+00  1.00000000E+00  1.00000000E+00  1.00000000E+00
  5.34563860E-04  4.13435660E-03  2.12335358E-02  8.25006224E-02  2.38138871E-01
  4.42551547E-01  3.53757422E-01 -4.89867350E-05 -1.19527323E-03 -1.03490714E-02
 -6.48680190E-02 -1.71552477E-01  1.07289568E+00  1.00000000E+00  1.00000000E+00
  1.00000000E+00  3.98072123E-02  2.49002660E-01  8.10479727E-01  1.00000000E+00
  1.00000000E+00  1.00000000E+00  1.00000000E+00  1.00000000E+00  1.00000000E+00
  1.00000000E+00  1.00000000E+00  5.19808943E-04  4.02025621E-03  2.07128267E-02
  8.10105536E-02  2.35962985E-01  4.42653446E-01  3.57064423E-01 -4.42115008E-05
 -1.22591041E-03 -1.05517725E-02 -6.74452633E-02 -1.71198607E-01  1.07329856E+00
  1.00000000E+00  1.00000000E+00  1.00000000E+00  4.11634896E-02  2.57762836E-01
  8.02419274E-01  1.00000000E+00  1.00000000E+00  1.00000000E+00  1.00000000E+00
  1.00000000E+00  1.00000000E+00  1.00000000E+00  1.00000000E+00
Coordinates of each shell                  R   N=         195
  2.08346663E+00 -1.14201194E+00 -5.66968002E-32  2.08346663E+00 -1.14201194E+00
 -5.66968002E-32  2.08346663E+00 -1.14201194E+00 -5.66968002E-32  2.08346663E+00
 -1.14201194E+00 -5.66968002E-32  2.08346663E+00 -1.14201194E+00 -5.66968002E-32
  2.08346663E+00 -1.14201194E+00 -5.66968002E-32  2.08346663E+00 -1.14201194E+00
 -5.66968002E-32  2.08346663E+00 -1.14201194E+00 -5.66968002E-32  2.08346663E+00
 -1.14201194E+00 -5.66968002E-32  2.48195260E+00  6.76942565E-01 -5.79548472E-32
  2.48195260E+00  6.76942565E-01 -5.79548472E-32  2.48195260E+00  6.76942565E-01
 -5.79548472E-32  2.48195260E+00  6.76942565E-01 -5.79548472E-32  2.48195260E+00
  6.76942565E-01 -5.79548472E-32  2.48195260E+00  6.76942565E-01 -5.79548472E-32
  2.48195260E+00  6.76942565E-01 -5.79548472E-32  2.48195260E+00  6.76942565E-01
 -5.79548472E-32  2.48195260E+00  6.76942565E-01 -5.79548472E-32  2.48195260E+00
  6.76942565E-01 -5.79548472E-32  2.48195260E+00  6.76942565E-01 -5.79548472E-32
  2.48195260E+00  6.76942565E-01 -5.79548472E-32  2.48195260E+00  6.76942565E-01
 -5.79548472E-32  2.48195260E+00  6.76942565E-01 -5.79548472E-32 -2.86946891E-18
  1.73007622E+00  8.13999423E-33 -2.86946891E-18  1.73007622E+00  8.13999423E-33
 -2.86946891E-18  1.73007622E+00  8.13999423E-33 -2.86946891E-18  1.73007622E+00
  8.13999423E-33 -2.86946891E-18  1.73007622E+00  8.13999423E-33 -2.86946891E-18
  1.73007622E+00  8.13999423E-33 -2.86946891E-18  1.73007622E+00  8.13999423E-33
 -2.86946891E-18  1.73007622E+00  8.13999423E-33 -2.86946891E-18  1.73007622E+00
  8.13999423E-33 -2.86946891E-18  1.73007622E+00  8.13999423E-33 -2.86946891E-18
  1.73007622E+00  8.13999423E-33 -2.86946891E-18  1.73007622E+00  8.13999423E-33
 -2.86946891E-18  1.73007622E+00  8.13999423E-33 -2.86946891E-18  1.73007622E+00
  8.13999423E-33 -1.88152739E+00 -7.86559307E-02  4.59790425E-32 -1.88152739E+00
 -7.86559307E-02  4.59790425E-32 -1.88152739E+00 -7.86559307E-02  4.59790425E-32
 -1.88152739E+00 -7.86559307E-02  4.59790425E-32 -1.88152739E+00 -7.86559307E-02
  4.59790425E-32 -1.88152739E+00 -7.86559307E-02  4.59790425E-32 -1.88152739E+00
 -7.86559307E-02  4.59790425E-32 -1.88152739E+00 -7.86559307E-02  4.59790425E-32
 -1.88152739E+00 -7.86559307E-02  4.59790425E-32 -1.88152739E+00 -7.86559307E-02
  4.59790425E-32 -1.88152739E+00 -7.86559307E-02  4.59790425E-32 -1.88152739E+00
 -7.86559307E-02  4.59790425E-32 -1.88152739E+00 -7.86559307E-02  4.59790425E-32
 -1.88152739E+00 -7.86559307E-02  4.59790425E-32 -1.09604947E+00 -2.19544335E+00
  1.66702907E-32 -1.09604947E+00 -2.19544335E+00  1.66702907E-32 -1.09604947E+00
 -2.19544335E+00  1.66702907E-32 -1.09604947E+00 -2.19544335E+00  1.66702907E-32
 -1.09604947E+00 -2.19544335E+00  1.66702907E-32 -1.09604947E+00 -2.19544335E+00
  1.66702907E-32 -1.09604947E+00 -2.19544335E+00  1.66702907E-32 -1.09604947E+00
 -2.19544335E+00  1.66702907E-32 -1.09604947E+00 -2.19544335E+00  1.66702907E-32
 -1.09604947E+00 -2.19544335E+00  1.66702907E-32 -1.09604947E+00 -2.19544335E+00
  1.66702907E-32 -1.09604947E+00 -2.19544335E+00  1.66702907E-32 -1.09604947E+00
 -2.19544335E+00  1.66702907E-32 -1.09604947E+00 -2.19544335E+00  1.66702907E-32
Num ILSW                                   I              100
ILSW                                       I   N=         100
           0           0           0           0           2           0
           0           0           0           0           0          -1
           5           0           0           0           2           0
           0           0           0           0           1           0
           1           0           0           0           0           0
           0           0      100000           0          -1           0
           0           0           0           0           0           0
           0           0           0           1           1           0
           0 -2000000000           1           0           0           0
           0           0           4          52           0           0
           0           0           0           0           0           0
           0           0           0           5           4           1
           0           0           0           0           0           0
           0           0           0           0           0           0
           0           0           0           0           0           0
           0           0           0           0           0           0
           0           0           0           0
Num RLSW                                   I               52
RLSW                                       R   N=          52
  1.00000000E+00  1.00000000E+00  1.00000000E+00  1.00000000E+00  1.00000000E+00
  0.00000000E+00  0.00000000E+00  1.00000000E+00  0.00000000E+00  0.00000000E+00
  0.00000000E+00  0.00000000E+00  1.00000000E+00  0.00000000E+00  0.00000000E+00
  0.00000000E+00  0.00000000E+00  1.00000000E+00  0.00000000E+00  0.00000000E+00
  0.00000000E+00  0.00000000E+00  1.00000000E+00  0.00000000E+00  0.00000000E+00
  0.00000000E+00  0.00000000E+00  1.00000000E+00  0.00000000E+00  0.00000000E+00
  0.00000000E+00  0.00000000E+00  1.00000000E+00  0.00000000E+00  0.00000000E+00
  0.00000000E+00  0.00000000E+00  0.00000000E+00  1.00000000E+00  1.00000000E+00
  0.00000000E+00  1.00000000E+00  0.00000000E+00  0.00000000E+00  0.00000000E+00
  0.00000000E+00  0.00000000E+00  0.00000000E+00  0.00000000E+00  0.00000000E+00
  0.00000000E+00  0.00000000E+00
MxBond                                     I                2
NBond                                      I   N=           5
           1           2           2           2           1
IBond                                      I   N=          10
           2           0           1           3           2           4
           3           5           4           0
RBond                                      R   N=          10
  1.00000000E+00  0.00000000E+00  1.00000000E+00  1.00000000E+00  1.00000000E+00
  1.00000000E+00  1.00000000E+00  2.00000000E+00  2.00000000E+00  0.00000000E+00
Virial Ratio                               R      2.002202576914223E+00
SCF Energy                                 R     -2.795063166082032E+02
MP2 Energy                                 R     -2.804551729269381E+02
Total Energy                               R     -2.804551729269381E+02
Post-SCF wavefunction norm                 R      1.583686806634848E+00
RMS Force                                  R      1.799013363379874E-03
RMS Density                                R      4.503174599585476E-09
NImag                                      I                0
Job Status                                 I                1
Nuclear derivative order                   I                2
External E-field                           R   N=          35
  0.00000000E+00  0.00000000E+00  0.00000000E+00  0.00000000E+00  0.00000000E+00
  0.00000000E+00  0.00000000E+00  0.00000000E+00  0.00000000E+00  0.00000000E+00
  0.00000000E+00  0.00000000E+00  0.00000000E+00  0.00000000E+00  0.00000000E+00
  0.00000000E+00  0.00000000E+00  0.00000000E+00  0.00000000E+00  0.00000000E+00
  0.00000000E+00  0.00000000E+00  0.00000000E+00  0.00000000E+00  0.00000000E+00
  0.00000000E+00  0.00000000E+00  0.00000000E+00  0.00000000E+00  0.00000000E+00
  0.00000000E+00  0.00000000E+00  0.00000000E+00  0.00000000E+00  0.00000000E+00
IOpCl                                      I                0
IROHF                                      I                0
Alpha Orbital Energies                     R   N=         207
 -2.07189609E+01 -2.06868429E+01 -2.06677351E+01 -1.58265527E+01 -1.64534339E+00
 -1.50399226E+00 -1.29342004E+00 -9.60089801E-01 -8.35813265E-01 -7.59097444E-01
 -7.40122080E-01 -6.36188108E-01 -6.17992643E-01 -6.17825890E-01 -5.06105920E-01
 -4.97052692E-01  3.51388962E-02  5.97748934E-02  9.51203450E-02  1.00249494E-01
  1.19696260E-01  1.22555425E-01  1.49575941E-01  1.52188318E-01  1.77402999E-01
  1.80318944E-01  1.89942079E-01  2.10940893E-01  2.16678725E-01  2.42464679E-01
  2.46355561E-01  2.69588715E-01  3.13708175E-01  3.17696382E-01  3.37942746E-01
  3.44297979E-01  3.47464526E-01  3.92543102E-01  4.50420899E-01  4.88702601E-01
  5.05513062E-01  5.18023210E-01  5.45807409E-01  5.60338231E-01  5.99061545E-01
  6.19693219E-01  6.38108779E-01  6.89829989E-01  7.16809179E-01  7.24498507E-01
  7.46122453E-01  7.62763471E-01  7.67048364E-01  7.95804193E-01  8.07745205E-01
  8.39473768E-01  8.43164595E-01  8.52240303E-01  8.85646590E-01  9.08603531E-01
  9.33223901E-01  9.46967357E-01  9.53817063E-01  1.01869441E+00  1.03266629E+00
  1.06652213E+00  1.06890991E+00  1.09683661E+00  1.14609258E+00  1.15684180E+00
  1.16789471E+00  1.22375387E+00  1.22773926E+00  1.24583317E+00  1.35548925E+00
  1.35803130E+00  1.37307753E+00  1.46768240E+00  1.48650346E+00  1.50344359E+00
  1.54302374E+00  1.59776892E+00  1.60132554E+00  1.60626777E+00  1.62934353E+00
  1.69591520E+00  1.74109370E+00  1.80074217E+00  1.83084731E+00  1.88894760E+00
  1.89505957E+00  1.93030438E+00  1.97850941E+00  1.98989994E+00  2.05380417E+00
  2.12633009E+00  2.13061181E+00  2.16674502E+00  2.18902272E+00  2.24488145E+00
  2.25947560E+00  2.29395715E+00  2.35248528E+00  2.36995217E+00  2.38590801E+00
  2.40294856E+00  2.43345482E+00  2.46910247E+00  2.47935431E+00  2.53157740E+00
  2.53892442E+00  2.55271898E+00  2.56010189E+00  2.61918635E+00  2.63132898E+00
  2.67521884E+00  2.67773032E+00  2.75393958E+00  2.81049207E+00  2.82230692E+00
  2.83885706E+00  2.91939496E+00  2.99293905E+00  3.04596898E+00  3.04879904E+00
  3.11369208E+00  3.11959668E+00  3.17640498E+00  3.21372272E+00  3.31081669E+00
  3.33062302E+00  3.36219907E+00  3.47507037E+00  3.67896766E+00  3.87003723E+00
  3.93519619E+00  4.18749375E+00  4.22809508E+00  4.23061821E+00  4.27029084E+00
  4.37311709E+00  4.49920606E+00  4.54179028E+00  4.55377129E+00  4.59847399E+00
  4.69546238E+00  4.81132446E+00  4.89462726E+00  4.91551117E+00  4.93922284E+00
  5.00164047E+00  5.00623637E+00  5.10629249E+00  5.13260031E+00  5.18231168E+00
  5.25251378E+00  5.26109265E+00  5.32008368E+00  5.34925037E+00  5.36348808E+00
  5.55065411E+00  5.64619552E+00  5.70995153E+00  5.89262676E+00  5.99395774E+00
  6.26543964E+00  6.29575340E+00  6.36268340E+00  6.37738888E+00  6.59793877E+00
  6.66047257E+00  6.66741346E+00  6.69448688E+00  6.72866845E+00  6.78883232E+00
  6.80271206E+00  6.86263185E+00  6.96671672E+00  7.02142110E+00  7.06634355E+00
  7.07994488E+00  7.13658746E+00  7.17470364E+00  7.18643406E+00  7.20423772E+00
  7.24714217E+00  7.24975561E+00  7.27267763E+00  7.34998323E+00  7.39253239E+00
  7.43231713E+00  7.44228784E+00  7.46437080E+00  7.56046702E+00  7.66351383E+00
  7.67983087E+00  7.79534540E+00  7.88419726E+00  7.95339665E+00  8.07387144E+00
  8.30932003E+00  8.49877866E+00  8.65246244E+00  1.36234120E+01  1.47627916E+01
  1.51102762E+01  1.57931600E+01
Alpha MO coefficients                      R   N=       42849
  6.33914684E-05  1.46744623E-06 -1.11553637E-03  1.52310056E-05 -5.10589478E-05
  4.18750049E-05  0.00000000E+00 -9.50343709E-05 -2.77638584E-04  0.00000000E+00
 -3.25582501E-06 -3.52967121E-04  0.00000000E+00  4.14475928E-05  0.00000000E+00
  0.00000000E+00 -2.50997499E-05  1.17368504E-05  2.31219302E-04  0.00000000E+00
  0.00000000E+00 -4.27891579E-05 -2.13889906E-04  3.09119284E-03 -9.56860707E-05
 -9.77209340E-05  3.51203554E-03  2.48185833E-03  1.01634996E-04 -5.40682921E-05
  0.00000000E+00 -7.23737992E-04  2.91557764E-04  0.00000000E+00 -1.95334712E-03
  1.12829646E-03  0.00000000E+00 -5.38742105E-04  3.87586836E-05  0.00000000E+00
  2.04176275E-05  0.00000000E+00  0.00000000E+00 -8.59047011E-06  4.41564727E-05
 -4.41696501E-04  0.00000000E+00  0.00000000E+00  4.22607039E-04 -6.66274611E-04
 -3.62455709E-04  0.00000000E+00  0.00000000E+00  5.35784663E-04 -7.50055233E-04
  0.00000000E+00  7.33761131E-05 -5.30165481E-05  0.00000000E+00  0.00000000E+00
 -2.64679276E-05  1.08796706E-04  0.00000000E+00  2.08019518E-04 -5.04560838E-05
  0.00000000E+00  0.00000000E+00 -1.66030962E-04  3.01401774E-04  9.76901651E-01
 -9.17578550E-03  4.34099290E-02  4.84700656E-04 -2.20693763E-03  4.35345365E-04
 -2.15013652E-03  0.00000000E+00 -3.06358722E-04  2.25555893E-03  0.00000000E+00
 -2.29931837E-03 -4.82288195E-04  0.00000000E+00 -2.22323291E-04  9.71686475E-05
  0.00000000E+00  6.65227323E-06  0.00000000E+00  0.00000000E+00 -5.29650011E-06
  3.80397887E-05  8.26312741E-04  0.00000000E+00  0.00000000E+00 -4.76350571E-04
 -1.66385451E-04 -1.43681421E-04  0.00000000E+00  0.00000000E+00 -5.53898459E-04
  3.54130022E-04  0.00000000E+00 -6.59814794E-06 -7.98131060E-05  0.00000000E+00
  0.00000000E+00 -8.67066759E-06  4.76753209E-05  0.00000000E+00  9.11855207E-05
  2.22023652E-06  0.00000000E+00  0.00000000E+00 -3.29898617E-04  3.84415409E-04
  1.04519815E-04  4.57557033E-04 -3.24189338E-04 -8.37582172E-04  3.45253102E-04
 -4.56136189E-05 -9.94698978E-05  0.00000000E+00  7.01910347E-04  1.10636437E-03
  0.00000000E+00 -7.33618351E-04 -5.98170206E-04  0.00000000E+00  1.98775010E-04
  2.14780738E-04  0.00000000E+00 -5.26058746E-05  0.00000000E+00  0.00000000E+00
  1.86001566E-05  9.38385075E-05 -4.16393751E-04  0.00000000E+00  0.00000000E+00
  5.49398094E-05  1.07459116E-03  2.66094812E-05  0.00000000E+00  0.00000000E+00
 -2.99524748E-04  3.28629842E-05  0.00000000E+00 -7.94073744E-05 -1.12585894E-04
  0.00000000E+00  0.00000000E+00 -9.56145176E-05  1.06806899E-04  0.00000000E+00
 -1.27666909E-04  4.40852485E-05  0.00000000E+00  0.00000000E+00  1.78146074E-05
  5.14323120E-04 -7.22631087E-04  5.96430769E-05 -6.86690096E-05  2.51597370E-04
 -1.80111427E-04 -2.78429684E-05 -4.00361216E-05  0.00000000E+00  1.62848336E-04
  2.55206457E-04  0.00000000E+00  4.91228600E-04  3.12294105E-04  0.00000000E+00
 -2.28365392E-04 -6.18900498E-05  0.00000000E+00 -1.37621508E-05  0.00000000E+00
  0.00000000E+00  2.25458864E-06  1.71734278E-05  3.11175611E-06  0.00000000E+00
  0.00000000E+00 -1.57388220E-04 -4.64824922E-06 -1.33841496E-05  0.00000000E+00
  0.00000000E+00 -1.66874190E-04 -6.47423217E-05  0.00000000E+00 -5.35373384E-06
 -7.54204000E-06  0.00000000E+00  0.00000000E+00 -2.02443842E-05  1.05302961E-05
  0.00000000E+00  3.96243446E-05  6.27506513E-05  0.00000000E+00  0.00000000E+00
  1.65010406E-04 -1.02240351E-04  3.78142989E-05  6.84024546E-05 -9.33235839E-05
 -2.95351741E-05  2.34354741E-05  1.51094252E-05  0.00000000E+00  2.26858474E-04
  4.27345657E-05  0.00000000E+00  1.15187885E-04  1.61970021E-05  0.00000000E+00
  1.05486448E-05  0.00000000E+00  0.00000000E+00 -8.00012845E-06  1.98872867E-05
  1.77537779E-05  0.00000000E+00  0.00000000E+00 -8.31299800E-05  7.17610219E-05
 -2.66306569E-04  3.38072821E-05 -1.48546067E-05 -5.41328783E-04  1.54751008E-04
  7.19345462E-06  1.34330077E-05  0.00000000E+00 -2.22443981E-06 -4.45544532E-05
  0.00000000E+00  1.80771103E-04  1.44118806E-04  0.00000000E+00 -4.27950320E-05
  5.17830592E-05  0.00000000E+00 -2.26916836E-06  0.00000000E+00  0.00000000E+00
 -7.99890847E-06 -1.06019731E-05  2.54030781E-05  0.00000000E+00  0.00000000E+00
  4.98975966E-05  1.07403928E-04  6.59007184E-05  0.00000000E+00  0.00000000E+00
 -3.04046566E-05 -8.13985059E-05  0.00000000E+00  7.52432775E-06  9.80544702E-06
  0.00000000E+00  0.00000000E+00 -7.09506660E-07 -2.66315929E-05  0.00000000E+00
 -1.55058994E-05 -3.93273258E-05  0.00000000E+00  0.00000000E+00 -1.61689094E-06
 -1.74549795E-05  7.52950741E-04  2.43030388E-05 -1.56258813E-05  2.88732331E-04
 -4.03576089E-04  1.56768531E-05  2.49545269E-05  0.00000000E+00 -6.27866340E-05
 -1.45571762E-04  0.00000000E+00  1.32572675E-04 -1.90908710E-04  0.00000000E+00
 -1.58744778E-04  1.41693643E-04  0.00000000E+00 -4.20685010E-06  0.00000000E+00
  0.00000000E+00 -3.10354826E-05 -9.02384981E-06 -4.81575677E-05  0.00000000E+00
  0.00000000E+00  9.11637028E-05  1.14786167E-04 -6.27030539E-05  0.00000000E+00
  0.00000000E+00  4.59518816E-05  3.11194068E-05  0.00000000E+00  2.23834316E-06
  1.52698087E-06  0.00000000E+00  0.00000000E+00 -9.30503447E-06 -3.59091213E-06
  0.00000000E+00  4.57191356E-06 -2.40618257E-05  0.00000000E+00  0.00000000E+00
  8.96562079E-05 -1.59293601E-04  2.36648806E-04  1.35290775E-03 -1.48660691E-04
 -7.12810884E-04  9.07624647E-04  6.27144911E-05 -7.18871661E-05  0.00000000E+00
  5.90187189E-04 -2.06601514E-03  0.00000000E+00  1.06812543E-04  4.87416687E-04
  0.00000000E+00  1.91509451E-04 -3.01988408E-04  0.00000000E+00 -1.27357775E-04
  0.00000000E+00  0.00000000E+00 -2.01933589E-04 -1.62019778E-04 -4.62110479E-04
  0.00000000E+00  0.00000000E+00 -5.79291839E-04 -9.22678155E-04 -4.26882744E-05
  0.00000000E+00  0.00000000E+00  6.36015711E-05  1.17836353E-04  0.00000000E+00
  7.60815417E-06  3.56742636E-05  0.00000000E+00  0.00000000E+00 -2.40537872E-05
 -4.59205903E-06  0.00000000E+00 -1.38179423E-04  1.59775059E-04  0.00000000E+00
  0.00000000E+00 -3.08826422E-04 -3.56621662E-05  9.76643656E-01 -9.88295905E-03
  4.35795308E-02  3.69255214E-03 -8.96118853E-04 -4.73474336E-04  2.12284719E-03
  0.00000000E+00  5.44315596E-04 -2.49336301E-03  0.00000000E+00 -9.04838446E-05
  8.29933727E-04  0.00000000E+00  1.01636103E-04 -6.42875047E-05  0.00000000E+00
 -1.94536330E-04  0.00000000E+00  0.00000000E+00 -7.33345017E-05 -4.33777527E-05
  4.08234765E-04  0.00000000E+00  0.00000000E+00  8.42842633E-04  5.01077717E-04
 -2.05870365E-04  0.00000000E+00  0.00000000E+00 -1.50831876E-04 -3.96428301E-05
  0.00000000E+00 -5.68912397E-06  7.01470067E-05  0.00000000E+00  0.00000000E+00
 -2.82391855E-05  9.85412851E-06  0.00000000E+00 -8.92832437E-05  9.04119107E-05
  0.00000000E+00  0.00000000E+00 -1.73038117E-04  1.96800343E-04  3.71644410E-04
  2.01061403E-03  1.41057518E-03 -1.62758641E-05  5.31275604E-05  2.68087728E-04
  0.00000000E+00  3.66303594E-04  1.02283310E-03  0.00000000E+00 -1.36839725E-04
  2.35205642E-04  0.00000000E+00 -2.44950302E-05  0.00000000E+00  0.00000000E+00
  3.36708950E-05 -3.01314731E-05 -2.18501650E-04  0.00000000E+00  0.00000000E+00
 -3.46522892E-04  4.10598808E-04  9.76833829E-01 -9.18763540E-03  4.34666674E-02
  1.16766069E-04 -1.91095730E-03 -2.04718451E-03 -8.22997242E-04  0.00000000E+00
  2.08790880E-03  7.60354781E-04  0.00000000E+00 -3.85360682E-04  6.41040392E-04
  0.00000000E+00  2.23687073E-04 -3.00894806E-04  0.00000000E+00  3.02932992E-05
  0.00000000E+00  0.00000000E+00 -7.48179394E-05  6.44820636E-05  7.66281442E-04
  0.00000000E+00  0.00000000E+00 -2.08453356E-04  3.53526800E-04 -2.39867162E-04
  0.00000000E+00  0.00000000E+00  3.29130841E-04  2.38983152E-07  0.00000000E+00
 -8.09672340E-05  1.59873561E-06  0.00000000E+00  0.00000000E+00  1.52468509E-05