 Entering Gaussian System, Link 0=g16
 Input=hoono_r3_1p431179.gjf
 Output=hoono_r3_1p431179.log
 Initial command:
 /sw/contrib/gaussian/g16/B01/g16/l1.exe "/scr/Gau-21294.inp" -scrdir="/scr/"
 Entering Link 1 = /sw/contrib/gaussian/g16/B01/g16/l1.exe PID=     21295.
  
 Copyright (c) 1988-2017, Gaussian, Inc.  All Rights Reserved.
  
 This is part of the Gaussian(R) 16 program.  It is based on
 the Gaussian(R) 09 system (copyright 2009, Gaussian, Inc.),
 the Gaussian(R) 03 system (copyright 2003, Gaussian, Inc.),
 the Gaussian(R) 98 system (copyright 1998, Gaussian, Inc.),
 the Gaussian(R) 94 system (copyright 1995, Gaussian, Inc.),
 the Gaussian 92(TM) system (copyright 1992, Gaussian, Inc.),
 the Gaussian 90(TM) system (copyright 1990, Gaussian, Inc.),
 the Gaussian 88(TM) system (copyright 1988, Gaussian, Inc.),
 the Gaussian 86(TM) system (copyright 1986, Carnegie Mellon
 University), and the Gaussian 82(TM) system (copyright 1983,
 Carnegie Mellon University). Gaussian is a federally registered
 trademark of Gaussian, Inc.
  
 This software contains proprietary and confidential information,
 including trade secrets, belonging to Gaussian, Inc.
  
 This software is provided under written license and may be
 used, copied, transmitted, or stored only in accord with that
 written license.
  
 The following legend is applicable only to US Government
 contracts under FAR:
  
                    RESTRICTED RIGHTS LEGEND
  
 Use, reproduction and disclosure by the US Government is
 subject to restrictions as set forth in subparagraphs (a)
 and (c) of the Commercial Computer Software - Restricted
 Rights clause in FAR 52.227-19.
  
 Gaussian, Inc.
 340 Quinnipiac St., Bldg. 40, Wallingford CT 06492
  
  
 ---------------------------------------------------------------
 Warning -- This program may not be used in any manner that
 competes with the business of Gaussian, Inc. or will provide
 assistance to any competitor of Gaussian, Inc.  The licensee
 of this program is prohibited from giving any competitor of
 Gaussian, Inc. access to this program.  By using this program,
 the user acknowledges that Gaussian, Inc. is engaged in the
 business of creating and licensing software in the field of
 computational chemistry and represents and warrants to the
 licensee that it is not a competitor of Gaussian, Inc. and that
 it will not use this program in any manner prohibited above.
 ---------------------------------------------------------------
  

 Cite this work as:
 Gaussian 16, Revision B.01,
 M. J. Frisch, G. W. Trucks, H. B. Schlegel, G. E. Scuseria, 
 M. A. Robb, J. R. Cheeseman, G. Scalmani, V. Barone, 
 G. A. Petersson, H. Nakatsuji, X. Li, M. Caricato, A. V. Marenich, 
 J. Bloino, B. G. Janesko, R. Gomperts, B. Mennucci, H. P. Hratchian, 
 J. V. Ortiz, A. F. Izmaylov, J. L. Sonnenberg, D. Williams-Young, 
 F. Ding, F. Lipparini, F. Egidi, J. Goings, B. Peng, A. Petrone, 
 T. Henderson, D. Ranasinghe, V. G. Zakrzewski, J. Gao, N. Rega, 
 G. Zheng, W. Liang, M. Hada, M. Ehara, K. Toyota, R. Fukuda, 
 J. Hasegawa, M. Ishida, T. Nakajima, Y. Honda, O. Kitao, H. Nakai, 
 T. Vreven, K. Throssell, J. A. Montgomery, Jr., J. E. Peralta, 
 F. Ogliaro, M. J. Bearpark, J. J. Heyd, E. N. Brothers, K. N. Kudin, 
 V. N. Staroverov, T. A. Keith, R. Kobayashi, J. Normand, 
 K. Raghavachari, A. P. Rendell, J. C. Burant, S. S. Iyengar, 
 J. Tomasi, M. Cossi, J. M. Millam, M. Klene, C. Adamo, R. Cammi, 
 J. W. Ochterski, R. L. Martin, K. Morokuma, O. Farkas, 
 J. B. Foresman, and D. J. Fox, Gaussian, Inc., Wallingford CT, 2016.
 
 ******************************************
 Gaussian 16:  ES64L-G16RevB.01 20-Dec-2017
                21-Feb-2022 
 ******************************************
 %nproc=28
 Will use up to   28 processors via shared memory.
 %mem=120GB
 %chk=hoono_r3_1p431179.chk
 ---------------------------------------
 #p freq mp2/aug-cc-pvtz density=current
 ---------------------------------------
 1/10=4,30=1,38=1/1,3;
 2/12=2,17=6,18=5,40=1/2;
 3/5=16,6=1,7=10,11=9,25=1,30=1,71=2,140=1/1,2,3;
 4//1;
 5/5=2,38=5,98=1/2;
 8/6=3,8=1,10=1,19=11,30=-1/1;
 9/15=3,16=-3/6;
 11/6=1,8=1,15=11,17=12,24=-1,27=1,28=-2,29=300,32=6,42=3/1,2,10;
 10/6=2,21=1/2;
 8/6=4,8=1,10=1,19=11,30=-1/11,4;
 10/5=1,20=4/2;
 11/12=2,14=11,16=1,17=2,28=-2,42=3,76=2/2,10,12;
 6/7=2,8=2,9=2,10=2,22=-1/1;
 7/8=1,10=1,12=2,25=1,44=2/1,2,3,16;
 1/10=4,30=1/3;
 99//99;
 Leave Link    1 at Mon Feb 21 20:20:26 2022, MaxMem= 16106127360 cpu:               1.8 elap:               0.1
 (Enter /sw/contrib/gaussian/g16/B01/g16/l101.exe)
 -----
 title
 -----
 Symbolic Z-matrix:
 Charge =  0 Multiplicity = 1
 H
 O                    1    r1
 O                    2    r2       1    a1
 N                    3    r3       2    a2       1    d1       0
 O                    4    r4       3    a3       2    d2       0
       Variables:
  r1                    0.96898                  
  r2                    1.45492                  
  r3                    1.43118                  
  r4                    1.17073                  
  a1                   97.59495                  
  a2                  102.29752                  
  a3                  109.06955                  
  d1                  180.                       
  d2                  180.                       
 
 ITRead=  0  0  0  0  0
 MicOpt= -1 -1 -1 -1 -1
 NAtoms=      5 NQM=        5 NQMF=       0 NMMI=      0 NMMIF=      0
                NMic=       0 NMicF=      0.
                    Isotopes and Nuclear Properties:
 (Nuclear quadrupole moments (NQMom) in fm**2, nuclear magnetic moments (NMagM)
  in nuclear magnetons)

  Atom         1           2           3           4           5
 IAtWgt=           1          16          16          14          16
 AtmWgt=   1.0078250  15.9949146  15.9949146  14.0030740  15.9949146
 NucSpn=           1           0           0           2           0
 AtZEff=  -0.0000000  -0.0000000  -0.0000000  -0.0000000  -0.0000000
 NQMom=    0.0000000   0.0000000   0.0000000   2.0440000   0.0000000
 NMagM=    2.7928460   0.0000000   0.0000000   0.4037610   0.0000000
 AtZNuc=   1.0000000   8.0000000   8.0000000   7.0000000   8.0000000
 Leave Link  101 at Mon Feb 21 20:20:26 2022, MaxMem= 16106127360 cpu:               4.1 elap:               0.2
 (Enter /sw/contrib/gaussian/g16/B01/g16/l103.exe)

 GradGradGradGradGradGradGradGradGradGradGradGradGradGradGradGradGradGrad
 Berny optimization.
 Initialization pass.
                       ----------------------------
                       !    Initial Parameters    !
                       ! (Angstroms and Degrees)  !
 ----------------------                            ----------------------
 !      Name          Value   Derivative information (Atomic Units)     !
 ------------------------------------------------------------------------
 !       r1          0.969    calculate D2E/DX2 analytically            !
 !       r2          1.4549   calculate D2E/DX2 analytically            !
 !       r3          1.4312   calculate D2E/DX2 analytically            !
 !       r4          1.1707   calculate D2E/DX2 analytically            !
 !       a1         97.5949   calculate D2E/DX2 analytically            !
 !       a2        102.2975   calculate D2E/DX2 analytically            !
 !       a3        109.0696   calculate D2E/DX2 analytically            !
 !       d1        180.0      calculate D2E/DX2 analytically            !
 !       d2        180.0      calculate D2E/DX2 analytically            !
 ------------------------------------------------------------------------
 Trust Radius=3.00D-01 FncErr=1.00D-07 GrdErr=1.00D-07 EigMax=2.50D+02 EigMin=1.00D-04
 Number of steps in this run=      2 maximum allowed number of steps=      2.
 GradGradGradGradGradGradGradGradGradGradGradGradGradGradGradGradGradGrad

 Leave Link  103 at Mon Feb 21 20:20:26 2022, MaxMem= 16106127360 cpu:               0.6 elap:               0.0
 (Enter /sw/contrib/gaussian/g16/B01/g16/l202.exe)
                          Input orientation:                          
 ---------------------------------------------------------------------
 Center     Atomic      Atomic             Coordinates (Angstroms)
 Number     Number       Type             X           Y           Z
 ---------------------------------------------------------------------
      1          1           0        0.000000    0.000000    0.000000
      2          8           0        0.000000    0.000000    0.968976
      3          8           0        1.442156    0.000000    1.161271
      4          7           0        1.559488    0.000000    2.587633
      5          8           0        2.693604    0.000000    2.878128
 ---------------------------------------------------------------------
                    Distance matrix (angstroms):
                    1          2          3          4          5
     1  H    0.000000
     2  O    0.968976   0.000000
     3  O    1.851584   1.454919   0.000000
     4  N    3.021233   2.247678   1.431180   0.000000
     5  O    3.941969   3.301570   2.124552   1.170729   0.000000
 Stoichiometry    HNO3
 Framework group  CS[SG(HNO3)]
 Deg. of freedom     7
 Full point group                 CS      NOp   2
 Largest Abelian subgroup         CS      NOp   2
 Largest concise Abelian subgroup C1      NOp   1
                         Standard orientation:                         
 ---------------------------------------------------------------------
 Center     Atomic      Atomic             Coordinates (Angstroms)
 Number     Number       Type             X           Y           Z
 ---------------------------------------------------------------------
      1          1           0        1.552667    1.669039   -0.000000
      2          8           0        1.454230    0.705077   -0.000000
      3          8           0       -0.000000    0.660283   -0.000000
      4          7           0       -0.261628   -0.746780    0.000000
      5          8           0       -1.419388   -0.920558    0.000000
 ---------------------------------------------------------------------
 Rotational constants (GHZ):          56.1633887           5.0815035           4.6598900
 Leave Link  202 at Mon Feb 21 20:20:26 2022, MaxMem= 16106127360 cpu:               0.5 elap:               0.1
 (Enter /sw/contrib/gaussian/g16/B01/g16/l301.exe)
 Standard basis: Aug-CC-pVTZ (5D, 7F)
 Ernie: Thresh=  0.10000D-02 Tol=  0.10000D-05 Strict=F.
 Ernie:  12 primitive shells out of 131 were deleted.
 There are   166 symmetry adapted cartesian basis functions of A'  symmetry.
 There are    79 symmetry adapted cartesian basis functions of A"  symmetry.
 There are   136 symmetry adapted basis functions of A'  symmetry.
 There are    71 symmetry adapted basis functions of A"  symmetry.
   207 basis functions,   315 primitive gaussians,   245 cartesian basis functions
    16 alpha electrons       16 beta electrons
       nuclear repulsion energy       117.6345946720 Hartrees.
 IExCor=    0 DFT=F Ex=HF Corr=None ExCW=0 ScaHFX=  1.000000
 ScaDFX=  1.000000  1.000000  1.000000  1.000000 ScalE2=  1.000000  1.000000
 IRadAn=      5 IRanWt=     -1 IRanGd=            0 ICorTp=0 IEmpDi=  4
 NAtoms=    5 NActive=    5 NUniq=    5 SFac= 1.00D+00 NAtFMM=   60 NAOKFM=F Big=F
 Integral buffers will be    131072 words long.
 Raffenetti 1 integral format.
 Two-electron integral symmetry is turned on.
 Leave Link  301 at Mon Feb 21 20:20:26 2022, MaxMem= 16106127360 cpu:               1.7 elap:               0.1
 (Enter /sw/contrib/gaussian/g16/B01/g16/l302.exe)
 NPDir=0 NMtPBC=     1 NCelOv=     1 NCel=       1 NClECP=     1 NCelD=      1
         NCelK=      1 NCelE2=     1 NClLst=     1 CellRange=     0.0.
 One-electron integrals computed using PRISM.
 One-electron integral symmetry used in STVInt
 NBasis=   207 RedAO= T EigKep=  1.79D-04  NBF=   136    71
 NBsUse=   207 1.00D-06 EigRej= -1.00D+00 NBFU=   136    71
 Leave Link  302 at Mon Feb 21 20:20:27 2022, MaxMem= 16106127360 cpu:               4.6 elap:               0.2
 (Enter /sw/contrib/gaussian/g16/B01/g16/l303.exe)
 DipDrv:  MaxL=1.
 Leave Link  303 at Mon Feb 21 20:20:27 2022, MaxMem= 16106127360 cpu:               1.0 elap:               0.1
 (Enter /sw/contrib/gaussian/g16/B01/g16/l401.exe)
 ExpMin= 2.53D-02 ExpMax= 1.53D+04 ExpMxC= 5.22D+02 IAcc=3 IRadAn=         5 AccDes= 0.00D+00
 Harris functional with IExCor=  205 and IRadAn=       5 diagonalized for initial guess.
 HarFok:  IExCor=  205 AccDes= 0.00D+00 IRadAn=         5 IDoV= 1 UseB2=F ITyADJ=14
 ICtDFT=  3500011 ScaDFX=  1.000000  1.000000  1.000000  1.000000
 FoFCou: FMM=F IPFlag=           0 FMFlag=      100000 FMFlg1=           0
         NFxFlg=           0 DoJE=T BraDBF=F KetDBF=T FulRan=T
         wScrn=  0.000000 ICntrl=       500 IOpCl=  0 I1Cent=   200000004 NGrid=           0
         NMat0=    1 NMatS0=      1 NMatT0=    0 NMatD0=    1 NMtDS0=    0 NMtDT0=    0
 Petite list used in FoFCou.
 Harris En= -279.629695252247    
 JPrj=0 DoOrth=F DoCkMO=F.
 Initial guess orbital symmetries:
       Occupied  (A') (A') (A') (A') (A') (A') (A') (A') (A') (A')
                 (A") (A') (A') (A") (A") (A')
       Virtual   (A") (A') (A') (A') (A') (A') (A") (A') (A') (A')
                 (A") (A') (A") (A') (A') (A") (A') (A") (A') (A')
                 (A') (A') (A') (A') (A') (A") (A') (A") (A') (A')
                 (A") (A') (A") (A') (A') (A") (A') (A") (A') (A')
                 (A") (A') (A") (A') (A") (A') (A') (A') (A") (A")
                 (A') (A') (A') (A') (A") (A') (A") (A') (A") (A')
                 (A') (A') (A") (A') (A') (A") (A') (A") (A') (A')
                 (A") (A') (A') (A") (A") (A') (A') (A") (A') (A')
                 (A') (A") (A') (A") (A') (A") (A') (A") (A') (A')
                 (A') (A") (A') (A") (A') (A") (A") (A') (A") (A')
                 (A') (A') (A") (A') (A') (A') (A") (A') (A") (A')
                 (A") (A') (A') (A') (A") (A') (A') (A') (A") (A')
                 (A") (A') (A') (A") (A") (A') (A') (A") (A") (A')
                 (A') (A') (A') (A") (A") (A') (A") (A') (A') (A')
                 (A') (A") (A") (A') (A') (A") (A') (A') (A') (A')
                 (A") (A') (A') (A") (A') (A") (A') (A") (A') (A")
                 (A') (A") (A') (A") (A') (A") (A") (A") (A') (A')
                 (A") (A') (A") (A') (A") (A') (A") (A") (A') (A')
                 (A') (A') (A') (A') (A') (A') (A') (A') (A') (A')
                 (A')
 The electronic state of the initial guess is 1-A'.
 Leave Link  401 at Mon Feb 21 20:20:27 2022, MaxMem= 16106127360 cpu:               7.4 elap:               0.3
 (Enter /sw/contrib/gaussian/g16/B01/g16/l502.exe)
 Keep R1 ints in memory in symmetry-blocked form, NReq=348887737.
 FoFCou: FMM=F IPFlag=           0 FMFlag=           0 FMFlg1=           0
         NFxFlg=           0 DoJE=F BraDBF=F KetDBF=F FulRan=T
         wScrn=  0.000000 ICntrl=       600 IOpCl=  0 I1Cent=           0 NGrid=           0
         NMat0=    1 NMatS0=  21528 NMatT0=    0 NMatD0=    1 NMtDS0=    0 NMtDT0=    0
 Petite list used in FoFCou.
 Closed shell SCF:
 Using DIIS extrapolation, IDIIS=  1040.
 NGot= 16106127360 LenX= 15988850015 LenY= 15988789549
 Requested convergence on RMS density matrix=1.00D-08 within 128 cycles.
 Requested convergence on MAX density matrix=1.00D-06.
 Requested convergence on             energy=1.00D-06.
 No special actions if energy rises.

 Cycle   1  Pass 1  IDiag  1:
 E= -279.369794771709    
 DIIS: error= 2.56D-02 at cycle   1 NSaved=   1.
 NSaved= 1 IEnMin= 1 EnMin= -279.369794771709     IErMin= 1 ErrMin= 2.56D-02
 ErrMax= 2.56D-02  0.00D+00 EMaxC= 1.00D-01 BMatC= 4.43D-01 BMatP= 4.43D-01
 IDIUse=3 WtCom= 7.44D-01 WtEn= 2.56D-01
 Coeff-Com:  0.100D+01
 Coeff-En:   0.100D+01
 Coeff:      0.100D+01
 Gap=     0.521 Goal=   None    Shift=    0.000
 GapD=    0.521 DampG=2.000 DampE=0.500 DampFc=1.0000 IDamp=-1.
 RMSDP=1.64D-03 MaxDP=9.72D-02              OVMax= 1.18D-01

 Cycle   2  Pass 1  IDiag  1:
 E= -279.451408190483     Delta-E=       -0.081613418774 Rises=F Damp=F
 DIIS: error= 1.79D-02 at cycle   2 NSaved=   2.
 NSaved= 2 IEnMin= 2 EnMin= -279.451408190483     IErMin= 2 ErrMin= 1.79D-02
 ErrMax= 1.79D-02  0.00D+00 EMaxC= 1.00D-01 BMatC= 7.76D-02 BMatP= 4.43D-01
 IDIUse=3 WtCom= 8.21D-01 WtEn= 1.79D-01
 Coeff-Com:  0.205D+00 0.795D+00
 Coeff-En:   0.308D-01 0.969D+00
 Coeff:      0.174D+00 0.826D+00
 Gap=     0.534 Goal=   None    Shift=    0.000
 RMSDP=9.21D-04 MaxDP=3.80D-02 DE=-8.16D-02 OVMax= 6.65D-02

 Cycle   3  Pass 1  IDiag  1:
 E= -279.483926077841     Delta-E=       -0.032517887358 Rises=F Damp=F
 DIIS: error= 9.69D-03 at cycle   3 NSaved=   3.
 NSaved= 3 IEnMin= 3 EnMin= -279.483926077841     IErMin= 3 ErrMin= 9.69D-03
 ErrMax= 9.69D-03  0.00D+00 EMaxC= 1.00D-01 BMatC= 2.88D-02 BMatP= 7.76D-02
 IDIUse=3 WtCom= 9.03D-01 WtEn= 9.69D-02
 Coeff-Com: -0.338D-01 0.369D+00 0.665D+00
 Coeff-En:   0.000D+00 0.225D+00 0.775D+00
 Coeff:     -0.305D-01 0.355D+00 0.676D+00
 Gap=     0.510 Goal=   None    Shift=    0.000
 RMSDP=3.78D-04 MaxDP=1.49D-02 DE=-3.25D-02 OVMax= 4.04D-02

 Cycle   4  Pass 1  IDiag  1:
 E= -279.503128862925     Delta-E=       -0.019202785084 Rises=F Damp=F
 DIIS: error= 1.26D-03 at cycle   4 NSaved=   4.
 NSaved= 4 IEnMin= 4 EnMin= -279.503128862925     IErMin= 4 ErrMin= 1.26D-03
 ErrMax= 1.26D-03  0.00D+00 EMaxC= 1.00D-01 BMatC= 4.65D-04 BMatP= 2.88D-02
 IDIUse=3 WtCom= 9.87D-01 WtEn= 1.26D-02
 Coeff-Com: -0.110D-01 0.475D-01 0.146D+00 0.817D+00
 Coeff-En:   0.000D+00 0.000D+00 0.000D+00 0.100D+01
 Coeff:     -0.109D-01 0.469D-01 0.144D+00 0.820D+00
 Gap=     0.502 Goal=   None    Shift=    0.000
 RMSDP=8.99D-05 MaxDP=2.68D-03 DE=-1.92D-02 OVMax= 1.06D-02

 Cycle   5  Pass 1  IDiag  1:
 E= -279.503776637395     Delta-E=       -0.000647774470 Rises=F Damp=F
 DIIS: error= 6.86D-04 at cycle   5 NSaved=   5.
 NSaved= 5 IEnMin= 5 EnMin= -279.503776637395     IErMin= 5 ErrMin= 6.86D-04
 ErrMax= 6.86D-04  0.00D+00 EMaxC= 1.00D-01 BMatC= 8.22D-05 BMatP= 4.65D-04
 IDIUse=3 WtCom= 9.93D-01 WtEn= 6.86D-03
 Coeff-Com:  0.595D-02-0.684D-01-0.113D+00 0.298D-01 0.115D+01
 Coeff-En:   0.000D+00 0.000D+00 0.000D+00 0.000D+00 0.100D+01
 Coeff:      0.591D-02-0.679D-01-0.112D+00 0.296D-01 0.114D+01
 Gap=     0.502 Goal=   None    Shift=    0.000
 RMSDP=7.28D-05 MaxDP=2.04D-03 DE=-6.48D-04 OVMax= 1.07D-02

 Cycle   6  Pass 1  IDiag  1:
 E= -279.504065049257     Delta-E=       -0.000288411862 Rises=F Damp=F
 DIIS: error= 2.84D-04 at cycle   6 NSaved=   6.
 NSaved= 6 IEnMin= 6 EnMin= -279.504065049257     IErMin= 6 ErrMin= 2.84D-04
 ErrMax= 2.84D-04  0.00D+00 EMaxC= 1.00D-01 BMatC= 1.58D-05 BMatP= 8.22D-05
 IDIUse=3 WtCom= 9.97D-01 WtEn= 2.84D-03
 Coeff-Com:  0.514D-03 0.234D-02 0.537D-02-0.137D+00-0.217D+00 0.134D+01
 Coeff-En:   0.000D+00 0.000D+00 0.000D+00 0.000D+00 0.000D+00 0.100D+01
 Coeff:      0.513D-03 0.234D-02 0.535D-02-0.136D+00-0.216D+00 0.134D+01
 Gap=     0.502 Goal=   None    Shift=    0.000
 RMSDP=4.29D-05 MaxDP=1.17D-03 DE=-2.88D-04 OVMax= 5.35D-03

 Cycle   7  Pass 1  IDiag  1:
 E= -279.504130880366     Delta-E=       -0.000065831110 Rises=F Damp=F
 DIIS: error= 1.02D-04 at cycle   7 NSaved=   7.
 NSaved= 7 IEnMin= 7 EnMin= -279.504130880366     IErMin= 7 ErrMin= 1.02D-04
 ErrMax= 1.02D-04  0.00D+00 EMaxC= 1.00D-01 BMatC= 3.86D-06 BMatP= 1.58D-05
 IDIUse=3 WtCom= 9.99D-01 WtEn= 1.02D-03
 Coeff-Com: -0.905D-03 0.125D-01 0.248D-01-0.227D-01-0.265D+00 0.336D+00
 Coeff-Com:  0.915D+00
 Coeff-En:   0.000D+00 0.000D+00 0.000D+00 0.000D+00 0.000D+00 0.000D+00
 Coeff-En:   0.100D+01
 Coeff:     -0.904D-03 0.124D-01 0.247D-01-0.227D-01-0.265D+00 0.336D+00
 Coeff:      0.915D+00
 Gap=     0.502 Goal=   None    Shift=    0.000
 RMSDP=1.25D-05 MaxDP=3.54D-04 DE=-6.58D-05 OVMax= 1.49D-03

 Cycle   8  Pass 1  IDiag  1:
 E= -279.504138691768     Delta-E=       -0.000007811401 Rises=F Damp=F
 DIIS: error= 5.61D-05 at cycle   8 NSaved=   8.
 NSaved= 8 IEnMin= 8 EnMin= -279.504138691768     IErMin= 8 ErrMin= 5.61D-05
 ErrMax= 5.61D-05  0.00D+00 EMaxC= 1.00D-01 BMatC= 5.50D-07 BMatP= 3.86D-06
 IDIUse=1 WtCom= 1.00D+00 WtEn= 0.00D+00
 Coeff-Com: -0.413D-03 0.306D-02 0.695D-02 0.267D-01-0.417D-01-0.191D+00
 Coeff-Com:  0.203D+00 0.993D+00
 Coeff:     -0.413D-03 0.306D-02 0.695D-02 0.267D-01-0.417D-01-0.191D+00
 Coeff:      0.203D+00 0.993D+00
 Gap=     0.502 Goal=   None    Shift=    0.000
 RMSDP=6.14D-06 MaxDP=1.88D-04 DE=-7.81D-06 OVMax= 6.63D-04

 Cycle   9  Pass 1  IDiag  1:
 E= -279.504140200195     Delta-E=       -0.000001508427 Rises=F Damp=F
 DIIS: error= 1.60D-05 at cycle   9 NSaved=   9.
 NSaved= 9 IEnMin= 9 EnMin= -279.504140200195     IErMin= 9 ErrMin= 1.60D-05
 ErrMax= 1.60D-05  0.00D+00 EMaxC= 1.00D-01 BMatC= 6.85D-08 BMatP= 5.50D-07
 IDIUse=1 WtCom= 1.00D+00 WtEn= 0.00D+00
 Coeff-Com:  0.109D-03-0.156D-02-0.279D-02-0.877D-03 0.329D-01-0.582D-02
 Coeff-Com: -0.176D+00-0.571D-01 0.121D+01
 Coeff:      0.109D-03-0.156D-02-0.279D-02-0.877D-03 0.329D-01-0.582D-02
 Coeff:     -0.176D+00-0.571D-01 0.121D+01
 Gap=     0.502 Goal=   None    Shift=    0.000
 RMSDP=1.85D-06 MaxDP=6.37D-05 DE=-1.51D-06 OVMax= 1.73D-04

 Cycle  10  Pass 1  IDiag  1:
 E= -279.504140353575     Delta-E=       -0.000000153380 Rises=F Damp=F
 DIIS: error= 4.25D-06 at cycle  10 NSaved=  10.
 NSaved=10 IEnMin=10 EnMin= -279.504140353575     IErMin=10 ErrMin= 4.25D-06
 ErrMax= 4.25D-06  0.00D+00 EMaxC= 1.00D-01 BMatC= 5.70D-09 BMatP= 6.85D-08
 IDIUse=1 WtCom= 1.00D+00 WtEn= 0.00D+00
 Coeff-Com:  0.338D-04-0.268D-03-0.388D-03-0.291D-02 0.250D-02 0.210D-01
 Coeff-Com: -0.202D-01-0.787D-01-0.681D-01 0.115D+01
 Coeff:      0.338D-04-0.268D-03-0.388D-03-0.291D-02 0.250D-02 0.210D-01
 Coeff:     -0.202D-01-0.787D-01-0.681D-01 0.115D+01
 Gap=     0.502 Goal=   None    Shift=    0.000
 RMSDP=5.18D-07 MaxDP=2.16D-05 DE=-1.53D-07 OVMax= 4.51D-05

 Cycle  11  Pass 1  IDiag  1:
 E= -279.504140366815     Delta-E=       -0.000000013241 Rises=F Damp=F
 DIIS: error= 2.01D-06 at cycle  11 NSaved=  11.
 NSaved=11 IEnMin=11 EnMin= -279.504140366815     IErMin=11 ErrMin= 2.01D-06
 ErrMax= 2.01D-06  0.00D+00 EMaxC= 1.00D-01 BMatC= 6.81D-10 BMatP= 5.70D-09
 IDIUse=1 WtCom= 1.00D+00 WtEn= 0.00D+00
 Coeff-Com: -0.212D-04 0.238D-03 0.482D-03 0.525D-03-0.449D-02-0.351D-02
 Coeff-Com:  0.239D-01 0.295D-01-0.140D+00-0.206D+00 0.130D+01
 Coeff:     -0.212D-04 0.238D-03 0.482D-03 0.525D-03-0.449D-02-0.351D-02
 Coeff:      0.239D-01 0.295D-01-0.140D+00-0.206D+00 0.130D+01
 Gap=     0.502 Goal=   None    Shift=    0.000
 RMSDP=1.87D-07 MaxDP=7.06D-06 DE=-1.32D-08 OVMax= 1.74D-05

 Cycle  12  Pass 1  IDiag  1:
 E= -279.504140368714     Delta-E=       -0.000000001899 Rises=F Damp=F
 DIIS: error= 5.50D-07 at cycle  12 NSaved=  12.
 NSaved=12 IEnMin=12 EnMin= -279.504140368714     IErMin=12 ErrMin= 5.50D-07
 ErrMax= 5.50D-07  0.00D+00 EMaxC= 1.00D-01 BMatC= 6.57D-11 BMatP= 6.81D-10
 IDIUse=1 WtCom= 1.00D+00 WtEn= 0.00D+00
 Coeff-Com:  0.970D-06-0.252D-04-0.554D-04 0.214D-03 0.993D-03-0.236D-02
 Coeff-Com: -0.396D-02 0.622D-02 0.403D-01-0.102D+00-0.285D+00 0.135D+01
 Coeff:      0.970D-06-0.252D-04-0.554D-04 0.214D-03 0.993D-03-0.236D-02
 Coeff:     -0.396D-02 0.622D-02 0.403D-01-0.102D+00-0.285D+00 0.135D+01
 Gap=     0.502 Goal=   None    Shift=    0.000
 RMSDP=7.04D-08 MaxDP=2.78D-06 DE=-1.90D-09 OVMax= 6.17D-06

 Cycle  13  Pass 1  IDiag  1:
 E= -279.504140368924     Delta-E=       -0.000000000210 Rises=F Damp=F
 DIIS: error= 1.55D-07 at cycle  13 NSaved=  13.
 NSaved=13 IEnMin=13 EnMin= -279.504140368924     IErMin=13 ErrMin= 1.55D-07
 ErrMax= 1.55D-07  0.00D+00 EMaxC= 1.00D-01 BMatC= 3.29D-12 BMatP= 6.57D-11
 IDIUse=1 WtCom= 1.00D+00 WtEn= 0.00D+00
 Coeff-Com:  0.122D-05-0.131D-04-0.218D-04-0.851D-04 0.140D-03 0.697D-03
 Coeff-Com: -0.100D-02-0.297D-02 0.727D-03 0.369D-01-0.319D-01-0.298D+00
 Coeff-Com:  0.130D+01
 Coeff:      0.122D-05-0.131D-04-0.218D-04-0.851D-04 0.140D-03 0.697D-03
 Coeff:     -0.100D-02-0.297D-02 0.727D-03 0.369D-01-0.319D-01-0.298D+00
 Coeff:      0.130D+01
 Gap=     0.502 Goal=   None    Shift=    0.000
 RMSDP=1.74D-08 MaxDP=4.73D-07 DE=-2.10D-10 OVMax= 1.41D-06

 Cycle  14  Pass 1  IDiag  1:
 E= -279.504140368935     Delta-E=       -0.000000000011 Rises=F Damp=F
 DIIS: error= 2.09D-08 at cycle  14 NSaved=  14.
 NSaved=14 IEnMin=14 EnMin= -279.504140368935     IErMin=14 ErrMin= 2.09D-08
 ErrMax= 2.09D-08  0.00D+00 EMaxC= 1.00D-01 BMatC= 1.57D-13 BMatP= 3.29D-12
 IDIUse=1 WtCom= 1.00D+00 WtEn= 0.00D+00
 Coeff-Com: -0.160D-06 0.264D-05 0.475D-05 0.278D-05-0.749D-04 0.467D-04
 Coeff-Com:  0.287D-03 0.153D-03-0.224D-02 0.106D-02 0.159D-01-0.261D-01
 Coeff-Com: -0.189D+00 0.120D+01
 Coeff:     -0.160D-06 0.264D-05 0.475D-05 0.278D-05-0.749D-04 0.467D-04
 Coeff:      0.287D-03 0.153D-03-0.224D-02 0.106D-02 0.159D-01-0.261D-01
 Coeff:     -0.189D+00 0.120D+01
 Gap=     0.502 Goal=   None    Shift=    0.000
 RMSDP=3.45D-09 MaxDP=8.67D-08 DE=-1.08D-11 OVMax= 3.10D-07

 SCF Done:  E(RHF) =  -279.504140369     A.U. after   14 cycles
            NFock= 14  Conv=0.34D-08     -V/T= 2.0022
 KE= 2.788923355601D+02 PE=-8.966036530160D+02 EE= 2.205725824150D+02
 Leave Link  502 at Mon Feb 21 20:20:31 2022, MaxMem= 16106127360 cpu:              55.8 elap:               3.7
 (Enter /sw/contrib/gaussian/g16/B01/g16/l801.exe)
 ExpMin= 2.53D-02 ExpMax= 1.53D+04 ExpMxC= 5.22D+02 IAcc=3 IRadAn=         5 AccDes= 0.00D+00
 HarFok:  IExCor=  205 AccDes= 0.00D+00 IRadAn=         5 IDoV=-2 UseB2=F ITyADJ=14
 ICtDFT= 12500011 ScaDFX=  1.000000  1.000000  1.000000  1.000000
 Largest valence mixing into a core orbital is  2.07D-04
 Largest core mixing into a valence orbital is  3.54D-05
 Range of M.O.s used for correlation:     5   207
 NBasis=   207 NAE=    16 NBE=    16 NFC=     4 NFV=     0
 NROrb=    203 NOA=    12 NOB=    12 NVA=   191 NVB=   191

 **** Warning!!: The largest alpha MO coefficient is  0.17985424D+02

 Leave Link  801 at Mon Feb 21 20:20:31 2022, MaxMem= 16106127360 cpu:               3.2 elap:               0.2
 (Enter /sw/contrib/gaussian/g16/B01/g16/l906.exe)
 Frozen-core derivative calculation, NFC=   4 NFV=   0.
 FulOut=F Deriv=T AODrv=T NAtomX=     5
   MMem=           0  MDisk=          12 MDiskD=          12
  W3Min=      811440 MinDsk=     2425030 NBas6D=         245
 NBas2D=       30762    NTT=       30135    LW2=     7400000
    MDV= 16105574241 MDiskM=      328644 NBas2p=       30702
 Disk-based method using ON**2 memory for 12 occupieds at a time.
 Permanent disk used for amplitudes=    11516536 words.
 Estimated scratch disk usage=   321251614 words.
 IMap=   1   2   3   4   5   6   7   8   9  10  11  12  13  14  15  16
 Actual    scratch disk usage=   310331678 words.
 JobTyp=1 Pass  1:  I=   5 to  16 NPSUse= 28 ParTrn=T ParDer=T DoDerP=T.
 (rs|ai) integrals will be sorted in core.
 Spin components of T(2) and E(2):
     alpha-alpha T2 =       0.3369842350D-01 E2=     -0.1221005277D+00
     alpha-beta  T2 =       0.1849443578D+00 E2=     -0.6982265151D+00
     beta-beta   T2 =       0.3369842350D-01 E2=     -0.1221005277D+00
 The integrals were generated   1 times.
 ANorm=    0.1119080518D+01
 E2 =    -0.9424275705D+00 EUMP2 =    -0.28044656793945D+03
 Leave Link  906 at Mon Feb 21 20:22:08 2022, MaxMem= 16106127360 cpu:            2702.2 elap:              96.7
 (Enter /sw/contrib/gaussian/g16/B01/g16/l1101.exe)
 Using compressed Sx but separate Hx and Fx, NAtomX=     5.
 Will process      6 centers per pass.
 Leave Link 1101 at Mon Feb 21 20:22:08 2022, MaxMem= 16106127360 cpu:               6.3 elap:               0.3
 (Enter /sw/contrib/gaussian/g16/B01/g16/l1102.exe)
 Leave Link 1102 at Mon Feb 21 20:22:08 2022, MaxMem= 16106127360 cpu:               0.5 elap:               0.0
 (Enter /sw/contrib/gaussian/g16/B01/g16/l1110.exe)
 Forming Gx(P) for the SCF density, NAtomX=     5.
 Integral derivatives from FoFJK, PRISM(SPDF).
 Do as many integral derivatives as possible in FoFJK.
 G2DrvN: MDV=   16106126844.
 G2DrvN: will do     6 centers at a time, making    1 passes.
 Calling FoFCou, ICntrl=  3107 FMM=F I1Cent=   0 AccDes= 0.00D+00.
 FoFJK:  IHMeth= 1 ICntrl=    3107 DoSepK=F KAlg= 0 I1Cent=           0 FoldK=F
 IRaf=         0 NMat=       1 IRICut=       1 DoRegI=T DoRafI=F ISym2E= 1 IDoP0=0 IntGTp=1.
 FoFCou: FMM=F IPFlag=           0 FMFlag=      100000 FMFlg1=           0
         NFxFlg=           0 DoJE=F BraDBF=F KetDBF=F FulRan=T
         wScrn=  0.000000 ICntrl=      3107 IOpCl=  0 I1Cent=           0 NGrid=           0
         NMat0=    1 NMatS0=      1 NMatT0=    0 NMatD0=    1 NMtDS0=    0 NMtDT0=    0
 Petite list used in FoFCou.
 End of G2Drv F.D. properties file   721 does not exist.
 End of G2Drv F.D. properties file   722 does not exist.
 End of G2Drv F.D. properties file   788 does not exist.
 Leave Link 1110 at Mon Feb 21 20:22:11 2022, MaxMem= 16106127360 cpu:              84.2 elap:               3.0
 (Enter /sw/contrib/gaussian/g16/B01/g16/l1002.exe)
 Minotr:  Closed shell wavefunction.
          IDoAtm=11111
          Frozen-core window.
          Direct CPHF calculation.
          Differentiating once with respect to electric field.
                with respect to dipole field.
          Differentiating once with respect to nuclear coordinates.
          Requested convergence is 1.0D-08 RMS, and 1.0D-07 maximum.
          Secondary convergence is 1.0D-12 RMS, and 1.0D-12 maximum.
          NewPWx=T KeepS1=T KeepF1=T KeepIn=T MapXYZ=F SortEE=F KeepMc=T.
 Keep R1 ints in memory in symmetry-blocked form, NReq=348888983.
 FoFCou: FMM=F IPFlag=           0 FMFlag=           0 FMFlg1=           0
         NFxFlg=           0 DoJE=F BraDBF=F KetDBF=F FulRan=T
         wScrn=  0.000000 ICntrl=       600 IOpCl=  0 I1Cent=           0 NGrid=           0
         NMat0=    1 NMatS0=  21528 NMatT0=    0 NMatD0=    1 NMtDS0=    0 NMtDT0=    0
 Petite list used in FoFCou.
          MDV=   16106127360 using IRadAn=       1.
          Solving linear equations simultaneously, MaxMat=       0.
          There are    18 degrees of freedom in the 1st order CPHF.  IDoFFX=6 NUNeed=    18.
     15 vectors produced by pass  0 Test12= 1.70D-14 5.56D-09 XBig12= 8.24D+00 1.01D+00.
 AX will form    15 AO Fock derivatives at one time.
     15 vectors produced by pass  1 Test12= 1.70D-14 5.56D-09 XBig12= 1.31D+00 2.08D-01.
     15 vectors produced by pass  2 Test12= 1.70D-14 5.56D-09 XBig12= 1.34D-01 9.15D-02.
     15 vectors produced by pass  3 Test12= 1.70D-14 5.56D-09 XBig12= 4.55D-03 1.00D-02.
     15 vectors produced by pass  4 Test12= 1.70D-14 5.56D-09 XBig12= 9.12D-05 1.74D-03.
     15 vectors produced by pass  5 Test12= 1.70D-14 5.56D-09 XBig12= 1.25D-06 1.52D-04.
     15 vectors produced by pass  6 Test12= 1.70D-14 5.56D-09 XBig12= 9.92D-09 1.43D-05.
     12 vectors produced by pass  7 Test12= 1.70D-14 5.56D-09 XBig12= 7.19D-11 1.22D-06.
      3 vectors produced by pass  8 Test12= 1.70D-14 5.56D-09 XBig12= 5.21D-13 1.17D-07.
      2 vectors produced by pass  9 Test12= 1.70D-14 5.56D-09 XBig12= 3.62D-15 1.02D-08.
 InvSVY:  IOpt=1 It=  1 EMax= 1.11D-15
 Solved reduced A of dimension   122 with    15 vectors.
 FullF1:  Do perturbations      1 to      18.
 Saving first derivative matrices.
 End of Minotr F.D. properties file   721 does not exist.
 End of Minotr F.D. properties file   722 does not exist.
 End of Minotr F.D. properties file   788 does not exist.
 Leave Link 1002 at Mon Feb 21 20:22:14 2022, MaxMem= 16106127360 cpu:              79.7 elap:               2.9
 (Enter /sw/contrib/gaussian/g16/B01/g16/l811.exe)
 MDV= 16106127360.
 Form MO integral derivatives with frozen-active canonical formalism.
 MOERI=1 MOERIx=1 NAtoms=     5 NAtomX=     5.
 Discarding MO integrals.
 MO basis two electron integral derivatives will not be stored on disk.
 IAlg= 3 DoFC=T DoPWx=T Debug=F.
 Frozen-core window:  NFC=   4 NFV=   0.
 Reordered first order wavefunction length =     18678272
 In DefCFB: NBatch=  1 ICI= 16 ICA=191 LFMax= 96
            Large arrays: LIAPS=   619940160 LIARS=   288257200 words.
 In StABat: MaxSiz= 55 MinSiz= 25 NAtomB=  5
 DoIAMN: NPSUse= 28.
 Leave Link  811 at Mon Feb 21 20:23:35 2022, MaxMem= 16106127360 cpu:            2271.7 elap:              81.3
 (Enter /sw/contrib/gaussian/g16/B01/g16/l804.exe)
 Frozen-core window:  NFC=   4 NFV=   0.
 Closed-shell transformation, MDV= 16106127360 ITran=4 ISComp=1.
 Semi-Direct transformation.
 ModeAB=           2 MOrb=            16 LenV=   16104922925
 LASXX=     67341636 LTotXX=    67341636 LenRXX=    67341636
 LTotAB=    68301760 MaxLAS=    99807120 LenRXY=    99807120
 NonZer=   134683272 LenScr=   202817536 LnRSAI=           0
 LnScr1=           0 LExtra=           0 Total=    369966292
 MaxDsk=          -1 SrtSym=           F ITran=            4
 DoSDTr:  NPSUse= 28
 JobTyp=0 Pass  1:  I=   1 to  16.
 (rs|ai) integrals will be sorted in core.
 Complete sort for first half transformation.
 First half transformation complete.
 Begin second half transformation for I=  10.
 Begin second half transformation for I=  10.
 Complete sort for second half transformation.
 Second half transformation complete.
 Spin components of T(2) and E(2):
     alpha-alpha T2 =       0.3369842350D-01 E2=     -0.1221005277D+00
     alpha-beta  T2 =       0.1849443578D+00 E2=     -0.6982265151D+00
     beta-beta   T2 =       0.3369842350D-01 E2=     -0.1221005277D+00
 ANorm=    0.1582618845D+01
 E2 =    -0.9424275705D+00 EUMP2 =    -0.28044656793945D+03
 Leave Link  804 at Mon Feb 21 20:23:51 2022, MaxMem= 16106127360 cpu:             440.2 elap:              15.8
 (Enter /sw/contrib/gaussian/g16/B01/g16/l1002.exe)
 Minotr:  Closed shell wavefunction.
          Computing MP2/KS-MP2 derivatives.
          Using Z-Vector for PSCF gradient.
          Skipping F1 and S1 gradient terms here.
          IDoAtm=11111
          Frozen-core window.
          Using MO integrals in the linear equations.
          Forming densities via direct SCF.
          Differentiating once with respect to electric field.
                with respect to dipole field.
          Differentiating once with respect to nuclear coordinates.
          Using symmetry in CPHF.
          Requested convergence is 1.0D-10 RMS, and 1.0D-09 maximum.
          NewPWx=F KeepS1=T KeepF1=T KeepIn=T MapXYZ=F SortEE=F KeepMc=T.
          MDV=   16106127360 using IRadAn=       5.
          Solving linear equations separately, MaxMat=       0.
          There are     1 degrees of freedom in the 1st order CPHF.  IDoFFX=0 NUNeed=     1.
 FoFJK:  IHMeth= 1 ICntrl=       0 DoSepK=F KAlg= 0 I1Cent=           0 FoldK=F
 IRaf=         0 NMat=       1 IRICut=       1 DoRegI=T DoRafI=F ISym2E= 0 IDoP0=0 IntGTp=1.
 FoFCou: FMM=F IPFlag=           0 FMFlag=      100000 FMFlg1=           0
         NFxFlg=           0 DoJE=F BraDBF=F KetDBF=F FulRan=T
         wScrn=  0.000000 ICntrl=         0 IOpCl=  0 I1Cent=           0 NGrid=           0
         NMat0=    1 NMatS0=      1 NMatT0=    0 NMatD0=    1 NMtDS0=    0 NMtDT0=    0
 Symmetry not used in FoFCou.
 LinEq1:  Iter=  0 NonCon=     1 RMS=5.85D-03 Max=1.33D-01 NDo=     1
 LinEq1:  Iter=  1 NonCon=     1 RMS=1.82D-03 Max=3.60D-02 NDo=     1
 LinEq1:  Iter=  2 NonCon=     1 RMS=8.28D-04 Max=1.16D-02 NDo=     1
 LinEq1:  Iter=  3 NonCon=     1 RMS=3.67D-04 Max=7.77D-03 NDo=     1
 LinEq1:  Iter=  4 NonCon=     1 RMS=1.13D-04 Max=1.41D-03 NDo=     1
 LinEq1:  Iter=  5 NonCon=     1 RMS=4.36D-05 Max=6.96D-04 NDo=     1
 LinEq1:  Iter=  6 NonCon=     1 RMS=1.96D-05 Max=2.22D-04 NDo=     1
 LinEq1:  Iter=  7 NonCon=     1 RMS=7.72D-06 Max=1.41D-04 NDo=     1
 LinEq1:  Iter=  8 NonCon=     1 RMS=3.31D-06 Max=3.00D-05 NDo=     1
 LinEq1:  Iter=  9 NonCon=     1 RMS=8.91D-07 Max=1.13D-05 NDo=     1
 LinEq1:  Iter= 10 NonCon=     1 RMS=1.70D-07 Max=1.76D-06 NDo=     1
 LinEq1:  Iter= 11 NonCon=     1 RMS=3.09D-08 Max=3.07D-07 NDo=     1
 LinEq1:  Iter= 12 NonCon=     1 RMS=7.44D-09 Max=1.11D-07 NDo=     1
 LinEq1:  Iter= 13 NonCon=     1 RMS=1.37D-09 Max=2.21D-08 NDo=     1
 LinEq1:  Iter= 14 NonCon=     1 RMS=2.43D-10 Max=3.11D-09 NDo=     1
 LinEq1:  Iter= 15 NonCon=     0 RMS=4.42D-11 Max=4.52D-10 NDo=     1
 Linear equations converged to 1.000D-10 1.000D-09 after    15 iterations.
 End of Minotr F.D. properties file   721 does not exist.
 End of Minotr F.D. properties file   722 does not exist.
 End of Minotr F.D. properties file   788 does not exist.
 Leave Link 1002 at Mon Feb 21 20:23:53 2022, MaxMem= 16106127360 cpu:              63.5 elap:               2.3
 (Enter /sw/contrib/gaussian/g16/B01/g16/l1102.exe)
 Use density number 2.
 Symmetrizing basis deriv contribution to polar:
 IMax=3 JMax=2 DiffMx= 0.00D+00
 Leave Link 1102 at Mon Feb 21 20:23:53 2022, MaxMem= 16106127360 cpu:               3.3 elap:               0.2
 (Enter /sw/contrib/gaussian/g16/B01/g16/l1110.exe)
 Forming Gx(P) for generalized density number  2 NAtomX=     5.
 Integral derivatives from FoFJK, PRISM(SPDF).
 Do as many integral derivatives as possible in FoFJK.
 G2DrvN: MDV=   16106126844.
 G2DrvN: will do     6 centers at a time, making    1 passes.
 Calling FoFCou, ICntrl=  3107 FMM=F I1Cent=   0 AccDes= 0.00D+00.
 FoFJK:  IHMeth= 1 ICntrl=    3107 DoSepK=F KAlg= 0 I1Cent=           0 FoldK=F
 IRaf=         0 NMat=       1 IRICut=       1 DoRegI=T DoRafI=F ISym2E= 1 IDoP0=0 IntGTp=1.
 FoFCou: FMM=F IPFlag=           0 FMFlag=      100000 FMFlg1=           0
         NFxFlg=           0 DoJE=F BraDBF=F KetDBF=F FulRan=T
         wScrn=  0.000000 ICntrl=      3107 IOpCl=  0 I1Cent=           0 NGrid=           0
         NMat0=    1 NMatS0=      1 NMatT0=    0 NMatD0=    1 NMtDS0=    0 NMtDT0=    0
 Petite list used in FoFCou.
 End of G2Drv F.D. properties file   721 does not exist.
 End of G2Drv F.D. properties file   722 does not exist.
 End of G2Drv F.D. properties file   788 does not exist.
 Leave Link 1110 at Mon Feb 21 20:23:57 2022, MaxMem= 16106127360 cpu:              84.2 elap:               3.0
 (Enter /sw/contrib/gaussian/g16/B01/g16/l1112.exe)
 MP22nd: MDV=   16106127360
 This link is doing NAtomX=     5 total of    18 degrees of freedom.
 Using ON3 I/O method in MakUI.
 Frozen-core window:  NFC=   4 NFV=   0.
 Using Ix for Sx.
 Use MO integrals over full window.
 Using OV2 memory method for fx*t*t/D, MaxI=    16 DoOO2=F NP=  28.
 R2 and R3 integrals will be kept in memory, NReq=   915591705.
 FoFCou: FMM=F IPFlag=           0 FMFlag=           0 FMFlg1=           0
         NFxFlg=           0 DoJE=F BraDBF=F KetDBF=F FulRan=T
         wScrn=  0.000000 ICntrl=       600 IOpCl=  0 I1Cent=           0 NGrid=           0
         NMat0=    1 NMatS0=      1 NMatT0=    0 NMatD0=    1 NMtDS0=    0 NMtDT0=    0
 Symmetry not used in FoFCou.
 DD1Dir will call FoFMem   1 times, MxPair=       272
 NAB=   136 NAA=     0 NBB=     0.
 Symmetry is being used.
 FoFJK:  IHMeth= 1 ICntrl=       0 DoSepK=F KAlg= 0 I1Cent=           0 FoldK=F
 IRaf=         0 NMat=      18 IRICut=      45 DoRegI=T DoRafI=T ISym2E= 2 IDoP0=3 IntGTp=3.
 Discarding MO integrals.
 Leave Link 1112 at Mon Feb 21 20:24:33 2022, MaxMem= 16106127360 cpu:            1007.0 elap:              36.4
 (Enter /sw/contrib/gaussian/g16/B01/g16/l601.exe)
 Copying SCF densities to generalized density rwf, IOpCl= 0 IROHF=0.

 **********************************************************************

            Population analysis using the MP2 Density.

 **********************************************************************

 Orbital symmetries:
       Occupied  (A') (A') (A') (A') (A') (A') (A') (A') (A') (A')
                 (A") (A') (A") (A') (A") (A')
       Virtual   (A') (A") (A') (A') (A') (A") (A') (A') (A") (A')
                 (A") (A') (A') (A') (A") (A') (A') (A") (A') (A')
                 (A') (A') (A') (A') (A") (A') (A') (A") (A') (A')
                 (A") (A') (A") (A') (A') (A") (A') (A") (A') (A")
                 (A') (A') (A") (A') (A') (A") (A') (A') (A") (A')
                 (A") (A') (A') (A') (A") (A') (A") (A') (A") (A')
                 (A') (A') (A") (A') (A') (A") (A') (A") (A') (A')
                 (A") (A') (A') (A") (A") (A') (A') (A") (A') (A')
                 (A') (A") (A') (A") (A") (A') (A') (A") (A') (A')
                 (A") (A') (A') (A") (A') (A") (A') (A") (A') (A')
                 (A") (A') (A") (A') (A') (A') (A") (A') (A") (A')
                 (A") (A') (A') (A') (A") (A') (A') (A') (A") (A')
                 (A") (A') (A") (A') (A') (A") (A") (A') (A") (A')
                 (A') (A') (A') (A") (A") (A") (A') (A') (A') (A')
                 (A") (A') (A") (A') (A') (A") (A') (A') (A') (A')
                 (A") (A') (A') (A") (A') (A") (A') (A") (A') (A")
                 (A') (A") (A') (A") (A') (A") (A") (A') (A") (A')
                 (A") (A') (A") (A') (A") (A') (A") (A") (A') (A')
                 (A') (A') (A') (A') (A') (A') (A') (A') (A') (A')
                 (A')
 The electronic state is 1-A'.
 Alpha  occ. eigenvalues --  -20.69556 -20.67769 -20.66335 -15.80842  -1.62606
 Alpha  occ. eigenvalues --   -1.49943  -1.26277  -0.94612  -0.77506  -0.76259
 Alpha  occ. eigenvalues --   -0.71684  -0.67795  -0.61898  -0.59083  -0.48797
 Alpha  occ. eigenvalues --   -0.47346
 Alpha virt. eigenvalues --    0.02887   0.07525   0.08642   0.10201   0.13371
 Alpha virt. eigenvalues --    0.13407   0.14352   0.15399   0.17765   0.19420
 Alpha virt. eigenvalues --    0.19996   0.20963   0.21995   0.23418   0.23773
 Alpha virt. eigenvalues --    0.26613   0.30220   0.30329   0.31406   0.34548
 Alpha virt. eigenvalues --    0.35107   0.38893   0.42095   0.43075   0.52865
 Alpha virt. eigenvalues --    0.53039   0.56161   0.58313   0.62795   0.63995
 Alpha virt. eigenvalues --    0.67522   0.68434   0.70532   0.71052   0.72382
 Alpha virt. eigenvalues --    0.72755   0.74379   0.79105   0.79335   0.81082
 Alpha virt. eigenvalues --    0.81143   0.83203   0.87026   0.90839   0.92091
 Alpha virt. eigenvalues --    0.92835   0.95399   0.98139   0.98356   1.01423
 Alpha virt. eigenvalues --    1.05331   1.05618   1.08500   1.11977   1.14410
 Alpha virt. eigenvalues --    1.19093   1.22151   1.23343   1.34201   1.35563
 Alpha virt. eigenvalues --    1.38305   1.45769   1.48794   1.50764   1.53982
 Alpha virt. eigenvalues --    1.57012   1.58517   1.61468   1.66596   1.67021
 Alpha virt. eigenvalues --    1.70585   1.79333   1.83281   1.83949   1.87771
 Alpha virt. eigenvalues --    1.91352   1.95636   1.99773   2.00796   2.08674
 Alpha virt. eigenvalues --    2.12390   2.13589   2.14614   2.22984   2.26265
 Alpha virt. eigenvalues --    2.26445   2.29454   2.31514   2.35102   2.38590
 Alpha virt. eigenvalues --    2.42840   2.43508   2.45809   2.46627   2.48110
 Alpha virt. eigenvalues --    2.50556   2.58705   2.59891   2.62691   2.62766
 Alpha virt. eigenvalues --    2.63250   2.67104   2.76218   2.83676   2.86770
 Alpha virt. eigenvalues --    2.89240   2.89443   2.94634   2.95941   3.03591
 Alpha virt. eigenvalues --    3.07856   3.13077   3.20050   3.23376   3.32161
 Alpha virt. eigenvalues --    3.34991   3.52131   3.65387   3.85151   3.85194
 Alpha virt. eigenvalues --    4.14882   4.15758   4.18841   4.27007   4.35146
 Alpha virt. eigenvalues --    4.39446   4.46185   4.52259   4.67182   4.71405
 Alpha virt. eigenvalues --    4.81025   4.82518   4.84712   4.89845   5.03244
 Alpha virt. eigenvalues --    5.08580   5.11295   5.14379   5.18673   5.24993
 Alpha virt. eigenvalues --    5.28171   5.31430   5.33286   5.36683   5.61200
 Alpha virt. eigenvalues --    5.67866   5.78522   5.82729   5.96396   6.18058
 Alpha virt. eigenvalues --    6.30919   6.34910   6.40146   6.50014   6.51137
 Alpha virt. eigenvalues --    6.61485   6.66656   6.71026   6.75518   6.76290
 Alpha virt. eigenvalues --    6.84005   6.90786   7.02108   7.05466   7.06136
 Alpha virt. eigenvalues --    7.08982   7.13297   7.15759   7.18281   7.23718
 Alpha virt. eigenvalues --    7.23993   7.30263   7.33002   7.35468   7.40769
 Alpha virt. eigenvalues --    7.44421   7.49204   7.61309   7.62977   7.65070
 Alpha virt. eigenvalues --    7.68330   7.79988   7.89525   8.12640   8.32644
 Alpha virt. eigenvalues --    8.40896   8.55794  13.47132  14.55058  15.18633
 Alpha virt. eigenvalues --   16.20867
          Condensed to atoms (all electrons):
               1          2          3          4          5
     1  H    0.589069   0.128210   0.020268   0.012607  -0.000628
     2  O    0.128210   8.322071  -0.171296  -0.095520   0.016242
     3  O    0.020268  -0.171296   8.462250  -0.137802  -0.044487
     4  N    0.012607  -0.095520  -0.137802   6.996692  -0.059419
     5  O   -0.000628   0.016242  -0.044487  -0.059419   8.293567
 Mulliken charges:
               1
     1  H    0.250473
     2  O   -0.199707
     3  O   -0.128934
     4  N    0.283443
     5  O   -0.205275
 Sum of Mulliken charges =  -0.00000
 Mulliken charges with hydrogens summed into heavy atoms:
               1
     2  O    0.050766
     3  O   -0.128934
     4  N    0.283443
     5  O   -0.205275
 APT charges:
               1
     1  H    0.300111
     2  O   -0.282403
     3  O   -0.478898
     4  N    0.859188
     5  O   -0.397998
 Sum of APT charges =  -0.00000
 APT charges with hydrogens summed into heavy atoms:
               1
     2  O    0.017707
     3  O   -0.478898
     4  N    0.859188
     5  O   -0.397998
 Electronic spatial extent (au):  <R**2>=            250.0499
 Charge=             -0.0000 electrons
 Dipole moment (field-independent basis, Debye):
    X=              0.6347    Y=              1.5178    Z=             -0.0000  Tot=              1.6452
 Quadrupole moment (field-independent basis, Debye-Ang):
   XX=            -22.5169   YY=            -18.7319   ZZ=            -21.9705
   XY=              3.2037   XZ=              0.0000   YZ=             -0.0000
 Traceless Quadrupole moment (field-independent basis, Debye-Ang):
   XX=             -1.4438   YY=              2.3412   ZZ=             -0.8974
   XY=              3.2037   XZ=              0.0000   YZ=             -0.0000
 Octapole moment (field-independent basis, Debye-Ang**2):
  XXX=              3.4040  YYY=             11.3420  ZZZ=              0.0000  XYY=              7.9513
  XXY=              6.8012  XXZ=             -0.0000  XZZ=             -1.5313  YZZ=             -0.7489
  YYZ=             -0.0000  XYZ=             -0.0000
 Hexadecapole moment (field-independent basis, Debye-Ang**3):
 XXXX=           -158.6014 YYYY=            -87.0492 ZZZZ=            -18.1603 XXXY=            -35.7862
 XXXZ=              0.0000 YYYX=            -30.2841 YYYZ=              0.0000 ZZZX=              0.0000
 ZZZY=              0.0000 XXYY=            -33.6339 XXZZ=            -30.8887 YYZZ=            -20.0900
 XXYZ=              0.0000 YYXZ=              0.0000 ZZXY=            -14.7606
 N-N= 1.176345946720D+02 E-N=-8.973647060664D+02  KE= 2.802335078443D+02
 Symmetry A'   KE= 2.662520928966D+02
 Symmetry A"   KE= 1.398141494765D+01
  Exact polarizability:  34.027   9.316  29.687  -0.000  -0.000  17.836
 Approx polarizability:  28.884   4.929  22.924  -0.000  -0.000  15.479
 No NMR shielding tensors so no spin-rotation constants.
 Leave Link  601 at Mon Feb 21 20:24:33 2022, MaxMem= 16106127360 cpu:               9.3 elap:               0.4
 (Enter /sw/contrib/gaussian/g16/B01/g16/l701.exe)
 ... and contract with generalized density number  2.
 Compute integral second derivatives.
 Leave Link  701 at Mon Feb 21 20:24:34 2022, MaxMem= 16106127360 cpu:               5.8 elap:               0.2
 (Enter /sw/contrib/gaussian/g16/B01/g16/l702.exe)
 L702 exits ... SP integral derivatives will be done elsewhere.
 Leave Link  702 at Mon Feb 21 20:24:34 2022, MaxMem= 16106127360 cpu:               0.5 elap:               0.0
 (Enter /sw/contrib/gaussian/g16/B01/g16/l703.exe)
 Integral derivatives from FoFJK, PRISM(SPDF).
 Compute integral second derivatives, UseDBF=F ICtDFT=           0.
 Calling FoFJK, ICntrl=  10100127 FMM=F ISym2X=1 I1Cent= 0 IOpClX= 0 NMat=1 NMatS=1 NMatT=0.
 FoFJK:  IHMeth= 1 ICntrl=10100127 DoSepK=F KAlg= 0 I1Cent=           0 FoldK=F
 IRaf=         0 NMat=       1 IRICut=       1 DoRegI=T DoRafI=F ISym2E= 1 IDoP0=0 IntGTp=1.
 FoFCou: FMM=F IPFlag=           0 FMFlag=      100000 FMFlg1=         800
         NFxFlg=           0 DoJE=F BraDBF=F KetDBF=F FulRan=T
         wScrn=  0.000000 ICntrl=  10100127 IOpCl=  0 I1Cent=           0 NGrid=           0
         NMat0=    1 NMatS0=      1 NMatT0=    0 NMatD0=    1 NMtDS0=    0 NMtDT0=    0
 Petite list used in FoFCou.
 Leave Link  703 at Mon Feb 21 20:24:49 2022, MaxMem= 16106127360 cpu:             421.4 elap:              15.1
 (Enter /sw/contrib/gaussian/g16/B01/g16/l716.exe)
 Dipole        = 2.49701977D-01 5.97162198D-01-8.54836958D-32
 Polarizability= 3.40272723D+01 9.31562471D+00 2.96873366D+01
                -8.20765498D-30-5.98936342D-30 1.78359555D+01
 Full mass-weighted force constant matrix:
 Low frequencies --- -261.9132  -89.5901  -51.0716  -47.1540    0.0014    0.0014
 Low frequencies ---    0.0015  218.8743  350.3585
 ******    1 imaginary frequencies (negative Signs) ****** 
 Diagonal vibrational polarizability:
       11.3357875      19.0002881      49.2219207
 Harmonic frequencies (cm**-1), IR intensities (KM/Mole), Raman scattering
 activities (A**4/AMU), depolarization ratios for plane and unpolarized
 incident light, reduced masses (AMU), force constants (mDyne/A),
 and normal coordinates:
                      1                      2                      3
                     A"                     A"                     A'
 Frequencies --   -261.7909               217.0298               350.2674
 Red. masses --      1.1460                10.1109                 8.6670
 Frc consts  --      0.0463                 0.2806                 0.6265
 IR Inten    --    123.9973                 0.9317                 2.3813
  Atom  AN      X      Y      Z        X      Y      Z        X      Y      Z
     1   1     0.00  -0.00   1.00     0.00   0.00  -0.60     0.53  -0.45  -0.00
     2   8     0.00  -0.00  -0.07     0.00   0.00  -0.30    -0.10  -0.38   0.00
     3   8    -0.00   0.00  -0.04     0.00   0.00   0.32    -0.15   0.41   0.00
     4   7     0.00   0.00   0.06    -0.00  -0.00   0.51     0.05   0.28  -0.00
     5   8     0.00  -0.00  -0.01    -0.00  -0.00  -0.43     0.17  -0.25   0.00
                      4                      5                      6
                     A'                     A'                     A'
 Frequencies --    507.7695               807.3226               971.4711
 Red. masses --     12.2883                12.5051                15.2264
 Frc consts  --      1.8667                 4.8021                 8.4666
 IR Inten    --    166.4627               195.9633                26.1429
  Atom  AN      X      Y      Z        X      Y      Z        X      Y      Z
     1   1     0.43   0.18   0.00    -0.38   0.18   0.00    -0.20  -0.03  -0.00
     2   8     0.35   0.19   0.00     0.40   0.07   0.00    -0.50   0.03   0.00
     3   8     0.16   0.43  -0.00    -0.09  -0.30  -0.00     0.75  -0.03  -0.00
     4   7    -0.36  -0.34  -0.00    -0.11   0.63  -0.00    -0.13   0.26  -0.00
     5   8    -0.23  -0.33   0.00    -0.20  -0.33   0.00    -0.12  -0.23   0.00
                      7                      8                      9
                     A'                     A'                     A'
 Frequencies --   1376.6076              1690.5349              3779.2830
 Red. masses --      1.1379                13.1160                 1.0675
 Frc consts  --      1.2705                22.0851                 8.9836
 IR Inten    --    158.0269               127.8381                82.0069
  Atom  AN      X      Y      Z        X      Y      Z        X      Y      Z
     1   1     0.99  -0.06   0.00    -0.36   0.01  -0.00     0.11   0.99  -0.00
     2   8    -0.03   0.05   0.00    -0.00  -0.04  -0.00    -0.01  -0.06   0.00
     3   8    -0.02  -0.05  -0.00     0.00   0.15   0.00     0.00   0.00   0.00
     4   7     0.02   0.01  -0.00     0.70  -0.05   0.00    -0.00  -0.00  -0.00
     5   8    -0.03  -0.01   0.00    -0.59  -0.06  -0.00     0.00   0.00  -0.00

 -------------------
 - Thermochemistry -
 -------------------
 Temperature   298.150 Kelvin.  Pressure   1.00000 Atm.
 Atom     1 has atomic number  1 and mass   1.00783
 Atom     2 has atomic number  8 and mass  15.99491
 Atom     3 has atomic number  8 and mass  15.99491
 Atom     4 has atomic number  7 and mass  14.00307
 Atom     5 has atomic number  8 and mass  15.99491
 Molecular mass:    62.99564 amu.
 Principal axes and moments of inertia in atomic units:
                           1         2         3
     Eigenvalues --    32.13377 355.15890 387.29267
           X            0.81716  -0.57641   0.00000
           Y            0.57641   0.81716   0.00000
           Z           -0.00000   0.00000   1.00000
 This molecule is an asymmetric top.
 Rotational symmetry number  1.
 Rotational temperatures (Kelvin)      2.69542     0.24387     0.22364
 Rotational constants (GHZ):          56.16339     5.08150     4.65989
    1 imaginary frequencies ignored.
 Zero-point vibrational energy      58020.6 (Joules/Mol)
                                   13.86726 (Kcal/Mol)
 Warning -- explicit consideration of   3 degrees of freedom as
           vibrations may cause significant error
 Vibrational temperatures:    312.26   503.96   730.57  1161.56  1397.73
          (Kelvin)           1980.63  2432.30  5437.55
 
 Zero-point correction=                           0.022099 (Hartree/Particle)
 Thermal correction to Energy=                    0.026173
 Thermal correction to Enthalpy=                  0.027117
 Thermal correction to Gibbs Free Energy=        -0.003988
 Sum of electronic and zero-point Energies=           -280.424469
 Sum of electronic and thermal Energies=              -280.420395
 Sum of electronic and thermal Enthalpies=            -280.419451
 Sum of electronic and thermal Free Energies=         -280.450556
 
                     E (Thermal)             CV                S
                      KCal/Mol        Cal/Mol-Kelvin    Cal/Mol-Kelvin
 Total                   16.424             11.785             65.466
 Electronic               0.000              0.000              0.000
 Translational            0.889              2.981             38.341
 Rotational               0.889              2.981             23.007
 Vibrational             14.646              5.823              4.119
 Vibration     1          0.646              1.815              1.984
 Vibration     2          0.727              1.575              1.165
 Vibration     3          0.863              1.233              0.639
                       Q            Log10(Q)             Ln(Q)
 Total Bot       0.682724D+02          1.834245          4.223506
 Total V=0       0.997733D+12         11.999014         27.628752
 Vib (Bot)       0.145972D-09         -9.835732        -22.647609
 Vib (Bot)    1  0.912539D+00         -0.039748         -0.091524
 Vib (Bot)    2  0.526647D+00         -0.278480         -0.641225
 Vib (Bot)    3  0.321437D+00         -0.492904         -1.134952
 Vib (V=0)       0.213323D+01          0.329037          0.757636
 Vib (V=0)    1  0.154054D+01          0.187674          0.432134
 Vib (V=0)    2  0.122619D+01          0.088559          0.203915
 Vib (V=0)    3  0.109441D+01          0.039180          0.090214
 Electronic      0.100000D+01          0.000000          0.000000
 Translational   0.196526D+08          7.293420         16.793719
 Rotational      0.237989D+05          4.376557         10.077396
 
                                                                title
                                                             IR Spectrum
 
     3                                                                      1         1                                              
     7                                                                      6         3             9    8         5     3   2       
     7                                                                      9         7             7    0         0     5   1       
     9                                                                      1         7             1    7         8     0   7       
 
     X                                                                      X         X             X    X         X     X   X       
     X                                                                      X         X             X    X         X                 
     X                                                                      X         X             X    X         X                 
     X                                                                      X         X                  X         X                 
     X                                                                      X         X                  X         X                 
     X                                                                      X         X                  X         X                 
     X                                                                      X         X                  X         X                 
     X                                                                      X         X                  X         X                 
                                                                            X         X                  X         X                 
                                                                            X         X                  X         X                 
                                                                            X         X                  X         X                 
                                                                            X         X                  X         X                 
                                                                            X         X                  X         X                 
                                                                                      X                  X         X                 
                                                                                      X                  X         X                 
                                                                                      X                  X         X                 
                                                                                                         X         X                 
                                                                                                         X                           
                                                                                                         X                           
                                                                                                         X                           
 
 ***** Axes restored to original set *****
 -------------------------------------------------------------------
 Center     Atomic                   Forces (Hartrees/Bohr)
 Number     Number              X              Y              Z
 -------------------------------------------------------------------
      1        1          -0.000010899   -0.000000000   -0.000188831
      2        8           0.000179540   -0.000000000   -0.000613816
      3        8          -0.002209122   -0.000000000   -0.005782545
      4        7          -0.005997020    0.000000000    0.003681386
      5        8           0.008037501   -0.000000000    0.002903806
 -------------------------------------------------------------------
 Cartesian Forces:  Max     0.008037501 RMS     0.003279362
 -----------------------------------------------------------------------------------------------
                       Internal Coordinate Forces (Hartree/Bohr or radian)
  Cent   Atom   N1       Length/X         N2         Alpha/Y        N3         Beta/Z          J
 -----------------------------------------------------------------------------------------------
      1  H 
      2  O        1   0.000189(     1)
      3  O        2  -0.000061(     2)      1   0.000020(     5)
      4  N        3   0.006730(     3)      2   0.002229(     6)      1  -0.000000(     8)     0
      5  O        4   0.008507(     4)      3   0.001811(     7)      2  -0.000000(     9)     0
 -----------------------------------------------------------------------------------------------
 Internal  Forces:  Max     0.008506665 RMS     0.003740881
 Force constants in Cartesian coordinates: 
                1             2             3             4             5 
      1  0.650931D-01
      2  0.000000D+00 -0.220999D-02
      3  0.544318D-02  0.000000D+00  0.512537D+00
      4 -0.364941D-01  0.000000D+00 -0.166378D-01  0.274290D+00
      5  0.000000D+00  0.289015D-02  0.000000D+00  0.000000D+00  0.263166D-02
      6  0.487926D-01  0.000000D+00 -0.508422D+00  0.344341D-01  0.000000D+00
      7 -0.175307D-01  0.000000D+00  0.128987D-01 -0.219215D+00  0.000000D+00
      8  0.000000D+00  0.869237D-03  0.000000D+00  0.000000D+00 -0.707721D-02
      9 -0.533676D-01  0.000000D+00 -0.379877D-03 -0.188369D-01  0.000000D+00
     10 -0.996994D-02  0.000000D+00 -0.500004D-02 -0.193187D-01  0.000000D+00
     11  0.000000D+00 -0.257981D-02  0.000000D+00  0.000000D+00 -0.522154D-02
     12  0.482884D-02  0.000000D+00 -0.530681D-02  0.111234D-01  0.000000D+00
     13 -0.109836D-02  0.000000D+00  0.329588D-02  0.738168D-03  0.000000D+00
     14  0.000000D+00  0.103041D-02  0.000000D+00  0.000000D+00  0.677695D-02
     15 -0.569705D-02  0.000000D+00  0.157208D-02 -0.100828D-01  0.000000D+00
                6             7             8             9            10 
      6  0.597693D+00
      7 -0.186785D-01  0.345460D+00
      8  0.000000D+00  0.000000D+00  0.284050D-02
      9 -0.797592D-01  0.388750D-01  0.000000D+00  0.206902D+00
     10 -0.566421D-01 -0.816015D-01  0.000000D+00  0.175911D+00  0.843983D+00
     11  0.000000D+00  0.000000D+00  0.105793D-01  0.000000D+00  0.000000D+00
     12  0.150756D-01  0.620827D-01  0.000000D+00 -0.102238D+00 -0.145975D-01
     13 -0.790609D-02 -0.271130D-01  0.000000D+00 -0.142582D+00 -0.733093D+00
     14  0.000000D+00  0.000000D+00 -0.721186D-02  0.000000D+00  0.000000D+00
     15 -0.245874D-01 -0.951779D-01  0.000000D+00 -0.245244D-01 -0.996717D-01
               11            12            13            14            15 
     11  0.405648D-02
     12  0.000000D+00  0.208039D+00
     13  0.000000D+00 -0.634374D-01  0.760566D+00
     14 -0.683445D-02  0.000000D+00  0.000000D+00  0.623895D-02
     15  0.000000D+00 -0.115569D+00  0.210629D+00  0.000000D+00  0.163109D+00
 Force constants in internal coordinates: 
                1             2             3             4             5 
      1  0.512537D+00
      2 -0.105525D-01  0.282246D+00
      3  0.386187D-02  0.470186D-02  0.145378D+00
      4 -0.358289D-02  0.557205D-02  0.158304D+00  0.825040D+00
      5  0.995612D-02  0.650340D-01  0.324611D-02  0.453682D-02  0.218599D+00
      6  0.532528D-02  0.629568D-01  0.467146D-01  0.216483D-01  0.330221D-01
      7 -0.155994D-02  0.395110D-01  0.392720D-01  0.900676D-01  0.212544D-01
      8  0.000000D+00  0.000000D+00  0.000000D+00  0.000000D+00  0.000000D+00
      9  0.000000D+00  0.000000D+00  0.000000D+00  0.000000D+00  0.000000D+00
                6             7             8             9 
      6  0.301284D+00
      7  0.940575D-01  0.501593D+00
      8  0.000000D+00  0.000000D+00 -0.694276D-02
      9  0.000000D+00  0.000000D+00 -0.391012D-02  0.435287D-01
 Leave Link  716 at Mon Feb 21 20:24:49 2022, MaxMem= 16106127360 cpu:               1.1 elap:               0.1
 (Enter /sw/contrib/gaussian/g16/B01/g16/l103.exe)

 GradGradGradGradGradGradGradGradGradGradGradGradGradGradGradGradGradGrad
 Berny optimization.
 Search for a local minimum.
 Step number   1 out of a maximum of    2
 All quantities printed in internal units (Hartrees-Bohrs-Radians)
 Second derivative matrix not updated -- analytic derivatives used.
 The second derivative matrix:
                          r1        r2        r3        r4        a1
           r1           0.51254
           r2          -0.01055   0.28225
           r3           0.00386   0.00470   0.14538
           r4          -0.00358   0.00557   0.15830   0.82504
           a1           0.00996   0.06503   0.00325   0.00454   0.21860
           a2           0.00533   0.06296   0.04671   0.02165   0.03302
           a3          -0.00156   0.03951   0.03927   0.09007   0.02125
           d1          -0.00000   0.00000  -0.00000  -0.00000   0.00000
           d2           0.00000   0.00000  -0.00000  -0.00000   0.00000
                          a2        a3        d1        d2
           a2           0.30128
           a3           0.09406   0.50159
           d1           0.00000   0.00000  -0.00694
           d2           0.00000   0.00000  -0.00391   0.04353
 ITU=  0
     Eigenvalues ---   -0.00724   0.04383   0.10128   0.17713   0.23770
     Eigenvalues ---    0.33425   0.51330   0.53229   0.89073
 Eigenvalue     1 is  -7.24D-03 should be greater than     0.000000 Eigenvector:
                          d1        d2        r3        a2        a3
   1                    0.99705   0.07678   0.00000  -0.00000  -0.00000
                          a1        r4        r2        r1
   1                    0.00000  -0.00000  -0.00000  -0.00000
 Angle between quadratic step and forces=  50.70 degrees.
 Linear search not attempted -- first point.
 Variable       Old X    -DE/DX   Delta X   Delta X   Delta X     New X
                                 (Linear)    (Quad)   (Total)
    r1        1.83110   0.00019   0.00000   0.00003   0.00003   1.83113
    r2        2.74940  -0.00006   0.00000  -0.00103  -0.00103   2.74837
    r3        2.70454   0.00673   0.00000   0.04413   0.04413   2.74867
    r4        2.21236   0.00851   0.00000   0.00186   0.00186   2.21421
    a1        1.70335   0.00002   0.00000  -0.00039  -0.00039   1.70297
    a2        1.78543   0.00223   0.00000   0.00075   0.00075   1.78618
    a3        1.90362   0.00181   0.00000  -0.00022  -0.00022   1.90340
    d1        3.14159  -0.00000   0.00000  -0.00000   0.00000   3.14159
    d2        3.14159  -0.00000   0.00000  -0.00000   0.00000   3.14159
         Item               Value     Threshold  Converged?
 Maximum Force            0.008507     0.000450     NO 
 RMS     Force            0.003741     0.000300     NO 
 Maximum Displacement     0.044135     0.001800     NO 
 RMS     Displacement     0.014732     0.001200     NO 
 Predicted change in Energy=-1.570786D-04
                       ----------------------------
                       ! Non-Optimized Parameters !
                       ! (Angstroms and Degrees)  !
 ----------------------                            ----------------------
 !      Name          Value   Derivative information (Atomic Units)     !
 ------------------------------------------------------------------------
 !       r1          0.969    -DE/DX =    0.0002                        !
 !       r2          1.4544   -DE/DX =   -0.0001                        !
 !       r3          1.4545   -DE/DX =    0.0067                        !
 !       r4          1.1717   -DE/DX =    0.0085                        !
 !       a1         97.5727   -DE/DX =    0.0                           !
 !       a2        102.3404   -DE/DX =    0.0022                        !
 !       a3        109.0569   -DE/DX =    0.0018                        !
 !       d1        180.0      -DE/DX =    0.0                           !
 !       d2        180.0      -DE/DX =    0.0                           !
 ------------------------------------------------------------------------
 GradGradGradGradGradGradGradGradGradGradGradGradGradGradGradGradGradGrad

 Leave Link  103 at Mon Feb 21 20:24:49 2022, MaxMem= 16106127360 cpu:               2.4 elap:               0.1
 (Enter /sw/contrib/gaussian/g16/B01/g16/l9999.exe)

 ----------------------------------------------------------------------

 Electric dipole moment (input orientation):
 (Debye = 10**-18 statcoulomb cm , SI units = C m)
                  (au)            (Debye)         (10**-30 SI)
   Tot        0.647266D+00      0.164519D+01      0.548775D+01
   x         -0.187745D+00     -0.477200D+00     -0.159177D+01
   y          0.000000D+00      0.000000D+00      0.000000D+00
   z         -0.619440D+00     -0.157446D+01     -0.525183D+01

 Dipole polarizability, Alpha (input orientation).
 (esu units = cm**3 , SI units = C**2 m**2 J**-1)
 Alpha(0;0):
               (au)            (10**-24 esu)      (10**-40 SI)
   iso        0.271835D+02      0.402818D+01      0.448196D+01
   aniso      0.217041D+02      0.321621D+01      0.357852D+01
   xx         0.320995D+02      0.475666D+01      0.529250D+01
   yx         0.000000D+00      0.000000D+00      0.000000D+00
   yy         0.178360D+02      0.264302D+01      0.294075D+01
   zx         0.956195D+01      0.141694D+01      0.157655D+01
   zy         0.000000D+00      0.000000D+00      0.000000D+00
   zz         0.316151D+02      0.468487D+01      0.521262D+01

 ----------------------------------------------------------------------

 Dipole orientation:
     1          0.00000000          0.00000000         -0.00000000
     8         -0.53112541          0.00000000         -1.75237760
     8          1.97158813          0.00000000         -2.89063062
     7          1.40194980          0.00000000         -5.53449829
     8          3.29375199          0.00000000         -6.68149763

 Electric dipole moment (dipole orientation):
 (Debye = 10**-18 statcoulomb cm , SI units = C m)
                  (au)            (Debye)         (10**-30 SI)
   Tot        0.647266D+00      0.164519D+01      0.548775D+01
   x          0.000000D+00      0.000000D+00      0.000000D+00
   y          0.000000D+00      0.000000D+00      0.000000D+00
   z          0.647266D+00      0.164519D+01      0.548775D+01

 Dipole polarizability, Alpha (dipole orientation).
 (esu units = cm**3 , SI units = C**2 m**2 J**-1)
 Alpha(0;0):
               (au)            (10**-24 esu)      (10**-40 SI)
   iso        0.271835D+02      0.402818D+01      0.448196D+01
   aniso      0.217041D+02      0.321621D+01      0.357852D+01
   xx         0.267502D+02      0.396397D+01      0.441051D+01
   yx         0.000000D+00      0.000000D+00      0.000000D+00
   yy         0.178360D+02      0.264302D+01      0.294075D+01
   zx        -0.808747D+01     -0.119844D+01     -0.133344D+01
   zy         0.000000D+00      0.000000D+00      0.000000D+00
   zz         0.369644D+02      0.547756D+01      0.609461D+01

 ----------------------------------------------------------------------
 1\1\GINC-N2127\Freq\RMP2-FC\Aug-CC-pVTZ\H1N1O3\CGAVINH\21-Feb-2022\1\\
 #p freq mp2/aug-cc-pvtz density=current\\title\\0,1\H\O,1,r1\O,2,r2,1,
 a1\N,3,r3,2,a2,1,d1,0\O,4,r4,3,a3,2,d2,0\\r1=0.96897556\r2=1.45491931\
 r3=1.43117971\r4=1.17072885\a1=97.59494903\a2=102.29752444\a3=109.0695
 5123\d1=180.\d2=180.\\Version=ES64L-G16RevB.01\State=1-A'\HF=-279.5041
 404\MP2=-280.4465679\RMSD=3.446e-09\RMSF=3.279e-03\ZeroPoint=0.0220989
 \Thermal=0.0261732\Dipole=-0.187745,0.,-0.6194397\DipoleDeriv=0.268713
 3,0.,0.050858,0.,0.3563585,0.,0.0820448,0.,0.2752606,-0.3235046,0.,-0.
 2088227,0.,-0.3112833,0.,-0.109229,0.,-0.2124222,-0.0273169,0.,0.16095
 78,0.,-0.0701227,0.,-0.7622129,0.,-1.339254,0.8607796,0.,0.8647451,0.,
 0.0579223,0.,0.9330832,0.,1.6588634,-0.7786714,0.,-0.8677382,0.,-0.032
 8748,0.,-0.1436861,0.,-0.3824478\Polar=32.099545,0.,17.8359555,9.56195
 29,0.,31.6150639\Quadrupole=-1.5258087,-0.6671837,2.1929925,0.,2.04828
 18,0.\PG=CS [SG(H1N1O3)]\NImag=1\\0.06509311,0.,-0.00220999,0.00544318
 ,0.,0.51253705,-0.03649413,0.,-0.01663775,0.27428953,0.,0.00289015,0.,
 0.,0.00263166,0.04879264,0.,-0.50842244,0.03443409,0.,0.59769349,-0.01
 753069,0.,0.01289873,-0.21921482,0.,-0.01867850,0.34545999,0.,0.000869
 24,0.,0.,-0.00707721,0.,0.,0.00284050,-0.05336761,0.,-0.00037988,-0.01
 883693,0.,-0.07975924,0.03887498,0.,0.20690166,-0.00996994,0.,-0.00500
 004,-0.01931874,0.,-0.05664215,-0.08160149,0.,0.17591143,0.84398297,0.
 ,-0.00257981,0.,0.,-0.00522154,0.,0.,0.01057932,0.,0.,0.00405648,0.004
 82884,0.,-0.00530681,0.01112336,0.,0.01507561,0.06208269,0.,-0.1022381
 6,-0.01459752,0.,0.20803876,-0.00109836,0.,0.00329588,0.00073817,0.,-0
 .00790609,-0.02711299,0.,-0.14258187,-0.73309280,0.,-0.06343736,0.7605
 6598,0.,0.00103041,0.,0.,0.00677695,0.,0.,-0.00721186,0.,0.,-0.0068344
 5,0.,0.,0.00623895,-0.00569705,0.,0.00157208,-0.01008276,0.,-0.0245874
 2,-0.09517790,0.,-0.02452438,-0.09967172,0.,-0.11556940,0.21062943,0.,
 0.16310913\\0.00001090,0.,0.00018883,-0.00017954,0.,0.00061382,0.00220
 912,0.,0.00578254,0.00599702,0.,-0.00368139,-0.00803750,0.,-0.00290381
 \\\@


 COLLEGE PROFESSOR: SOMEONE WHO TALKS IN OTHER PEOPLE'S SLEEP.
 Job cpu time:       0 days  2 hours  1 minutes  5.4 seconds.
 Elapsed time:       0 days  0 hours  4 minutes 22.8 seconds.
 File lengths (MBytes):  RWF=   7239 Int=      0 D2E=      0 Chk=      8 Scr=      1
 Normal termination of Gaussian 16 at Mon Feb 21 20:24:50 2022.
