title                                                                   
Freq      RMP2-FC                                                     Aug-CC-pVTZ         
Number of atoms                            I                5
Info1-9                                    I   N=           9
          33          24           0           0           0         100
           6           2           1
Full Title                                 C   N=           1
title       
Route                                      C   N=           4
#p freq mp2/aug-cc-pvtz density=current         
Charge                                     I                0
Multiplicity                               I                1
Number of electrons                        I               32
Number of alpha electrons                  I               16
Number of beta electrons                   I               16
Number of basis functions                  I              207
Number of independent functions            I              207
Number of point charges in /Mol/           I                0
Number of translation vectors              I                0
Atomic numbers                             I   N=           5
           1           8           8           7           8
Nuclear charges                            R   N=           5
  1.00000000E+00  8.00000000E+00  8.00000000E+00  7.00000000E+00  8.00000000E+00
Current cartesian coordinates              R   N=          15
  1.02368180E+00 -2.15031223E+00  1.04406526E-01  2.41269377E+00 -9.15602874E-01
 -1.18909108E-02  1.02583242E+00  1.39644501E+00  3.25317492E-03 -1.55981763E+00
  1.04138094E+00  4.05269411E-03 -2.20164598E+00 -1.12326144E+00 -7.95918715E-03
Number of symbols in /Mol/                 I                0
Force Field                                I                0
Atom Types                                 C   N=           5
                                                            
Int Atom Types                             I   N=           5
           0           0           0           0           0
MM charges                                 R   N=           5
  0.00000000E+00  0.00000000E+00  0.00000000E+00  0.00000000E+00  0.00000000E+00
Integer atomic weights                     I   N=           5
           1          16          16          14          16
Real atomic weights                        R   N=           5
  1.00782504E+00  1.59949146E+01  1.59949146E+01  1.40030740E+01  1.59949146E+01
Atom fragment info                         I   N=           5
           0           0           0           0           0
Atom residue num                           I   N=           5
           0           0           0           0           0
Nuclear spins                              I   N=           5
           1           0           0           2           0
Nuclear ZEff                               R   N=           5
 -1.00000000E+00 -5.60000000E+00 -5.60000000E+00 -4.55000000E+00 -5.60000000E+00
Nuclear ZNuc                               R   N=           5
  1.00000000E+00  8.00000000E+00  8.00000000E+00  7.00000000E+00  8.00000000E+00
Nuclear QMom                               R   N=           5
  0.00000000E+00  0.00000000E+00  0.00000000E+00  2.04400000E+00  0.00000000E+00
Nuclear GFac                               R   N=           5
  2.79284600E+00  0.00000000E+00  0.00000000E+00  4.03761000E-01  0.00000000E+00
MicOpt                                     I   N=           5
          -1          -1          -1          -1          -1
Number of residues                         I                0
Number of secondary structures             I                0
SymInf integers                            I   N=          26
           1           1           1           1           1           0
           0           0           0           0           0           0
           0           0           0           0           0           0
           0           0           0           0           0           0
           0           0
RotTr to input orientation                 R   N=          12
 -6.63456160E-01  5.82835612E-02  7.45941654E-01  7.48011800E-01  2.84245870E-02
  6.63076459E-01  1.74433739E-02  9.97895320E-01 -6.24552589E-02  2.28580571E+00
 -1.02728867E-01  6.68735260E-01
Number of contracted shells                I               65
Number of primitive shells                 I              119
Pure/Cartesian d shells                    I                0
Pure/Cartesian f shells                    I                0
Highest angular momentum                   I                3
Largest degree of contraction              I                7
Shell types                                I   N=          65
           0           0           0           0           1           1
           1          -2          -2           0           0           0
           0           0           1           1           1           1
          -2          -2          -2          -3          -3           0
           0           0           0           0           1           1
           1           1          -2          -2          -2          -3
          -3           0           0           0           0           0
           1           1           1           1          -2          -2
          -2          -3          -3           0           0           0
           0           0           1           1           1           1
          -2          -2          -2          -3          -3
Number of primitives per shell             I   N=          65
           3           1           1           1           1           1
           1           1           1           7           6           1
           1           1           3           1           1           1
           1           1           1           1           1           7
           6           1           1           1           3           1
           1           1           1           1           1           1
           1           7           6           1           1           1
           3           1           1           1           1           1
           1           1           1           7           6           1
           1           1           3           1           1           1
           1           1           1           1           1
Shell to atom map                          I   N=          65
           1           1           1           1           1           1
           1           1           1           2           2           2
           2           2           2           2           2           2
           2           2           2           2           2           3
           3           3           3           3           3           3
           3           3           3           3           3           3
           3           4           4           4           4           4
           4           4           4           4           4           4
           4           4           4           5           5           5
           5           5           5           5           5           5
           5           5           5           5           5
Primitive exponents                        R   N=         119
  3.38700000E+01  5.09500000E+00  1.15900000E+00  3.25800000E-01  1.02700000E-01
  2.52600000E-02  1.40700000E+00  3.88000000E-01  1.02000000E-01  1.05700000E+00
  2.47000000E-01  1.53300000E+04  2.29900000E+03  5.22400000E+02  1.47300000E+02
  4.75500000E+01  1.67600000E+01  6.20700000E+00  5.22400000E+02  1.47300000E+02
  4.75500000E+01  1.67600000E+01  6.20700000E+00  6.88200000E-01  1.75200000E+00
  2.38400000E-01  7.37600000E-02  3.44600000E+01  7.74900000E+00  2.28000000E+00
  7.15600000E-01  2.14000000E-01  5.97400000E-02  2.31400000E+00  6.45000000E-01
  2.14000000E-01  1.42800000E+00  5.00000000E-01  1.53300000E+04  2.29900000E+03
  5.22400000E+02  1.47300000E+02  4.75500000E+01  1.67600000E+01  6.20700000E+00
  5.22400000E+02  1.47300000E+02  4.75500000E+01  1.67600000E+01  6.20700000E+00
  6.88200000E-01  1.75200000E+00  2.38400000E-01  7.37600000E-02  3.44600000E+01
  7.74900000E+00  2.28000000E+00  7.15600000E-01  2.14000000E-01  5.97400000E-02
  2.31400000E+00  6.45000000E-01  2.14000000E-01  1.42800000E+00  5.00000000E-01
  1.14200000E+04  1.71200000E+03  3.89300000E+02  1.10000000E+02  3.55700000E+01
  1.25400000E+01  4.64400000E+00  3.89300000E+02  1.10000000E+02  3.55700000E+01
  1.25400000E+01  4.64400000E+00  5.11800000E-01  1.29300000E+00  1.78700000E-01
  5.76000000E-02  2.66300000E+01  5.94800000E+00  1.74200000E+00  5.55000000E-01
  1.72500000E-01  4.91000000E-02  1.65400000E+00  4.69000000E-01  1.51000000E-01
  1.09300000E+00  3.64000000E-01  1.53300000E+04  2.29900000E+03  5.22400000E+02
  1.47300000E+02  4.75500000E+01  1.67600000E+01  6.20700000E+00  5.22400000E+02
  1.47300000E+02  4.75500000E+01  1.67600000E+01  6.20700000E+00  6.88200000E-01
  1.75200000E+00  2.38400000E-01  7.37600000E-02  3.44600000E+01  7.74900000E+00
  2.28000000E+00  7.15600000E-01  2.14000000E-01  5.97400000E-02  2.31400000E+00
  6.45000000E-01  2.14000000E-01  1.42800000E+00  5.00000000E-01
Contraction coefficients                   R   N=         119
  2.54948632E-02  1.90362766E-01  8.52162022E-01  1.00000000E+00  1.00000000E+00
  1.00000000E+00  1.00000000E+00  1.00000000E+00  1.00000000E+00  1.00000000E+00
  1.00000000E+00  5.19808943E-04  4.02025621E-03  2.07128267E-02  8.10105536E-02
  2.35962985E-01  4.42653446E-01  3.57064423E-01 -4.42115008E-05 -1.22591041E-03
 -1.05517725E-02 -6.74452633E-02 -1.71198607E-01  1.07329856E+00  1.00000000E+00
  1.00000000E+00  1.00000000E+00  4.11634896E-02  2.57762836E-01  8.02419274E-01
  1.00000000E+00  1.00000000E+00  1.00000000E+00  1.00000000E+00  1.00000000E+00
  1.00000000E+00  1.00000000E+00  1.00000000E+00  5.19808943E-04  4.02025621E-03
  2.07128267E-02  8.10105536E-02  2.35962985E-01  4.42653446E-01  3.57064423E-01
 -4.42115008E-05 -1.22591041E-03 -1.05517725E-02 -6.74452633E-02 -1.71198607E-01
  1.07329856E+00  1.00000000E+00  1.00000000E+00  1.00000000E+00  4.11634896E-02
  2.57762836E-01  8.02419274E-01  1.00000000E+00  1.00000000E+00  1.00000000E+00
  1.00000000E+00  1.00000000E+00  1.00000000E+00  1.00000000E+00  1.00000000E+00
  5.34563860E-04  4.13435660E-03  2.12335358E-02  8.25006224E-02  2.38138871E-01
  4.42551547E-01  3.53757422E-01 -4.89867350E-05 -1.19527323E-03 -1.03490714E-02
 -6.48680190E-02 -1.71552477E-01  1.07289568E+00  1.00000000E+00  1.00000000E+00
  1.00000000E+00  3.98072123E-02  2.49002660E-01  8.10479727E-01  1.00000000E+00
  1.00000000E+00  1.00000000E+00  1.00000000E+00  1.00000000E+00  1.00000000E+00
  1.00000000E+00  1.00000000E+00  5.19808943E-04  4.02025621E-03  2.07128267E-02
  8.10105536E-02  2.35962985E-01  4.42653446E-01  3.57064423E-01 -4.42115008E-05
 -1.22591041E-03 -1.05517725E-02 -6.74452633E-02 -1.71198607E-01  1.07329856E+00
  1.00000000E+00  1.00000000E+00  1.00000000E+00  4.11634896E-02  2.57762836E-01
  8.02419274E-01  1.00000000E+00  1.00000000E+00  1.00000000E+00  1.00000000E+00
  1.00000000E+00  1.00000000E+00  1.00000000E+00  1.00000000E+00
Coordinates of each shell                  R   N=         195
  1.02368180E+00 -2.15031223E+00  1.04406526E-01  1.02368180E+00 -2.15031223E+00
  1.04406526E-01  1.02368180E+00 -2.15031223E+00  1.04406526E-01  1.02368180E+00
 -2.15031223E+00  1.04406526E-01  1.02368180E+00 -2.15031223E+00  1.04406526E-01
  1.02368180E+00 -2.15031223E+00  1.04406526E-01  1.02368180E+00 -2.15031223E+00
  1.04406526E-01  1.02368180E+00 -2.15031223E+00  1.04406526E-01  1.02368180E+00
 -2.15031223E+00  1.04406526E-01  2.41269377E+00 -9.15602874E-01 -1.18909108E-02
  2.41269377E+00 -9.15602874E-01 -1.18909108E-02  2.41269377E+00 -9.15602874E-01
 -1.18909108E-02  2.41269377E+00 -9.15602874E-01 -1.18909108E-02  2.41269377E+00
 -9.15602874E-01 -1.18909108E-02  2.41269377E+00 -9.15602874E-01 -1.18909108E-02
  2.41269377E+00 -9.15602874E-01 -1.18909108E-02  2.41269377E+00 -9.15602874E-01
 -1.18909108E-02  2.41269377E+00 -9.15602874E-01 -1.18909108E-02  2.41269377E+00
 -9.15602874E-01 -1.18909108E-02  2.41269377E+00 -9.15602874E-01 -1.18909108E-02
  2.41269377E+00 -9.15602874E-01 -1.18909108E-02  2.41269377E+00 -9.15602874E-01
 -1.18909108E-02  2.41269377E+00 -9.15602874E-01 -1.18909108E-02  1.02583242E+00
  1.39644501E+00  3.25317492E-03  1.02583242E+00  1.39644501E+00  3.25317492E-03
  1.02583242E+00  1.39644501E+00  3.25317492E-03  1.02583242E+00  1.39644501E+00
  3.25317492E-03  1.02583242E+00  1.39644501E+00  3.25317492E-03  1.02583242E+00
  1.39644501E+00  3.25317492E-03  1.02583242E+00  1.39644501E+00  3.25317492E-03
  1.02583242E+00  1.39644501E+00  3.25317492E-03  1.02583242E+00  1.39644501E+00
  3.25317492E-03  1.02583242E+00  1.39644501E+00  3.25317492E-03  1.02583242E+00
  1.39644501E+00  3.25317492E-03  1.02583242E+00  1.39644501E+00  3.25317492E-03
  1.02583242E+00  1.39644501E+00  3.25317492E-03  1.02583242E+00  1.39644501E+00
  3.25317492E-03 -1.55981763E+00  1.04138094E+00  4.05269411E-03 -1.55981763E+00
  1.04138094E+00  4.05269411E-03 -1.55981763E+00  1.04138094E+00  4.05269411E-03
 -1.55981763E+00  1.04138094E+00  4.05269411E-03 -1.55981763E+00  1.04138094E+00
  4.05269411E-03 -1.55981763E+00  1.04138094E+00  4.05269411E-03 -1.55981763E+00
  1.04138094E+00  4.05269411E-03 -1.55981763E+00  1.04138094E+00  4.05269411E-03
 -1.55981763E+00  1.04138094E+00  4.05269411E-03 -1.55981763E+00  1.04138094E+00
  4.05269411E-03 -1.55981763E+00  1.04138094E+00  4.05269411E-03 -1.55981763E+00
  1.04138094E+00  4.05269411E-03 -1.55981763E+00  1.04138094E+00  4.05269411E-03
 -1.55981763E+00  1.04138094E+00  4.05269411E-03 -2.20164598E+00 -1.12326144E+00
 -7.95918715E-03 -2.20164598E+00 -1.12326144E+00 -7.95918715E-03 -2.20164598E+00
 -1.12326144E+00 -7.95918715E-03 -2.20164598E+00 -1.12326144E+00 -7.95918715E-03
 -2.20164598E+00 -1.12326144E+00 -7.95918715E-03 -2.20164598E+00 -1.12326144E+00
 -7.95918715E-03 -2.20164598E+00 -1.12326144E+00 -7.95918715E-03 -2.20164598E+00
 -1.12326144E+00 -7.95918715E-03 -2.20164598E+00 -1.12326144E+00 -7.95918715E-03
 -2.20164598E+00 -1.12326144E+00 -7.95918715E-03 -2.20164598E+00 -1.12326144E+00
 -7.95918715E-03 -2.20164598E+00 -1.12326144E+00 -7.95918715E-03 -2.20164598E+00
 -1.12326144E+00 -7.95918715E-03 -2.20164598E+00 -1.12326144E+00 -7.95918715E-03
Num ILSW                                   I              100
ILSW                                       I   N=         100
           0           0           0           0           2           0
           0           0           0           0           0          -1
           5           0           0           0           2           0
           0           0           0           0           1           0
           1           0           0           0           0           0
           0           0      100000           0          -1           0
           0           0           0           0           0           0
           0           0           0           1           1           0
           0 -2000000000           1           0           0           0
           0           0           4          52           0           0
           0           0           0           0           0           0
           0           0           0           5           4           1
           0           0           0           0           0           0
           0           0           0           0           0           0
           0           0           0           0           0           0
           0           0           0           0           0           0
           0           0           0           0
Num RLSW                                   I               52
RLSW                                       R   N=          52
  1.00000000E+00  1.00000000E+00  1.00000000E+00  1.00000000E+00  1.00000000E+00
  0.00000000E+00  0.00000000E+00  1.00000000E+00  0.00000000E+00  0.00000000E+00
  0.00000000E+00  0.00000000E+00  1.00000000E+00  0.00000000E+00  0.00000000E+00
  0.00000000E+00  0.00000000E+00  1.00000000E+00  0.00000000E+00  0.00000000E+00
  0.00000000E+00  0.00000000E+00  1.00000000E+00  0.00000000E+00  0.00000000E+00
  0.00000000E+00  0.00000000E+00  1.00000000E+00  0.00000000E+00  0.00000000E+00
  0.00000000E+00  0.00000000E+00  1.00000000E+00  0.00000000E+00  0.00000000E+00
  0.00000000E+00  0.00000000E+00  0.00000000E+00  1.00000000E+00  1.00000000E+00
  0.00000000E+00  1.00000000E+00  0.00000000E+00  0.00000000E+00  0.00000000E+00
  0.00000000E+00  0.00000000E+00  0.00000000E+00  0.00000000E+00  0.00000000E+00
  0.00000000E+00  0.00000000E+00
MxBond                                     I                2
NBond                                      I   N=           5
           1           2           2           2           1
IBond                                      I   N=          10
           2           0           1           3           2           4
           3           5           4           0
RBond                                      R   N=          10
  1.00000000E+00  0.00000000E+00  1.00000000E+00  1.00000000E+00  1.00000000E+00
  1.00000000E+00  1.00000000E+00  2.00000000E+00  2.00000000E+00  0.00000000E+00
Virial Ratio                               R      2.002228159646296E+00
SCF Energy                                 R     -2.795064052870395E+02
MP2 Energy                                 R     -2.804551949333118E+02
Total Energy                               R     -2.804551949333118E+02
Post-SCF wavefunction norm                 R      1.583727369426666E+00
RMS Force                                  R      4.480577640248230E-04
RMS Density                                R      8.323666817943409E-09
NImag                                      I                0
Job Status                                 I                1
Nuclear derivative order                   I                2
External E-field                           R   N=          35
  0.00000000E+00  0.00000000E+00  0.00000000E+00  0.00000000E+00  0.00000000E+00
  0.00000000E+00  0.00000000E+00  0.00000000E+00  0.00000000E+00  0.00000000E+00
  0.00000000E+00  0.00000000E+00  0.00000000E+00  0.00000000E+00  0.00000000E+00
  0.00000000E+00  0.00000000E+00  0.00000000E+00  0.00000000E+00  0.00000000E+00
  0.00000000E+00  0.00000000E+00  0.00000000E+00  0.00000000E+00  0.00000000E+00
  0.00000000E+00  0.00000000E+00  0.00000000E+00  0.00000000E+00  0.00000000E+00
  0.00000000E+00  0.00000000E+00  0.00000000E+00  0.00000000E+00  0.00000000E+00
IOpCl                                      I                0
IROHF                                      I                0
Alpha Orbital Energies                     R   N=         207
 -2.07197675E+01 -2.06871540E+01 -2.06683559E+01 -1.58259318E+01 -1.64419469E+00
 -1.50513477E+00 -1.29375419E+00 -9.60300328E-01 -8.34496994E-01 -7.58863019E-01
 -7.40011363E-01 -6.37661068E-01 -6.19075166E-01 -6.17649266E-01 -5.04635188E-01
 -4.97548033E-01  3.50381423E-02  6.03197744E-02  9.51178092E-02  1.00389805E-01
  1.19513451E-01  1.22620813E-01  1.49498470E-01  1.51993258E-01  1.77252420E-01
  1.80620155E-01  1.89570510E-01  2.11272940E-01  2.16765071E-01  2.42464494E-01
  2.46317819E-01  2.69001038E-01  3.08121493E-01  3.21231039E-01  3.38144965E-01
  3.43870455E-01  3.46886522E-01  3.92626893E-01  4.47436914E-01  4.87814862E-01
  5.06422075E-01  5.18480127E-01  5.44877202E-01  5.61294410E-01  5.98970172E-01
  6.20282954E-01  6.38393172E-01  6.89693965E-01  7.15171308E-01  7.25898594E-01
  7.43229926E-01  7.62381934E-01  7.68766318E-01  7.94334440E-01  8.06407550E-01
  8.40091276E-01  8.43517921E-01  8.52397048E-01  8.86305767E-01  9.07570286E-01
  9.30036757E-01  9.49501324E-01  9.54108748E-01  1.01809530E+00  1.03295921E+00
  1.06113801E+00  1.06558430E+00  1.09587527E+00  1.14311060E+00  1.15595809E+00
  1.17033653E+00  1.21941363E+00  1.22999441E+00  1.24616572E+00  1.35167610E+00
  1.36122782E+00  1.37082629E+00  1.46536455E+00  1.48987967E+00  1.50552338E+00
  1.54011595E+00  1.58897798E+00  1.59867830E+00  1.61204264E+00  1.62907433E+00
  1.69542413E+00  1.73988315E+00  1.80145473E+00  1.82961272E+00  1.88900144E+00
  1.89531107E+00  1.92929627E+00  1.97813999E+00  1.99135013E+00  2.05156173E+00
  2.12355041E+00  2.13006880E+00  2.16639893E+00  2.18848549E+00  2.24321032E+00
  2.26011829E+00  2.29561949E+00  2.35176274E+00  2.36597251E+00  2.38711574E+00
  2.40180183E+00  2.43305205E+00  2.46786961E+00  2.48044892E+00  2.52918083E+00
  2.53596446E+00  2.54938043E+00  2.56134994E+00  2.61603422E+00  2.63012283E+00
  2.66961505E+00  2.67390561E+00  2.75445315E+00  2.80967008E+00  2.81876632E+00
  2.84156792E+00  2.91860642E+00  2.98471742E+00  3.04589317E+00  3.05145925E+00
  3.11351439E+00  3.12049202E+00  3.17231665E+00  3.21229234E+00  3.30669470E+00
  3.33377868E+00  3.36077405E+00  3.47713606E+00  3.67830843E+00  3.86740922E+00
  3.93063233E+00  4.17685404E+00  4.22029529E+00  4.23429289E+00  4.27108640E+00
  4.37117230E+00  4.49999286E+00  4.52613472E+00  4.55553193E+00  4.60094094E+00
  4.69404122E+00  4.81010652E+00  4.89744079E+00  4.91591641E+00  4.94223339E+00
  4.99786824E+00  5.00630692E+00  5.10662147E+00  5.13271576E+00  5.18084151E+00
  5.25028198E+00  5.25913809E+00  5.31740494E+00  5.34604356E+00  5.35620695E+00
  5.54738845E+00  5.64478740E+00  5.70556633E+00  5.88911153E+00  5.99725590E+00
  6.26584128E+00  6.29622241E+00  6.36032113E+00  6.37657794E+00  6.59910629E+00
  6.65467641E+00  6.66506310E+00  6.69064882E+00  6.72619161E+00  6.79010370E+00
  6.80914438E+00  6.85283551E+00  6.96727966E+00  7.01930579E+00  7.06707526E+00
  7.08171614E+00  7.13906013E+00  7.17200878E+00  7.17853979E+00  7.20325759E+00
  7.24583375E+00  7.24788723E+00  7.27231418E+00  7.34918419E+00  7.39421122E+00
  7.42771381E+00  7.44276197E+00  7.46261095E+00  7.55984460E+00  7.66249669E+00
  7.66696352E+00  7.79561404E+00  7.88379902E+00  7.95239113E+00  8.06135810E+00
  8.30649327E+00  8.49912899E+00  8.65165629E+00  1.36189620E+01  1.47625757E+01
  1.51005133E+01  1.57621362E+01
Alpha MO coefficients                      R   N=       42849
  6.45462090E-05 -3.67927798E-05 -1.09200332E-03  1.24452541E-05 -1.64982100E-05
  6.42610505E-05  2.97806570E-06 -2.42716495E-04 -1.85107709E-04 -8.97730742E-06
 -2.07752545E-04 -2.77375031E-04 -1.28945270E-05  4.27553173E-05  4.34422255E-06
 -3.38565573E-06  4.75731623E-06  2.75742190E-05  2.25853680E-04  2.45036795E-05
 -1.15136415E-05 -2.06291800E-04 -2.44590645E-05  3.07712326E-03 -9.64643764E-05
 -9.91448062E-05  3.54483260E-03  2.47109188E-03  5.11638972E-05 -1.03760751E-04
 -1.71300172E-06 -4.18564369E-04  6.62270981E-04  1.32535635E-05 -9.46703857E-04
  2.06572330E-03  5.30156544E-05 -4.08553100E-04  3.49595571E-04  1.89511944E-05
  2.03747358E-05  1.14284848E-06  5.18864123E-07  3.93526983E-05  2.16977427E-05
 -4.42883197E-04 -1.03023930E-05  2.37549575E-06 -5.03162591E-04 -6.06375443E-04
 -3.64936544E-04 -9.18496427E-06  5.77281436E-06 -5.39136025E-04 -7.39513627E-04
  2.85678095E-07  2.86937016E-05 -8.60288495E-05 -1.29040930E-06 -1.24303288E-06
  1.11375084E-04 -8.97264825E-06 -9.45621458E-06  1.37440383E-04 -1.64011269E-04
 -1.83740079E-06 -6.76369679E-06  3.38393135E-04  6.30762913E-05  9.76903824E-01
 -9.17358682E-03  4.34071188E-02  4.92957446E-04 -2.20751023E-03 -9.09197368E-04
 -1.99715774E-03 -8.01927654E-06  1.07640188E-03  2.00566782E-03  6.02146047E-06
 -2.15005783E-03  9.84414369E-04  1.88385483E-05 -1.21441128E-04  2.09402499E-04
  1.10793515E-06  7.12974168E-06  1.87616548E-07 -3.29303631E-07  3.46672652E-05
  1.60591363E-05  8.27322578E-04  2.17621288E-06 -4.89307356E-06 -3.05409157E-04
  4.01787746E-04 -1.39115689E-04 -4.89505618E-06 -3.63744468E-06  1.75662336E-04
  6.29282546E-04  1.38926846E-08 -5.21456920E-05 -6.01198403E-05 -2.55638756E-07
 -3.12184022E-07  4.84740183E-05 -7.06897622E-06 -3.03633064E-06  7.48632264E-05
 -5.41508258E-05 -7.08586246E-07 -1.62977809E-06  4.68570528E-04  1.95199863E-04
  1.04472668E-04  4.58170616E-04 -3.23532570E-04 -8.27091009E-04  3.61294470E-04
 -9.48122691E-05 -5.44574353E-05  5.20158431E-07  1.21996543E-03  4.82099074E-04
 -9.88056542E-07 -1.01000455E-03 -7.83451848E-05 -4.38436533E-06  2.83784994E-04
  5.49114043E-05  2.25387362E-07 -5.24733392E-05  2.79178358E-07 -2.34275453E-07
  9.46405529E-05  9.43215558E-06 -4.15933738E-04 -4.15993324E-06 -1.59398640E-06
  1.04415196E-03  2.85487050E-04  2.62309312E-05 -4.03023136E-06 -2.51757091E-06
 -6.66575791E-05  3.12220877E-04  2.54570910E-07 -1.30644703E-04 -4.50850342E-05
 -6.21035939E-07  8.07988892E-07  1.31749898E-04  5.68376255E-05  1.74233160E-06
 -7.24338465E-05  1.11560139E-04 -2.58528166E-06 -2.25758391E-06  4.88657012E-04
 -1.83333210E-04 -7.04420035E-04  4.65472466E-05 -7.02145725E-05  2.03503417E-04
 -1.88573381E-04 -4.77608489E-05 -1.62331121E-05  6.64291645E-07  2.85910840E-04
  1.04008811E-04 -3.79307255E-06  6.17948385E-04 -5.14337551E-05  2.37892134E-05
 -2.14376034E-04  7.69142901E-05  2.35784896E-06 -1.30453956E-05 -6.18968593E-07
  2.34376498E-07  1.55724331E-05  1.23216322E-06 -1.82090677E-06  2.29871004E-06
 -5.32885301E-07 -3.94239259E-05  1.60509308E-04 -2.01767082E-05  2.24146145E-05
 -8.02244886E-06 -9.00402279E-05  1.53017382E-04  1.86950674E-06 -1.03589717E-05
 -3.69409203E-06 -1.66339992E-06  1.36005721E-06  1.57319021E-05  1.71734251E-05
 -6.48798991E-06  6.91690239E-05  2.48693467E-05  6.03336172E-06 -4.02309336E-06
 -1.48837175E-04 -1.14241662E-04  4.01585446E-05  6.82560291E-05 -1.30319139E-04
 -3.04784541E-05  2.13091543E-05 -1.97196945E-06 -4.91928686E-07  2.26885366E-04
 -8.89698389E-05 -2.59447651E-06  1.11241544E-04 -5.60440982E-05  6.62528589E-06
  1.34053530E-05 -2.97639051E-06  1.82458540E-06  1.10211943E-05  1.70964657E-05
  2.39318182E-05  1.59343748E-06  1.31341558E-06  2.75182197E-05  1.10992786E-04
 -2.60786491E-04  2.63869861E-05 -1.53138068E-05 -5.53598905E-04  1.67255424E-04
  1.39582771E-05  6.70192744E-06  6.97797734E-07 -2.48337390E-05 -3.37706430E-05
 -5.01060072E-06  2.34057968E-04 -6.97314468E-06 -9.55816629E-06 -9.72689547E-06
  6.47430051E-05 -2.48223495E-06 -1.41350782E-06  4.49002620E-07 -6.42966490E-07
 -1.34183552E-05  4.51646441E-06  2.11746019E-05 -1.12036093E-07  4.15316930E-06
  1.17253560E-04 -1.54961667E-05  6.15901047E-05 -1.64227137E-06  6.46919648E-06
 -8.81158136E-05  3.91530174E-06  1.09070525E-06  1.23719132E-05  3.60442620E-06
 -1.01620842E-06 -2.28085883E-07 -2.32025049E-05  9.00025290E-06 -2.48969163E-06
 -3.28544857E-05 -2.01236824E-05  6.06123725E-06 -3.00882703E-06 -1.62197033E-05
  9.82561083E-06  7.32536640E-04  2.26396755E-05 -1.88701044E-05  2.95298781E-04
 -3.95947874E-04  2.94481538E-05  1.20575817E-05  3.33767547E-07 -1.44185339E-04
 -8.37940362E-05 -1.59639293E-06  6.16188293E-06 -2.57684829E-04  6.32008073E-06
 -4.06402476E-05  2.07821615E-04  3.98632522E-06 -4.04124982E-06  4.42739955E-07
 -1.50791566E-07 -1.82199100E-05  2.51880336E-05 -5.13207548E-05 -2.12045949E-06
  1.36600425E-06  1.40335220E-04 -3.94346861E-05 -6.45671974E-05 -6.01632396E-06
 -1.29065697E-06  3.57735371E-05 -3.18401771E-05  5.88607050E-07  4.47287116E-06
  8.78518216E-07  1.33391287E-07 -9.80862791E-08  3.79181167E-07  8.19690497E-06
 -2.04523665E-06 -1.21800504E-05 -2.23326937E-05  2.07239900E-06  2.33349198E-06
 -1.76937189E-04 -4.07562100E-05  2.37214389E-04  1.35834409E-03 -1.47277528E-04
 -6.78738533E-04  9.08049852E-04  8.91155243E-06 -9.46467058E-05 -1.17669838E-07
 -7.72507919E-04 -2.01778088E-03 -1.22550182E-05  3.88979154E-04  3.31700472E-04
 -9.65031273E-06 -3.16618452E-05 -3.57563598E-04 -1.94393762E-06 -1.27755840E-04
  1.07901565E-06  2.26926388E-06 -2.12212037E-04  1.47277297E-04 -4.60969494E-04
 -2.18289210E-06  9.61110202E-06 -1.05849491E-03  3.00824256E-04 -4.26335247E-05
 -4.27927073E-06  6.43807645E-07  1.29213416E-04 -2.27044542E-05  4.21968728E-07
  2.86325799E-05  2.47858910E-05  2.96200276E-07  5.37707247E-07  4.06148719E-06
  2.45666152E-05  3.55116446E-06 -1.55025492E-05  2.07548440E-04  1.71465985E-06
 -1.17348026E-06  7.00138379E-05  3.09310904E-04  9.76646033E-01 -9.88644291E-03
  4.35754753E-02  3.68465791E-03 -8.96744846E-04  9.00357373E-04  1.98357029E-03
  1.62713784E-05 -1.07045536E-03 -2.32352080E-03 -1.78049915E-05  4.26278125E-04
  6.95033178E-04  1.76348907E-05  4.58422140E-05 -1.14281760E-04 -5.03577456E-07
 -1.94021120E-04 -7.52976408E-07  2.78932586E-06 -6.37266147E-05  5.78952215E-05
  4.09117247E-04 -3.33420578E-06 -9.62153850E-06  7.18654103E-04 -6.75256692E-04
 -2.06011283E-04  9.62807186E-06  4.44687912E-06 -7.57732870E-05  1.21083735E-04
  1.82099116E-06  3.78054802E-05  5.94989767E-05 -4.26234533E-07 -3.99987775E-07
  1.94334590E-05  2.41603559E-05 -2.35864777E-06 -1.74515739E-05  1.26774249E-04
  6.94674478E-06 -2.96467564E-06  2.47801846E-04  9.04643413E-05  3.75483422E-04
  1.99023120E-03  1.36214419E-03 -1.74678441E-05  2.00136828E-04  1.86270092E-04
 -1.42557308E-05  9.10594043E-04  5.98939645E-04 -7.75768449E-05  4.22569572E-05
  2.61159834E-04 -2.88458894E-05 -2.34719574E-05  1.99176480E-06 -6.80148103E-07
 -1.76717796E-05 -3.97537190E-05 -2.13940575E-04 -2.79874683E-05 -3.04790486E-05
  2.82525645E-04  4.49880592E-04  9.76834681E-01 -9.18623631E-03  4.34651410E-02
  1.39606924E-04 -1.90418690E-03 -2.13914830E-03  5.38188839E-04  1.08122825E-04
  2.13228979E-03 -6.12781619E-04 -9.92379922E-05  5.13813840E-05  7.54664547E-04
 -4.40621301E-05  2.68048563E-06 -3.71276142E-04  1.04085590E-06  3.09077902E-05
 -7.34497439E-07 -1.76029635E-06  3.80577793E-05  8.99639105E-05  7.62318545E-04
  4.72578929E-05  3.52095345E-05  2.74770790E-04  3.06161786E-04 -2.38726238E-04
  2.68202065E-10  1.84878328E-05  1.05656155E-04 -3.18038155E-04  3.46459523E-06
 -6.37868759E-05  4.90285133E-05 -2.38308591E-06 -1.99101807E-07 -4.63017714E-05