 Entering Gaussian System, Link 0=g16
 Input=hoono_a2_103p3261.gjf
 Output=hoono_a2_103p3261.log
 Initial command:
 /sw/contrib/gaussian/g16/B01/g16/l1.exe "/scr/Gau-27897.inp" -scrdir="/scr/"
 Entering Link 1 = /sw/contrib/gaussian/g16/B01/g16/l1.exe PID=     27898.
  
 Copyright (c) 1988-2017, Gaussian, Inc.  All Rights Reserved.
  
 This is part of the Gaussian(R) 16 program.  It is based on
 the Gaussian(R) 09 system (copyright 2009, Gaussian, Inc.),
 the Gaussian(R) 03 system (copyright 2003, Gaussian, Inc.),
 the Gaussian(R) 98 system (copyright 1998, Gaussian, Inc.),
 the Gaussian(R) 94 system (copyright 1995, Gaussian, Inc.),
 the Gaussian 92(TM) system (copyright 1992, Gaussian, Inc.),
 the Gaussian 90(TM) system (copyright 1990, Gaussian, Inc.),
 the Gaussian 88(TM) system (copyright 1988, Gaussian, Inc.),
 the Gaussian 86(TM) system (copyright 1986, Carnegie Mellon
 University), and the Gaussian 82(TM) system (copyright 1983,
 Carnegie Mellon University). Gaussian is a federally registered
 trademark of Gaussian, Inc.
  
 This software contains proprietary and confidential information,
 including trade secrets, belonging to Gaussian, Inc.
  
 This software is provided under written license and may be
 used, copied, transmitted, or stored only in accord with that
 written license.
  
 The following legend is applicable only to US Government
 contracts under FAR:
  
                    RESTRICTED RIGHTS LEGEND
  
 Use, reproduction and disclosure by the US Government is
 subject to restrictions as set forth in subparagraphs (a)
 and (c) of the Commercial Computer Software - Restricted
 Rights clause in FAR 52.227-19.
  
 Gaussian, Inc.
 340 Quinnipiac St., Bldg. 40, Wallingford CT 06492
  
  
 ---------------------------------------------------------------
 Warning -- This program may not be used in any manner that
 competes with the business of Gaussian, Inc. or will provide
 assistance to any competitor of Gaussian, Inc.  The licensee
 of this program is prohibited from giving any competitor of
 Gaussian, Inc. access to this program.  By using this program,
 the user acknowledges that Gaussian, Inc. is engaged in the
 business of creating and licensing software in the field of
 computational chemistry and represents and warrants to the
 licensee that it is not a competitor of Gaussian, Inc. and that
 it will not use this program in any manner prohibited above.
 ---------------------------------------------------------------
  

 Cite this work as:
 Gaussian 16, Revision B.01,
 M. J. Frisch, G. W. Trucks, H. B. Schlegel, G. E. Scuseria, 
 M. A. Robb, J. R. Cheeseman, G. Scalmani, V. Barone, 
 G. A. Petersson, H. Nakatsuji, X. Li, M. Caricato, A. V. Marenich, 
 J. Bloino, B. G. Janesko, R. Gomperts, B. Mennucci, H. P. Hratchian, 
 J. V. Ortiz, A. F. Izmaylov, J. L. Sonnenberg, D. Williams-Young, 
 F. Ding, F. Lipparini, F. Egidi, J. Goings, B. Peng, A. Petrone, 
 T. Henderson, D. Ranasinghe, V. G. Zakrzewski, J. Gao, N. Rega, 
 G. Zheng, W. Liang, M. Hada, M. Ehara, K. Toyota, R. Fukuda, 
 J. Hasegawa, M. Ishida, T. Nakajima, Y. Honda, O. Kitao, H. Nakai, 
 T. Vreven, K. Throssell, J. A. Montgomery, Jr., J. E. Peralta, 
 F. Ogliaro, M. J. Bearpark, J. J. Heyd, E. N. Brothers, K. N. Kudin, 
 V. N. Staroverov, T. A. Keith, R. Kobayashi, J. Normand, 
 K. Raghavachari, A. P. Rendell, J. C. Burant, S. S. Iyengar, 
 J. Tomasi, M. Cossi, J. M. Millam, M. Klene, C. Adamo, R. Cammi, 
 J. W. Ochterski, R. L. Martin, K. Morokuma, O. Farkas, 
 J. B. Foresman, and D. J. Fox, Gaussian, Inc., Wallingford CT, 2016.
 
 ******************************************
 Gaussian 16:  ES64L-G16RevB.01 20-Dec-2017
                21-Feb-2022 
 ******************************************
 %nproc=28
 Will use up to   28 processors via shared memory.
 %mem=120GB
 %chk=hoono_a2_103p3261.chk
 ---------------------------------------
 #p freq mp2/aug-cc-pvtz density=current
 ---------------------------------------
 1/10=4,30=1,38=1/1,3;
 2/12=2,17=6,18=5,40=1/2;
 3/5=16,6=1,7=10,11=9,25=1,30=1,71=2,140=1/1,2,3;
 4//1;
 5/5=2,38=5,98=1/2;
 8/6=3,8=1,10=1,19=11,30=-1/1;
 9/15=3,16=-3/6;
 11/6=1,8=1,15=11,17=12,24=-1,27=1,28=-2,29=300,32=6,42=3/1,2,10;
 10/6=2,21=1/2;
 8/6=4,8=1,10=1,19=11,30=-1/11,4;
 10/5=1,20=4/2;
 11/12=2,14=11,16=1,17=2,28=-2,42=3,76=2/2,10,12;
 6/7=2,8=2,9=2,10=2,22=-1/1;
 7/8=1,10=1,12=2,25=1,44=2/1,2,3,16;
 1/10=4,30=1/3;
 99//99;
 Leave Link    1 at Mon Feb 21 20:38:23 2022, MaxMem= 16106127360 cpu:               3.3 elap:               0.1
 (Enter /sw/contrib/gaussian/g16/B01/g16/l101.exe)
 -----
 title
 -----
 Symbolic Z-matrix:
 Charge =  0 Multiplicity = 1
 H
 O                    1    r1
 O                    2    r2       1    a1
 N                    3    r3       2    a2       1    d1       0
 O                    4    r4       3    a3       2    d2       0
       Variables:
  r1                    0.96898                  
  r2                    1.45492                  
  r3                    1.45878                  
  r4                    1.17073                  
  a1                   97.59495                  
  a2                  103.32615                  
  a3                  109.06955                  
  d1                  180.                       
  d2                  180.                       
 
 ITRead=  0  0  0  0  0
 MicOpt= -1 -1 -1 -1 -1
 NAtoms=      5 NQM=        5 NQMF=       0 NMMI=      0 NMMIF=      0
                NMic=       0 NMicF=      0.
                    Isotopes and Nuclear Properties:
 (Nuclear quadrupole moments (NQMom) in fm**2, nuclear magnetic moments (NMagM)
  in nuclear magnetons)

  Atom         1           2           3           4           5
 IAtWgt=           1          16          16          14          16
 AtmWgt=   1.0078250  15.9949146  15.9949146  14.0030740  15.9949146
 NucSpn=           1           0           0           2           0
 AtZEff=  -0.0000000  -0.0000000  -0.0000000  -0.0000000  -0.0000000
 NQMom=    0.0000000   0.0000000   0.0000000   2.0440000   0.0000000
 NMagM=    2.7928460   0.0000000   0.0000000   0.4037610   0.0000000
 AtZNuc=   1.0000000   8.0000000   8.0000000   7.0000000   8.0000000
 Leave Link  101 at Mon Feb 21 20:38:24 2022, MaxMem= 16106127360 cpu:               2.8 elap:               0.2
 (Enter /sw/contrib/gaussian/g16/B01/g16/l103.exe)

 GradGradGradGradGradGradGradGradGradGradGradGradGradGradGradGradGradGrad
 Berny optimization.
 Initialization pass.
                       ----------------------------
                       !    Initial Parameters    !
                       ! (Angstroms and Degrees)  !
 ----------------------                            ----------------------
 !      Name          Value   Derivative information (Atomic Units)     !
 ------------------------------------------------------------------------
 !       r1          0.969    calculate D2E/DX2 analytically            !
 !       r2          1.4549   calculate D2E/DX2 analytically            !
 !       r3          1.4588   calculate D2E/DX2 analytically            !
 !       r4          1.1707   calculate D2E/DX2 analytically            !
 !       a1         97.5949   calculate D2E/DX2 analytically            !
 !       a2        103.3262   calculate D2E/DX2 analytically            !
 !       a3        109.0696   calculate D2E/DX2 analytically            !
 !       d1        180.0      calculate D2E/DX2 analytically            !
 !       d2        180.0      calculate D2E/DX2 analytically            !
 ------------------------------------------------------------------------
 Trust Radius=3.00D-01 FncErr=1.00D-07 GrdErr=1.00D-07 EigMax=2.50D+02 EigMin=1.00D-04
 Number of steps in this run=      2 maximum allowed number of steps=      2.
 GradGradGradGradGradGradGradGradGradGradGradGradGradGradGradGradGradGrad

 Leave Link  103 at Mon Feb 21 20:38:24 2022, MaxMem= 16106127360 cpu:               0.5 elap:               0.0
 (Enter /sw/contrib/gaussian/g16/B01/g16/l202.exe)
                          Input orientation:                          
 ---------------------------------------------------------------------
 Center     Atomic      Atomic             Coordinates (Angstroms)
 Number     Number       Type             X           Y           Z
 ---------------------------------------------------------------------
      1          1           0        0.000000    0.000000    0.000000
      2          8           0        0.000000    0.000000    0.968976
      3          8           0        1.442156    0.000000    1.161271
      4          7           0        1.587832    0.000000    2.612763
      5          8           0        2.726980    0.000000    2.882851
 ---------------------------------------------------------------------
                    Distance matrix (angstroms):
                    1          2          3          4          5
     1  H    0.000000
     2  O    0.968976   0.000000
     3  O    1.851584   1.454919   0.000000
     4  N    3.057408   2.285443   1.458784   0.000000
     5  O    3.968281   3.331567   2.148165   1.170729   0.000000
 Stoichiometry    HNO3
 Framework group  CS[SG(HNO3)]
 Deg. of freedom     7
 Full point group                 CS      NOp   2
 Largest Abelian subgroup         CS      NOp   2
 Largest concise Abelian subgroup C1      NOp   1
                         Standard orientation:                         
 ---------------------------------------------------------------------
 Center     Atomic      Atomic             Coordinates (Angstroms)
 Number     Number       Type             X           Y           Z
 ---------------------------------------------------------------------
      1          1           0        1.529309    1.709450   -0.000000
      2          8           0        1.452834    0.743497   -0.000000
      3          8           0        0.000000    0.665622   -0.000000
      4          7           0       -0.259779   -0.769845    0.000000
      5          8           0       -1.416690   -0.949185    0.000000
 ---------------------------------------------------------------------
 Rotational constants (GHZ):          55.8486451           4.9733923           4.5667201
 Leave Link  202 at Mon Feb 21 20:38:24 2022, MaxMem= 16106127360 cpu:               0.9 elap:               0.1
 (Enter /sw/contrib/gaussian/g16/B01/g16/l301.exe)
 Standard basis: Aug-CC-pVTZ (5D, 7F)
 Ernie: Thresh=  0.10000D-02 Tol=  0.10000D-05 Strict=F.
 Ernie:  12 primitive shells out of 131 were deleted.
 There are   166 symmetry adapted cartesian basis functions of A'  symmetry.
 There are    79 symmetry adapted cartesian basis functions of A"  symmetry.
 There are   136 symmetry adapted basis functions of A'  symmetry.
 There are    71 symmetry adapted basis functions of A"  symmetry.
   207 basis functions,   315 primitive gaussians,   245 cartesian basis functions
    16 alpha electrons       16 beta electrons
       nuclear repulsion energy       116.7357052180 Hartrees.
 IExCor=    0 DFT=F Ex=HF Corr=None ExCW=0 ScaHFX=  1.000000
 ScaDFX=  1.000000  1.000000  1.000000  1.000000 ScalE2=  1.000000  1.000000
 IRadAn=      5 IRanWt=     -1 IRanGd=            0 ICorTp=0 IEmpDi=  4
 NAtoms=    5 NActive=    5 NUniq=    5 SFac= 1.00D+00 NAtFMM=   60 NAOKFM=F Big=F
 Integral buffers will be    131072 words long.
 Raffenetti 1 integral format.
 Two-electron integral symmetry is turned on.
 Leave Link  301 at Mon Feb 21 20:38:24 2022, MaxMem= 16106127360 cpu:               1.5 elap:               0.1
 (Enter /sw/contrib/gaussian/g16/B01/g16/l302.exe)
 NPDir=0 NMtPBC=     1 NCelOv=     1 NCel=       1 NClECP=     1 NCelD=      1
         NCelK=      1 NCelE2=     1 NClLst=     1 CellRange=     0.0.
 One-electron integrals computed using PRISM.
 One-electron integral symmetry used in STVInt
 NBasis=   207 RedAO= T EigKep=  1.81D-04  NBF=   136    71
 NBsUse=   207 1.00D-06 EigRej= -1.00D+00 NBFU=   136    71
 Leave Link  302 at Mon Feb 21 20:38:24 2022, MaxMem= 16106127360 cpu:               4.3 elap:               0.2
 (Enter /sw/contrib/gaussian/g16/B01/g16/l303.exe)
 DipDrv:  MaxL=1.
 Leave Link  303 at Mon Feb 21 20:38:24 2022, MaxMem= 16106127360 cpu:               0.8 elap:               0.1
 (Enter /sw/contrib/gaussian/g16/B01/g16/l401.exe)
 ExpMin= 2.53D-02 ExpMax= 1.53D+04 ExpMxC= 5.22D+02 IAcc=3 IRadAn=         5 AccDes= 0.00D+00
 Harris functional with IExCor=  205 and IRadAn=       5 diagonalized for initial guess.
 HarFok:  IExCor=  205 AccDes= 0.00D+00 IRadAn=         5 IDoV= 1 UseB2=F ITyADJ=14
 ICtDFT=  3500011 ScaDFX=  1.000000  1.000000  1.000000  1.000000
 FoFCou: FMM=F IPFlag=           0 FMFlag=      100000 FMFlg1=           0
         NFxFlg=           0 DoJE=T BraDBF=F KetDBF=T FulRan=T
         wScrn=  0.000000 ICntrl=       500 IOpCl=  0 I1Cent=   200000004 NGrid=           0
         NMat0=    1 NMatS0=      1 NMatT0=    0 NMatD0=    1 NMtDS0=    0 NMtDT0=    0
 Petite list used in FoFCou.
 Harris En= -279.628839154985    
 JPrj=0 DoOrth=F DoCkMO=F.
 Initial guess orbital symmetries:
       Occupied  (A') (A') (A') (A') (A') (A') (A') (A') (A') (A')
                 (A") (A') (A') (A") (A") (A')
       Virtual   (A") (A') (A') (A') (A') (A') (A") (A') (A') (A')
                 (A") (A') (A") (A') (A') (A") (A') (A") (A') (A')
                 (A') (A') (A') (A') (A') (A") (A') (A") (A') (A')
                 (A") (A') (A") (A') (A') (A") (A') (A") (A') (A')
                 (A") (A') (A") (A') (A") (A') (A') (A') (A") (A")
                 (A') (A') (A') (A') (A") (A') (A") (A') (A") (A')
                 (A') (A') (A") (A') (A') (A") (A') (A") (A') (A')
                 (A") (A') (A') (A") (A") (A') (A') (A") (A') (A')
                 (A') (A") (A') (A") (A') (A") (A') (A") (A') (A')
                 (A') (A") (A') (A") (A') (A") (A") (A') (A') (A')
                 (A") (A') (A") (A') (A') (A') (A") (A') (A") (A')
                 (A") (A') (A') (A') (A") (A') (A') (A') (A") (A')
                 (A") (A') (A') (A") (A") (A') (A") (A') (A") (A')
                 (A') (A') (A') (A") (A") (A') (A") (A') (A') (A')
                 (A') (A") (A") (A') (A') (A") (A') (A') (A') (A')
                 (A") (A') (A') (A") (A') (A") (A') (A") (A') (A")
                 (A') (A") (A') (A") (A') (A") (A") (A") (A') (A')
                 (A") (A') (A") (A') (A") (A') (A") (A") (A') (A')
                 (A') (A') (A') (A') (A') (A') (A') (A') (A') (A')
                 (A')
 The electronic state of the initial guess is 1-A'.
 Leave Link  401 at Mon Feb 21 20:38:24 2022, MaxMem= 16106127360 cpu:               7.2 elap:               0.3
 (Enter /sw/contrib/gaussian/g16/B01/g16/l502.exe)
 Keep R1 ints in memory in symmetry-blocked form, NReq=348887737.
 FoFCou: FMM=F IPFlag=           0 FMFlag=           0 FMFlg1=           0
         NFxFlg=           0 DoJE=F BraDBF=F KetDBF=F FulRan=T
         wScrn=  0.000000 ICntrl=       600 IOpCl=  0 I1Cent=           0 NGrid=           0
         NMat0=    1 NMatS0=  21528 NMatT0=    0 NMatD0=    1 NMtDS0=    0 NMtDT0=    0
 Petite list used in FoFCou.
 Closed shell SCF:
 Using DIIS extrapolation, IDIIS=  1040.
 NGot= 16106127360 LenX= 15988850015 LenY= 15988789549
 Requested convergence on RMS density matrix=1.00D-08 within 128 cycles.
 Requested convergence on MAX density matrix=1.00D-06.
 Requested convergence on             energy=1.00D-06.
 No special actions if energy rises.

 Cycle   1  Pass 1  IDiag  1:
 E= -279.370630655132    
 DIIS: error= 2.50D-02 at cycle   1 NSaved=   1.
 NSaved= 1 IEnMin= 1 EnMin= -279.370630655132     IErMin= 1 ErrMin= 2.50D-02
 ErrMax= 2.50D-02  0.00D+00 EMaxC= 1.00D-01 BMatC= 4.38D-01 BMatP= 4.38D-01
 IDIUse=3 WtCom= 7.50D-01 WtEn= 2.50D-01
 Coeff-Com:  0.100D+01
 Coeff-En:   0.100D+01
 Coeff:      0.100D+01
 Gap=     0.513 Goal=   None    Shift=    0.000
 GapD=    0.513 DampG=2.000 DampE=0.500 DampFc=1.0000 IDamp=-1.
 RMSDP=1.62D-03 MaxDP=9.94D-02              OVMax= 1.13D-01

 Cycle   2  Pass 1  IDiag  1:
 E= -279.452548253232     Delta-E=       -0.081917598099 Rises=F Damp=F
 DIIS: error= 1.78D-02 at cycle   2 NSaved=   2.
 NSaved= 2 IEnMin= 2 EnMin= -279.452548253232     IErMin= 2 ErrMin= 1.78D-02
 ErrMax= 1.78D-02  0.00D+00 EMaxC= 1.00D-01 BMatC= 7.16D-02 BMatP= 4.38D-01
 IDIUse=3 WtCom= 8.22D-01 WtEn= 1.78D-01
 Coeff-Com:  0.194D+00 0.806D+00
 Coeff-En:   0.000D+00 0.100D+01
 Coeff:      0.160D+00 0.840D+00
 Gap=     0.529 Goal=   None    Shift=    0.000
 RMSDP=9.00D-04 MaxDP=3.74D-02 DE=-8.19D-02 OVMax= 6.93D-02

 Cycle   3  Pass 1  IDiag  1:
 E= -279.481556263480     Delta-E=       -0.029008010248 Rises=F Damp=F
 DIIS: error= 1.04D-02 at cycle   3 NSaved=   3.
 NSaved= 3 IEnMin= 3 EnMin= -279.481556263480     IErMin= 3 ErrMin= 1.04D-02
 ErrMax= 1.04D-02  0.00D+00 EMaxC= 1.00D-01 BMatC= 2.87D-02 BMatP= 7.16D-02
 IDIUse=3 WtCom= 8.96D-01 WtEn= 1.04D-01
 Coeff-Com: -0.330D-01 0.379D+00 0.654D+00
 Coeff-En:   0.000D+00 0.241D+00 0.759D+00
 Coeff:     -0.296D-01 0.364D+00 0.665D+00
 Gap=     0.510 Goal=   None    Shift=    0.000
 RMSDP=3.77D-04 MaxDP=1.55D-02 DE=-2.90D-02 OVMax= 3.82D-02

 Cycle   4  Pass 1  IDiag  1:
 E= -279.500637805002     Delta-E=       -0.019081541522 Rises=F Damp=F
 DIIS: error= 1.33D-03 at cycle   4 NSaved=   4.
 NSaved= 4 IEnMin= 4 EnMin= -279.500637805002     IErMin= 4 ErrMin= 1.33D-03
 ErrMax= 1.33D-03  0.00D+00 EMaxC= 1.00D-01 BMatC= 4.94D-04 BMatP= 2.87D-02
 IDIUse=3 WtCom= 9.87D-01 WtEn= 1.33D-02
 Coeff-Com: -0.117D-01 0.576D-01 0.159D+00 0.796D+00
 Coeff-En:   0.000D+00 0.000D+00 0.000D+00 0.100D+01
 Coeff:     -0.115D-01 0.569D-01 0.156D+00 0.798D+00
 Gap=     0.502 Goal=   None    Shift=    0.000
 RMSDP=9.04D-05 MaxDP=2.78D-03 DE=-1.91D-02 OVMax= 1.12D-02

 Cycle   5  Pass 1  IDiag  1:
 E= -279.501315905879     Delta-E=       -0.000678100877 Rises=F Damp=F
 DIIS: error= 7.46D-04 at cycle   5 NSaved=   5.
 NSaved= 5 IEnMin= 5 EnMin= -279.501315905879     IErMin= 5 ErrMin= 7.46D-04
 ErrMax= 7.46D-04  0.00D+00 EMaxC= 1.00D-01 BMatC= 8.75D-05 BMatP= 4.94D-04
 IDIUse=3 WtCom= 9.93D-01 WtEn= 7.46D-03
 Coeff-Com:  0.614D-02-0.726D-01-0.118D+00 0.210D-01 0.116D+01
 Coeff-En:   0.000D+00 0.000D+00 0.000D+00 0.000D+00 0.100D+01
 Coeff:      0.610D-02-0.721D-01-0.117D+00 0.208D-01 0.116D+01
 Gap=     0.502 Goal=   None    Shift=    0.000
 RMSDP=7.65D-05 MaxDP=2.11D-03 DE=-6.78D-04 OVMax= 1.12D-02

 Cycle   6  Pass 1  IDiag  1:
 E= -279.501632905112     Delta-E=       -0.000316999234 Rises=F Damp=F
 DIIS: error= 2.86D-04 at cycle   6 NSaved=   6.
 NSaved= 6 IEnMin= 6 EnMin= -279.501632905112     IErMin= 6 ErrMin= 2.86D-04
 ErrMax= 2.86D-04  0.00D+00 EMaxC= 1.00D-01 BMatC= 1.68D-05 BMatP= 8.75D-05
 IDIUse=3 WtCom= 9.97D-01 WtEn= 2.86D-03
 Coeff-Com:  0.583D-03 0.180D-02 0.482D-02-0.131D+00-0.233D+00 0.136D+01
 Coeff-En:   0.000D+00 0.000D+00 0.000D+00 0.000D+00 0.000D+00 0.100D+01
 Coeff:      0.581D-03 0.179D-02 0.480D-02-0.130D+00-0.232D+00 0.136D+01
 Gap=     0.502 Goal=   None    Shift=    0.000
 RMSDP=4.56D-05 MaxDP=1.26D-03 DE=-3.17D-04 OVMax= 5.58D-03

 Cycle   7  Pass 1  IDiag  1:
 E= -279.501706319062     Delta-E=       -0.000073413950 Rises=F Damp=F
 DIIS: error= 1.23D-04 at cycle   7 NSaved=   7.
 NSaved= 7 IEnMin= 7 EnMin= -279.501706319062     IErMin= 7 ErrMin= 1.23D-04
 ErrMax= 1.23D-04  0.00D+00 EMaxC= 1.00D-01 BMatC= 4.50D-06 BMatP= 1.68D-05
 IDIUse=3 WtCom= 9.99D-01 WtEn= 1.23D-03
 Coeff-Com: -0.946D-03 0.136D-01 0.266D-01-0.239D-01-0.286D+00 0.385D+00
 Coeff-Com:  0.886D+00
 Coeff-En:   0.000D+00 0.000D+00 0.000D+00 0.000D+00 0.000D+00 0.000D+00
 Coeff-En:   0.100D+01
 Coeff:     -0.945D-03 0.136D-01 0.265D-01-0.239D-01-0.286D+00 0.384D+00
 Coeff:      0.886D+00
 Gap=     0.502 Goal=   None    Shift=    0.000
 RMSDP=1.33D-05 MaxDP=3.81D-04 DE=-7.34D-05 OVMax= 1.56D-03

 Cycle   8  Pass 1  IDiag  1:
 E= -279.501715275186     Delta-E=       -0.000008956123 Rises=F Damp=F
 DIIS: error= 5.86D-05 at cycle   8 NSaved=   8.
 NSaved= 8 IEnMin= 8 EnMin= -279.501715275186     IErMin= 8 ErrMin= 5.86D-05
 ErrMax= 5.86D-05  0.00D+00 EMaxC= 1.00D-01 BMatC= 6.12D-07 BMatP= 4.50D-06
 IDIUse=1 WtCom= 1.00D+00 WtEn= 0.00D+00
 Coeff-Com: -0.450D-03 0.346D-02 0.762D-02 0.275D-01-0.410D-01-0.198D+00
 Coeff-Com:  0.175D+00 0.103D+01
 Coeff:     -0.450D-03 0.346D-02 0.762D-02 0.275D-01-0.410D-01-0.198D+00
 Coeff:      0.175D+00 0.103D+01
 Gap=     0.502 Goal=   None    Shift=    0.000
 RMSDP=6.94D-06 MaxDP=2.04D-04 DE=-8.96D-06 OVMax= 7.51D-04

 Cycle   9  Pass 1  IDiag  1:
 E= -279.501717066302     Delta-E=       -0.000001791117 Rises=F Damp=F
 DIIS: error= 1.53D-05 at cycle   9 NSaved=   9.
 NSaved= 9 IEnMin= 9 EnMin= -279.501717066302     IErMin= 9 ErrMin= 1.53D-05
 ErrMax= 1.53D-05  0.00D+00 EMaxC= 1.00D-01 BMatC= 7.06D-08 BMatP= 6.12D-07
 IDIUse=1 WtCom= 1.00D+00 WtEn= 0.00D+00
 Coeff-Com:  0.123D-03-0.173D-02-0.308D-02-0.194D-02 0.342D-01-0.628D-03
 Coeff-Com: -0.168D+00-0.963D-01 0.124D+01
 Coeff:      0.123D-03-0.173D-02-0.308D-02-0.194D-02 0.342D-01-0.628D-03
 Coeff:     -0.168D+00-0.963D-01 0.124D+01
 Gap=     0.502 Goal=   None    Shift=    0.000
 RMSDP=1.95D-06 MaxDP=6.65D-05 DE=-1.79D-06 OVMax= 1.76D-04

 Cycle  10  Pass 1  IDiag  1:
 E= -279.501717228824     Delta-E=       -0.000000162522 Rises=F Damp=F
 DIIS: error= 4.05D-06 at cycle  10 NSaved=  10.
 NSaved=10 IEnMin=10 EnMin= -279.501717228824     IErMin=10 ErrMin= 4.05D-06
 ErrMax= 4.05D-06  0.00D+00 EMaxC= 1.00D-01 BMatC= 5.61D-09 BMatP= 7.06D-08
 IDIUse=1 WtCom= 1.00D+00 WtEn= 0.00D+00
 Coeff-Com:  0.317D-04-0.250D-03-0.338D-03-0.273D-02 0.175D-02 0.198D-01
 Coeff-Com: -0.139D-01-0.747D-01-0.775D-01 0.115D+01
 Coeff:      0.317D-04-0.250D-03-0.338D-03-0.273D-02 0.175D-02 0.198D-01
 Coeff:     -0.139D-01-0.747D-01-0.775D-01 0.115D+01
 Gap=     0.502 Goal=   None    Shift=    0.000
 RMSDP=5.10D-07 MaxDP=2.13D-05 DE=-1.63D-07 OVMax= 4.18D-05

 Cycle  11  Pass 1  IDiag  1:
 E= -279.501717241537     Delta-E=       -0.000000012713 Rises=F Damp=F
 DIIS: error= 2.04D-06 at cycle  11 NSaved=  11.
 NSaved=11 IEnMin=11 EnMin= -279.501717241537     IErMin=11 ErrMin= 2.04D-06
 ErrMax= 2.04D-06  0.00D+00 EMaxC= 1.00D-01 BMatC= 6.68D-10 BMatP= 5.61D-09
 IDIUse=1 WtCom= 1.00D+00 WtEn= 0.00D+00
 Coeff-Com: -0.214D-04 0.246D-03 0.489D-03 0.530D-03-0.429D-02-0.359D-02
 Coeff-Com:  0.214D-01 0.306D-01-0.138D+00-0.181D+00 0.127D+01
 Coeff:     -0.214D-04 0.246D-03 0.489D-03 0.530D-03-0.429D-02-0.359D-02
 Coeff:      0.214D-01 0.306D-01-0.138D+00-0.181D+00 0.127D+01
 Gap=     0.502 Goal=   None    Shift=    0.000
 RMSDP=1.80D-07 MaxDP=6.63D-06 DE=-1.27D-08 OVMax= 1.74D-05

 Cycle  12  Pass 1  IDiag  1:
 E= -279.501717243370     Delta-E=       -0.000000001833 Rises=F Damp=F
 DIIS: error= 5.98D-07 at cycle  12 NSaved=  12.
 NSaved=12 IEnMin=12 EnMin= -279.501717243370     IErMin=12 ErrMin= 5.98D-07
 ErrMax= 5.98D-07  0.00D+00 EMaxC= 1.00D-01 BMatC= 7.27D-11 BMatP= 6.68D-10
 IDIUse=1 WtCom= 1.00D+00 WtEn= 0.00D+00
 Coeff-Com:  0.125D-05-0.294D-04-0.633D-04 0.183D-03 0.108D-02-0.230D-02
 Coeff-Com: -0.415D-02 0.551D-02 0.417D-01-0.112D+00-0.286D+00 0.136D+01
 Coeff:      0.125D-05-0.294D-04-0.633D-04 0.183D-03 0.108D-02-0.230D-02
 Coeff:     -0.415D-02 0.551D-02 0.417D-01-0.112D+00-0.286D+00 0.136D+01
 Gap=     0.502 Goal=   None    Shift=    0.000
 RMSDP=7.27D-08 MaxDP=2.88D-06 DE=-1.83D-09 OVMax= 6.73D-06

 Cycle  13  Pass 1  IDiag  1:
 E= -279.501717243605     Delta-E=       -0.000000000235 Rises=F Damp=F
 DIIS: error= 1.71D-07 at cycle  13 NSaved=  13.
 NSaved=13 IEnMin=13 EnMin= -279.501717243605     IErMin=13 ErrMin= 1.71D-07
 ErrMax= 1.71D-07  0.00D+00 EMaxC= 1.00D-01 BMatC= 4.07D-12 BMatP= 7.27D-11
 IDIUse=1 WtCom= 1.00D+00 WtEn= 0.00D+00
 Coeff-Com:  0.129D-05-0.140D-04-0.225D-04-0.895D-04 0.122D-03 0.765D-03
 Coeff-Com: -0.856D-03-0.325D-02 0.527D-03 0.409D-01-0.342D-01-0.328D+00
 Coeff-Com:  0.132D+01
 Coeff:      0.129D-05-0.140D-04-0.225D-04-0.895D-04 0.122D-03 0.765D-03
 Coeff:     -0.856D-03-0.325D-02 0.527D-03 0.409D-01-0.342D-01-0.328D+00
 Coeff:      0.132D+01
 Gap=     0.502 Goal=   None    Shift=    0.000
 RMSDP=1.93D-08 MaxDP=5.63D-07 DE=-2.35D-10 OVMax= 1.57D-06

 Cycle  14  Pass 1  IDiag  1:
 E= -279.501717243616     Delta-E=       -0.000000000012 Rises=F Damp=F
 DIIS: error= 2.45D-08 at cycle  14 NSaved=  14.
 NSaved=14 IEnMin=14 EnMin= -279.501717243616     IErMin=14 ErrMin= 2.45D-08
 ErrMax= 2.45D-08  0.00D+00 EMaxC= 1.00D-01 BMatC= 1.96D-13 BMatP= 4.07D-12
 IDIUse=1 WtCom= 1.00D+00 WtEn= 0.00D+00
 Coeff-Com: -0.188D-06 0.310D-05 0.554D-05 0.448D-05-0.821D-04 0.455D-04
 Coeff-Com:  0.282D-03 0.216D-03-0.242D-02 0.138D-02 0.171D-01-0.257D-01
 Coeff-Com: -0.199D+00 0.121D+01
 Coeff:     -0.188D-06 0.310D-05 0.554D-05 0.448D-05-0.821D-04 0.455D-04
 Coeff:      0.282D-03 0.216D-03-0.242D-02 0.138D-02 0.171D-01-0.257D-01
 Coeff:     -0.199D+00 0.121D+01
 Gap=     0.502 Goal=   None    Shift=    0.000
 RMSDP=3.80D-09 MaxDP=9.24D-08 DE=-1.17D-11 OVMax= 3.41D-07

 SCF Done:  E(RHF) =  -279.501717244     A.U. after   14 cycles
            NFock= 14  Conv=0.38D-08     -V/T= 2.0024
 KE= 2.788395338668D+02 PE=-8.947908491333D+02 EE= 2.197138928049D+02
 Leave Link  502 at Mon Feb 21 20:38:28 2022, MaxMem= 16106127360 cpu:              52.9 elap:               3.5
 (Enter /sw/contrib/gaussian/g16/B01/g16/l801.exe)
 ExpMin= 2.53D-02 ExpMax= 1.53D+04 ExpMxC= 5.22D+02 IAcc=3 IRadAn=         5 AccDes= 0.00D+00
 HarFok:  IExCor=  205 AccDes= 0.00D+00 IRadAn=         5 IDoV=-2 UseB2=F ITyADJ=14
 ICtDFT= 12500011 ScaDFX=  1.000000  1.000000  1.000000  1.000000
 Largest valence mixing into a core orbital is  2.08D-04
 Largest core mixing into a valence orbital is  3.63D-05
 Range of M.O.s used for correlation:     5   207
 NBasis=   207 NAE=    16 NBE=    16 NFC=     4 NFV=     0
 NROrb=    203 NOA=    12 NOB=    12 NVA=   191 NVB=   191

 **** Warning!!: The largest alpha MO coefficient is  0.17374968D+02

 Leave Link  801 at Mon Feb 21 20:38:28 2022, MaxMem= 16106127360 cpu:               4.7 elap:               0.2
 (Enter /sw/contrib/gaussian/g16/B01/g16/l906.exe)
 Frozen-core derivative calculation, NFC=   4 NFV=   0.
 FulOut=F Deriv=T AODrv=T NAtomX=     5
   MMem=           0  MDisk=          12 MDiskD=          12
  W3Min=      811440 MinDsk=     2425030 NBas6D=         245
 NBas2D=       30762    NTT=       30135    LW2=     7400000
    MDV= 16105574311 MDiskM=      328644 NBas2p=       30702
 Disk-based method using ON**2 memory for 12 occupieds at a time.
 Permanent disk used for amplitudes=    11516536 words.
 Estimated scratch disk usage=   321251614 words.
 IMap=   1   2   3   4   5   6   7   8   9  10  11  12  13  14  15  16
 Actual    scratch disk usage=   310331678 words.
 JobTyp=1 Pass  1:  I=   5 to  16 NPSUse= 28 ParTrn=T ParDer=T DoDerP=T.
 (rs|ai) integrals will be sorted in core.
 Spin components of T(2) and E(2):
     alpha-alpha T2 =       0.3402932812D-01 E2=     -0.1223937925D+00
     alpha-beta  T2 =       0.1868497112D+00 E2=     -0.7001841020D+00
     beta-beta   T2 =       0.3402932812D-01 E2=     -0.1223937925D+00
 The integrals were generated   1 times.
 ANorm=    0.1120226927D+01
 E2 =    -0.9449716870D+00 EUMP2 =    -0.28044668893066D+03
 Leave Link  906 at Mon Feb 21 20:40:05 2022, MaxMem= 16106127360 cpu:            2711.4 elap:              96.9
 (Enter /sw/contrib/gaussian/g16/B01/g16/l1101.exe)
 Using compressed Sx but separate Hx and Fx, NAtomX=     5.
 Will process      6 centers per pass.
 Leave Link 1101 at Mon Feb 21 20:40:05 2022, MaxMem= 16106127360 cpu:               5.7 elap:               0.2
 (Enter /sw/contrib/gaussian/g16/B01/g16/l1102.exe)
 Leave Link 1102 at Mon Feb 21 20:40:05 2022, MaxMem= 16106127360 cpu:               0.5 elap:               0.0
 (Enter /sw/contrib/gaussian/g16/B01/g16/l1110.exe)
 Forming Gx(P) for the SCF density, NAtomX=     5.
 Integral derivatives from FoFJK, PRISM(SPDF).
 Do as many integral derivatives as possible in FoFJK.
 G2DrvN: MDV=   16106126844.
 G2DrvN: will do     6 centers at a time, making    1 passes.
 Calling FoFCou, ICntrl=  3107 FMM=F I1Cent=   0 AccDes= 0.00D+00.
 FoFJK:  IHMeth= 1 ICntrl=    3107 DoSepK=F KAlg= 0 I1Cent=           0 FoldK=F
 IRaf=         0 NMat=       1 IRICut=       1 DoRegI=T DoRafI=F ISym2E= 1 IDoP0=0 IntGTp=1.
 FoFCou: FMM=F IPFlag=           0 FMFlag=      100000 FMFlg1=           0
         NFxFlg=           0 DoJE=F BraDBF=F KetDBF=F FulRan=T
         wScrn=  0.000000 ICntrl=      3107 IOpCl=  0 I1Cent=           0 NGrid=           0
         NMat0=    1 NMatS0=      1 NMatT0=    0 NMatD0=    1 NMtDS0=    0 NMtDT0=    0
 Petite list used in FoFCou.
 End of G2Drv F.D. properties file   721 does not exist.
 End of G2Drv F.D. properties file   722 does not exist.
 End of G2Drv F.D. properties file   788 does not exist.
 Leave Link 1110 at Mon Feb 21 20:40:09 2022, MaxMem= 16106127360 cpu:              83.7 elap:               3.0
 (Enter /sw/contrib/gaussian/g16/B01/g16/l1002.exe)
 Minotr:  Closed shell wavefunction.
          IDoAtm=11111
          Frozen-core window.
          Direct CPHF calculation.
          Differentiating once with respect to electric field.
                with respect to dipole field.
          Differentiating once with respect to nuclear coordinates.
          Requested convergence is 1.0D-08 RMS, and 1.0D-07 maximum.
          Secondary convergence is 1.0D-12 RMS, and 1.0D-12 maximum.
          NewPWx=T KeepS1=T KeepF1=T KeepIn=T MapXYZ=F SortEE=F KeepMc=T.
 Keep R1 ints in memory in symmetry-blocked form, NReq=348888983.
 FoFCou: FMM=F IPFlag=           0 FMFlag=           0 FMFlg1=           0
         NFxFlg=           0 DoJE=F BraDBF=F KetDBF=F FulRan=T
         wScrn=  0.000000 ICntrl=       600 IOpCl=  0 I1Cent=           0 NGrid=           0
         NMat0=    1 NMatS0=  21528 NMatT0=    0 NMatD0=    1 NMtDS0=    0 NMtDT0=    0
 Petite list used in FoFCou.
          MDV=   16106127360 using IRadAn=       1.
          Solving linear equations simultaneously, MaxMat=       0.
          There are    18 degrees of freedom in the 1st order CPHF.  IDoFFX=6 NUNeed=    18.
     15 vectors produced by pass  0 Test12= 1.70D-14 5.56D-09 XBig12= 8.29D+00 1.06D+00.
 AX will form    15 AO Fock derivatives at one time.
     15 vectors produced by pass  1 Test12= 1.70D-14 5.56D-09 XBig12= 1.34D+00 2.54D-01.
     15 vectors produced by pass  2 Test12= 1.70D-14 5.56D-09 XBig12= 1.42D-01 9.86D-02.
     15 vectors produced by pass  3 Test12= 1.70D-14 5.56D-09 XBig12= 4.98D-03 1.10D-02.
     15 vectors produced by pass  4 Test12= 1.70D-14 5.56D-09 XBig12= 9.90D-05 1.91D-03.
     15 vectors produced by pass  5 Test12= 1.70D-14 5.56D-09 XBig12= 1.38D-06 1.76D-04.
     15 vectors produced by pass  6 Test12= 1.70D-14 5.56D-09 XBig12= 1.10D-08 1.50D-05.
     12 vectors produced by pass  7 Test12= 1.70D-14 5.56D-09 XBig12= 8.13D-11 1.28D-06.
      3 vectors produced by pass  8 Test12= 1.70D-14 5.56D-09 XBig12= 5.76D-13 1.19D-07.
      2 vectors produced by pass  9 Test12= 1.70D-14 5.56D-09 XBig12= 3.80D-15 1.01D-08.
 InvSVY:  IOpt=1 It=  1 EMax= 8.88D-16
 Solved reduced A of dimension   122 with    15 vectors.
 FullF1:  Do perturbations      1 to      18.
 Saving first derivative matrices.
 End of Minotr F.D. properties file   721 does not exist.
 End of Minotr F.D. properties file   722 does not exist.
 End of Minotr F.D. properties file   788 does not exist.
 Leave Link 1002 at Mon Feb 21 20:40:11 2022, MaxMem= 16106127360 cpu:              79.6 elap:               2.9
 (Enter /sw/contrib/gaussian/g16/B01/g16/l811.exe)
 MDV= 16106127360.
 Form MO integral derivatives with frozen-active canonical formalism.
 MOERI=1 MOERIx=1 NAtoms=     5 NAtomX=     5.
 Discarding MO integrals.
 MO basis two electron integral derivatives will not be stored on disk.
 IAlg= 3 DoFC=T DoPWx=T Debug=F.
 Frozen-core window:  NFC=   4 NFV=   0.
 Reordered first order wavefunction length =     18678272
 In DefCFB: NBatch=  1 ICI= 16 ICA=191 LFMax= 96
            Large arrays: LIAPS=   619940160 LIARS=   288257200 words.
 In StABat: MaxSiz= 55 MinSiz= 25 NAtomB=  5
 DoIAMN: NPSUse= 28.
 Leave Link  811 at Mon Feb 21 20:41:34 2022, MaxMem= 16106127360 cpu:            2309.6 elap:              82.6
 (Enter /sw/contrib/gaussian/g16/B01/g16/l804.exe)
 Frozen-core window:  NFC=   4 NFV=   0.
 Closed-shell transformation, MDV= 16106127360 ITran=4 ISComp=1.
 Semi-Direct transformation.
 ModeAB=           2 MOrb=            16 LenV=   16104923065
 LASXX=     67341636 LTotXX=    67341636 LenRXX=    67341636
 LTotAB=    68301760 MaxLAS=    99807120 LenRXY=    99807120
 NonZer=   134683272 LenScr=   202817536 LnRSAI=           0
 LnScr1=           0 LExtra=           0 Total=    369966292
 MaxDsk=          -1 SrtSym=           F ITran=            4
 DoSDTr:  NPSUse= 28
 JobTyp=0 Pass  1:  I=   1 to  16.
 (rs|ai) integrals will be sorted in core.
 Complete sort for first half transformation.
 First half transformation complete.
 Begin second half transformation for I=  10.
 Begin second half transformation for I=  10.
 Complete sort for second half transformation.
 Second half transformation complete.
 Spin components of T(2) and E(2):
     alpha-alpha T2 =       0.3402932812D-01 E2=     -0.1223937925D+00
     alpha-beta  T2 =       0.1868497112D+00 E2=     -0.7001841020D+00
     beta-beta   T2 =       0.3402932812D-01 E2=     -0.1223937925D+00
 ANorm=    0.1584240113D+01
 E2 =    -0.9449716870D+00 EUMP2 =    -0.28044668893066D+03
 Leave Link  804 at Mon Feb 21 20:41:50 2022, MaxMem= 16106127360 cpu:             443.9 elap:              15.9
 (Enter /sw/contrib/gaussian/g16/B01/g16/l1002.exe)
 Minotr:  Closed shell wavefunction.
          Computing MP2/KS-MP2 derivatives.
          Using Z-Vector for PSCF gradient.
          Skipping F1 and S1 gradient terms here.
          IDoAtm=11111
          Frozen-core window.
          Using MO integrals in the linear equations.
          Forming densities via direct SCF.
          Differentiating once with respect to electric field.
                with respect to dipole field.
          Differentiating once with respect to nuclear coordinates.
          Using symmetry in CPHF.
          Requested convergence is 1.0D-10 RMS, and 1.0D-09 maximum.
          NewPWx=F KeepS1=T KeepF1=T KeepIn=T MapXYZ=F SortEE=F KeepMc=T.
          MDV=   16106127360 using IRadAn=       5.
          Solving linear equations separately, MaxMat=       0.
          There are     1 degrees of freedom in the 1st order CPHF.  IDoFFX=0 NUNeed=     1.
 FoFJK:  IHMeth= 1 ICntrl=       0 DoSepK=F KAlg= 0 I1Cent=           0 FoldK=F
 IRaf=         0 NMat=       1 IRICut=       1 DoRegI=T DoRafI=F ISym2E= 0 IDoP0=0 IntGTp=1.
 FoFCou: FMM=F IPFlag=           0 FMFlag=      100000 FMFlg1=           0
         NFxFlg=           0 DoJE=F BraDBF=F KetDBF=F FulRan=T
         wScrn=  0.000000 ICntrl=         0 IOpCl=  0 I1Cent=           0 NGrid=           0
         NMat0=    1 NMatS0=      1 NMatT0=    0 NMatD0=    1 NMtDS0=    0 NMtDT0=    0
 Symmetry not used in FoFCou.
 LinEq1:  Iter=  0 NonCon=     1 RMS=5.97D-03 Max=1.33D-01 NDo=     1
 LinEq1:  Iter=  1 NonCon=     1 RMS=1.91D-03 Max=3.83D-02 NDo=     1
 LinEq1:  Iter=  2 NonCon=     1 RMS=8.70D-04 Max=1.37D-02 NDo=     1
 LinEq1:  Iter=  3 NonCon=     1 RMS=3.88D-04 Max=7.85D-03 NDo=     1
 LinEq1:  Iter=  4 NonCon=     1 RMS=1.20D-04 Max=1.92D-03 NDo=     1
 LinEq1:  Iter=  5 NonCon=     1 RMS=4.66D-05 Max=7.39D-04 NDo=     1
 LinEq1:  Iter=  6 NonCon=     1 RMS=2.07D-05 Max=2.46D-04 NDo=     1
 LinEq1:  Iter=  7 NonCon=     1 RMS=8.25D-06 Max=1.59D-04 NDo=     1
 LinEq1:  Iter=  8 NonCon=     1 RMS=3.51D-06 Max=3.46D-05 NDo=     1
 LinEq1:  Iter=  9 NonCon=     1 RMS=9.49D-07 Max=1.31D-05 NDo=     1
 LinEq1:  Iter= 10 NonCon=     1 RMS=1.86D-07 Max=2.00D-06 NDo=     1
 LinEq1:  Iter= 11 NonCon=     1 RMS=3.45D-08 Max=3.43D-07 NDo=     1
 LinEq1:  Iter= 12 NonCon=     1 RMS=8.29D-09 Max=1.25D-07 NDo=     1
 LinEq1:  Iter= 13 NonCon=     1 RMS=1.49D-09 Max=2.58D-08 NDo=     1
 LinEq1:  Iter= 14 NonCon=     1 RMS=2.72D-10 Max=3.71D-09 NDo=     1
 LinEq1:  Iter= 15 NonCon=     0 RMS=4.93D-11 Max=5.63D-10 NDo=     1
 Linear equations converged to 1.000D-10 1.000D-09 after    15 iterations.
 End of Minotr F.D. properties file   721 does not exist.
 End of Minotr F.D. properties file   722 does not exist.
 End of Minotr F.D. properties file   788 does not exist.
 Leave Link 1002 at Mon Feb 21 20:41:52 2022, MaxMem= 16106127360 cpu:              64.9 elap:               2.4
 (Enter /sw/contrib/gaussian/g16/B01/g16/l1102.exe)
 Use density number 2.
 Symmetrizing basis deriv contribution to polar:
 IMax=3 JMax=2 DiffMx= 0.00D+00
 Leave Link 1102 at Mon Feb 21 20:41:52 2022, MaxMem= 16106127360 cpu:               0.6 elap:               0.0
 (Enter /sw/contrib/gaussian/g16/B01/g16/l1110.exe)
 Forming Gx(P) for generalized density number  2 NAtomX=     5.
 Integral derivatives from FoFJK, PRISM(SPDF).
 Do as many integral derivatives as possible in FoFJK.
 G2DrvN: MDV=   16106126844.
 G2DrvN: will do     6 centers at a time, making    1 passes.
 Calling FoFCou, ICntrl=  3107 FMM=F I1Cent=   0 AccDes= 0.00D+00.
 FoFJK:  IHMeth= 1 ICntrl=    3107 DoSepK=F KAlg= 0 I1Cent=           0 FoldK=F
 IRaf=         0 NMat=       1 IRICut=       1 DoRegI=T DoRafI=F ISym2E= 1 IDoP0=0 IntGTp=1.
 FoFCou: FMM=F IPFlag=           0 FMFlag=      100000 FMFlg1=           0
         NFxFlg=           0 DoJE=F BraDBF=F KetDBF=F FulRan=T
         wScrn=  0.000000 ICntrl=      3107 IOpCl=  0 I1Cent=           0 NGrid=           0
         NMat0=    1 NMatS0=      1 NMatT0=    0 NMatD0=    1 NMtDS0=    0 NMtDT0=    0
 Petite list used in FoFCou.
 End of G2Drv F.D. properties file   721 does not exist.
 End of G2Drv F.D. properties file   722 does not exist.
 End of G2Drv F.D. properties file   788 does not exist.
 Leave Link 1110 at Mon Feb 21 20:41:55 2022, MaxMem= 16106127360 cpu:              83.3 elap:               3.0
 (Enter /sw/contrib/gaussian/g16/B01/g16/l1112.exe)
 MP22nd: MDV=   16106127360
 This link is doing NAtomX=     5 total of    18 degrees of freedom.
 Using ON3 I/O method in MakUI.
 Frozen-core window:  NFC=   4 NFV=   0.
 Using Ix for Sx.
 Use MO integrals over full window.
 Using OV2 memory method for fx*t*t/D, MaxI=    16 DoOO2=F NP=  28.
 R2 and R3 integrals will be kept in memory, NReq=   915591705.
 FoFCou: FMM=F IPFlag=           0 FMFlag=           0 FMFlg1=           0
         NFxFlg=           0 DoJE=F BraDBF=F KetDBF=F FulRan=T
         wScrn=  0.000000 ICntrl=       600 IOpCl=  0 I1Cent=           0 NGrid=           0
         NMat0=    1 NMatS0=      1 NMatT0=    0 NMatD0=    1 NMtDS0=    0 NMtDT0=    0
 Symmetry not used in FoFCou.
 DD1Dir will call FoFMem   1 times, MxPair=       272
 NAB=   136 NAA=     0 NBB=     0.
 Symmetry is being used.
 FoFJK:  IHMeth= 1 ICntrl=       0 DoSepK=F KAlg= 0 I1Cent=           0 FoldK=F
 IRaf=         0 NMat=      18 IRICut=      45 DoRegI=T DoRafI=T ISym2E= 2 IDoP0=3 IntGTp=3.
 Discarding MO integrals.
 Leave Link 1112 at Mon Feb 21 20:42:25 2022, MaxMem= 16106127360 cpu:             830.4 elap:              29.9
 (Enter /sw/contrib/gaussian/g16/B01/g16/l601.exe)
 Copying SCF densities to generalized density rwf, IOpCl= 0 IROHF=0.

 **********************************************************************

            Population analysis using the MP2 Density.

 **********************************************************************

 Orbital symmetries:
       Occupied  (A') (A') (A') (A') (A') (A') (A') (A') (A') (A')
                 (A") (A') (A") (A') (A") (A')
       Virtual   (A') (A") (A') (A') (A") (A') (A') (A') (A") (A')
                 (A") (A') (A') (A') (A") (A') (A') (A") (A') (A')
                 (A') (A') (A') (A') (A") (A') (A') (A") (A') (A')
                 (A") (A') (A") (A') (A') (A") (A') (A") (A') (A')
                 (A") (A') (A") (A') (A') (A") (A') (A') (A") (A')
                 (A") (A') (A') (A') (A") (A') (A") (A') (A") (A')
                 (A') (A') (A") (A') (A') (A") (A') (A") (A') (A')
                 (A") (A') (A') (A") (A") (A') (A') (A") (A') (A')
                 (A') (A") (A') (A") (A") (A') (A') (A") (A') (A')
                 (A") (A') (A') (A") (A') (A") (A') (A") (A') (A')
                 (A") (A') (A") (A') (A') (A") (A') (A') (A") (A')
                 (A") (A') (A') (A') (A") (A') (A') (A') (A") (A')
                 (A") (A') (A") (A') (A') (A") (A") (A') (A") (A')
                 (A') (A') (A') (A") (A") (A") (A') (A') (A') (A')
                 (A") (A') (A") (A') (A') (A") (A') (A') (A') (A')
                 (A") (A') (A') (A") (A') (A") (A') (A") (A') (A")
                 (A') (A") (A') (A") (A') (A") (A") (A') (A") (A')
                 (A") (A') (A") (A') (A") (A') (A") (A") (A') (A')
                 (A') (A') (A') (A') (A') (A') (A') (A') (A') (A')
                 (A')
 The electronic state is 1-A'.
 Alpha  occ. eigenvalues --  -20.69058 -20.68453 -20.66033 -15.81315  -1.62400
 Alpha  occ. eigenvalues --   -1.49545  -1.25490  -0.94787  -0.77200  -0.75959
 Alpha  occ. eigenvalues --   -0.71164  -0.68091  -0.62073  -0.58866  -0.48514
 Alpha  occ. eigenvalues --   -0.47229
 Alpha virt. eigenvalues --    0.02963   0.07155   0.08596   0.10199   0.13384
 Alpha virt. eigenvalues --    0.13385   0.14395   0.15418   0.17830   0.19428
 Alpha virt. eigenvalues --    0.19991   0.20622   0.22070   0.23529   0.23729
 Alpha virt. eigenvalues --    0.26681   0.29358   0.30332   0.31072   0.34369
 Alpha virt. eigenvalues --    0.34940   0.38676   0.42231   0.43241   0.52749
 Alpha virt. eigenvalues --    0.52837   0.55728   0.58009   0.62570   0.63911
 Alpha virt. eigenvalues --    0.67469   0.68454   0.70698   0.71046   0.72442
 Alpha virt. eigenvalues --    0.72884   0.74464   0.79211   0.79268   0.81090
 Alpha virt. eigenvalues --    0.81263   0.82959   0.86822   0.90855   0.92170
 Alpha virt. eigenvalues --    0.92661   0.95495   0.97397   0.98375   1.01641
 Alpha virt. eigenvalues --    1.05120   1.05559   1.07953   1.11515   1.13948
 Alpha virt. eigenvalues --    1.19074   1.21979   1.23395   1.33975   1.35120
 Alpha virt. eigenvalues --    1.38497   1.45432   1.48805   1.50886   1.53682
 Alpha virt. eigenvalues --    1.56593   1.57900   1.61186   1.66158   1.67162
 Alpha virt. eigenvalues --    1.70329   1.79244   1.83414   1.83608   1.87747
 Alpha virt. eigenvalues --    1.90832   1.95448   1.99135   2.00579   2.07829
 Alpha virt. eigenvalues --    2.12340   2.13271   2.14963   2.22369   2.26422
 Alpha virt. eigenvalues --    2.26513   2.29056   2.31276   2.33840   2.38489
 Alpha virt. eigenvalues --    2.42258   2.42923   2.45483   2.46170   2.47660
 Alpha virt. eigenvalues --    2.49817   2.58849   2.59753   2.62004   2.62628
 Alpha virt. eigenvalues --    2.63710   2.66572   2.75494   2.82050   2.84529
 Alpha virt. eigenvalues --    2.87827   2.89448   2.92601   2.96058   3.01874
 Alpha virt. eigenvalues --    3.06552   3.11909   3.20342   3.22408   3.31779
 Alpha virt. eigenvalues --    3.34679   3.52446   3.63738   3.83727   3.84395
 Alpha virt. eigenvalues --    4.14744   4.16355   4.18267   4.25547   4.35450
 Alpha virt. eigenvalues --    4.39108   4.46303   4.52019   4.65565   4.70987
 Alpha virt. eigenvalues --    4.80155   4.82424   4.83038   4.89492   5.02437
 Alpha virt. eigenvalues --    5.07768   5.10388   5.14884   5.17520   5.23994
 Alpha virt. eigenvalues --    5.27292   5.30814   5.32685   5.35011   5.59768
 Alpha virt. eigenvalues --    5.67345   5.76641   5.83034   5.95746   6.16512
 Alpha virt. eigenvalues --    6.30886   6.33937   6.39547   6.49405   6.50630
 Alpha virt. eigenvalues --    6.61176   6.66987   6.70064   6.75430   6.76322
 Alpha virt. eigenvalues --    6.83183   6.89977   7.01604   7.05625   7.05950
 Alpha virt. eigenvalues --    7.08988   7.12333   7.14775   7.18091   7.22634
 Alpha virt. eigenvalues --    7.24039   7.30625   7.32551   7.34116   7.39693
 Alpha virt. eigenvalues --    7.43312   7.48273   7.61132   7.61740   7.62182
 Alpha virt. eigenvalues --    7.66280   7.78712   7.88184   8.09511   8.31407
 Alpha virt. eigenvalues --    8.40932   8.54516  13.38191  14.41358  15.15055
 Alpha virt. eigenvalues --   16.15077
          Condensed to atoms (all electrons):
               1          2          3          4          5
     1  H    0.587601   0.128615   0.020943   0.011751  -0.000569
     2  O    0.128615   8.322214  -0.175523  -0.086770   0.015173
     3  O    0.020943  -0.175523   8.469423  -0.131551  -0.037654
     4  N    0.011751  -0.086770  -0.131551   6.972244  -0.055637
     5  O   -0.000569   0.015173  -0.037654  -0.055637   8.270966
 Mulliken charges:
               1
     1  H    0.251660
     2  O   -0.203709
     3  O   -0.145638
     4  N    0.289964
     5  O   -0.192278
 Sum of Mulliken charges =  -0.00000
 Mulliken charges with hydrogens summed into heavy atoms:
               1
     2  O    0.047952
     3  O   -0.145638
     4  N    0.289964
     5  O   -0.192278
 APT charges:
               1
     1  H    0.299518
     2  O   -0.293111
     3  O   -0.493282
     4  N    0.879902
     5  O   -0.393028
 Sum of APT charges =  -0.00000
 APT charges with hydrogens summed into heavy atoms:
               1
     2  O    0.006407
     3  O   -0.493282
     4  N    0.879902
     5  O   -0.393028
 Electronic spatial extent (au):  <R**2>=            254.0297
 Charge=             -0.0000 electrons
 Dipole moment (field-independent basis, Debye):
    X=              0.4822    Y=              1.3685    Z=             -0.0000  Tot=              1.4510
 Quadrupole moment (field-independent basis, Debye-Ang):
   XX=            -22.5772   YY=            -18.5115   ZZ=            -22.0124
   XY=              3.2194   XZ=             -0.0000   YZ=              0.0000
 Traceless Quadrupole moment (field-independent basis, Debye-Ang):
   XX=             -1.5436   YY=              2.5222   ZZ=             -0.9787
   XY=              3.2194   XZ=             -0.0000   YZ=              0.0000
 Octapole moment (field-independent basis, Debye-Ang**2):
  XXX=              2.5667  YYY=             11.6812  ZZZ=              0.0000  XYY=              7.9470
  XXY=              6.4067  XXZ=             -0.0000  XZZ=             -1.5759  YZZ=             -0.8651
  YYZ=             -0.0000  XYZ=             -0.0000
 Hexadecapole moment (field-independent basis, Debye-Ang**3):
 XXXX=           -158.5526 YYYY=            -90.6729 ZZZZ=            -18.2452 XXXY=            -37.7060
 XXXZ=              0.0000 YYYX=            -31.0520 YYYZ=              0.0000 ZZZX=              0.0000
 ZZZY=              0.0000 XXYY=            -34.2631 XXZZ=            -30.7877 YYZZ=            -20.9772
 XXYZ=              0.0000 YYXZ=              0.0000 ZZXY=            -15.2964
 N-N= 1.167357052180D+02 E-N=-8.955735200767D+02  KE= 2.801916806928D+02
 Symmetry A'   KE= 2.662210541465D+02
 Symmetry A"   KE= 1.397062654628D+01
  Exact polarizability:  33.987   9.610  30.457  -0.000  -0.000  17.940
 Approx polarizability:  28.995   5.235  23.587  -0.000  -0.000  15.526
 No NMR shielding tensors so no spin-rotation constants.
 Leave Link  601 at Mon Feb 21 20:42:26 2022, MaxMem= 16106127360 cpu:               6.4 elap:               0.3
 (Enter /sw/contrib/gaussian/g16/B01/g16/l701.exe)
 ... and contract with generalized density number  2.
 Compute integral second derivatives.
 Leave Link  701 at Mon Feb 21 20:42:26 2022, MaxMem= 16106127360 cpu:               5.6 elap:               0.2
 (Enter /sw/contrib/gaussian/g16/B01/g16/l702.exe)
 L702 exits ... SP integral derivatives will be done elsewhere.
 Leave Link  702 at Mon Feb 21 20:42:26 2022, MaxMem= 16106127360 cpu:               0.5 elap:               0.0
 (Enter /sw/contrib/gaussian/g16/B01/g16/l703.exe)
 Integral derivatives from FoFJK, PRISM(SPDF).
 Compute integral second derivatives, UseDBF=F ICtDFT=           0.
 Calling FoFJK, ICntrl=  10100127 FMM=F ISym2X=1 I1Cent= 0 IOpClX= 0 NMat=1 NMatS=1 NMatT=0.
 FoFJK:  IHMeth= 1 ICntrl=10100127 DoSepK=F KAlg= 0 I1Cent=           0 FoldK=F
 IRaf=         0 NMat=       1 IRICut=       1 DoRegI=T DoRafI=F ISym2E= 1 IDoP0=0 IntGTp=1.
 FoFCou: FMM=F IPFlag=           0 FMFlag=      100000 FMFlg1=         800
         NFxFlg=           0 DoJE=F BraDBF=F KetDBF=F FulRan=T
         wScrn=  0.000000 ICntrl=  10100127 IOpCl=  0 I1Cent=           0 NGrid=           0
         NMat0=    1 NMatS0=      1 NMatT0=    0 NMatD0=    1 NMtDS0=    0 NMtDT0=    0
 Petite list used in FoFCou.
 Leave Link  703 at Mon Feb 21 20:42:41 2022, MaxMem= 16106127360 cpu:             424.1 elap:              15.2
 (Enter /sw/contrib/gaussian/g16/B01/g16/l716.exe)
 Dipole        = 1.89701341D-01 5.38417393D-01-1.34697784D-32
 Polarizability= 3.39867179D+01 9.60979676D+00 3.04573211D+01
                -2.44449911D-31-4.78925644D-31 1.79396996D+01
 Full mass-weighted force constant matrix:
 Low frequencies --- -275.9180  -63.5424   -0.0013    0.0007    0.0008   19.5487
 Low frequencies ---   28.0149  231.2818  338.0929
 ******    1 imaginary frequencies (negative Signs) ****** 
 Diagonal vibrational polarizability:
       14.3229543      25.6460202      44.4381552
 Harmonic frequencies (cm**-1), IR intensities (KM/Mole), Raman scattering
 activities (A**4/AMU), depolarization ratios for plane and unpolarized
 incident light, reduced masses (AMU), force constants (mDyne/A),
 and normal coordinates:
                      1                      2                      3
                     A"                     A"                     A'
 Frequencies --   -275.9165               231.2581               338.0916
 Red. masses --      1.1399                10.5811                 8.7417
 Frc consts  --      0.0511                 0.3334                 0.5887
 IR Inten    --    124.5976                 0.7832                 1.8963
  Atom  AN      X      Y      Z        X      Y      Z        X      Y      Z
     1   1     0.00   0.00   1.00     0.00  -0.00  -0.57     0.53  -0.44   0.00
     2   8     0.00   0.00  -0.06     0.00  -0.00  -0.31    -0.10  -0.39   0.00
     3   8     0.00   0.00  -0.04     0.00   0.00   0.34    -0.16   0.41  -0.00
     4   7    -0.00  -0.00   0.06    -0.00   0.00   0.52     0.06   0.29  -0.00
     5   8    -0.00  -0.00  -0.01    -0.00  -0.00  -0.44     0.18  -0.24   0.00
                      4                      5                      6
                     A'                     A'                     A'
 Frequencies --    443.8667               784.7774               967.6011
 Red. masses --     11.9951                12.8016                15.3067
 Frc consts  --      1.3924                 4.6452                 8.4435
 IR Inten    --    202.1975               171.9808                23.6650
  Atom  AN      X      Y      Z        X      Y      Z        X      Y      Z
     1   1     0.45   0.16   0.00    -0.36   0.18   0.00    -0.19  -0.04   0.00
     2   8     0.31   0.17   0.00     0.42   0.09   0.00    -0.51   0.02   0.00
     3   8     0.16   0.46  -0.00    -0.06  -0.27  -0.00     0.75  -0.01  -0.00
     4   7    -0.34  -0.38  -0.00    -0.14   0.61  -0.00    -0.12   0.25  -0.00
     5   8    -0.20  -0.32   0.00    -0.21  -0.37   0.00    -0.12  -0.22   0.00
                      7                      8                      9
                     A'                     A'                     A'
 Frequencies --   1371.5310              1676.7556              3778.7070
 Red. masses --      1.1350                13.2359                 1.0676
 Frc consts  --      1.2579                21.9252                 8.9813
 IR Inten    --    154.3026               140.2157                84.4311
  Atom  AN      X      Y      Z        X      Y      Z        X      Y      Z
     1   1     1.00  -0.03   0.00    -0.34  -0.00  -0.00     0.08   0.99  -0.00
     2   8    -0.03   0.05   0.00    -0.00  -0.04  -0.00    -0.01  -0.06   0.00
     3   8    -0.02  -0.05  -0.00     0.00   0.15   0.00     0.00   0.00   0.00
     4   7     0.02   0.01  -0.00     0.70  -0.05   0.00    -0.00  -0.00  -0.00
     5   8    -0.03  -0.01   0.00    -0.60  -0.07  -0.00     0.00   0.00  -0.00

 -------------------
 - Thermochemistry -
 -------------------
 Temperature   298.150 Kelvin.  Pressure   1.00000 Atm.
 Atom     1 has atomic number  1 and mass   1.00783
 Atom     2 has atomic number  8 and mass  15.99491
 Atom     3 has atomic number  8 and mass  15.99491
 Atom     4 has atomic number  7 and mass  14.00307
 Atom     5 has atomic number  8 and mass  15.99491
 Molecular mass:    62.99564 amu.
 Principal axes and moments of inertia in atomic units:
                           1         2         3
     Eigenvalues --    32.31486 362.87932 395.19418
           X            0.80563  -0.59243   0.00000
           Y            0.59243   0.80563   0.00000
           Z            0.00000  -0.00000   1.00000
 This molecule is an asymmetric top.
 Rotational symmetry number  1.
 Rotational temperatures (Kelvin)      2.68031     0.23869     0.21917
 Rotational constants (GHZ):          55.84865     4.97339     4.56672
    1 imaginary frequencies ignored.
 Zero-point vibrational energy      57376.4 (Joules/Mol)
                                   13.71329 (Kcal/Mol)
 Warning -- explicit consideration of   3 degrees of freedom as
           vibrations may cause significant error
 Vibrational temperatures:    332.73   486.44   638.63  1129.12  1392.16
          (Kelvin)           1973.33  2412.48  5436.72
 
 Zero-point correction=                           0.021854 (Hartree/Particle)
 Thermal correction to Energy=                    0.025979
 Thermal correction to Enthalpy=                  0.026923
 Thermal correction to Gibbs Free Energy=        -0.004270
 Sum of electronic and zero-point Energies=           -280.424835
 Sum of electronic and thermal Energies=              -280.420710
 Sum of electronic and thermal Enthalpies=            -280.419766
 Sum of electronic and thermal Free Energies=         -280.450959
 
                     E (Thermal)             CV                S
                      KCal/Mol        Cal/Mol-Kelvin    Cal/Mol-Kelvin
 Total                   16.302             11.975             65.651
 Electronic               0.000              0.000              0.000
 Translational            0.889              2.981             38.341
 Rotational               0.889              2.981             23.054
 Vibrational             14.524              6.014              4.257
 Vibration     1          0.653              1.793              1.869
 Vibration     2          0.718              1.599              1.221
 Vibration     3          0.803              1.374              0.815
                       Q            Log10(Q)             Ln(Q)
 Total Bot       0.921003D+02          1.964261          4.522878
 Total V=0       0.103795D+13         12.016175         27.668266
 Vib (Bot)       0.192313D-09         -9.715992        -22.371898
 Vib (Bot)    1  0.851211D+00         -0.069963         -0.161095
 Vib (Bot)    2  0.549875D+00         -0.259736         -0.598064
 Vib (Bot)    3  0.388264D+00         -0.410872         -0.946069
 Vib (V=0)       0.216732D+01          0.335923          0.773490
 Vib (V=0)    1  0.148720D+01          0.172369          0.396894
 Vib (V=0)    2  0.124321D+01          0.094545          0.217698
 Vib (V=0)    3  0.113305D+01          0.054248          0.124911
 Electronic      0.100000D+01          0.000000          0.000000
 Translational   0.196526D+08          7.293420         16.793719
 Rotational      0.243687D+05          4.386833         10.101057
 
                                                                title
                                                             IR Spectrum
 
     3                                                                      1         1                                              
     7                                                                      6         3             9     7           4  3   2       
     7                                                                      7         7             6     8           4  3   3       
     9                                                                      7         2             8     5           4  8   1       
 
     X                                                                      X         X             X     X           X  X   X       
     X                                                                      X         X             X     X           X              
     X                                                                      X         X                   X           X              
     X                                                                      X         X                   X           X              
     X                                                                      X         X                   X           X              
     X                                                                      X         X                   X           X              
     X                                                                      X         X                   X           X              
     X                                                                      X         X                   X           X              
                                                                            X         X                   X           X              
                                                                            X         X                   X           X              
                                                                            X         X                   X           X              
                                                                            X         X                   X           X              
                                                                            X         X                   X           X              
                                                                            X         X                   X           X              
                                                                                      X                   X           X              
                                                                                                          X           X              
                                                                                                          X           X              
                                                                                                                      X              
                                                                                                                      X              
                                                                                                                      X              
 
 ***** Axes restored to original set *****
 -------------------------------------------------------------------
 Center     Atomic                   Forces (Hartrees/Bohr)
 Number     Number              X              Y              Z
 -------------------------------------------------------------------
      1        1           0.000373903    0.000000000    0.000081324
      2        8           0.000605162    0.000000000    0.002138532
      3        8           0.001544923    0.000000000   -0.001699691
      4        7          -0.002690675   -0.000000000    0.000262825
      5        8           0.000166687   -0.000000000   -0.000782990
 -------------------------------------------------------------------
 Cartesian Forces:  Max     0.002690675 RMS     0.001104879
 -----------------------------------------------------------------------------------------------
                       Internal Coordinate Forces (Hartree/Bohr or radian)
  Cent   Atom   N1       Length/X         N2         Alpha/Y        N3         Beta/Z          J
 -----------------------------------------------------------------------------------------------
      1  H 
      2  O        1  -0.000081(     1)
      3  O        2  -0.001264(     2)      1  -0.000685(     5)
      4  N        3  -0.000770(     3)      2  -0.005009(     6)      1   0.000000(     8)     0
      5  O        4  -0.000018(     4)      3  -0.001771(     7)      2   0.000000(     9)     0
 -----------------------------------------------------------------------------------------------
 Internal  Forces:  Max     0.005009306 RMS     0.001852732
 Force constants in Cartesian coordinates: 
                1             2             3             4             5 
      1  0.645948D-01
      2  0.000000D+00 -0.248066D-02
      3  0.501745D-02  0.000000D+00  0.512345D+00
      4 -0.357560D-01  0.000000D+00 -0.160497D-01  0.271213D+00
      5  0.000000D+00  0.325285D-02  0.000000D+00  0.000000D+00  0.215700D-02
      6  0.484465D-01  0.000000D+00 -0.508773D+00  0.308104D-01  0.000000D+00
      7 -0.184096D-01  0.000000D+00  0.124660D-01 -0.220514D+00  0.000000D+00
      8  0.000000D+00  0.100300D-02  0.000000D+00  0.000000D+00 -0.631801D-02
      9 -0.535772D-01  0.000000D+00 -0.454162D-03 -0.176934D-01  0.000000D+00
     10 -0.892684D-02  0.000000D+00 -0.481249D-02 -0.151254D-01  0.000000D+00
     11  0.000000D+00 -0.280625D-02  0.000000D+00  0.000000D+00 -0.554348D-02
     12  0.586329D-02  0.000000D+00 -0.443360D-02  0.119564D-01  0.000000D+00
     13 -0.150239D-02  0.000000D+00  0.337873D-02  0.182397D-03  0.000000D+00
     14  0.000000D+00  0.103106D-02  0.000000D+00  0.000000D+00  0.645164D-02
     15 -0.575008D-02  0.000000D+00  0.131575D-02 -0.902368D-02  0.000000D+00
                6             7             8             9            10 
      6  0.592952D+00
      7 -0.206686D-01  0.342400D+00
      8  0.000000D+00  0.000000D+00  0.329646D-02
      9 -0.799199D-01  0.334889D-01  0.000000D+00  0.183760D+00
     10 -0.495910D-01 -0.747408D-01  0.000000D+00  0.175452D+00  0.825818D+00
     11  0.000000D+00  0.000000D+00  0.972323D-02  0.000000D+00  0.000000D+00
     12  0.202796D-01  0.653245D-01  0.000000D+00 -0.872409D-01 -0.329351D-01
     13 -0.899725D-02 -0.287355D-01  0.000000D+00 -0.137670D+00 -0.727025D+00
     14  0.000000D+00  0.000000D+00 -0.770468D-02  0.000000D+00  0.000000D+00
     15 -0.245394D-01 -0.906108D-01  0.000000D+00 -0.161453D-01 -0.881132D-01
               11            12            13            14            15 
     11  0.777142D-02
     12  0.000000D+00  0.185056D+00
     13  0.000000D+00 -0.502091D-01  0.757081D+00
     14 -0.914492D-02  0.000000D+00  0.000000D+00  0.936690D-02
     15  0.000000D+00 -0.113661D+00  0.193498D+00  0.000000D+00  0.153030D+00
 Force constants in internal coordinates: 
                1             2             3             4             5 
      1  0.512345D+00
      2 -0.104633D-01  0.279088D+00
      3  0.324544D-02  0.126983D-02  0.115364D+00
      4 -0.359113D-02  0.608222D-02  0.153112D+00  0.811803D+00
      5  0.956138D-02  0.652825D-01  0.170091D-02  0.510583D-02  0.216433D+00
      6  0.418230D-02  0.542212D-01  0.348204D-01  0.226892D-01  0.311763D-01
      7 -0.110790D-02  0.370849D-01  0.326798D-01  0.833315D-01  0.212626D-01
      8  0.000000D+00  0.000000D+00  0.000000D+00  0.000000D+00  0.000000D+00
      9  0.000000D+00  0.000000D+00  0.000000D+00  0.000000D+00  0.000000D+00
                6             7             8             9 
      6  0.269255D+00
      7  0.958555D-01  0.481127D+00
      8  0.000000D+00  0.000000D+00 -0.822809D-02
      9  0.000000D+00  0.000000D+00 -0.391242D-02  0.414630D-01
 Leave Link  716 at Mon Feb 21 20:42:41 2022, MaxMem= 16106127360 cpu:               0.8 elap:               0.1
 (Enter /sw/contrib/gaussian/g16/B01/g16/l103.exe)

 GradGradGradGradGradGradGradGradGradGradGradGradGradGradGradGradGradGrad
 Berny optimization.
 Search for a local minimum.
 Step number   1 out of a maximum of    2
 All quantities printed in internal units (Hartrees-Bohrs-Radians)
 Second derivative matrix not updated -- analytic derivatives used.
 The second derivative matrix:
                          r1        r2        r3        r4        a1
           r1           0.51234
           r2          -0.01046   0.27909
           r3           0.00325   0.00127   0.11536
           r4          -0.00359   0.00608   0.15311   0.81180
           a1           0.00956   0.06528   0.00170   0.00511   0.21643
           a2           0.00418   0.05422   0.03482   0.02269   0.03118
           a3          -0.00111   0.03708   0.03268   0.08333   0.02126
           d1           0.00000  -0.00000  -0.00000  -0.00000  -0.00000
           d2          -0.00000   0.00000   0.00000   0.00000   0.00000
                          a2        a3        d1        d2
           a2           0.26926
           a3           0.09586   0.48113
           d1          -0.00000  -0.00000  -0.00823
           d2          -0.00000  -0.00000  -0.00391   0.04146
 ITU=  0
     Eigenvalues ---   -0.00853   0.04177   0.07821   0.17470   0.21636
     Eigenvalues ---    0.32037   0.51262   0.51342   0.86974
 Eigenvalue     1 is  -8.53D-03 should be greater than     0.000000 Eigenvector:
                          d1        d2        a3        a2        r3
   1                    0.99695   0.07801   0.00000   0.00000  -0.00000
                          r4        a1        r1        r2
   1                    0.00000  -0.00000  -0.00000   0.00000
 Angle between quadratic step and forces=  22.76 degrees.
 Linear search not attempted -- first point.
 Variable       Old X    -DE/DX   Delta X   Delta X   Delta X     New X
                                 (Linear)    (Quad)   (Total)
    r1        1.83110  -0.00008   0.00000  -0.00000  -0.00000   1.83110
    r2        2.74940  -0.00126   0.00000  -0.00095  -0.00095   2.74845
    r3        2.75670  -0.00077   0.00000  -0.00245  -0.00245   2.75425
    r4        2.21236  -0.00002   0.00000   0.00095   0.00095   2.21331
    a1        1.70335  -0.00068   0.00000  -0.00027  -0.00027   1.70309
    a2        1.80338  -0.00501   0.00000  -0.01815  -0.01815   1.78523
    a3        1.90362  -0.00177   0.00000   0.00002   0.00002   1.90365
    d1        3.14159   0.00000   0.00000   0.00000   0.00000   3.14159
    d2        3.14159   0.00000   0.00000  -0.00000   0.00000   3.14159
         Item               Value     Threshold  Converged?
 Maximum Force            0.005009     0.000450     NO 
 RMS     Force            0.001853     0.000300     NO 
 Maximum Displacement     0.018154     0.001800     NO 
 RMS     Displacement     0.006123     0.001200     NO 
 Predicted change in Energy=-4.707436D-05
                       ----------------------------
                       ! Non-Optimized Parameters !
                       ! (Angstroms and Degrees)  !
 ----------------------                            ----------------------
 !      Name          Value   Derivative information (Atomic Units)     !
 ------------------------------------------------------------------------
 !       r1          0.969    -DE/DX =   -0.0001                        !
 !       r2          1.4544   -DE/DX =   -0.0013                        !
 !       r3          1.4575   -DE/DX =   -0.0008                        !
 !       r4          1.1712   -DE/DX =    0.0                           !
 !       a1         97.5797   -DE/DX =   -0.0007                        !
 !       a2        102.286    -DE/DX =   -0.005                         !
 !       a3        109.0709   -DE/DX =   -0.0018                        !
 !       d1        180.0      -DE/DX =    0.0                           !
 !       d2        180.0      -DE/DX =    0.0                           !
 ------------------------------------------------------------------------
 GradGradGradGradGradGradGradGradGradGradGradGradGradGradGradGradGradGrad

 Leave Link  103 at Mon Feb 21 20:42:41 2022, MaxMem= 16106127360 cpu:               2.0 elap:               0.1
 (Enter /sw/contrib/gaussian/g16/B01/g16/l9999.exe)

 ----------------------------------------------------------------------

 Electric dipole moment (input orientation):
 (Debye = 10**-18 statcoulomb cm , SI units = C m)
                  (au)            (Debye)         (10**-30 SI)
   Tot        0.570859D+00      0.145098D+01      0.483994D+01
   x         -0.146616D+00     -0.372660D+00     -0.124306D+01
   y          0.000000D+00      0.000000D+00      0.000000D+00
   z         -0.551710D+00     -0.140231D+01     -0.467759D+01

 Dipole polarizability, Alpha (input orientation).
 (esu units = cm**3 , SI units = C**2 m**2 J**-1)
 Alpha(0;0):
               (au)            (10**-24 esu)      (10**-40 SI)
   iso        0.274612D+02      0.406934D+01      0.452775D+01
   aniso      0.221443D+02      0.328145D+01      0.365111D+01
   xx         0.324526D+02      0.480898D+01      0.535071D+01
   yx         0.000000D+00      0.000000D+00      0.000000D+00
   yy         0.179397D+02      0.265839D+01      0.295786D+01
   zx         0.976776D+01      0.144743D+01      0.161049D+01
   zy         0.000000D+00      0.000000D+00      0.000000D+00
   zz         0.319915D+02      0.474064D+01      0.527468D+01

 ----------------------------------------------------------------------

 Dipole orientation:
     1         -0.00000000          0.00000000          0.00000000
     8         -0.47028746          0.00000000         -1.76967544
     8          2.07024440          0.00000000         -2.82081429
     7          1.63182444          0.00000000         -5.54243068
     8          3.58120613          0.00000000         -6.58858271

 Electric dipole moment (dipole orientation):
 (Debye = 10**-18 statcoulomb cm , SI units = C m)
                  (au)            (Debye)         (10**-30 SI)
   Tot        0.570859D+00      0.145098D+01      0.483994D+01
   x          0.000000D+00      0.000000D+00      0.000000D+00
   y          0.000000D+00      0.000000D+00      0.000000D+00
   z          0.570859D+00      0.145098D+01      0.483994D+01

 Dipole polarizability, Alpha (dipole orientation).
 (esu units = cm**3 , SI units = C**2 m**2 J**-1)
 Alpha(0;0):
               (au)            (10**-24 esu)      (10**-40 SI)
   iso        0.274612D+02      0.406934D+01      0.452775D+01
   aniso      0.221443D+02      0.328145D+01      0.365111D+01
   xx         0.275731D+02      0.408591D+01      0.454619D+01
   yx         0.000000D+00      0.000000D+00      0.000000D+00
   yy         0.179397D+02      0.265839D+01      0.295786D+01
   zx        -0.859359D+01     -0.127344D+01     -0.141689D+01
   zy         0.000000D+00      0.000000D+00      0.000000D+00
   zz         0.368709D+02      0.546371D+01      0.607920D+01

 ----------------------------------------------------------------------
 1\1\GINC-N2228\Freq\RMP2-FC\Aug-CC-pVTZ\H1N1O3\CGAVINH\21-Feb-2022\1\\
 #p freq mp2/aug-cc-pvtz density=current\\title\\0,1\H\O,1,r1\O,2,r2,1,
 a1\N,3,r3,2,a2,1,d1,0\O,4,r4,3,a3,2,d2,0\\r1=0.96897556\r2=1.45491931\
 r3=1.45878406\r4=1.17072885\a1=97.59494903\a2=103.32615341\a3=109.0695
 5123\d1=180.\d2=180.\\Version=ES64L-G16RevB.01\State=1-A'\HF=-279.5017
 172\MP2=-280.4466889\RMSD=3.800e-09\RMSF=1.105e-03\ZeroPoint=0.0218535
 \Thermal=0.0259785\Dipole=-0.1466157,0.,-0.5517098\DipoleDeriv=0.26504
 63,0.,0.047006,0.,0.3556174,0.,0.0846704,0.,0.2778915,-0.3357437,0.,-0
 .2113774,0.,-0.3128888,0.,-0.1163056,0.,-0.2307012,-0.0509973,0.,0.130
 193,0.,-0.0883432,0.,-0.770647,0.,-1.3405057,0.9262991,0.,0.9291101,0.
 ,0.0654622,0.,0.937864,0.,1.647946,-0.8046044,0.,-0.8949317,0.,-0.0198
 476,0.,-0.1355818,0.,-0.3546305\Polar=32.4525837,0.,17.9396996,9.76776
 3,0.,31.9914553\Quadrupole=-1.5054093,-0.7276119,2.2330212,0.,2.125927
 6,0.\PG=CS [SG(H1N1O3)]\NImag=1\\0.06459481,0.,-0.00248066,0.00501745,
 0.,0.51234456,-0.03575601,0.,-0.01604967,0.27121339,0.,0.00325285,0.,0
 .,0.00215700,0.04844651,0.,-0.50877254,0.03081042,0.,0.59295230,-0.018
 40957,0.,0.01246599,-0.22051437,0.,-0.02066864,0.34240017,0.,0.0010030
 0,0.,0.,-0.00631801,0.,0.,0.00329646,-0.05357717,0.,-0.00045416,-0.017
 69345,0.,-0.07991994,0.03348892,0.,0.18376030,-0.00892684,0.,-0.004812
 49,-0.01512541,0.,-0.04959105,-0.07474078,0.,0.17545178,0.82581830,0.,
 -0.00280625,0.,0.,-0.00554348,0.,0.,0.00972323,0.,0.,0.00777142,0.0058
 6329,0.,-0.00443360,0.01195638,0.,0.02027962,0.06532449,0.,-0.08724088
 ,-0.03293507,0.,0.18505569,-0.00150239,0.,0.00337873,0.00018240,0.,-0.
 00899725,-0.02873546,0.,-0.13767008,-0.72702527,0.,-0.05020908,0.75708
 072,0.,0.00103106,0.,0.,0.00645164,0.,0.,-0.00770468,0.,0.,-0.00914492
 ,0.,0.,0.00936690,-0.00575008,0.,0.00131575,-0.00902368,0.,-0.02453944
 ,-0.09061076,0.,-0.01614532,-0.08811317,0.,-0.11366082,0.19349769,0.,0
 .15302983\\-0.00037390,0.,-0.00008132,-0.00060516,0.,-0.00213853,-0.00
 154492,0.,0.00169969,0.00269068,0.,-0.00026282,-0.00016669,0.,0.000782
 99\\\@


 THE DIFFICULTY IN SCIENCE IS OFTEN NOT SO MUCH HOW
 TO MAKE A DISCOVERY BUT RATHER TO KNOW ONE HAS MADE IT.

                                                   -- J. D. BERNAL
 Job cpu time:       0 days  1 hours 58 minutes 53.1 seconds.
 Elapsed time:       0 days  0 hours  4 minutes 17.7 seconds.
 File lengths (MBytes):  RWF=   7239 Int=      0 D2E=      0 Chk=      8 Scr=      1
 Normal termination of Gaussian 16 at Mon Feb 21 20:42:42 2022.
