title                                                                   
Freq      RMP2-FC                                                     Aug-CC-pVTZ         
Number of atoms                            I                5
Info1-9                                    I   N=           9
          33          24           0           0           0         100
           6           2           1
Full Title                                 C   N=           1
title       
Route                                      C   N=           4
#p freq mp2/aug-cc-pvtz density=current         
Charge                                     I                0
Multiplicity                               I                1
Number of electrons                        I               32
Number of alpha electrons                  I               16
Number of beta electrons                   I               16
Number of basis functions                  I              207
Number of independent functions            I              207
Number of point charges in /Mol/           I                0
Number of translation vectors              I                0
Atomic numbers                             I   N=           5
           1           8           8           7           8
Nuclear charges                            R   N=           5
  1.00000000E+00  8.00000000E+00  8.00000000E+00  7.00000000E+00  8.00000000E+00
Current cartesian coordinates              R   N=          15
  2.85613575E+00  3.26694963E+00  4.84598749E-31  2.74256995E+00  1.43937630E+00
 -9.75536725E-32  1.17073585E-16  1.24571393E+00  3.96064681E-31 -4.87353719E-01
 -1.46756714E+00 -5.03838970E-32 -2.67315241E+00 -1.80933768E+00 -2.45664754E-31
Number of symbols in /Mol/                 I                0
Force Field                                I                0
Atom Types                                 C   N=           5
                                                            
Int Atom Types                             I   N=           5
           0           0           0           0           0
MM charges                                 R   N=           5
  0.00000000E+00  0.00000000E+00  0.00000000E+00  0.00000000E+00  0.00000000E+00
Integer atomic weights                     I   N=           5
           1          16          16          14          16
Real atomic weights                        R   N=           5
  1.00782504E+00  1.59949146E+01  1.59949146E+01  1.40030740E+01  1.59949146E+01
Atom fragment info                         I   N=           5
           0           0           0           0           0
Atom residue num                           I   N=           5
           0           0           0           0           0
Nuclear spins                              I   N=           5
           1           0           0           2           0
Nuclear ZEff                               R   N=           5
 -1.00000000E+00 -5.60000000E+00 -5.60000000E+00 -4.55000000E+00 -5.60000000E+00
Nuclear ZNuc                               R   N=           5
  1.00000000E+00  8.00000000E+00  8.00000000E+00  7.00000000E+00  8.00000000E+00
Nuclear QMom                               R   N=           5
  0.00000000E+00  0.00000000E+00  0.00000000E+00  2.04400000E+00  0.00000000E+00
Nuclear GFac                               R   N=           5
  2.79284600E+00  0.00000000E+00  0.00000000E+00  4.03761000E-01  0.00000000E+00
MicOpt                                     I   N=           5
          -1          -1          -1          -1          -1
Number of residues                         I                0
Number of secondary structures             I                0
SymInf integers                            I   N=          26
           1           2           1           1           1           1
           1          -1           0           0           0           0
           0           0           0           0           0           0
           0           0           0           0           0           0
           0           0
RotTr to input orientation                 R   N=          12
 -9.98074870E-01 -8.78015862E-16 -6.20205877E-02  6.20205877E-02  7.63677013E-16
 -9.98074870E-01  9.23689264E-16 -1.00000000E+00 -7.07751776E-16  2.64801918E+00
  0.00000000E+00  3.43779954E+00
Number of contracted shells                I               65
Number of primitive shells                 I              119
Pure/Cartesian d shells                    I                0
Pure/Cartesian f shells                    I                0
Highest angular momentum                   I                3
Largest degree of contraction              I                7
Shell types                                I   N=          65
           0           0           0           0           1           1
           1          -2          -2           0           0           0
           0           0           1           1           1           1
          -2          -2          -2          -3          -3           0
           0           0           0           0           1           1
           1           1          -2          -2          -2          -3
          -3           0           0           0           0           0
           1           1           1           1          -2          -2
          -2          -3          -3           0           0           0
           0           0           1           1           1           1
          -2          -2          -2          -3          -3
Number of primitives per shell             I   N=          65
           3           1           1           1           1           1
           1           1           1           7           6           1
           1           1           3           1           1           1
           1           1           1           1           1           7
           6           1           1           1           3           1
           1           1           1           1           1           1
           1           7           6           1           1           1
           3           1           1           1           1           1
           1           1           1           7           6           1
           1           1           3           1           1           1
           1           1           1           1           1
Shell to atom map                          I   N=          65
           1           1           1           1           1           1
           1           1           1           2           2           2
           2           2           2           2           2           2
           2           2           2           2           2           3
           3           3           3           3           3           3
           3           3           3           3           3           3
           3           4           4           4           4           4
           4           4           4           4           4           4
           4           4           4           5           5           5
           5           5           5           5           5           5
           5           5           5           5           5
Primitive exponents                        R   N=         119
  3.38700000E+01  5.09500000E+00  1.15900000E+00  3.25800000E-01  1.02700000E-01
  2.52600000E-02  1.40700000E+00  3.88000000E-01  1.02000000E-01  1.05700000E+00
  2.47000000E-01  1.53300000E+04  2.29900000E+03  5.22400000E+02  1.47300000E+02
  4.75500000E+01  1.67600000E+01  6.20700000E+00  5.22400000E+02  1.47300000E+02
  4.75500000E+01  1.67600000E+01  6.20700000E+00  6.88200000E-01  1.75200000E+00
  2.38400000E-01  7.37600000E-02  3.44600000E+01  7.74900000E+00  2.28000000E+00
  7.15600000E-01  2.14000000E-01  5.97400000E-02  2.31400000E+00  6.45000000E-01
  2.14000000E-01  1.42800000E+00  5.00000000E-01  1.53300000E+04  2.29900000E+03
  5.22400000E+02  1.47300000E+02  4.75500000E+01  1.67600000E+01  6.20700000E+00
  5.22400000E+02  1.47300000E+02  4.75500000E+01  1.67600000E+01  6.20700000E+00
  6.88200000E-01  1.75200000E+00  2.38400000E-01  7.37600000E-02  3.44600000E+01
  7.74900000E+00  2.28000000E+00  7.15600000E-01  2.14000000E-01  5.97400000E-02
  2.31400000E+00  6.45000000E-01  2.14000000E-01  1.42800000E+00  5.00000000E-01
  1.14200000E+04  1.71200000E+03  3.89300000E+02  1.10000000E+02  3.55700000E+01
  1.25400000E+01  4.64400000E+00  3.89300000E+02  1.10000000E+02  3.55700000E+01
  1.25400000E+01  4.64400000E+00  5.11800000E-01  1.29300000E+00  1.78700000E-01
  5.76000000E-02  2.66300000E+01  5.94800000E+00  1.74200000E+00  5.55000000E-01
  1.72500000E-01  4.91000000E-02  1.65400000E+00  4.69000000E-01  1.51000000E-01
  1.09300000E+00  3.64000000E-01  1.53300000E+04  2.29900000E+03  5.22400000E+02
  1.47300000E+02  4.75500000E+01  1.67600000E+01  6.20700000E+00  5.22400000E+02
  1.47300000E+02  4.75500000E+01  1.67600000E+01  6.20700000E+00  6.88200000E-01
  1.75200000E+00  2.38400000E-01  7.37600000E-02  3.44600000E+01  7.74900000E+00
  2.28000000E+00  7.15600000E-01  2.14000000E-01  5.97400000E-02  2.31400000E+00
  6.45000000E-01  2.14000000E-01  1.42800000E+00  5.00000000E-01
Contraction coefficients                   R   N=         119
  2.54948632E-02  1.90362766E-01  8.52162022E-01  1.00000000E+00  1.00000000E+00
  1.00000000E+00  1.00000000E+00  1.00000000E+00  1.00000000E+00  1.00000000E+00
  1.00000000E+00  5.19808943E-04  4.02025621E-03  2.07128267E-02  8.10105536E-02
  2.35962985E-01  4.42653446E-01  3.57064423E-01 -4.42115008E-05 -1.22591041E-03
 -1.05517725E-02 -6.74452633E-02 -1.71198607E-01  1.07329856E+00  1.00000000E+00
  1.00000000E+00  1.00000000E+00  4.11634896E-02  2.57762836E-01  8.02419274E-01
  1.00000000E+00  1.00000000E+00  1.00000000E+00  1.00000000E+00  1.00000000E+00
  1.00000000E+00  1.00000000E+00  1.00000000E+00  5.19808943E-04  4.02025621E-03
  2.07128267E-02  8.10105536E-02  2.35962985E-01  4.42653446E-01  3.57064423E-01
 -4.42115008E-05 -1.22591041E-03 -1.05517725E-02 -6.74452633E-02 -1.71198607E-01
  1.07329856E+00  1.00000000E+00  1.00000000E+00  1.00000000E+00  4.11634896E-02
  2.57762836E-01  8.02419274E-01  1.00000000E+00  1.00000000E+00  1.00000000E+00
  1.00000000E+00  1.00000000E+00  1.00000000E+00  1.00000000E+00  1.00000000E+00
  5.34563860E-04  4.13435660E-03  2.12335358E-02  8.25006224E-02  2.38138871E-01
  4.42551547E-01  3.53757422E-01 -4.89867350E-05 -1.19527323E-03 -1.03490714E-02
 -6.48680190E-02 -1.71552477E-01  1.07289568E+00  1.00000000E+00  1.00000000E+00
  1.00000000E+00  3.98072123E-02  2.49002660E-01  8.10479727E-01  1.00000000E+00
  1.00000000E+00  1.00000000E+00  1.00000000E+00  1.00000000E+00  1.00000000E+00
  1.00000000E+00  1.00000000E+00  5.19808943E-04  4.02025621E-03  2.07128267E-02
  8.10105536E-02  2.35962985E-01  4.42653446E-01  3.57064423E-01 -4.42115008E-05
 -1.22591041E-03 -1.05517725E-02 -6.74452633E-02 -1.71198607E-01  1.07329856E+00
  1.00000000E+00  1.00000000E+00  1.00000000E+00  4.11634896E-02  2.57762836E-01
  8.02419274E-01  1.00000000E+00  1.00000000E+00  1.00000000E+00  1.00000000E+00
  1.00000000E+00  1.00000000E+00  1.00000000E+00  1.00000000E+00
Coordinates of each shell                  R   N=         195
  2.85613575E+00  3.26694963E+00  2.26853082E-31  2.85613575E+00  3.26694963E+00
  2.26853082E-31  2.85613575E+00  3.26694963E+00  2.26853082E-31  2.85613575E+00
  3.26694963E+00  2.26853082E-31  2.85613575E+00  3.26694963E+00  2.26853082E-31
  2.85613575E+00  3.26694963E+00  2.26853082E-31  2.85613575E+00  3.26694963E+00
  2.26853082E-31  2.85613575E+00  3.26694963E+00  2.26853082E-31  2.85613575E+00
  3.26694963E+00  2.26853082E-31  2.74256995E+00  1.43937630E+00 -3.27888336E-32
  2.74256995E+00  1.43937630E+00 -3.27888336E-32  2.74256995E+00  1.43937630E+00
 -3.27888336E-32  2.74256995E+00  1.43937630E+00 -3.27888336E-32  2.74256995E+00
  1.43937630E+00 -3.27888336E-32  2.74256995E+00  1.43937630E+00 -3.27888336E-32
  2.74256995E+00  1.43937630E+00 -3.27888336E-32  2.74256995E+00  1.43937630E+00
 -3.27888336E-32  2.74256995E+00  1.43937630E+00 -3.27888336E-32  2.74256995E+00
  1.43937630E+00 -3.27888336E-32  2.74256995E+00  1.43937630E+00 -3.27888336E-32
  2.74256995E+00  1.43937630E+00 -3.27888336E-32  2.74256995E+00  1.43937630E+00
 -3.27888336E-32  2.74256995E+00  1.43937630E+00 -3.27888336E-32 -4.16624246E-18
  1.24571393E+00  1.83900601E-31 -4.16624246E-18  1.24571393E+00  1.83900601E-31
 -4.16624246E-18  1.24571393E+00  1.83900601E-31 -4.16624246E-18  1.24571393E+00
  1.83900601E-31 -4.16624246E-18  1.24571393E+00  1.83900601E-31 -4.16624246E-18
  1.24571393E+00  1.83900601E-31 -4.16624246E-18  1.24571393E+00  1.83900601E-31
 -4.16624246E-18  1.24571393E+00  1.83900601E-31 -4.16624246E-18  1.24571393E+00
  1.83900601E-31 -4.16624246E-18  1.24571393E+00  1.83900601E-31 -4.16624246E-18
  1.24571393E+00  1.83900601E-31 -4.16624246E-18  1.24571393E+00  1.83900601E-31
 -4.16624246E-18  1.24571393E+00  1.83900601E-31 -4.16624246E-18  1.24571393E+00
  1.83900601E-31 -4.87353719E-01 -1.46756714E+00 -1.73066030E-31 -4.87353719E-01
 -1.46756714E+00 -1.73066030E-31 -4.87353719E-01 -1.46756714E+00 -1.73066030E-31
 -4.87353719E-01 -1.46756714E+00 -1.73066030E-31 -4.87353719E-01 -1.46756714E+00
 -1.73066030E-31 -4.87353719E-01 -1.46756714E+00 -1.73066030E-31 -4.87353719E-01
 -1.46756714E+00 -1.73066030E-31 -4.87353719E-01 -1.46756714E+00 -1.73066030E-31
 -4.87353719E-01 -1.46756714E+00 -1.73066030E-31 -4.87353719E-01 -1.46756714E+00
 -1.73066030E-31 -4.87353719E-01 -1.46756714E+00 -1.73066030E-31 -4.87353719E-01
 -1.46756714E+00 -1.73066030E-31 -4.87353719E-01 -1.46756714E+00 -1.73066030E-31
 -4.87353719E-01 -1.46756714E+00 -1.73066030E-31 -2.67315241E+00 -1.80933768E+00
 -2.80356260E-32 -2.67315241E+00 -1.80933768E+00 -2.80356260E-32 -2.67315241E+00
 -1.80933768E+00 -2.80356260E-32 -2.67315241E+00 -1.80933768E+00 -2.80356260E-32
 -2.67315241E+00 -1.80933768E+00 -2.80356260E-32 -2.67315241E+00 -1.80933768E+00
 -2.80356260E-32 -2.67315241E+00 -1.80933768E+00 -2.80356260E-32 -2.67315241E+00
 -1.80933768E+00 -2.80356260E-32 -2.67315241E+00 -1.80933768E+00 -2.80356260E-32
 -2.67315241E+00 -1.80933768E+00 -2.80356260E-32 -2.67315241E+00 -1.80933768E+00
 -2.80356260E-32 -2.67315241E+00 -1.80933768E+00 -2.80356260E-32 -2.67315241E+00
 -1.80933768E+00 -2.80356260E-32 -2.67315241E+00 -1.80933768E+00 -2.80356260E-32
Num ILSW                                   I              100
ILSW                                       I   N=         100
           0           0           0           0           2           0
           0           0           0           0           0          -1
           5           0           0           0           2           0
           0           0           0           0           1           0
           1           0           0           0           0           0
           0           0      100000           0          -1           0
           0           0           0           0           0           0
           0           0           0           1           1           0
           0 -2000000000           1           0           0           0
           0           0           4          52           0           0
           0           0           0           0           0           0
           0           0           0           5           4           1
           0           0           0           0           0           0
           0           0           0           0           0           0
           0           0           0           0           0           0
           0           0           0           0           0           0
           0           0           0           0
Num RLSW                                   I               52
RLSW                                       R   N=          52
  1.00000000E+00  1.00000000E+00  1.00000000E+00  1.00000000E+00  1.00000000E+00
  0.00000000E+00  0.00000000E+00  1.00000000E+00  0.00000000E+00  0.00000000E+00
  0.00000000E+00  0.00000000E+00  1.00000000E+00  0.00000000E+00  0.00000000E+00
  0.00000000E+00  0.00000000E+00  1.00000000E+00  0.00000000E+00  0.00000000E+00
  0.00000000E+00  0.00000000E+00  1.00000000E+00  0.00000000E+00  0.00000000E+00
  0.00000000E+00  0.00000000E+00  1.00000000E+00  0.00000000E+00  0.00000000E+00
  0.00000000E+00  0.00000000E+00  1.00000000E+00  0.00000000E+00  0.00000000E+00
  0.00000000E+00  0.00000000E+00  0.00000000E+00  1.00000000E+00  1.00000000E+00
  0.00000000E+00  1.00000000E+00  0.00000000E+00  0.00000000E+00  0.00000000E+00
  0.00000000E+00  0.00000000E+00  0.00000000E+00  0.00000000E+00  0.00000000E+00
  0.00000000E+00  0.00000000E+00
MxBond                                     I                2
NBond                                      I   N=           5
           1           2           2           2           1
IBond                                      I   N=          10
           2           0           1           3           2           4
           3           5           4           0
RBond                                      R   N=          10
  1.00000000E+00  0.00000000E+00  1.00000000E+00  1.00000000E+00  1.00000000E+00
  1.00000000E+00  1.00000000E+00  2.00000000E+00  2.00000000E+00  0.00000000E+00
Virial Ratio                               R      2.002391561543135E+00
SCF Energy                                 R     -2.795016562131459E+02
MP2 Energy                                 R     -2.804465781669076E+02
Total Energy                               R     -2.804465781669076E+02
Post-SCF wavefunction norm                 R      1.584250696784689E+00
RMS Force                                  R      1.994126462467232E-03
RMS Density                                R      3.810714698016751E-09
NImag                                      I                1
Job Status                                 I                1
Nuclear derivative order                   I                2
External E-field                           R   N=          35
  0.00000000E+00  0.00000000E+00  0.00000000E+00  0.00000000E+00  0.00000000E+00
  0.00000000E+00  0.00000000E+00  0.00000000E+00  0.00000000E+00  0.00000000E+00
  0.00000000E+00  0.00000000E+00  0.00000000E+00  0.00000000E+00  0.00000000E+00
  0.00000000E+00  0.00000000E+00  0.00000000E+00  0.00000000E+00  0.00000000E+00
  0.00000000E+00  0.00000000E+00  0.00000000E+00  0.00000000E+00  0.00000000E+00
  0.00000000E+00  0.00000000E+00  0.00000000E+00  0.00000000E+00  0.00000000E+00
  0.00000000E+00  0.00000000E+00  0.00000000E+00  0.00000000E+00  0.00000000E+00
IOpCl                                      I                0
IROHF                                      I                0
Alpha Orbital Energies                     R   N=         207
 -2.06902896E+01 -2.06847338E+01 -2.06606253E+01 -1.58134302E+01 -1.62397192E+00
 -1.49519104E+00 -1.25530062E+00 -9.47714369E-01 -7.71339541E-01 -7.59939368E-01
 -7.11509783E-01 -6.82191655E-01 -6.20957192E-01 -5.87971504E-01 -4.85050353E-01
 -4.72109866E-01  2.96341071E-02  7.14475100E-02  8.59802069E-02  1.02233767E-01
  1.33727739E-01  1.33747279E-01  1.43830691E-01  1.53864254E-01  1.78333851E-01
  1.94356485E-01  2.00011422E-01  2.06019415E-01  2.20625141E-01  2.35143971E-01
  2.37221358E-01  2.67493813E-01  2.93700259E-01  3.02848979E-01  3.10991188E-01
  3.43928604E-01  3.49103243E-01  3.86375547E-01  4.22524535E-01  4.33145720E-01
  5.27553604E-01  5.27611726E-01  5.56329654E-01  5.78737142E-01  6.25441706E-01
  6.39764251E-01  6.74901839E-01  6.84594945E-01  7.07486772E-01  7.09919934E-01
  7.24738129E-01  7.28367075E-01  7.44630454E-01  7.92145358E-01  7.93633903E-01
  8.11450332E-01  8.12610208E-01  8.28728342E-01  8.68202780E-01  9.08500714E-01
  9.21707656E-01  9.26862704E-01  9.53490294E-01  9.70977617E-01  9.83008494E-01
  1.01635368E+00  1.05046761E+00  1.05625265E+00  1.07709429E+00  1.11299161E+00
  1.13807389E+00  1.19187943E+00  1.21893214E+00  1.23522825E+00  1.34056634E+00
  1.35180413E+00  1.38383074E+00  1.45517389E+00  1.48830056E+00  1.50864358E+00
  1.53579383E+00  1.56502810E+00  1.57834758E+00  1.61078443E+00  1.65939337E+00
  1.67334906E+00  1.70328849E+00  1.79113958E+00  1.83685750E+00  1.83735048E+00
  1.87680376E+00  1.90674199E+00  1.95299071E+00  1.99070328E+00  2.00600964E+00
  2.07879248E+00  2.12550411E+00  2.13327417E+00  2.14943435E+00  2.22276044E+00
  2.26388466E+00  2.26553692E+00  2.29134674E+00  2.31163212E+00  2.33363943E+00
  2.38382222E+00  2.42090702E+00  2.42968827E+00  2.45554606E+00  2.46054712E+00
  2.47657364E+00  2.49596335E+00  2.58726199E+00  2.59821321E+00  2.61853806E+00
  2.62868356E+00  2.63940523E+00  2.66421305E+00  2.75290254E+00  2.81643019E+00
  2.83603625E+00  2.87257888E+00  2.89562037E+00  2.92782539E+00  2.96318074E+00
  3.01305612E+00  3.06339674E+00  3.11700538E+00  3.20241063E+00  3.22242239E+00
  3.31876610E+00  3.35113829E+00  3.53062900E+00  3.63234334E+00  3.83628290E+00
  3.84313427E+00  4.14639214E+00  4.16387441E+00  4.18173117E+00  4.25390787E+00
  4.35688618E+00  4.38916833E+00  4.46287821E+00  4.52109947E+00  4.65042960E+00
  4.70913458E+00  4.79826353E+00  4.82362438E+00  4.83204563E+00  4.89424910E+00
  5.02539561E+00  5.07777770E+00  5.10390076E+00  5.15306673E+00  5.17191826E+00
  5.23790741E+00  5.27365235E+00  5.30786078E+00  5.32455381E+00  5.34625529E+00
  5.58982892E+00  5.67330416E+00  5.76323451E+00  5.83226389E+00  5.95758177E+00
  6.16227894E+00  6.30902308E+00  6.34025706E+00  6.39649210E+00  6.49441717E+00
  6.50711272E+00  6.61003508E+00  6.67146328E+00  6.70154114E+00  6.75123809E+00
  6.76309195E+00  6.83121029E+00  6.90105124E+00  7.01828610E+00  7.05558297E+00
  7.06214160E+00  7.08969107E+00  7.12253129E+00  7.14592984E+00  7.18050461E+00
  7.22714047E+00  7.23925643E+00  7.30605875E+00  7.32580293E+00  7.33551034E+00
  7.39466940E+00  7.43460793E+00  7.48119967E+00  7.61426933E+00  7.61444727E+00
  7.61963641E+00  7.66029851E+00  7.78604436E+00  7.87780064E+00  8.09613746E+00
  8.31378210E+00  8.40959923E+00  8.54611203E+00  1.33735932E+01  1.44307249E+01
  1.51416414E+01  1.61496369E+01
Alpha MO coefficients                      R   N=       42849
  9.29993968E-05 -6.69836742E-04 -7.45161246E-04 -6.73559148E-06 -2.28917178E-05
 -2.74246660E-05  0.00000000E+00 -3.99947551E-05  6.96447516E-05  0.00000000E+00
  9.31425447E-05  4.32428007E-05  0.00000000E+00  3.26186472E-05  0.00000000E+00
  0.00000000E+00 -5.08094278E-05  1.74078139E-05 -3.90822717E-06  0.00000000E+00
  0.00000000E+00 -1.50830403E-04  1.08169532E-04  4.77013330E-03 -2.80575941E-04
  1.98381453E-05  1.64274640E-03  1.84557661E-03  1.07745385E-04  1.14537992E-05
  0.00000000E+00 -6.28783022E-04 -5.84977129E-05  0.00000000E+00 -1.16904792E-03
  7.74859468E-04  0.00000000E+00 -4.10943623E-04  4.97387910E-05  0.00000000E+00
  2.87924343E-05  0.00000000E+00  0.00000000E+00 -5.46222276E-05  1.83302492E-06
 -3.82416327E-04  0.00000000E+00  0.00000000E+00  7.45264619E-04  2.40926885E-05
 -4.50988913E-04  0.00000000E+00  0.00000000E+00  2.55878287E-04 -3.00523643E-08
  0.00000000E+00  8.03817432E-05  1.58721126E-05  0.00000000E+00  0.00000000E+00
 -1.07932234E-04 -1.47412849E-05  0.00000000E+00  2.53789684E-04 -2.06611364E-05
  0.00000000E+00  0.00000000E+00 -3.64186986E-04  9.64183773E-06  9.76908423E-01
 -9.20315821E-03  4.33247946E-02  1.95781166E-03 -9.25660470E-04  1.52174681E-03
 -1.32330730E-03  0.00000000E+00 -1.45324181E-03  1.34183208E-03  0.00000000E+00
  5.64045761E-05 -1.16239789E-03  0.00000000E+00 -1.44204368E-04 -1.51478822E-05
  0.00000000E+00  4.33109404E-05  0.00000000E+00  0.00000000E+00 -3.50376565E-05
  2.49215704E-05  7.55077397E-04  0.00000000E+00  0.00000000E+00 -2.22315643E-04
 -4.39796972E-04 -3.58202206E-04  0.00000000E+00  0.00000000E+00 -3.05824107E-04
 -3.70724106E-04  0.00000000E+00  4.73637843E-05 -4.72512837E-05  0.00000000E+00
  0.00000000E+00 -3.83167689E-05 -1.90451115E-05  0.00000000E+00  2.55672131E-05
  2.28129861E-05  0.00000000E+00  0.00000000E+00 -3.05939750E-04 -1.66389046E-04
  4.03850190E-05  5.22884472E-05 -2.68020280E-04 -6.62798905E-04 -1.36880671E-04
 -2.74906592E-05 -9.89154727E-05  0.00000000E+00  2.83473536E-04  7.30357838E-04
  0.00000000E+00 -8.63263841E-04 -4.78119905E-04  0.00000000E+00 -1.19486569E-04
 -2.53799227E-05  0.00000000E+00 -1.87384914E-05  0.00000000E+00  0.00000000E+00
 -3.12649594E-05  1.48928205E-05 -3.31094458E-04  0.00000000E+00  0.00000000E+00
 -8.33822081E-04  1.29128369E-04 -3.62166571E-05  0.00000000E+00  0.00000000E+00
  1.01936228E-04 -1.21917042E-04  0.00000000E+00 -2.12895212E-05 -1.20715266E-04
  0.00000000E+00  0.00000000E+00 -5.96192931E-05 -1.37877271E-04  0.00000000E+00
  1.02324412E-05 -1.46431596E-04  0.00000000E+00  0.00000000E+00  4.45937079E-05
 -4.29505689E-04 -3.01003774E-03  1.25513485E-04 -1.44363529E-04 -2.73207019E-04
  1.26777243E-04 -8.85418779E-06 -2.92454759E-05  0.00000000E+00  6.97737003E-05
  1.72934691E-04  0.00000000E+00  2.31428303E-04  1.88389729E-04  0.00000000E+00
  1.24780215E-04  1.71932818E-05  0.00000000E+00 -3.53925412E-06  0.00000000E+00
  0.00000000E+00 -1.80806814E-05  1.13076468E-06  7.60539175E-08  0.00000000E+00
  0.00000000E+00  8.22054733E-05  9.15586217E-05 -1.00605618E-04  0.00000000E+00
  0.00000000E+00  1.74515977E-04  1.56841557E-04  0.00000000E+00  1.56647506E-05
 -3.78830146E-06  0.00000000E+00  0.00000000E+00 -4.68734986E-06 -1.16479797E-05
  0.00000000E+00 -3.39919681E-05  4.61198160E-05  0.00000000E+00  0.00000000E+00
  8.75298549E-05  9.07531351E-05  3.54224523E-05 -9.76038861E-04 -5.05586762E-04
 -9.15957656E-06 -2.25251248E-05  1.67176967E-05  0.00000000E+00 -6.81586182E-06
  2.78081183E-04  0.00000000E+00 -3.49300188E-05  1.40113723E-04  0.00000000E+00
  2.50228414E-05  0.00000000E+00  0.00000000E+00  1.36921286E-05  1.24331830E-05
 -2.17544898E-05  0.00000000E+00  0.00000000E+00  6.66286760E-06  3.02673707E-05
  1.13668504E-04  7.01252381E-05 -2.73216650E-05  7.88460769E-04  7.23502742E-04
  9.93683617E-06  2.76105427E-06  0.00000000E+00 -6.63962669E-05  1.90753032E-05
  0.00000000E+00  2.60912682E-04  8.44895818E-04  0.00000000E+00 -1.96917889E-05
  7.05313769E-05  0.00000000E+00 -1.46982832E-06  0.00000000E+00  0.00000000E+00
  2.68948875E-07 -8.31706952E-06 -3.89254479E-05  0.00000000E+00  0.00000000E+00
 -2.98468390E-05  9.32636291E-05 -2.96583303E-05  0.00000000E+00  0.00000000E+00
 -2.51399356E-04 -1.44947915E-04  0.00000000E+00  9.09524464E-06  5.97081981E-06
  0.00000000E+00  0.00000000E+00  3.29012657E-06 -1.91134232E-05  0.00000000E+00
 -3.73649656E-05 -3.61630443E-05  0.00000000E+00  0.00000000E+00 -6.99154065E-05
  8.80824423E-07  3.04930534E-03  3.64316766E-05  1.09882739E-04 -7.02686819E-05
 -4.89576140E-04  7.61346006E-06  1.57713338E-05  0.00000000E+00 -6.25705235E-05
 -5.94347264E-05  0.00000000E+00  2.32322083E-04 -1.47306909E-04  0.00000000E+00
 -2.08473054E-04 -7.21688342E-05  0.00000000E+00 -8.65952519E-06  0.00000000E+00
  0.00000000E+00  2.25469946E-05  1.90483913E-05  3.98148571E-06  0.00000000E+00
  0.00000000E+00 -1.18600222E-04 -4.32919963E-05 -2.52444116E-06  0.00000000E+00
  0.00000000E+00 -2.21457514E-04 -1.81477053E-04  0.00000000E+00  3.37386939E-06
  3.80322446E-07  0.00000000E+00  0.00000000E+00  1.96764875E-06 -1.47621113E-05
  0.00000000E+00 -4.72963064E-05 -5.51517342E-07  0.00000000E+00  0.00000000E+00
 -8.01984125E-05  1.97459638E-04  2.58765979E-04  1.46595992E-03 -7.84932945E-05
 -1.55478318E-03  3.61700958E-04 -1.44721410E-04 -5.10368531E-07  0.00000000E+00
 -2.07836852E-03 -4.03709498E-04  0.00000000E+00  9.81735694E-04  7.35429833E-04
  0.00000000E+00 -1.68122030E-04  5.05240974E-05  0.00000000E+00 -1.23518332E-04
  0.00000000E+00  0.00000000E+00  2.42406185E-04  9.60955217E-05 -4.40552364E-04
  0.00000000E+00  0.00000000E+00  8.99765708E-04 -6.84091514E-05  1.45472137E-05
  0.00000000E+00  0.00000000E+00 -3.29600055E-04 -1.35741143E-04  0.00000000E+00
 -2.42037469E-06  1.46516340E-05  0.00000000E+00  0.00000000E+00  2.01659074E-05
  1.55831405E-05  0.00000000E+00  1.72361089E-04 -6.84469988E-05  0.00000000E+00
  0.00000000E+00 -2.42503462E-04  3.25372485E-05  9.76648500E-01 -9.85163350E-03
  4.35651516E-02  4.47517183E-03 -4.38252815E-04  2.14836288E-03  4.90323419E-04
  0.00000000E+00 -2.38349801E-03 -6.11548739E-04  0.00000000E+00  1.14724819E-03
 -1.23379563E-07  0.00000000E+00  7.37696479E-06 -4.66657857E-05  0.00000000E+00
 -2.31581290E-04  0.00000000E+00  0.00000000E+00  1.02968266E-04  3.16094948E-05
  3.90437738E-04  0.00000000E+00  0.00000000E+00 -8.28591482E-04 -4.23970004E-04
 -1.58714191E-04  0.00000000E+00  0.00000000E+00  2.62606561E-04  2.20683034E-05
  0.00000000E+00  5.22483427E-05  1.81236725E-05  0.00000000E+00  0.00000000E+00
 -2.15193596E-05 -1.37789831E-05  0.00000000E+00  1.36990747E-04  8.84752149E-06
  0.00000000E+00  0.00000000E+00 -1.87486361E-04 -1.41894523E-04  4.70258549E-04
  1.95198103E-03  8.09222007E-05  1.40141965E-05 -3.43346621E-05 -2.44077480E-04
  0.00000000E+00  1.62706257E-04 -1.23703514E-03  0.00000000E+00  3.58345936E-04
 -3.11163925E-04  0.00000000E+00 -1.15697670E-06  0.00000000E+00  0.00000000E+00
  7.64093789E-05  2.30827510E-05 -1.62146045E-04  0.00000000E+00  0.00000000E+00
 -5.32970266E-04 -6.53492569E-05  9.76831338E-01 -9.15828524E-03  4.34455501E-02
  2.47619710E-04 -1.24348960E-03 -1.62201151E-03  1.37886716E-03  0.00000000E+00
  1.62984525E-03 -1.21883683E-03  0.00000000E+00 -5.30136322E-04 -7.46386659E-04
  0.00000000E+00  6.31541577E-05 -6.37200982E-05  0.00000000E+00  3.06339929E-05
  0.00000000E+00  0.00000000E+00 -1.15708150E-04 -1.38398775E-05  7.51710812E-04
  0.00000000E+00  0.00000000E+00 -2.00076958E-04 -2.46997299E-04 -2.66573685E-04
  0.00000000E+00  0.00000000E+00  1.57677697E-04  9.77784292E-05  0.00000000E+00
 -6.48714310E-05  3.91069575E-07  0.00000000E+00  0.00000000E+00  1.99024425E-05