 Entering Gaussian System, Link 0=g16
 Input=hoono_a1_99p79279.gjf
 Output=hoono_a1_99p79279.log
 Initial command:
 /sw/contrib/gaussian/g16/B01/g16/l1.exe "/scr/Gau-26352.inp" -scrdir="/scr/"
 Entering Link 1 = /sw/contrib/gaussian/g16/B01/g16/l1.exe PID=     26353.
  
 Copyright (c) 1988-2017, Gaussian, Inc.  All Rights Reserved.
  
 This is part of the Gaussian(R) 16 program.  It is based on
 the Gaussian(R) 09 system (copyright 2009, Gaussian, Inc.),
 the Gaussian(R) 03 system (copyright 2003, Gaussian, Inc.),
 the Gaussian(R) 98 system (copyright 1998, Gaussian, Inc.),
 the Gaussian(R) 94 system (copyright 1995, Gaussian, Inc.),
 the Gaussian 92(TM) system (copyright 1992, Gaussian, Inc.),
 the Gaussian 90(TM) system (copyright 1990, Gaussian, Inc.),
 the Gaussian 88(TM) system (copyright 1988, Gaussian, Inc.),
 the Gaussian 86(TM) system (copyright 1986, Carnegie Mellon
 University), and the Gaussian 82(TM) system (copyright 1983,
 Carnegie Mellon University). Gaussian is a federally registered
 trademark of Gaussian, Inc.
  
 This software contains proprietary and confidential information,
 including trade secrets, belonging to Gaussian, Inc.
  
 This software is provided under written license and may be
 used, copied, transmitted, or stored only in accord with that
 written license.
  
 The following legend is applicable only to US Government
 contracts under FAR:
  
                    RESTRICTED RIGHTS LEGEND
  
 Use, reproduction and disclosure by the US Government is
 subject to restrictions as set forth in subparagraphs (a)
 and (c) of the Commercial Computer Software - Restricted
 Rights clause in FAR 52.227-19.
  
 Gaussian, Inc.
 340 Quinnipiac St., Bldg. 40, Wallingford CT 06492
  
  
 ---------------------------------------------------------------
 Warning -- This program may not be used in any manner that
 competes with the business of Gaussian, Inc. or will provide
 assistance to any competitor of Gaussian, Inc.  The licensee
 of this program is prohibited from giving any competitor of
 Gaussian, Inc. access to this program.  By using this program,
 the user acknowledges that Gaussian, Inc. is engaged in the
 business of creating and licensing software in the field of
 computational chemistry and represents and warrants to the
 licensee that it is not a competitor of Gaussian, Inc. and that
 it will not use this program in any manner prohibited above.
 ---------------------------------------------------------------
  

 Cite this work as:
 Gaussian 16, Revision B.01,
 M. J. Frisch, G. W. Trucks, H. B. Schlegel, G. E. Scuseria, 
 M. A. Robb, J. R. Cheeseman, G. Scalmani, V. Barone, 
 G. A. Petersson, H. Nakatsuji, X. Li, M. Caricato, A. V. Marenich, 
 J. Bloino, B. G. Janesko, R. Gomperts, B. Mennucci, H. P. Hratchian, 
 J. V. Ortiz, A. F. Izmaylov, J. L. Sonnenberg, D. Williams-Young, 
 F. Ding, F. Lipparini, F. Egidi, J. Goings, B. Peng, A. Petrone, 
 T. Henderson, D. Ranasinghe, V. G. Zakrzewski, J. Gao, N. Rega, 
 G. Zheng, W. Liang, M. Hada, M. Ehara, K. Toyota, R. Fukuda, 
 J. Hasegawa, M. Ishida, T. Nakajima, Y. Honda, O. Kitao, H. Nakai, 
 T. Vreven, K. Throssell, J. A. Montgomery, Jr., J. E. Peralta, 
 F. Ogliaro, M. J. Bearpark, J. J. Heyd, E. N. Brothers, K. N. Kudin, 
 V. N. Staroverov, T. A. Keith, R. Kobayashi, J. Normand, 
 K. Raghavachari, A. P. Rendell, J. C. Burant, S. S. Iyengar, 
 J. Tomasi, M. Cossi, J. M. Millam, M. Klene, C. Adamo, R. Cammi, 
 J. W. Ochterski, R. L. Martin, K. Morokuma, O. Farkas, 
 J. B. Foresman, and D. J. Fox, Gaussian, Inc., Wallingford CT, 2016.
 
 ******************************************
 Gaussian 16:  ES64L-G16RevB.01 20-Dec-2017
                21-Feb-2022 
 ******************************************
 %nproc=28
 Will use up to   28 processors via shared memory.
 %mem=120GB
 %chk=hoono_a1_99p79279.chk
 ---------------------------------------
 #p freq mp2/aug-cc-pvtz density=current
 ---------------------------------------
 1/10=4,30=1,38=1/1,3;
 2/12=2,17=6,18=5,40=1/2;
 3/5=16,6=1,7=10,11=9,25=1,30=1,71=2,140=1/1,2,3;
 4//1;
 5/5=2,38=5,98=1/2;
 8/6=3,8=1,10=1,19=11,30=-1/1;
 9/15=3,16=-3/6;
 11/6=1,8=1,15=11,17=12,24=-1,27=1,28=-2,29=300,32=6,42=3/1,2,10;
 10/6=2,21=1/2;
 8/6=4,8=1,10=1,19=11,30=-1/11,4;
 10/5=1,20=4/2;
 11/12=2,14=11,16=1,17=2,28=-2,42=3,76=2/2,10,12;
 6/7=2,8=2,9=2,10=2,22=-1/1;
 7/8=1,10=1,12=2,25=1,44=2/1,2,3,16;
 1/10=4,30=1/3;
 99//99;
 Leave Link    1 at Mon Feb 21 20:33:53 2022, MaxMem= 16106127360 cpu:               2.0 elap:               0.1
 (Enter /sw/contrib/gaussian/g16/B01/g16/l101.exe)
 -----
 title
 -----
 Symbolic Z-matrix:
 Charge =  0 Multiplicity = 1
 H
 O                    1    r1
 O                    2    r2       1    a1
 N                    3    r3       2    a2       1    d1       0
 O                    4    r4       3    a3       2    d2       0
       Variables:
  r1                    0.96898                  
  r2                    1.45492                  
  r3                    1.45878                  
  r4                    1.17073                  
  a1                   99.79279                  
  a2                  102.29752                  
  a3                  109.06955                  
  d1                  180.                       
  d2                  180.                       
 
 ITRead=  0  0  0  0  0
 MicOpt= -1 -1 -1 -1 -1
 NAtoms=      5 NQM=        5 NQMF=       0 NMMI=      0 NMMIF=      0
                NMic=       0 NMicF=      0.
                    Isotopes and Nuclear Properties:
 (Nuclear quadrupole moments (NQMom) in fm**2, nuclear magnetic moments (NMagM)
  in nuclear magnetons)

  Atom         1           2           3           4           5
 IAtWgt=           1          16          16          14          16
 AtmWgt=   1.0078250  15.9949146  15.9949146  14.0030740  15.9949146
 NucSpn=           1           0           0           2           0
 AtZEff=  -0.0000000  -0.0000000  -0.0000000  -0.0000000  -0.0000000
 NQMom=    0.0000000   0.0000000   0.0000000   2.0440000   0.0000000
 NMagM=    2.7928460   0.0000000   0.0000000   0.4037610   0.0000000
 AtZNuc=   1.0000000   8.0000000   8.0000000   7.0000000   8.0000000
 Leave Link  101 at Mon Feb 21 20:33:53 2022, MaxMem= 16106127360 cpu:               2.5 elap:               0.1
 (Enter /sw/contrib/gaussian/g16/B01/g16/l103.exe)

 GradGradGradGradGradGradGradGradGradGradGradGradGradGradGradGradGradGrad
 Berny optimization.
 Initialization pass.
                       ----------------------------
                       !    Initial Parameters    !
                       ! (Angstroms and Degrees)  !
 ----------------------                            ----------------------
 !      Name          Value   Derivative information (Atomic Units)     !
 ------------------------------------------------------------------------
 !       r1          0.969    calculate D2E/DX2 analytically            !
 !       r2          1.4549   calculate D2E/DX2 analytically            !
 !       r3          1.4588   calculate D2E/DX2 analytically            !
 !       r4          1.1707   calculate D2E/DX2 analytically            !
 !       a1         99.7928   calculate D2E/DX2 analytically            !
 !       a2        102.2975   calculate D2E/DX2 analytically            !
 !       a3        109.0696   calculate D2E/DX2 analytically            !
 !       d1        180.0      calculate D2E/DX2 analytically            !
 !       d2        180.0      calculate D2E/DX2 analytically            !
 ------------------------------------------------------------------------
 Trust Radius=3.00D-01 FncErr=1.00D-07 GrdErr=1.00D-07 EigMax=2.50D+02 EigMin=1.00D-04
 Number of steps in this run=      2 maximum allowed number of steps=      2.
 GradGradGradGradGradGradGradGradGradGradGradGradGradGradGradGradGradGrad

 Leave Link  103 at Mon Feb 21 20:33:53 2022, MaxMem= 16106127360 cpu:               0.7 elap:               0.1
 (Enter /sw/contrib/gaussian/g16/B01/g16/l202.exe)
                          Input orientation:                          
 ---------------------------------------------------------------------
 Center     Atomic      Atomic             Coordinates (Angstroms)
 Number     Number       Type             X           Y           Z
 ---------------------------------------------------------------------
      1          1           0        0.000000    0.000000    0.000000
      2          8           0        0.000000    0.000000    0.968976
      3          8           0        1.433720    0.000000    1.216436
      4          7           0        1.497472    0.000000    2.673827
      5          8           0        2.619613    0.000000    3.007601
 ---------------------------------------------------------------------
                    Distance matrix (angstroms):
                    1          2          3          4          5
     1  H    0.000000
     2  O    0.968976   0.000000
     3  O    1.880232   1.454919   0.000000
     4  N    3.064600   2.269127   1.458784   0.000000
     5  O    3.988488   3.319392   2.148165   1.170729   0.000000
 Stoichiometry    HNO3
 Framework group  CS[SG(HNO3)]
 Deg. of freedom     7
 Full point group                 CS      NOp   2
 Largest Abelian subgroup         CS      NOp   2
 Largest concise Abelian subgroup C1      NOp   1
                         Standard orientation:                         
 ---------------------------------------------------------------------
 Center     Atomic      Atomic             Coordinates (Angstroms)
 Number     Number       Type             X           Y           Z
 ---------------------------------------------------------------------
      1          1           0        1.587751    1.680279    0.000000
      2          8           0        1.454147    0.720559    0.000000
      3          8           0       -0.000000    0.673146    0.000000
      4          7           0       -0.264091   -0.761534   -0.000000
      5          8           0       -1.421536   -0.937397   -0.000000
 ---------------------------------------------------------------------
 Rotational constants (GHZ):          55.0930270           5.0048549           4.5880586
 Leave Link  202 at Mon Feb 21 20:33:53 2022, MaxMem= 16106127360 cpu:               0.3 elap:               0.0
 (Enter /sw/contrib/gaussian/g16/B01/g16/l301.exe)
 Standard basis: Aug-CC-pVTZ (5D, 7F)
 Ernie: Thresh=  0.10000D-02 Tol=  0.10000D-05 Strict=F.
 Ernie:  12 primitive shells out of 131 were deleted.
 There are   166 symmetry adapted cartesian basis functions of A'  symmetry.
 There are    79 symmetry adapted cartesian basis functions of A"  symmetry.
 There are   136 symmetry adapted basis functions of A'  symmetry.
 There are    71 symmetry adapted basis functions of A"  symmetry.
   207 basis functions,   315 primitive gaussians,   245 cartesian basis functions
    16 alpha electrons       16 beta electrons
       nuclear repulsion energy       116.8231363166 Hartrees.
 IExCor=    0 DFT=F Ex=HF Corr=None ExCW=0 ScaHFX=  1.000000
 ScaDFX=  1.000000  1.000000  1.000000  1.000000 ScalE2=  1.000000  1.000000
 IRadAn=      5 IRanWt=     -1 IRanGd=            0 ICorTp=0 IEmpDi=  4
 NAtoms=    5 NActive=    5 NUniq=    5 SFac= 1.00D+00 NAtFMM=   60 NAOKFM=F Big=F
 Integral buffers will be    131072 words long.
 Raffenetti 1 integral format.
 Two-electron integral symmetry is turned on.
 Leave Link  301 at Mon Feb 21 20:33:53 2022, MaxMem= 16106127360 cpu:               2.2 elap:               0.1
 (Enter /sw/contrib/gaussian/g16/B01/g16/l302.exe)
 NPDir=0 NMtPBC=     1 NCelOv=     1 NCel=       1 NClECP=     1 NCelD=      1
         NCelK=      1 NCelE2=     1 NClLst=     1 CellRange=     0.0.
 One-electron integrals computed using PRISM.
 One-electron integral symmetry used in STVInt
 NBasis=   207 RedAO= T EigKep=  1.82D-04  NBF=   136    71
 NBsUse=   207 1.00D-06 EigRej= -1.00D+00 NBFU=   136    71
 Leave Link  302 at Mon Feb 21 20:33:53 2022, MaxMem= 16106127360 cpu:               5.8 elap:               0.2
 (Enter /sw/contrib/gaussian/g16/B01/g16/l303.exe)
 DipDrv:  MaxL=1.
 Leave Link  303 at Mon Feb 21 20:33:53 2022, MaxMem= 16106127360 cpu:               3.4 elap:               0.2
 (Enter /sw/contrib/gaussian/g16/B01/g16/l401.exe)
 ExpMin= 2.53D-02 ExpMax= 1.53D+04 ExpMxC= 5.22D+02 IAcc=3 IRadAn=         5 AccDes= 0.00D+00
 Harris functional with IExCor=  205 and IRadAn=       5 diagonalized for initial guess.
 HarFok:  IExCor=  205 AccDes= 0.00D+00 IRadAn=         5 IDoV= 1 UseB2=F ITyADJ=14
 ICtDFT=  3500011 ScaDFX=  1.000000  1.000000  1.000000  1.000000
 FoFCou: FMM=F IPFlag=           0 FMFlag=      100000 FMFlg1=           0
         NFxFlg=           0 DoJE=T BraDBF=F KetDBF=T FulRan=T
         wScrn=  0.000000 ICntrl=       500 IOpCl=  0 I1Cent=   200000004 NGrid=           0
         NMat0=    1 NMatS0=      1 NMatT0=    0 NMatD0=    1 NMtDS0=    0 NMtDT0=    0
 Petite list used in FoFCou.
 Harris En= -279.629041203114    
 JPrj=0 DoOrth=F DoCkMO=F.
 Initial guess orbital symmetries:
       Occupied  (A') (A') (A') (A') (A') (A') (A') (A') (A') (A')
                 (A") (A') (A') (A") (A") (A')
       Virtual   (A") (A') (A') (A') (A') (A') (A") (A') (A') (A')
                 (A") (A') (A") (A') (A') (A") (A') (A') (A") (A')
                 (A') (A') (A') (A') (A') (A") (A') (A") (A') (A')
                 (A") (A') (A") (A') (A') (A") (A') (A") (A') (A')
                 (A") (A') (A") (A') (A") (A') (A') (A') (A") (A")
                 (A') (A') (A') (A') (A") (A') (A") (A') (A") (A')
                 (A') (A') (A") (A') (A') (A") (A') (A") (A') (A')
                 (A") (A') (A') (A") (A") (A') (A') (A") (A') (A')
                 (A') (A") (A') (A") (A') (A") (A') (A") (A') (A')
                 (A') (A") (A') (A") (A') (A") (A") (A') (A') (A")
                 (A') (A') (A") (A') (A') (A') (A') (A") (A") (A')
                 (A") (A') (A') (A') (A") (A') (A') (A') (A") (A')
                 (A") (A') (A') (A") (A") (A') (A') (A") (A") (A')
                 (A') (A') (A') (A") (A") (A') (A") (A') (A') (A')
                 (A') (A") (A") (A') (A') (A") (A') (A') (A') (A')
                 (A") (A') (A') (A") (A') (A") (A') (A") (A') (A")
                 (A') (A") (A') (A") (A') (A") (A") (A") (A') (A')
                 (A") (A') (A") (A') (A') (A") (A") (A") (A') (A')
                 (A') (A') (A') (A') (A') (A') (A') (A') (A') (A')
                 (A')
 The electronic state of the initial guess is 1-A'.
 Leave Link  401 at Mon Feb 21 20:33:54 2022, MaxMem= 16106127360 cpu:               7.2 elap:               0.3
 (Enter /sw/contrib/gaussian/g16/B01/g16/l502.exe)
 Keep R1 ints in memory in symmetry-blocked form, NReq=348887737.
 FoFCou: FMM=F IPFlag=           0 FMFlag=           0 FMFlg1=           0
         NFxFlg=           0 DoJE=F BraDBF=F KetDBF=F FulRan=T
         wScrn=  0.000000 ICntrl=       600 IOpCl=  0 I1Cent=           0 NGrid=           0
         NMat0=    1 NMatS0=  21528 NMatT0=    0 NMatD0=    1 NMtDS0=    0 NMtDT0=    0
 Petite list used in FoFCou.
 Closed shell SCF:
 Using DIIS extrapolation, IDIIS=  1040.
 NGot= 16106127360 LenX= 15988850015 LenY= 15988789549
 Requested convergence on RMS density matrix=1.00D-08 within 128 cycles.
 Requested convergence on MAX density matrix=1.00D-06.
 Requested convergence on             energy=1.00D-06.
 No special actions if energy rises.

 Cycle   1  Pass 1  IDiag  1:
 E= -279.370516317056    
 DIIS: error= 2.49D-02 at cycle   1 NSaved=   1.
 NSaved= 1 IEnMin= 1 EnMin= -279.370516317056     IErMin= 1 ErrMin= 2.49D-02
 ErrMax= 2.49D-02  0.00D+00 EMaxC= 1.00D-01 BMatC= 4.39D-01 BMatP= 4.39D-01
 IDIUse=3 WtCom= 7.51D-01 WtEn= 2.49D-01
 Coeff-Com:  0.100D+01
 Coeff-En:   0.100D+01
 Coeff:      0.100D+01
 Gap=     0.513 Goal=   None    Shift=    0.000
 GapD=    0.513 DampG=2.000 DampE=0.500 DampFc=1.0000 IDamp=-1.
 RMSDP=1.62D-03 MaxDP=9.89D-02              OVMax= 1.13D-01

 Cycle   2  Pass 1  IDiag  1:
 E= -279.452561890017     Delta-E=       -0.082045572961 Rises=F Damp=F
 DIIS: error= 1.79D-02 at cycle   2 NSaved=   2.
 NSaved= 2 IEnMin= 2 EnMin= -279.452561890017     IErMin= 2 ErrMin= 1.79D-02
 ErrMax= 1.79D-02  0.00D+00 EMaxC= 1.00D-01 BMatC= 7.18D-02 BMatP= 4.39D-01
 IDIUse=3 WtCom= 8.21D-01 WtEn= 1.79D-01
 Coeff-Com:  0.195D+00 0.805D+00
 Coeff-En:   0.000D+00 0.100D+01
 Coeff:      0.160D+00 0.840D+00
 Gap=     0.529 Goal=   None    Shift=    0.000
 RMSDP=9.00D-04 MaxDP=3.73D-02 DE=-8.20D-02 OVMax= 6.95D-02

 Cycle   3  Pass 1  IDiag  1:
 E= -279.481678905275     Delta-E=       -0.029117015258 Rises=F Damp=F
 DIIS: error= 1.04D-02 at cycle   3 NSaved=   3.
 NSaved= 3 IEnMin= 3 EnMin= -279.481678905275     IErMin= 3 ErrMin= 1.04D-02
 ErrMax= 1.04D-02  0.00D+00 EMaxC= 1.00D-01 BMatC= 2.87D-02 BMatP= 7.18D-02
 IDIUse=3 WtCom= 8.96D-01 WtEn= 1.04D-01
 Coeff-Com: -0.330D-01 0.378D+00 0.655D+00
 Coeff-En:   0.000D+00 0.240D+00 0.760D+00
 Coeff:     -0.295D-01 0.364D+00 0.666D+00
 Gap=     0.510 Goal=   None    Shift=    0.000
 RMSDP=3.76D-04 MaxDP=1.54D-02 DE=-2.91D-02 OVMax= 3.81D-02

 Cycle   4  Pass 1  IDiag  1:
 E= -279.500728627957     Delta-E=       -0.019049722682 Rises=F Damp=F
 DIIS: error= 1.30D-03 at cycle   4 NSaved=   4.
 NSaved= 4 IEnMin= 4 EnMin= -279.500728627957     IErMin= 4 ErrMin= 1.30D-03
 ErrMax= 1.30D-03  0.00D+00 EMaxC= 1.00D-01 BMatC= 4.94D-04 BMatP= 2.87D-02
 IDIUse=3 WtCom= 9.87D-01 WtEn= 1.30D-02
 Coeff-Com: -0.117D-01 0.577D-01 0.159D+00 0.795D+00
 Coeff-En:   0.000D+00 0.000D+00 0.000D+00 0.100D+01
 Coeff:     -0.115D-01 0.569D-01 0.157D+00 0.798D+00
 Gap=     0.502 Goal=   None    Shift=    0.000
 RMSDP=9.00D-05 MaxDP=2.76D-03 DE=-1.90D-02 OVMax= 1.11D-02

 Cycle   5  Pass 1  IDiag  1:
 E= -279.501404137831     Delta-E=       -0.000675509874 Rises=F Damp=F
 DIIS: error= 7.55D-04 at cycle   5 NSaved=   5.
 NSaved= 5 IEnMin= 5 EnMin= -279.501404137831     IErMin= 5 ErrMin= 7.55D-04
 ErrMax= 7.55D-04  0.00D+00 EMaxC= 1.00D-01 BMatC= 8.69D-05 BMatP= 4.94D-04
 IDIUse=3 WtCom= 9.92D-01 WtEn= 7.55D-03
 Coeff-Com:  0.611D-02-0.723D-01-0.118D+00 0.193D-01 0.116D+01
 Coeff-En:   0.000D+00 0.000D+00 0.000D+00 0.000D+00 0.100D+01
 Coeff:      0.607D-02-0.718D-01-0.117D+00 0.191D-01 0.116D+01
 Gap=     0.502 Goal=   None    Shift=    0.000
 RMSDP=7.62D-05 MaxDP=2.11D-03 DE=-6.76D-04 OVMax= 1.11D-02

 Cycle   6  Pass 1  IDiag  1:
 E= -279.501719212265     Delta-E=       -0.000315074434 Rises=F Damp=F
 DIIS: error= 2.75D-04 at cycle   6 NSaved=   6.
 NSaved= 6 IEnMin= 6 EnMin= -279.501719212265     IErMin= 6 ErrMin= 2.75D-04
 ErrMax= 2.75D-04  0.00D+00 EMaxC= 1.00D-01 BMatC= 1.66D-05 BMatP= 8.69D-05
 IDIUse=3 WtCom= 9.97D-01 WtEn= 2.75D-03
 Coeff-Com:  0.542D-03 0.232D-02 0.568D-02-0.131D+00-0.242D+00 0.136D+01
 Coeff-En:   0.000D+00 0.000D+00 0.000D+00 0.000D+00 0.000D+00 0.100D+01
 Coeff:      0.540D-03 0.231D-02 0.566D-02-0.130D+00-0.241D+00 0.136D+01
 Gap=     0.502 Goal=   None    Shift=    0.000
 RMSDP=4.55D-05 MaxDP=1.25D-03 DE=-3.15D-04 OVMax= 5.58D-03

 Cycle   7  Pass 1  IDiag  1:
 E= -279.501792216254     Delta-E=       -0.000073003989 Rises=F Damp=F
 DIIS: error= 1.19D-04 at cycle   7 NSaved=   7.
 NSaved= 7 IEnMin= 7 EnMin= -279.501792216254     IErMin= 7 ErrMin= 1.19D-04
 ErrMax= 1.19D-04  0.00D+00 EMaxC= 1.00D-01 BMatC= 4.31D-06 BMatP= 1.66D-05
 IDIUse=3 WtCom= 9.99D-01 WtEn= 1.19D-03
 Coeff-Com: -0.936D-03 0.134D-01 0.262D-01-0.220D-01-0.281D+00 0.368D+00
 Coeff-Com:  0.897D+00
 Coeff-En:   0.000D+00 0.000D+00 0.000D+00 0.000D+00 0.000D+00 0.000D+00
 Coeff-En:   0.100D+01
 Coeff:     -0.935D-03 0.134D-01 0.262D-01-0.219D-01-0.281D+00 0.368D+00
 Coeff:      0.897D+00
 Gap=     0.502 Goal=   None    Shift=    0.000
 RMSDP=1.32D-05 MaxDP=3.78D-04 DE=-7.30D-05 OVMax= 1.54D-03

 Cycle   8  Pass 1  IDiag  1:
 E= -279.501800900199     Delta-E=       -0.000008683945 Rises=F Damp=F
 DIIS: error= 5.80D-05 at cycle   8 NSaved=   8.
 NSaved= 8 IEnMin= 8 EnMin= -279.501800900199     IErMin= 8 ErrMin= 5.80D-05
 ErrMax= 5.80D-05  0.00D+00 EMaxC= 1.00D-01 BMatC= 6.07D-07 BMatP= 4.31D-06
 IDIUse=1 WtCom= 1.00D+00 WtEn= 0.00D+00
 Coeff-Com: -0.447D-03 0.342D-02 0.757D-02 0.274D-01-0.403D-01-0.200D+00
 Coeff-Com:  0.193D+00 0.101D+01
 Coeff:     -0.447D-03 0.342D-02 0.757D-02 0.274D-01-0.403D-01-0.200D+00
 Coeff:      0.193D+00 0.101D+01
 Gap=     0.502 Goal=   None    Shift=    0.000
 RMSDP=6.76D-06 MaxDP=2.00D-04 DE=-8.68D-06 OVMax= 7.34D-04

 Cycle   9  Pass 1  IDiag  1:
 E= -279.501802630710     Delta-E=       -0.000001730511 Rises=F Damp=F
 DIIS: error= 1.63D-05 at cycle   9 NSaved=   9.
 NSaved= 9 IEnMin= 9 EnMin= -279.501802630710     IErMin= 9 ErrMin= 1.63D-05
 ErrMax= 1.63D-05  0.00D+00 EMaxC= 1.00D-01 BMatC= 7.01D-08 BMatP= 6.07D-07
 IDIUse=1 WtCom= 1.00D+00 WtEn= 0.00D+00
 Coeff-Com:  0.123D-03-0.172D-02-0.308D-02-0.209D-02 0.341D-01 0.369D-03
 Coeff-Com: -0.174D+00-0.924D-01 0.124D+01
 Coeff:      0.123D-03-0.172D-02-0.308D-02-0.209D-02 0.341D-01 0.369D-03
 Coeff:     -0.174D+00-0.924D-01 0.124D+01
 Gap=     0.502 Goal=   None    Shift=    0.000
 RMSDP=1.94D-06 MaxDP=6.65D-05 DE=-1.73D-06 OVMax= 1.75D-04

 Cycle  10  Pass 1  IDiag  1:
 E= -279.501802791270     Delta-E=       -0.000000160560 Rises=F Damp=F
 DIIS: error= 4.20D-06 at cycle  10 NSaved=  10.
 NSaved=10 IEnMin=10 EnMin= -279.501802791270     IErMin=10 ErrMin= 4.20D-06
 ErrMax= 4.20D-06  0.00D+00 EMaxC= 1.00D-01 BMatC= 5.52D-09 BMatP= 7.01D-08
 IDIUse=1 WtCom= 1.00D+00 WtEn= 0.00D+00
 Coeff-Com:  0.312D-04-0.244D-03-0.328D-03-0.270D-02 0.163D-02 0.198D-01
 Coeff-Com: -0.147D-01-0.730D-01-0.793D-01 0.115D+01
 Coeff:      0.312D-04-0.244D-03-0.328D-03-0.270D-02 0.163D-02 0.198D-01
 Coeff:     -0.147D-01-0.730D-01-0.793D-01 0.115D+01
 Gap=     0.502 Goal=   None    Shift=    0.000
 RMSDP=5.04D-07 MaxDP=2.10D-05 DE=-1.61D-07 OVMax= 4.16D-05

 Cycle  11  Pass 1  IDiag  1:
 E= -279.501802803746     Delta-E=       -0.000000012476 Rises=F Damp=F
 DIIS: error= 2.02D-06 at cycle  11 NSaved=  11.
 NSaved=11 IEnMin=11 EnMin= -279.501802803746     IErMin=11 ErrMin= 2.02D-06
 ErrMax= 2.02D-06  0.00D+00 EMaxC= 1.00D-01 BMatC= 6.58D-10 BMatP= 5.52D-09
 IDIUse=1 WtCom= 1.00D+00 WtEn= 0.00D+00
 Coeff-Com: -0.212D-04 0.243D-03 0.486D-03 0.536D-03-0.426D-02-0.366D-02
 Coeff-Com:  0.222D-01 0.294D-01-0.138D+00-0.177D+00 0.127D+01
 Coeff:     -0.212D-04 0.243D-03 0.486D-03 0.536D-03-0.426D-02-0.366D-02
 Coeff:      0.222D-01 0.294D-01-0.138D+00-0.177D+00 0.127D+01
 Gap=     0.502 Goal=   None    Shift=    0.000
 RMSDP=1.77D-07 MaxDP=6.48D-06 DE=-1.25D-08 OVMax= 1.74D-05

 Cycle  12  Pass 1  IDiag  1:
 E= -279.501802805545     Delta-E=       -0.000000001799 Rises=F Damp=F
 DIIS: error= 5.85D-07 at cycle  12 NSaved=  12.
 NSaved=12 IEnMin=12 EnMin= -279.501802805545     IErMin=12 ErrMin= 5.85D-07
 ErrMax= 5.85D-07  0.00D+00 EMaxC= 1.00D-01 BMatC= 7.18D-11 BMatP= 6.58D-10
 IDIUse=1 WtCom= 1.00D+00 WtEn= 0.00D+00
 Coeff-Com:  0.122D-05-0.289D-04-0.626D-04 0.181D-03 0.108D-02-0.232D-02
 Coeff-Com: -0.412D-02 0.565D-02 0.415D-01-0.114D+00-0.281D+00 0.135D+01
 Coeff:      0.122D-05-0.289D-04-0.626D-04 0.181D-03 0.108D-02-0.232D-02
 Coeff:     -0.412D-02 0.565D-02 0.415D-01-0.114D+00-0.281D+00 0.135D+01
 Gap=     0.502 Goal=   None    Shift=    0.000
 RMSDP=7.18D-08 MaxDP=2.81D-06 DE=-1.80D-09 OVMax= 6.75D-06

 Cycle  13  Pass 1  IDiag  1:
 E= -279.501802805775     Delta-E=       -0.000000000230 Rises=F Damp=F
 DIIS: error= 1.72D-07 at cycle  13 NSaved=  13.
 NSaved=13 IEnMin=13 EnMin= -279.501802805775     IErMin=13 ErrMin= 1.72D-07
 ErrMax= 1.72D-07  0.00D+00 EMaxC= 1.00D-01 BMatC= 4.04D-12 BMatP= 7.18D-11
 IDIUse=1 WtCom= 1.00D+00 WtEn= 0.00D+00
 Coeff-Com:  0.129D-05-0.140D-04-0.227D-04-0.898D-04 0.123D-03 0.773D-03
 Coeff-Com: -0.941D-03-0.319D-02 0.631D-03 0.412D-01-0.360D-01-0.326D+00
 Coeff-Com:  0.132D+01
 Coeff:      0.129D-05-0.140D-04-0.227D-04-0.898D-04 0.123D-03 0.773D-03
 Coeff:     -0.941D-03-0.319D-02 0.631D-03 0.412D-01-0.360D-01-0.326D+00
 Coeff:      0.132D+01
 Gap=     0.502 Goal=   None    Shift=    0.000
 RMSDP=1.92D-08 MaxDP=5.63D-07 DE=-2.30D-10 OVMax= 1.57D-06

 Cycle  14  Pass 1  IDiag  1:
 E= -279.501802805789     Delta-E=       -0.000000000014 Rises=F Damp=F
 DIIS: error= 2.45D-08 at cycle  14 NSaved=  14.
 NSaved=14 IEnMin=14 EnMin= -279.501802805789     IErMin=14 ErrMin= 2.45D-08
 ErrMax= 2.45D-08  0.00D+00 EMaxC= 1.00D-01 BMatC= 1.98D-13 BMatP= 4.04D-12
 IDIUse=1 WtCom= 1.00D+00 WtEn= 0.00D+00
 Coeff-Com: -0.191D-06 0.313D-05 0.560D-05 0.459D-05-0.826D-04 0.446D-04
 Coeff-Com:  0.294D-03 0.213D-03-0.245D-02 0.145D-02 0.171D-01-0.255D-01
 Coeff-Com: -0.202D+00 0.121D+01
 Coeff:     -0.191D-06 0.313D-05 0.560D-05 0.459D-05-0.826D-04 0.446D-04
 Coeff:      0.294D-03 0.213D-03-0.245D-02 0.145D-02 0.171D-01-0.255D-01
 Coeff:     -0.202D+00 0.121D+01
 Gap=     0.502 Goal=   None    Shift=    0.000
 RMSDP=3.81D-09 MaxDP=9.13D-08 DE=-1.36D-11 OVMax= 3.44D-07

 SCF Done:  E(RHF) =  -279.501802806     A.U. after   14 cycles
            NFock= 14  Conv=0.38D-08     -V/T= 2.0024
 KE= 2.788375485199D+02 PE=-8.949728644168D+02 EE= 2.198103767746D+02
 Leave Link  502 at Mon Feb 21 20:33:57 2022, MaxMem= 16106127360 cpu:              55.0 elap:               3.6
 (Enter /sw/contrib/gaussian/g16/B01/g16/l801.exe)
 ExpMin= 2.53D-02 ExpMax= 1.53D+04 ExpMxC= 5.22D+02 IAcc=3 IRadAn=         5 AccDes= 0.00D+00
 HarFok:  IExCor=  205 AccDes= 0.00D+00 IRadAn=         5 IDoV=-2 UseB2=F ITyADJ=14
 ICtDFT= 12500011 ScaDFX=  1.000000  1.000000  1.000000  1.000000
 Largest valence mixing into a core orbital is  2.08D-04
 Largest core mixing into a valence orbital is  3.63D-05
 Range of M.O.s used for correlation:     5   207
 NBasis=   207 NAE=    16 NBE=    16 NFC=     4 NFV=     0
 NROrb=    203 NOA=    12 NOB=    12 NVA=   191 NVB=   191

 **** Warning!!: The largest alpha MO coefficient is  0.18104034D+02

 Leave Link  801 at Mon Feb 21 20:33:58 2022, MaxMem= 16106127360 cpu:               2.1 elap:               0.1
 (Enter /sw/contrib/gaussian/g16/B01/g16/l906.exe)
 Frozen-core derivative calculation, NFC=   4 NFV=   0.
 FulOut=F Deriv=T AODrv=T NAtomX=     5
   MMem=           0  MDisk=          12 MDiskD=          12
  W3Min=      811440 MinDsk=     2425030 NBas6D=         245
 NBas2D=       30762    NTT=       30135    LW2=     7400000
    MDV= 16105574283 MDiskM=      328644 NBas2p=       30702
 Disk-based method using ON**2 memory for 12 occupieds at a time.
 Permanent disk used for amplitudes=    11516536 words.
 Estimated scratch disk usage=   321251614 words.
 IMap=   1   2   3   4   5   6   7   8   9  10  11  12  13  14  15  16
 Actual    scratch disk usage=   310331678 words.
 JobTyp=1 Pass  1:  I=   5 to  16 NPSUse= 28 ParTrn=T ParDer=T DoDerP=T.
 (rs|ai) integrals will be sorted in core.
 Spin components of T(2) and E(2):
     alpha-alpha T2 =       0.3400609125D-01 E2=     -0.1223556698D+00
     alpha-beta  T2 =       0.1867670926D+00 E2=     -0.7000579978D+00
     beta-beta   T2 =       0.3400609125D-01 E2=     -0.1223556698D+00
 The integrals were generated   1 times.
 ANorm=    0.1120169306D+01
 E2 =    -0.9447693374D+00 EUMP2 =    -0.28044657214323D+03
 Leave Link  906 at Mon Feb 21 20:35:34 2022, MaxMem= 16106127360 cpu:            2700.2 elap:              96.6
 (Enter /sw/contrib/gaussian/g16/B01/g16/l1101.exe)
 Using compressed Sx but separate Hx and Fx, NAtomX=     5.
 Will process      6 centers per pass.
 Leave Link 1101 at Mon Feb 21 20:35:34 2022, MaxMem= 16106127360 cpu:               5.2 elap:               0.2
 (Enter /sw/contrib/gaussian/g16/B01/g16/l1102.exe)
 Leave Link 1102 at Mon Feb 21 20:35:34 2022, MaxMem= 16106127360 cpu:               1.1 elap:               0.1
 (Enter /sw/contrib/gaussian/g16/B01/g16/l1110.exe)
 Forming Gx(P) for the SCF density, NAtomX=     5.
 Integral derivatives from FoFJK, PRISM(SPDF).
 Do as many integral derivatives as possible in FoFJK.
 G2DrvN: MDV=   16106126844.
 G2DrvN: will do     6 centers at a time, making    1 passes.
 Calling FoFCou, ICntrl=  3107 FMM=F I1Cent=   0 AccDes= 0.00D+00.
 FoFJK:  IHMeth= 1 ICntrl=    3107 DoSepK=F KAlg= 0 I1Cent=           0 FoldK=F
 IRaf=         0 NMat=       1 IRICut=       1 DoRegI=T DoRafI=F ISym2E= 1 IDoP0=0 IntGTp=1.
 FoFCou: FMM=F IPFlag=           0 FMFlag=      100000 FMFlg1=           0
         NFxFlg=           0 DoJE=F BraDBF=F KetDBF=F FulRan=T
         wScrn=  0.000000 ICntrl=      3107 IOpCl=  0 I1Cent=           0 NGrid=           0
         NMat0=    1 NMatS0=      1 NMatT0=    0 NMatD0=    1 NMtDS0=    0 NMtDT0=    0
 Petite list used in FoFCou.
 End of G2Drv F.D. properties file   721 does not exist.
 End of G2Drv F.D. properties file   722 does not exist.
 End of G2Drv F.D. properties file   788 does not exist.
 Leave Link 1110 at Mon Feb 21 20:35:37 2022, MaxMem= 16106127360 cpu:              83.1 elap:               3.0
 (Enter /sw/contrib/gaussian/g16/B01/g16/l1002.exe)
 Minotr:  Closed shell wavefunction.
          IDoAtm=11111
          Frozen-core window.
          Direct CPHF calculation.
          Differentiating once with respect to electric field.
                with respect to dipole field.
          Differentiating once with respect to nuclear coordinates.
          Requested convergence is 1.0D-08 RMS, and 1.0D-07 maximum.
          Secondary convergence is 1.0D-12 RMS, and 1.0D-12 maximum.
          NewPWx=T KeepS1=T KeepF1=T KeepIn=T MapXYZ=F SortEE=F KeepMc=T.
 Keep R1 ints in memory in symmetry-blocked form, NReq=348888983.
 FoFCou: FMM=F IPFlag=           0 FMFlag=           0 FMFlg1=           0
         NFxFlg=           0 DoJE=F BraDBF=F KetDBF=F FulRan=T
         wScrn=  0.000000 ICntrl=       600 IOpCl=  0 I1Cent=           0 NGrid=           0
         NMat0=    1 NMatS0=  21528 NMatT0=    0 NMatD0=    1 NMtDS0=    0 NMtDT0=    0
 Petite list used in FoFCou.
          MDV=   16106127360 using IRadAn=       1.
          Solving linear equations simultaneously, MaxMat=       0.
          There are    18 degrees of freedom in the 1st order CPHF.  IDoFFX=6 NUNeed=    18.
     15 vectors produced by pass  0 Test12= 1.70D-14 5.56D-09 XBig12= 8.29D+00 1.05D+00.
 AX will form    15 AO Fock derivatives at one time.
     15 vectors produced by pass  1 Test12= 1.70D-14 5.56D-09 XBig12= 1.34D+00 2.57D-01.
     15 vectors produced by pass  2 Test12= 1.70D-14 5.56D-09 XBig12= 1.42D-01 9.86D-02.
     15 vectors produced by pass  3 Test12= 1.70D-14 5.56D-09 XBig12= 4.96D-03 1.08D-02.
     15 vectors produced by pass  4 Test12= 1.70D-14 5.56D-09 XBig12= 9.77D-05 1.89D-03.
     15 vectors produced by pass  5 Test12= 1.70D-14 5.56D-09 XBig12= 1.36D-06 1.66D-04.
     15 vectors produced by pass  6 Test12= 1.70D-14 5.56D-09 XBig12= 1.08D-08 1.51D-05.
     13 vectors produced by pass  7 Test12= 1.70D-14 5.56D-09 XBig12= 8.05D-11 1.25D-06.
      3 vectors produced by pass  8 Test12= 1.70D-14 5.56D-09 XBig12= 5.70D-13 1.19D-07.
      2 vectors produced by pass  9 Test12= 1.70D-14 5.56D-09 XBig12= 3.72D-15 9.53D-09.
 InvSVY:  IOpt=1 It=  1 EMax= 8.88D-16
 Solved reduced A of dimension   123 with    15 vectors.
 FullF1:  Do perturbations      1 to      18.
 Saving first derivative matrices.
 End of Minotr F.D. properties file   721 does not exist.
 End of Minotr F.D. properties file   722 does not exist.
 End of Minotr F.D. properties file   788 does not exist.
 Leave Link 1002 at Mon Feb 21 20:35:40 2022, MaxMem= 16106127360 cpu:              83.6 elap:               3.0
 (Enter /sw/contrib/gaussian/g16/B01/g16/l811.exe)
 MDV= 16106127360.
 Form MO integral derivatives with frozen-active canonical formalism.
 MOERI=1 MOERIx=1 NAtoms=     5 NAtomX=     5.
 Discarding MO integrals.
 MO basis two electron integral derivatives will not be stored on disk.
 IAlg= 3 DoFC=T DoPWx=T Debug=F.
 Frozen-core window:  NFC=   4 NFV=   0.
 Reordered first order wavefunction length =     18678272
 In DefCFB: NBatch=  1 ICI= 16 ICA=191 LFMax= 96
            Large arrays: LIAPS=   619940160 LIARS=   288257200 words.
 In StABat: MaxSiz= 55 MinSiz= 25 NAtomB=  5
 DoIAMN: NPSUse= 28.
 Leave Link  811 at Mon Feb 21 20:37:01 2022, MaxMem= 16106127360 cpu:            2250.6 elap:              80.5
 (Enter /sw/contrib/gaussian/g16/B01/g16/l804.exe)
 Frozen-core window:  NFC=   4 NFV=   0.
 Closed-shell transformation, MDV= 16106127360 ITran=4 ISComp=1.
 Semi-Direct transformation.
 ModeAB=           2 MOrb=            16 LenV=   16104923051
 LASXX=     67341636 LTotXX=    67341636 LenRXX=    67341636
 LTotAB=    68301760 MaxLAS=    99807120 LenRXY=    99807120
 NonZer=   134683272 LenScr=   202817536 LnRSAI=           0
 LnScr1=           0 LExtra=           0 Total=    369966292
 MaxDsk=          -1 SrtSym=           F ITran=            4
 DoSDTr:  NPSUse= 28
 JobTyp=0 Pass  1:  I=   1 to  16.
 (rs|ai) integrals will be sorted in core.
 Complete sort for first half transformation.
 First half transformation complete.
 Begin second half transformation for I=  10.
 Begin second half transformation for I=  10.
 Complete sort for second half transformation.
 Second half transformation complete.
 Spin components of T(2) and E(2):
     alpha-alpha T2 =       0.3400609125D-01 E2=     -0.1223556698D+00
     alpha-beta  T2 =       0.1867670926D+00 E2=     -0.7000579978D+00
     beta-beta   T2 =       0.3400609125D-01 E2=     -0.1223556698D+00
 ANorm=    0.1584158625D+01
 E2 =    -0.9447693374D+00 EUMP2 =    -0.28044657214323D+03
 Leave Link  804 at Mon Feb 21 20:37:18 2022, MaxMem= 16106127360 cpu:             478.6 elap:              17.2
 (Enter /sw/contrib/gaussian/g16/B01/g16/l1002.exe)
 Minotr:  Closed shell wavefunction.
          Computing MP2/KS-MP2 derivatives.
          Using Z-Vector for PSCF gradient.
          Skipping F1 and S1 gradient terms here.
          IDoAtm=11111
          Frozen-core window.
          Using MO integrals in the linear equations.
          Forming densities via direct SCF.
          Differentiating once with respect to electric field.
                with respect to dipole field.
          Differentiating once with respect to nuclear coordinates.
          Using symmetry in CPHF.
          Requested convergence is 1.0D-10 RMS, and 1.0D-09 maximum.
          NewPWx=F KeepS1=T KeepF1=T KeepIn=T MapXYZ=F SortEE=F KeepMc=T.
          MDV=   16106127360 using IRadAn=       5.
          Solving linear equations separately, MaxMat=       0.
          There are     1 degrees of freedom in the 1st order CPHF.  IDoFFX=0 NUNeed=     1.
 FoFJK:  IHMeth= 1 ICntrl=       0 DoSepK=F KAlg= 0 I1Cent=           0 FoldK=F
 IRaf=         0 NMat=       1 IRICut=       1 DoRegI=T DoRafI=F ISym2E= 0 IDoP0=0 IntGTp=1.
 FoFCou: FMM=F IPFlag=           0 FMFlag=      100000 FMFlg1=           0
         NFxFlg=           0 DoJE=F BraDBF=F KetDBF=F FulRan=T
         wScrn=  0.000000 ICntrl=         0 IOpCl=  0 I1Cent=           0 NGrid=           0
         NMat0=    1 NMatS0=      1 NMatT0=    0 NMatD0=    1 NMtDS0=    0 NMtDT0=    0
 Symmetry not used in FoFCou.
 LinEq1:  Iter=  0 NonCon=     1 RMS=5.96D-03 Max=1.33D-01 NDo=     1
 LinEq1:  Iter=  1 NonCon=     1 RMS=1.91D-03 Max=3.83D-02 NDo=     1
 LinEq1:  Iter=  2 NonCon=     1 RMS=8.68D-04 Max=1.38D-02 NDo=     1
 LinEq1:  Iter=  3 NonCon=     1 RMS=3.87D-04 Max=7.87D-03 NDo=     1
 LinEq1:  Iter=  4 NonCon=     1 RMS=1.20D-04 Max=1.89D-03 NDo=     1
 LinEq1:  Iter=  5 NonCon=     1 RMS=4.62D-05 Max=7.32D-04 NDo=     1
 LinEq1:  Iter=  6 NonCon=     1 RMS=2.06D-05 Max=2.35D-04 NDo=     1
 LinEq1:  Iter=  7 NonCon=     1 RMS=8.20D-06 Max=1.60D-04 NDo=     1
 LinEq1:  Iter=  8 NonCon=     1 RMS=3.48D-06 Max=3.48D-05 NDo=     1
 LinEq1:  Iter=  9 NonCon=     1 RMS=9.45D-07 Max=1.32D-05 NDo=     1
 LinEq1:  Iter= 10 NonCon=     1 RMS=1.86D-07 Max=1.98D-06 NDo=     1
 LinEq1:  Iter= 11 NonCon=     1 RMS=3.44D-08 Max=3.61D-07 NDo=     1
 LinEq1:  Iter= 12 NonCon=     1 RMS=8.30D-09 Max=1.31D-07 NDo=     1
 LinEq1:  Iter= 13 NonCon=     1 RMS=1.51D-09 Max=2.65D-08 NDo=     1
 LinEq1:  Iter= 14 NonCon=     1 RMS=2.73D-10 Max=3.82D-09 NDo=     1
 LinEq1:  Iter= 15 NonCon=     0 RMS=4.89D-11 Max=5.54D-10 NDo=     1
 Linear equations converged to 1.000D-10 1.000D-09 after    15 iterations.
 End of Minotr F.D. properties file   721 does not exist.
 End of Minotr F.D. properties file   722 does not exist.
 End of Minotr F.D. properties file   788 does not exist.
 Leave Link 1002 at Mon Feb 21 20:37:21 2022, MaxMem= 16106127360 cpu:              65.1 elap:               2.4
 (Enter /sw/contrib/gaussian/g16/B01/g16/l1102.exe)
 Use density number 2.
 Symmetrizing basis deriv contribution to polar:
 IMax=3 JMax=2 DiffMx= 0.00D+00
 Leave Link 1102 at Mon Feb 21 20:37:21 2022, MaxMem= 16106127360 cpu:               0.7 elap:               0.1
 (Enter /sw/contrib/gaussian/g16/B01/g16/l1110.exe)
 Forming Gx(P) for generalized density number  2 NAtomX=     5.
 Integral derivatives from FoFJK, PRISM(SPDF).
 Do as many integral derivatives as possible in FoFJK.
 G2DrvN: MDV=   16106126844.
 G2DrvN: will do     6 centers at a time, making    1 passes.
 Calling FoFCou, ICntrl=  3107 FMM=F I1Cent=   0 AccDes= 0.00D+00.
 FoFJK:  IHMeth= 1 ICntrl=    3107 DoSepK=F KAlg= 0 I1Cent=           0 FoldK=F
 IRaf=         0 NMat=       1 IRICut=       1 DoRegI=T DoRafI=F ISym2E= 1 IDoP0=0 IntGTp=1.
 FoFCou: FMM=F IPFlag=           0 FMFlag=      100000 FMFlg1=           0
         NFxFlg=           0 DoJE=F BraDBF=F KetDBF=F FulRan=T
         wScrn=  0.000000 ICntrl=      3107 IOpCl=  0 I1Cent=           0 NGrid=           0
         NMat0=    1 NMatS0=      1 NMatT0=    0 NMatD0=    1 NMtDS0=    0 NMtDT0=    0
 Petite list used in FoFCou.
 End of G2Drv F.D. properties file   721 does not exist.
 End of G2Drv F.D. properties file   722 does not exist.
 End of G2Drv F.D. properties file   788 does not exist.
 Leave Link 1110 at Mon Feb 21 20:37:24 2022, MaxMem= 16106127360 cpu:              83.1 elap:               3.0
 (Enter /sw/contrib/gaussian/g16/B01/g16/l1112.exe)
 MP22nd: MDV=   16106127360
 This link is doing NAtomX=     5 total of    18 degrees of freedom.
 Using ON3 I/O method in MakUI.
 Frozen-core window:  NFC=   4 NFV=   0.
 Using Ix for Sx.
 Use MO integrals over full window.
 Using OV2 memory method for fx*t*t/D, MaxI=    16 DoOO2=F NP=  28.
 R2 and R3 integrals will be kept in memory, NReq=   915591705.
 FoFCou: FMM=F IPFlag=           0 FMFlag=           0 FMFlg1=           0
         NFxFlg=           0 DoJE=F BraDBF=F KetDBF=F FulRan=T
         wScrn=  0.000000 ICntrl=       600 IOpCl=  0 I1Cent=           0 NGrid=           0
         NMat0=    1 NMatS0=      1 NMatT0=    0 NMatD0=    1 NMtDS0=    0 NMtDT0=    0
 Symmetry not used in FoFCou.
 DD1Dir will call FoFMem   1 times, MxPair=       272
 NAB=   136 NAA=     0 NBB=     0.
 Symmetry is being used.
 FoFJK:  IHMeth= 1 ICntrl=       0 DoSepK=F KAlg= 0 I1Cent=           0 FoldK=F
 IRaf=         0 NMat=      18 IRICut=      45 DoRegI=T DoRafI=T ISym2E= 2 IDoP0=3 IntGTp=3.
 Discarding MO integrals.
 Leave Link 1112 at Mon Feb 21 20:38:02 2022, MaxMem= 16106127360 cpu:            1047.8 elap:              37.9
 (Enter /sw/contrib/gaussian/g16/B01/g16/l601.exe)
 Copying SCF densities to generalized density rwf, IOpCl= 0 IROHF=0.

 **********************************************************************

            Population analysis using the MP2 Density.

 **********************************************************************

 Orbital symmetries:
       Occupied  (A') (A') (A') (A') (A') (A') (A') (A') (A') (A')
                 (A") (A') (A") (A') (A") (A')
       Virtual   (A') (A") (A') (A') (A') (A") (A') (A') (A") (A')
                 (A") (A') (A') (A') (A") (A') (A') (A") (A') (A')
                 (A') (A') (A') (A') (A") (A') (A') (A") (A') (A')
                 (A") (A') (A") (A') (A') (A") (A') (A") (A') (A')
                 (A") (A') (A") (A') (A') (A") (A') (A') (A") (A')
                 (A") (A') (A') (A') (A") (A') (A") (A') (A") (A')
                 (A') (A') (A") (A') (A') (A") (A') (A") (A') (A')
                 (A") (A') (A') (A") (A") (A') (A') (A") (A') (A')
                 (A') (A") (A') (A") (A") (A') (A') (A") (A') (A')
                 (A") (A') (A') (A") (A') (A") (A') (A") (A') (A')
                 (A") (A') (A") (A') (A') (A") (A') (A') (A") (A')
                 (A") (A') (A') (A') (A") (A') (A') (A') (A") (A')
                 (A") (A') (A") (A') (A') (A") (A") (A') (A") (A')
                 (A') (A') (A') (A") (A") (A") (A') (A') (A') (A')
                 (A") (A') (A") (A') (A') (A") (A') (A') (A') (A')
                 (A") (A') (A') (A") (A') (A") (A') (A") (A') (A")
                 (A') (A") (A') (A") (A') (A") (A") (A') (A") (A')
                 (A") (A') (A") (A') (A") (A') (A") (A") (A') (A')
                 (A') (A') (A') (A') (A') (A') (A') (A') (A') (A')
                 (A')
 The electronic state is 1-A'.
 Alpha  occ. eigenvalues --  -20.69119 -20.68438 -20.65903 -15.81292  -1.62397
 Alpha  occ. eigenvalues --   -1.49442  -1.25471  -0.94801  -0.77177  -0.76058
 Alpha  occ. eigenvalues --   -0.71158  -0.67989  -0.62007  -0.58732  -0.48495
 Alpha  occ. eigenvalues --   -0.47250
 Alpha virt. eigenvalues --    0.02939   0.07173   0.08595   0.10179   0.13373
 Alpha virt. eigenvalues --    0.13406   0.14411   0.15442   0.17833   0.19439
 Alpha virt. eigenvalues --    0.20000   0.20625   0.22089   0.23540   0.23740
 Alpha virt. eigenvalues --    0.26704   0.29343   0.30421   0.30982   0.34362
 Alpha virt. eigenvalues --    0.34931   0.38714   0.42025   0.43242   0.52696
 Alpha virt. eigenvalues --    0.52913   0.55889   0.58222   0.62572   0.63850
 Alpha virt. eigenvalues --    0.67423   0.68403   0.70621   0.71215   0.72013
 Alpha virt. eigenvalues --    0.73052   0.74510   0.78934   0.78949   0.80911
 Alpha virt. eigenvalues --    0.81337   0.83191   0.86888   0.90721   0.92354
 Alpha virt. eigenvalues --    0.92526   0.95919   0.97830   0.98302   1.01531
 Alpha virt. eigenvalues --    1.05256   1.05530   1.08199   1.11741   1.13817
 Alpha virt. eigenvalues --    1.18887   1.22090   1.23084   1.33827   1.34749
 Alpha virt. eigenvalues --    1.38752   1.45108   1.48874   1.51295   1.53894
 Alpha virt. eigenvalues --    1.56726   1.57998   1.61626   1.66487   1.66927
 Alpha virt. eigenvalues --    1.70362   1.78775   1.83205   1.83321   1.87940
 Alpha virt. eigenvalues --    1.90894   1.95752   1.99025   2.00765   2.07591
 Alpha virt. eigenvalues --    2.11565   2.13196   2.15046   2.22195   2.26532
 Alpha virt. eigenvalues --    2.26692   2.28780   2.31490   2.34662   2.38471
 Alpha virt. eigenvalues --    2.42056   2.42359   2.45508   2.46338   2.47393
 Alpha virt. eigenvalues --    2.50374   2.58861   2.59387   2.61635   2.62904
 Alpha virt. eigenvalues --    2.63376   2.67018   2.75646   2.82075   2.86649
 Alpha virt. eigenvalues --    2.89036   2.89460   2.92081   2.96204   3.02742
 Alpha virt. eigenvalues --    3.06745   3.12337   3.19863   3.23073   3.31939
 Alpha virt. eigenvalues --    3.34043   3.51226   3.65435   3.83977   3.84916
 Alpha virt. eigenvalues --    4.15327   4.15527   4.18413   4.25614   4.36302
 Alpha virt. eigenvalues --    4.38995   4.46535   4.50876   4.66504   4.68689
 Alpha virt. eigenvalues --    4.80681   4.82400   4.83339   4.89596   5.02147
 Alpha virt. eigenvalues --    5.07798   5.10365   5.14971   5.18948   5.23380
 Alpha virt. eigenvalues --    5.27423   5.31156   5.33223   5.35296   5.61099
 Alpha virt. eigenvalues --    5.67377   5.77527   5.81280   5.95686   6.16310
 Alpha virt. eigenvalues --    6.30571   6.34235   6.39774   6.49339   6.50577
 Alpha virt. eigenvalues --    6.61191   6.66704   6.69641   6.75353   6.76589
 Alpha virt. eigenvalues --    6.83019   6.89773   6.99798   7.05764   7.06427
 Alpha virt. eigenvalues --    7.09159   7.12330   7.15796   7.18103   7.22359
 Alpha virt. eigenvalues --    7.24174   7.31131   7.32584   7.34683   7.39840
 Alpha virt. eigenvalues --    7.41276   7.48413   7.60898   7.61317   7.62787
 Alpha virt. eigenvalues --    7.66575   7.78370   7.88638   8.09090   8.30939
 Alpha virt. eigenvalues --    8.42484   8.54590  13.39714  14.39819  15.13374
 Alpha virt. eigenvalues --   16.15073
          Condensed to atoms (all electrons):
               1          2          3          4          5
     1  H    0.593027   0.126856   0.020524   0.012846  -0.000774
     2  O    0.126856   8.321234  -0.170028  -0.091980   0.015690
     3  O    0.020524  -0.170028   8.462354  -0.128393  -0.039073
     4  N    0.012846  -0.091980  -0.128393   6.971086  -0.056192
     5  O   -0.000774   0.015690  -0.039073  -0.056192   8.273345
 Mulliken charges:
               1
     1  H    0.247520
     2  O   -0.201772
     3  O   -0.145385
     4  N    0.292633
     5  O   -0.192996
 Sum of Mulliken charges =  -0.00000
 Mulliken charges with hydrogens summed into heavy atoms:
               1
     2  O    0.045748
     3  O   -0.145385
     4  N    0.292633
     5  O   -0.192996
 APT charges:
               1
     1  H    0.298901
     2  O   -0.291184
     3  O   -0.494031
     4  N    0.878508
     5  O   -0.392195
 Sum of APT charges =  -0.00000
 APT charges with hydrogens summed into heavy atoms:
               1
     2  O    0.007717
     3  O   -0.494031
     4  N    0.878508
     5  O   -0.392195
 Electronic spatial extent (au):  <R**2>=            253.1412
 Charge=             -0.0000 electrons
 Dipole moment (field-independent basis, Debye):
    X=              0.5581    Y=              1.3622    Z=              0.0000  Tot=              1.4721
 Quadrupole moment (field-independent basis, Debye-Ang):
   XX=            -22.2804   YY=            -18.6463   ZZ=            -22.0141
   XY=              3.3828   XZ=              0.0000   YZ=             -0.0000
 Traceless Quadrupole moment (field-independent basis, Debye-Ang):
   XX=             -1.3001   YY=              2.3340   ZZ=             -1.0338
   XY=              3.3828   XZ=              0.0000   YZ=             -0.0000
 Octapole moment (field-independent basis, Debye-Ang**2):
  XXX=              3.3544  YYY=             11.1761  ZZZ=             -0.0000  XYY=              8.0868
  XXY=              6.9705  XXZ=              0.0000  XZZ=             -1.5832  YZZ=             -0.8540
  YYZ=              0.0000  XYZ=              0.0000
 Hexadecapole moment (field-independent basis, Debye-Ang**3):
 XXXX=           -158.0808 YYYY=            -89.6852 ZZZZ=            -18.2521 XXXY=            -35.7385
 XXXZ=              0.0000 YYYX=            -30.5110 YYYZ=             -0.0000 ZZZX=             -0.0000
 ZZZY=             -0.0000 XXYY=            -33.3568 XXZZ=            -30.9974 YYZZ=            -20.6173
 XXYZ=             -0.0000 YYXZ=             -0.0000 ZZXY=            -15.0697
 N-N= 1.168231363166D+02 E-N=-8.957565048163D+02  KE= 2.801895409734D+02
 Symmetry A'   KE= 2.662194826109D+02
 Symmetry A"   KE= 1.397005836253D+01
  Exact polarizability:  34.131   9.544  30.250  -0.000   0.000  17.948
 Approx polarizability:  29.031   5.164  23.495  -0.000   0.000  15.533
 No NMR shielding tensors so no spin-rotation constants.
 Leave Link  601 at Mon Feb 21 20:38:03 2022, MaxMem= 16106127360 cpu:              22.3 elap:               0.9
 (Enter /sw/contrib/gaussian/g16/B01/g16/l701.exe)
 ... and contract with generalized density number  2.
 Compute integral second derivatives.
 Leave Link  701 at Mon Feb 21 20:38:03 2022, MaxMem= 16106127360 cpu:               9.6 elap:               0.5
 (Enter /sw/contrib/gaussian/g16/B01/g16/l702.exe)
 L702 exits ... SP integral derivatives will be done elsewhere.
 Leave Link  702 at Mon Feb 21 20:38:03 2022, MaxMem= 16106127360 cpu:               0.5 elap:               0.0
 (Enter /sw/contrib/gaussian/g16/B01/g16/l703.exe)
 Integral derivatives from FoFJK, PRISM(SPDF).
 Compute integral second derivatives, UseDBF=F ICtDFT=           0.
 Calling FoFJK, ICntrl=  10100127 FMM=F ISym2X=1 I1Cent= 0 IOpClX= 0 NMat=1 NMatS=1 NMatT=0.
 FoFJK:  IHMeth= 1 ICntrl=10100127 DoSepK=F KAlg= 0 I1Cent=           0 FoldK=F
 IRaf=         0 NMat=       1 IRICut=       1 DoRegI=T DoRafI=F ISym2E= 1 IDoP0=0 IntGTp=1.
 FoFCou: FMM=F IPFlag=           0 FMFlag=      100000 FMFlg1=         800
         NFxFlg=           0 DoJE=F BraDBF=F KetDBF=F FulRan=T
         wScrn=  0.000000 ICntrl=  10100127 IOpCl=  0 I1Cent=           0 NGrid=           0
         NMat0=    1 NMatS0=      1 NMatT0=    0 NMatD0=    1 NMtDS0=    0 NMtDT0=    0
 Petite list used in FoFCou.
 Leave Link  703 at Mon Feb 21 20:38:18 2022, MaxMem= 16106127360 cpu:             420.4 elap:              15.1
 (Enter /sw/contrib/gaussian/g16/B01/g16/l716.exe)
 Dipole        = 2.19558642D-01 5.35920389D-01 1.01471118D-32
 Polarizability= 3.41313898D+01 9.54411754D+00 3.02502175D+01
                -1.19662731D-31 4.60779516D-31 1.79475139D+01
 Full mass-weighted force constant matrix:
 Low frequencies --- -300.2309  -63.1918    0.0008    0.0014    0.0016   22.6553
 Low frequencies ---   37.0729  235.2326  344.5334
 ******    1 imaginary frequencies (negative Signs) ****** 
 Diagonal vibrational polarizability:
       14.1369588      25.3475916      39.5562275
 Harmonic frequencies (cm**-1), IR intensities (KM/Mole), Raman scattering
 activities (A**4/AMU), depolarization ratios for plane and unpolarized
 incident light, reduced masses (AMU), force constants (mDyne/A),
 and normal coordinates:
                      1                      2                      3
                     A"                     A"                     A'
 Frequencies --   -296.4573               235.0254               344.5194
 Red. masses --      1.1684                 8.4574                 8.5070
 Frc consts  --      0.0605                 0.2752                 0.5949
 IR Inten    --    125.0797                 2.5791                 3.8104
  Atom  AN      X      Y      Z        X      Y      Z        X      Y      Z
     1   1    -0.00  -0.00   0.99    -0.00   0.00  -0.69     0.53  -0.46  -0.00
     2   8    -0.00  -0.00  -0.07    -0.00   0.00  -0.26    -0.10  -0.38  -0.00
     3   8    -0.00  -0.00  -0.03    -0.00  -0.00   0.30    -0.15   0.42   0.00
     4   7     0.00   0.00   0.07     0.00   0.00   0.46     0.05   0.26   0.00
     5   8     0.00   0.00  -0.02     0.00   0.00  -0.39     0.17  -0.25  -0.00
                      4                      5                      6
                     A'                     A'                     A'
 Frequencies --    450.1558               783.4341               963.4153
 Red. masses --     12.1114                12.9169                14.6291
 Frc consts  --      1.4460                 4.6710                 8.0001
 IR Inten    --    201.7858               172.0657                21.6280
  Atom  AN      X      Y      Z        X      Y      Z        X      Y      Z
     1   1     0.44   0.18  -0.00    -0.33   0.21   0.00    -0.28  -0.04  -0.00
     2   8     0.31   0.19  -0.00     0.43   0.08  -0.00    -0.50   0.03  -0.00
     3   8     0.17   0.45   0.00    -0.07  -0.27   0.00     0.73  -0.02   0.00
     4   7    -0.35  -0.40   0.00    -0.14   0.62   0.00    -0.12   0.24   0.00
     5   8    -0.21  -0.30  -0.00    -0.22  -0.37  -0.00    -0.11  -0.22  -0.00
                      7                      8                      9
                     A'                     A'                     A'
 Frequencies --   1357.1616              1676.8524              3779.3602
 Red. masses --      1.1401                13.4485                 1.0681
 Frc consts  --      1.2373                22.2799                 8.9890
 IR Inten    --    144.8638               143.5466                85.4850
  Atom  AN      X      Y      Z        X      Y      Z        X      Y      Z
     1   1     0.99  -0.08  -0.00    -0.32   0.01   0.00     0.13   0.99   0.00
     2   8    -0.03   0.06  -0.00    -0.00  -0.04   0.00    -0.01  -0.06   0.00
     3   8    -0.01  -0.05   0.00     0.00   0.15  -0.00     0.00   0.00  -0.00
     4   7     0.02   0.02   0.00     0.71  -0.05  -0.00    -0.00  -0.00  -0.00
     5   8    -0.03  -0.01  -0.00    -0.60  -0.07   0.00     0.00   0.00   0.00

 -------------------
 - Thermochemistry -
 -------------------
 Temperature   298.150 Kelvin.  Pressure   1.00000 Atm.
 Atom     1 has atomic number  1 and mass   1.00783
 Atom     2 has atomic number  8 and mass  15.99491
 Atom     3 has atomic number  8 and mass  15.99491
 Atom     4 has atomic number  7 and mass  14.00307
 Atom     5 has atomic number  8 and mass  15.99491
 Molecular mass:    62.99564 amu.
 Principal axes and moments of inertia in atomic units:
                           1         2         3
     Eigenvalues --    32.75807 360.59811 393.35618
           X            0.81145  -0.58442   0.00000
           Y            0.58442   0.81145   0.00000
           Z            0.00000  -0.00000   1.00000
 This molecule is an asymmetric top.
 Rotational symmetry number  1.
 Rotational temperatures (Kelvin)      2.64405     0.24020     0.22019
 Rotational constants (GHZ):          55.09303     5.00485     4.58806
    1 imaginary frequencies ignored.
 Zero-point vibrational energy      57360.5 (Joules/Mol)
                                   13.70948 (Kcal/Mol)
 Warning -- explicit consideration of   3 degrees of freedom as
           vibrations may cause significant error
 Vibrational temperatures:    338.15   495.69   647.67  1127.19  1386.14
          (Kelvin)           1952.65  2412.62  5437.66
 
 Zero-point correction=                           0.021847 (Hartree/Particle)
 Thermal correction to Energy=                    0.025956
 Thermal correction to Enthalpy=                  0.026900
 Thermal correction to Gibbs Free Energy=        -0.004259
 Sum of electronic and zero-point Energies=           -280.424725
 Sum of electronic and thermal Energies=              -280.420616
 Sum of electronic and thermal Enthalpies=            -280.419672
 Sum of electronic and thermal Free Energies=         -280.450831
 
                     E (Thermal)             CV                S
                      KCal/Mol        Cal/Mol-Kelvin    Cal/Mol-Kelvin
 Total                   16.288             11.955             65.580
 Electronic               0.000              0.000              0.000
 Translational            0.889              2.981             38.341
 Rotational               0.889              2.981             23.056
 Vibrational             14.510              5.994              4.183
 Vibration     1          0.655              1.787              1.840
 Vibration     2          0.723              1.586              1.191
 Vibration     3          0.809              1.361              0.795
                       Q            Log10(Q)             Ln(Q)
 Total Bot       0.910095D+02          1.959087          4.510964
 Total V=0       0.101908D+13         12.008209         27.649924
 Vib (Bot)       0.189783D-09         -9.721742        -22.385139
 Vib (Bot)    1  0.836170D+00         -0.077706         -0.178924
 Vib (Bot)    2  0.537421D+00         -0.269685         -0.620973
 Vib (Bot)    3  0.380902D+00         -0.419187         -0.965213
 Vib (V=0)       0.212510D+01          0.327380          0.753821
 Vib (V=0)    1  0.147426D+01          0.168574          0.388155
 Vib (V=0)    2  0.123404D+01          0.091331          0.210297
 Vib (V=0)    3  0.112856D+01          0.052524          0.120942
 Electronic      0.100000D+01          0.000000          0.000000
 Translational   0.196526D+08          7.293420         16.793719
 Rotational      0.244011D+05          4.387409         10.102384
 
                                                                title
                                                             IR Spectrum
 
      3                                                                     1          1                                             
      7                                                                     6          3            9     7          4   3   2       
      7                                                                     7          5            6     8          5   4   3       
      9                                                                     7          7            3     3          0   5   5       
 
      X                                                                     X          X            X     X          X   X   X       
      X                                                                     X          X            X     X          X               
      X                                                                     X          X                  X          X               
      X                                                                     X          X                  X          X               
      X                                                                     X          X                  X          X               
      X                                                                     X          X                  X          X               
      X                                                                     X          X                  X          X               
      X                                                                     X          X                  X          X               
                                                                            X          X                  X          X               
                                                                            X          X                  X          X               
                                                                            X          X                  X          X               
                                                                            X          X                  X          X               
                                                                            X          X                  X          X               
                                                                            X          X                  X          X               
                                                                                                          X          X               
                                                                                                          X          X               
                                                                                                          X          X               
                                                                                                                     X               
                                                                                                                     X               
                                                                                                                     X               
 
 ***** Axes restored to original set *****
 -------------------------------------------------------------------
 Center     Atomic                   Forces (Hartrees/Bohr)
 Number     Number              X              Y              Z
 -------------------------------------------------------------------
      1        1           0.004540013    0.000000000    0.000341516
      2        8          -0.002539962    0.000000000    0.003531091
      3        8          -0.001227755   -0.000000000   -0.003754235
      4        7          -0.001062771   -0.000000000    0.000205023
      5        8           0.000290474   -0.000000000   -0.000323395
 -------------------------------------------------------------------
 Cartesian Forces:  Max     0.004540013 RMS     0.001942687
 -----------------------------------------------------------------------------------------------
                       Internal Coordinate Forces (Hartree/Bohr or radian)
  Cent   Atom   N1       Length/X         N2         Alpha/Y        N3         Beta/Z          J
 -----------------------------------------------------------------------------------------------
      1  H 
      2  O        1  -0.000342(     1)
      3  O        2  -0.002630(     2)      1  -0.008313(     5)
      4  N        3  -0.000152(     3)      2  -0.001244(     6)      1   0.000000(     8)     0
      5  O        4   0.000186(     4)      3  -0.000869(     7)      2   0.000000(     9)     0
 -----------------------------------------------------------------------------------------------
 Internal  Forces:  Max     0.008313203 RMS     0.002953349
 Force constants in Cartesian coordinates: 
                1             2             3             4             5 
      1  0.628902D-01
      2  0.000000D+00 -0.279949D-02
      3  0.185634D-02  0.000000D+00  0.512368D+00
      4 -0.392841D-01  0.000000D+00 -0.137950D-01  0.272348D+00
      5  0.000000D+00  0.528638D-02  0.000000D+00  0.000000D+00 -0.128171D-02
      6  0.507652D-01  0.000000D+00 -0.509953D+00  0.343502D-01  0.000000D+00
      7 -0.132892D-01  0.000000D+00  0.131725D-01 -0.218506D+00  0.000000D+00
      8  0.000000D+00 -0.662726D-03  0.000000D+00  0.000000D+00 -0.549056D-02
      9 -0.525323D-01  0.000000D+00  0.866683D-03 -0.215846D-01  0.000000D+00
     10 -0.902684D-02  0.000000D+00 -0.454116D-02 -0.159935D-01  0.000000D+00
     11  0.000000D+00 -0.296433D-02  0.000000D+00  0.000000D+00 -0.474417D-02
     12  0.580683D-02  0.000000D+00 -0.482554D-02  0.911385D-02  0.000000D+00
     13 -0.129011D-02  0.000000D+00  0.330730D-02  0.143606D-02  0.000000D+00
     14  0.000000D+00  0.114018D-02  0.000000D+00  0.000000D+00  0.623006D-02
     15 -0.589606D-02  0.000000D+00  0.154309D-02 -0.808446D-02  0.000000D+00
                6             7             8             9            10 
      6  0.601597D+00
      7 -0.238503D-01  0.335013D+00
      8  0.000000D+00  0.000000D+00  0.458742D-02
      9 -0.825903D-01  0.369176D-01  0.000000D+00  0.183706D+00
     10 -0.537157D-01 -0.867775D-01  0.000000D+00  0.175112D+00  0.828770D+00
     11  0.000000D+00  0.000000D+00  0.893783D-02  0.000000D+00  0.000000D+00
     12  0.165620D-01  0.640358D-01  0.000000D+00 -0.729373D-01  0.559004D-02
     13 -0.754935D-02 -0.164404D-01  0.000000D+00 -0.137913D+00 -0.716972D+00
     14  0.000000D+00  0.000000D+00 -0.737197D-02  0.000000D+00  0.000000D+00
     15 -0.256166D-01 -0.902757D-01  0.000000D+00 -0.290447D-01 -0.122446D+00
               11            12            13            14            15 
     11  0.804809D-02
     12  0.000000D+00  0.185179D+00
     13  0.000000D+00 -0.845465D-01  0.733266D+00
     14 -0.927742D-02  0.000000D+00  0.000000D+00  0.927914D-02
     15  0.000000D+00 -0.123979D+00  0.226702D+00  0.000000D+00  0.177097D+00
 Force constants in internal coordinates: 
                1             2             3             4             5 
      1  0.512368D+00
      2 -0.113538D-01  0.276495D+00
      3  0.333323D-02  0.270653D-02  0.116554D+00
      4 -0.360997D-02  0.564884D-02  0.153236D+00  0.811960D+00
      5  0.793919D-02  0.589839D-01  0.988914D-03  0.534227D-02  0.210241D+00
      6  0.418884D-02  0.591101D-01  0.397351D-01  0.224705D-01  0.306037D-01
      7 -0.118613D-02  0.375326D-01  0.321663D-01  0.841639D-01  0.214050D-01
      8  0.000000D+00  0.000000D+00  0.000000D+00  0.000000D+00  0.000000D+00
      9  0.000000D+00  0.000000D+00  0.000000D+00  0.000000D+00  0.000000D+00
                6             7             8             9 
      6  0.282477D+00
      7  0.957475D-01  0.482047D+00
      8  0.000000D+00  0.000000D+00 -0.832833D-02
      9  0.000000D+00  0.000000D+00 -0.430169D-02  0.412054D-01
 Leave Link  716 at Mon Feb 21 20:38:18 2022, MaxMem= 16106127360 cpu:               1.2 elap:               0.1
 (Enter /sw/contrib/gaussian/g16/B01/g16/l103.exe)

 GradGradGradGradGradGradGradGradGradGradGradGradGradGradGradGradGradGrad
 Berny optimization.
 Search for a local minimum.
 Step number   1 out of a maximum of    2
 All quantities printed in internal units (Hartrees-Bohrs-Radians)
 Second derivative matrix not updated -- analytic derivatives used.
 The second derivative matrix:
                          r1        r2        r3        r4        a1
           r1           0.51237
           r2          -0.01135   0.27650
           r3           0.00333   0.00271   0.11655
           r4          -0.00361   0.00565   0.15324   0.81196
           a1           0.00794   0.05898   0.00099   0.00534   0.21024
           a2           0.00419   0.05911   0.03974   0.02247   0.03060
           a3          -0.00119   0.03753   0.03217   0.08416   0.02141
           d1           0.00000  -0.00000  -0.00000  -0.00000  -0.00000
           d2          -0.00000   0.00000   0.00000   0.00000   0.00000
                          a2        a3        d1        d2
           a2           0.28248
           a3           0.09575   0.48205
           d1          -0.00000  -0.00000  -0.00833
           d2          -0.00000  -0.00000  -0.00430   0.04121
 ITU=  0
     Eigenvalues ---   -0.00870   0.04158   0.07802   0.17502   0.22228
     Eigenvalues ---    0.31748   0.51304   0.51564   0.87065
 Eigenvalue     1 is  -8.70D-03 should be greater than     0.000000 Eigenvector:
                          d1        d2        a3        a2        r3
   1                    0.99631   0.08588   0.00000   0.00000  -0.00000
                          r4        a1        r2        r1
   1                    0.00000  -0.00000   0.00000  -0.00000
 Angle between quadratic step and forces=  19.01 degrees.
 Linear search not attempted -- first point.
 Variable       Old X    -DE/DX   Delta X   Delta X   Delta X     New X
                                 (Linear)    (Quad)   (Total)
    r1        1.83110  -0.00034   0.00000  -0.00007  -0.00007   1.83103
    r2        2.74940  -0.00263   0.00000  -0.00121  -0.00121   2.74819
    r3        2.75670  -0.00015   0.00000  -0.00226  -0.00226   2.75444
    r4        2.21236   0.00019   0.00000   0.00092   0.00092   2.21327
    a1        1.74171  -0.00831   0.00000  -0.03926  -0.03926   1.70245
    a2        1.78543  -0.00124   0.00000   0.00036   0.00036   1.78579
    a3        1.90362  -0.00087   0.00000  -0.00005  -0.00005   1.90358
    d1        3.14159   0.00000   0.00000   0.00000   0.00000   3.14159
    d2        3.14159   0.00000   0.00000   0.00000   0.00000   3.14159
         Item               Value     Threshold  Converged?
 Maximum Force            0.008313     0.000450     NO 
 RMS     Force            0.002953     0.000300     NO 
 Maximum Displacement     0.039261     0.001800     NO 
 RMS     Displacement     0.013119     0.001200     NO 
 Predicted change in Energy=-1.648412D-04
                       ----------------------------
                       ! Non-Optimized Parameters !
                       ! (Angstroms and Degrees)  !
 ----------------------                            ----------------------
 !      Name          Value   Derivative information (Atomic Units)     !
 ------------------------------------------------------------------------
 !       r1          0.9689   -DE/DX =   -0.0003                        !
 !       r2          1.4543   -DE/DX =   -0.0026                        !
 !       r3          1.4576   -DE/DX =   -0.0002                        !
 !       r4          1.1712   -DE/DX =    0.0002                        !
 !       a1         97.5433   -DE/DX =   -0.0083                        !
 !       a2        102.3184   -DE/DX =   -0.0012                        !
 !       a3        109.0668   -DE/DX =   -0.0009                        !
 !       d1        180.0      -DE/DX =    0.0                           !
 !       d2        180.0      -DE/DX =    0.0                           !
 ------------------------------------------------------------------------
 GradGradGradGradGradGradGradGradGradGradGradGradGradGradGradGradGradGrad

 Leave Link  103 at Mon Feb 21 20:38:18 2022, MaxMem= 16106127360 cpu:               1.2 elap:               0.1
 (Enter /sw/contrib/gaussian/g16/B01/g16/l9999.exe)

 ----------------------------------------------------------------------

 Electric dipole moment (input orientation):
 (Debye = 10**-18 statcoulomb cm , SI units = C m)
                  (au)            (Debye)         (10**-30 SI)
   Tot        0.579152D+00      0.147206D+01      0.491025D+01
   x         -0.143568D+00     -0.364912D+00     -0.121722D+01
   y          0.000000D+00      0.000000D+00      0.000000D+00
   z         -0.561075D+00     -0.142611D+01     -0.475699D+01

 Dipole polarizability, Alpha (input orientation).
 (esu units = cm**3 , SI units = C**2 m**2 J**-1)
 Alpha(0;0):
               (au)            (10**-24 esu)      (10**-40 SI)
   iso        0.274430D+02      0.406664D+01      0.452475D+01
   aniso      0.220780D+02      0.327163D+01      0.364018D+01
   xx         0.314508D+02      0.466053D+01      0.518554D+01
   yx         0.000000D+00      0.000000D+00      0.000000D+00
   yy         0.179475D+02      0.265955D+01      0.295915D+01
   zx         0.971125D+01      0.143906D+01      0.160117D+01
   zy         0.000000D+00      0.000000D+00      0.000000D+00
   zz         0.329308D+02      0.487984D+01      0.542955D+01

 ----------------------------------------------------------------------

 Dipole orientation:
     1         -0.00000000          0.00000000         -0.00000000
     8         -0.45391631          0.00000000         -1.77394516
     8          2.05493374          0.00000000         -2.89860796
     7          1.48893247          0.00000000         -5.59657949
     8          3.38692760          0.00000000         -6.73330176

 Electric dipole moment (dipole orientation):
 (Debye = 10**-18 statcoulomb cm , SI units = C m)
                  (au)            (Debye)         (10**-30 SI)
   Tot        0.579152D+00      0.147206D+01      0.491025D+01
   x          0.000000D+00      0.000000D+00      0.000000D+00
   y          0.000000D+00      0.000000D+00      0.000000D+00
   z          0.579152D+00      0.147206D+01      0.491025D+01

 Dipole polarizability, Alpha (dipole orientation).
 (esu units = cm**3 , SI units = C**2 m**2 J**-1)
 Alpha(0;0):
               (au)            (10**-24 esu)      (10**-40 SI)
   iso        0.274430D+02      0.406664D+01      0.452475D+01
   aniso      0.220780D+02      0.327163D+01      0.364018D+01
   xx         0.268773D+02      0.398281D+01      0.443147D+01
   yx         0.000000D+00      0.000000D+00      0.000000D+00
   yy         0.179475D+02      0.265955D+01      0.295915D+01
   zx        -0.816230D+01     -0.120953D+01     -0.134578D+01
   zy         0.000000D+00      0.000000D+00      0.000000D+00
   zz         0.375043D+02      0.555756D+01      0.618362D+01

 ----------------------------------------------------------------------
 1\1\GINC-N2127\Freq\RMP2-FC\Aug-CC-pVTZ\H1N1O3\CGAVINH\21-Feb-2022\1\\
 #p freq mp2/aug-cc-pvtz density=current\\title\\0,1\H\O,1,r1\O,2,r2,1,
 a1\N,3,r3,2,a2,1,d1,0\O,4,r4,3,a3,2,d2,0\\r1=0.96897556\r2=1.45491931\
 r3=1.45878406\r4=1.17072885\a1=99.79279337\a2=102.29752444\a3=109.0695
 5123\d1=180.\d2=180.\\Version=ES64L-G16RevB.01\State=1-A'\HF=-279.5018
 028\MP2=-280.4465721\RMSD=3.814e-09\RMSF=1.943e-03\ZeroPoint=0.0218475
 \Thermal=0.0259559\Dipole=-0.1435676,0.,-0.5610749\DipoleDeriv=0.25879
 32,0.,0.0402371,0.,0.358232,0.,0.0863807,0.,0.2796775,-0.3130252,0.,-0
 .2039443,0.,-0.3190761,0.,-0.126327,0.,-0.2414496,-0.0263774,0.,0.1984
 748,0.,-0.0848996,0.,-0.6976201,0.,-1.3708156,0.8267758,0.,0.8789386,0
 .,0.0660177,0.,0.8946773,0.,1.7427312,-0.7461664,0.,-0.9137062,0.,-0.0
 20274,0.,-0.1571108,0.,-0.4101435\Polar=31.4508107,0.,17.9475139,9.711
 2545,0.,32.9307966\Quadrupole=-1.6021793,-0.7686405,2.3708197,0.,2.050
 4387,0.\PG=CS [SG(H1N1O3)]\NImag=1\\0.06289023,0.,-0.00279949,0.001856
 34,0.,0.51236841,-0.03928413,0.,-0.01379499,0.27234751,0.,0.00528638,0
 .,0.,-0.00128171,0.05076516,0.,-0.50995264,0.03435017,0.,0.60159746,-0
 .01328915,0.,0.01317251,-0.21850594,0.,-0.02385028,0.33501305,0.,-0.00
 066273,0.,0.,-0.00549056,0.,0.,0.00458742,-0.05253228,0.,0.00086668,-0
 .02158457,0.,-0.08259030,0.03691762,0.,0.18370561,-0.00902684,0.,-0.00
 454116,-0.01599351,0.,-0.05371570,-0.08677753,0.,0.17511242,0.82876979
 ,0.,-0.00296433,0.,0.,-0.00474417,0.,0.,0.00893783,0.,0.,0.00804809,0.
 00580683,0.,-0.00482554,0.00911385,0.,0.01656205,0.06403581,0.,-0.0729
 3728,0.00559004,0.,0.18517937,-0.00129011,0.,0.00330730,0.00143606,0.,
 -0.00754935,-0.01644043,0.,-0.13791319,-0.71697191,0.,-0.08454654,0.73
 326640,0.,0.00114018,0.,0.,0.00623006,0.,0.,-0.00737197,0.,0.,-0.00927
 742,0.,0.,0.00927914,-0.00589606,0.,0.00154309,-0.00808446,0.,-0.02561
 657,-0.09027566,0.,-0.02904471,-0.12244561,0.,-0.12397860,0.22670178,0
 .,0.17709679\\-0.00454001,0.,-0.00034152,0.00253996,0.,-0.00353109,0.0
 0122775,0.,0.00375424,0.00106277,0.,-0.00020502,-0.00029047,0.,0.00032
 339\\\@


 FAULTILY FAULTLESS, ICILY REGULAR, SPLENDIDLY NULL...
           MAUDE BY TENNYSON
 Job cpu time:       0 days  2 hours  2 minutes 17.7 seconds.
 Elapsed time:       0 days  0 hours  4 minutes 25.5 seconds.
 File lengths (MBytes):  RWF=   7239 Int=      0 D2E=      0 Chk=      8 Scr=      1
 Normal termination of Gaussian 16 at Mon Feb 21 20:38:19 2022.
