title                                                                   
Freq      RMP2-FC                                                     Aug-CC-pVTZ         
Number of atoms                            I                5
Info1-9                                    I   N=           9
          33          24           0           0           0         100
           6           2           1
Full Title                                 C   N=           1
title       
Route                                      C   N=           4
#p freq mp2/aug-cc-pvtz density=current         
Charge                                     I                0
Multiplicity                               I                1
Number of electrons                        I               32
Number of alpha electrons                  I               16
Number of beta electrons                   I               16
Number of basis functions                  I              207
Number of independent functions            I              207
Number of point charges in /Mol/           I                0
Number of translation vectors              I                0
Atomic numbers                             I   N=           5
           1           8           8           7           8
Nuclear charges                            R   N=           5
  1.00000000E+00  8.00000000E+00  8.00000000E+00  7.00000000E+00  8.00000000E+00
Current cartesian coordinates              R   N=          15
  2.09718180E+00 -1.13110091E+00  0.00000000E+00  2.48696200E+00  6.89738991E-01
  0.00000000E+00 -2.55016385E-16  1.73098785E+00  0.00000000E+00 -1.87285355E+00
 -8.67241337E-02  0.00000000E+00 -1.11036287E+00 -2.20345561E+00  0.00000000E+00
Number of symbols in /Mol/                 I                0
Force Field                                I                0
Atom Types                                 C   N=           5
                                                            
Int Atom Types                             I   N=           5
           0           0           0           0           0
MM charges                                 R   N=           5
  0.00000000E+00  0.00000000E+00  0.00000000E+00  0.00000000E+00  0.00000000E+00
Integer atomic weights                     I   N=           5
           1          16          16          14          16
Real atomic weights                        R   N=           5
  1.00782504E+00  1.59949146E+01  1.59949146E+01  1.40030740E+01  1.59949146E+01
Atom fragment info                         I   N=           5
           0           0           0           0           0
Atom residue num                           I   N=           5
           0           0           0           0           0
Nuclear spins                              I   N=           5
           1           0           0           2           0
Nuclear ZEff                               R   N=           5
 -1.00000000E+00 -5.60000000E+00 -5.60000000E+00 -4.55000000E+00 -5.60000000E+00
Nuclear ZNuc                               R   N=           5
  1.00000000E+00  8.00000000E+00  8.00000000E+00  7.00000000E+00  8.00000000E+00
Nuclear QMom                               R   N=           5
  0.00000000E+00  0.00000000E+00  0.00000000E+00  2.04400000E+00  0.00000000E+00
Nuclear GFac                               R   N=           5
  2.79284600E+00  0.00000000E+00  0.00000000E+00  4.03761000E-01  0.00000000E+00
MicOpt                                     I   N=           5
          -1          -1          -1          -1          -1
Number of residues                         I                0
Number of secondary structures             I                0
SymInf integers                            I   N=          26
           1           2           1           1           1           1
           1          -1           0           0           0           0
           0           0           0           0           0           0
           0           0           0           0           0           0
           0           0
RotTr to input orientation                 R   N=          12
 -9.77846378E-01  0.00000000E+00  2.09323817E-01  2.09323817E-01  0.00000000E+00
  9.77846378E-01  0.00000000E+00  1.00000000E+00  0.00000000E+00  2.28748799E+00
  0.00000000E+00  6.67052824E-01
Number of contracted shells                I               65
Number of primitive shells                 I              119
Pure/Cartesian d shells                    I                0
Pure/Cartesian f shells                    I                0
Highest angular momentum                   I                3
Largest degree of contraction              I                7
Shell types                                I   N=          65
           0           0           0           0           1           1
           1          -2          -2           0           0           0
           0           0           1           1           1           1
          -2          -2          -2          -3          -3           0
           0           0           0           0           1           1
           1           1          -2          -2          -2          -3
          -3           0           0           0           0           0
           1           1           1           1          -2          -2
          -2          -3          -3           0           0           0
           0           0           1           1           1           1
          -2          -2          -2          -3          -3
Number of primitives per shell             I   N=          65
           3           1           1           1           1           1
           1           1           1           7           6           1
           1           1           3           1           1           1
           1           1           1           1           1           7
           6           1           1           1           3           1
           1           1           1           1           1           1
           1           7           6           1           1           1
           3           1           1           1           1           1
           1           1           1           7           6           1
           1           1           3           1           1           1
           1           1           1           1           1
Shell to atom map                          I   N=          65
           1           1           1           1           1           1
           1           1           1           2           2           2
           2           2           2           2           2           2
           2           2           2           2           2           3
           3           3           3           3           3           3
           3           3           3           3           3           3
           3           4           4           4           4           4
           4           4           4           4           4           4
           4           4           4           5           5           5
           5           5           5           5           5           5
           5           5           5           5           5
Primitive exponents                        R   N=         119
  3.38700000E+01  5.09500000E+00  1.15900000E+00  3.25800000E-01  1.02700000E-01
  2.52600000E-02  1.40700000E+00  3.88000000E-01  1.02000000E-01  1.05700000E+00
  2.47000000E-01  1.53300000E+04  2.29900000E+03  5.22400000E+02  1.47300000E+02
  4.75500000E+01  1.67600000E+01  6.20700000E+00  5.22400000E+02  1.47300000E+02
  4.75500000E+01  1.67600000E+01  6.20700000E+00  6.88200000E-01  1.75200000E+00
  2.38400000E-01  7.37600000E-02  3.44600000E+01  7.74900000E+00  2.28000000E+00
  7.15600000E-01  2.14000000E-01  5.97400000E-02  2.31400000E+00  6.45000000E-01
  2.14000000E-01  1.42800000E+00  5.00000000E-01  1.53300000E+04  2.29900000E+03
  5.22400000E+02  1.47300000E+02  4.75500000E+01  1.67600000E+01  6.20700000E+00
  5.22400000E+02  1.47300000E+02  4.75500000E+01  1.67600000E+01  6.20700000E+00
  6.88200000E-01  1.75200000E+00  2.38400000E-01  7.37600000E-02  3.44600000E+01
  7.74900000E+00  2.28000000E+00  7.15600000E-01  2.14000000E-01  5.97400000E-02
  2.31400000E+00  6.45000000E-01  2.14000000E-01  1.42800000E+00  5.00000000E-01
  1.14200000E+04  1.71200000E+03  3.89300000E+02  1.10000000E+02  3.55700000E+01
  1.25400000E+01  4.64400000E+00  3.89300000E+02  1.10000000E+02  3.55700000E+01
  1.25400000E+01  4.64400000E+00  5.11800000E-01  1.29300000E+00  1.78700000E-01
  5.76000000E-02  2.66300000E+01  5.94800000E+00  1.74200000E+00  5.55000000E-01
  1.72500000E-01  4.91000000E-02  1.65400000E+00  4.69000000E-01  1.51000000E-01
  1.09300000E+00  3.64000000E-01  1.53300000E+04  2.29900000E+03  5.22400000E+02
  1.47300000E+02  4.75500000E+01  1.67600000E+01  6.20700000E+00  5.22400000E+02
  1.47300000E+02  4.75500000E+01  1.67600000E+01  6.20700000E+00  6.88200000E-01
  1.75200000E+00  2.38400000E-01  7.37600000E-02  3.44600000E+01  7.74900000E+00
  2.28000000E+00  7.15600000E-01  2.14000000E-01  5.97400000E-02  2.31400000E+00
  6.45000000E-01  2.14000000E-01  1.42800000E+00  5.00000000E-01
Contraction coefficients                   R   N=         119
  2.54948632E-02  1.90362766E-01  8.52162022E-01  1.00000000E+00  1.00000000E+00
  1.00000000E+00  1.00000000E+00  1.00000000E+00  1.00000000E+00  1.00000000E+00
  1.00000000E+00  5.19808943E-04  4.02025621E-03  2.07128267E-02  8.10105536E-02
  2.35962985E-01  4.42653446E-01  3.57064423E-01 -4.42115008E-05 -1.22591041E-03
 -1.05517725E-02 -6.74452633E-02 -1.71198607E-01  1.07329856E+00  1.00000000E+00
  1.00000000E+00  1.00000000E+00  4.11634896E-02  2.57762836E-01  8.02419274E-01
  1.00000000E+00  1.00000000E+00  1.00000000E+00  1.00000000E+00  1.00000000E+00
  1.00000000E+00  1.00000000E+00  1.00000000E+00  5.19808943E-04  4.02025621E-03
  2.07128267E-02  8.10105536E-02  2.35962985E-01  4.42653446E-01  3.57064423E-01
 -4.42115008E-05 -1.22591041E-03 -1.05517725E-02 -6.74452633E-02 -1.71198607E-01
  1.07329856E+00  1.00000000E+00  1.00000000E+00  1.00000000E+00  4.11634896E-02
  2.57762836E-01  8.02419274E-01  1.00000000E+00  1.00000000E+00  1.00000000E+00
  1.00000000E+00  1.00000000E+00  1.00000000E+00  1.00000000E+00  1.00000000E+00
  5.34563860E-04  4.13435660E-03  2.12335358E-02  8.25006224E-02  2.38138871E-01
  4.42551547E-01  3.53757422E-01 -4.89867350E-05 -1.19527323E-03 -1.03490714E-02
 -6.48680190E-02 -1.71552477E-01  1.07289568E+00  1.00000000E+00  1.00000000E+00
  1.00000000E+00  3.98072123E-02  2.49002660E-01  8.10479727E-01  1.00000000E+00
  1.00000000E+00  1.00000000E+00  1.00000000E+00  1.00000000E+00  1.00000000E+00
  1.00000000E+00  1.00000000E+00  5.19808943E-04  4.02025621E-03  2.07128267E-02
  8.10105536E-02  2.35962985E-01  4.42653446E-01  3.57064423E-01 -4.42115008E-05
 -1.22591041E-03 -1.05517725E-02 -6.74452633E-02 -1.71198607E-01  1.07329856E+00
  1.00000000E+00  1.00000000E+00  1.00000000E+00  4.11634896E-02  2.57762836E-01
  8.02419274E-01  1.00000000E+00  1.00000000E+00  1.00000000E+00  1.00000000E+00
  1.00000000E+00  1.00000000E+00  1.00000000E+00  1.00000000E+00
Coordinates of each shell                  R   N=         195
  2.09718180E+00 -1.13110091E+00  0.00000000E+00  2.09718180E+00 -1.13110091E+00
  0.00000000E+00  2.09718180E+00 -1.13110091E+00  0.00000000E+00  2.09718180E+00
 -1.13110091E+00  0.00000000E+00  2.09718180E+00 -1.13110091E+00  0.00000000E+00
  2.09718180E+00 -1.13110091E+00  0.00000000E+00  2.09718180E+00 -1.13110091E+00
  0.00000000E+00  2.09718180E+00 -1.13110091E+00  0.00000000E+00  2.09718180E+00
 -1.13110091E+00  0.00000000E+00  2.48696200E+00  6.89738991E-01  0.00000000E+00
  2.48696200E+00  6.89738991E-01  0.00000000E+00  2.48696200E+00  6.89738991E-01
  0.00000000E+00  2.48696200E+00  6.89738991E-01  0.00000000E+00  2.48696200E+00
  6.89738991E-01  0.00000000E+00  2.48696200E+00  6.89738991E-01  0.00000000E+00
  2.48696200E+00  6.89738991E-01  0.00000000E+00  2.48696200E+00  6.89738991E-01
  0.00000000E+00  2.48696200E+00  6.89738991E-01  0.00000000E+00  2.48696200E+00
  6.89738991E-01  0.00000000E+00  2.48696200E+00  6.89738991E-01  0.00000000E+00
  2.48696200E+00  6.89738991E-01  0.00000000E+00  2.48696200E+00  6.89738991E-01
  0.00000000E+00  2.48696200E+00  6.89738991E-01  0.00000000E+00  1.88614925E-17
  1.73098785E+00  0.00000000E+00  1.88614925E-17  1.73098785E+00  0.00000000E+00
  1.88614925E-17  1.73098785E+00  0.00000000E+00  1.88614925E-17  1.73098785E+00
  0.00000000E+00  1.88614925E-17  1.73098785E+00  0.00000000E+00  1.88614925E-17
  1.73098785E+00  0.00000000E+00  1.88614925E-17  1.73098785E+00  0.00000000E+00
  1.88614925E-17  1.73098785E+00  0.00000000E+00  1.88614925E-17  1.73098785E+00
  0.00000000E+00  1.88614925E-17  1.73098785E+00  0.00000000E+00  1.88614925E-17
  1.73098785E+00  0.00000000E+00  1.88614925E-17  1.73098785E+00  0.00000000E+00
  1.88614925E-17  1.73098785E+00  0.00000000E+00  1.88614925E-17  1.73098785E+00
  0.00000000E+00 -1.87285355E+00 -8.67241337E-02  0.00000000E+00 -1.87285355E+00
 -8.67241337E-02  0.00000000E+00 -1.87285355E+00 -8.67241337E-02  0.00000000E+00
 -1.87285355E+00 -8.67241337E-02  0.00000000E+00 -1.87285355E+00 -8.67241337E-02
  0.00000000E+00 -1.87285355E+00 -8.67241337E-02  0.00000000E+00 -1.87285355E+00
 -8.67241337E-02  0.00000000E+00 -1.87285355E+00 -8.67241337E-02  0.00000000E+00
 -1.87285355E+00 -8.67241337E-02  0.00000000E+00 -1.87285355E+00 -8.67241337E-02
  0.00000000E+00 -1.87285355E+00 -8.67241337E-02  0.00000000E+00 -1.87285355E+00
 -8.67241337E-02  0.00000000E+00 -1.87285355E+00 -8.67241337E-02  0.00000000E+00
 -1.87285355E+00 -8.67241337E-02  0.00000000E+00 -1.11036287E+00 -2.20345561E+00
  0.00000000E+00 -1.11036287E+00 -2.20345561E+00  0.00000000E+00 -1.11036287E+00
 -2.20345561E+00  0.00000000E+00 -1.11036287E+00 -2.20345561E+00  0.00000000E+00
 -1.11036287E+00 -2.20345561E+00  0.00000000E+00 -1.11036287E+00 -2.20345561E+00
  0.00000000E+00 -1.11036287E+00 -2.20345561E+00  0.00000000E+00 -1.11036287E+00
 -2.20345561E+00  0.00000000E+00 -1.11036287E+00 -2.20345561E+00  0.00000000E+00
 -1.11036287E+00 -2.20345561E+00  0.00000000E+00 -1.11036287E+00 -2.20345561E+00
  0.00000000E+00 -1.11036287E+00 -2.20345561E+00  0.00000000E+00 -1.11036287E+00
 -2.20345561E+00  0.00000000E+00 -1.11036287E+00 -2.20345561E+00  0.00000000E+00
Num ILSW                                   I              100
ILSW                                       I   N=         100
           0           0           0           0           2           0
           0           0           0           0           0          -1
           5           0           0           0           2           0
           0           0           0           0           1           0
           1           0           0           0           0           0
           0           0      100000           0          -1           0
           0           0           0           0           0           0
           0           0           0           1           1           0
           0 -2000000000           1           0           0           0
           0           0           4          52           0           0
           0           0           0           0           0           0
           0           0           0           5           4           1
           0           0           0           0           0           0
           0           0           0           0           0           0
           0           0           0           0           0           0
           0           0           0           0           0           0
           0           0           0           0
Num RLSW                                   I               52
RLSW                                       R   N=          52
  1.00000000E+00  1.00000000E+00  1.00000000E+00  1.00000000E+00  1.00000000E+00
  0.00000000E+00  0.00000000E+00  1.00000000E+00  0.00000000E+00  0.00000000E+00
  0.00000000E+00  0.00000000E+00  1.00000000E+00  0.00000000E+00  0.00000000E+00
  0.00000000E+00  0.00000000E+00  1.00000000E+00  0.00000000E+00  0.00000000E+00
  0.00000000E+00  0.00000000E+00  1.00000000E+00  0.00000000E+00  0.00000000E+00
  0.00000000E+00  0.00000000E+00  1.00000000E+00  0.00000000E+00  0.00000000E+00
  0.00000000E+00  0.00000000E+00  1.00000000E+00  0.00000000E+00  0.00000000E+00
  0.00000000E+00  0.00000000E+00  0.00000000E+00  1.00000000E+00  1.00000000E+00
  0.00000000E+00  1.00000000E+00  0.00000000E+00  0.00000000E+00  0.00000000E+00
  0.00000000E+00  0.00000000E+00  0.00000000E+00  0.00000000E+00  0.00000000E+00
  0.00000000E+00  0.00000000E+00
MxBond                                     I                2
NBond                                      I   N=           5
           1           2           2           2           1
IBond                                      I   N=          10
           2           0           1           3           2           4
           3           5           4           0
RBond                                      R   N=          10
  1.00000000E+00  0.00000000E+00  1.00000000E+00  1.00000000E+00  1.00000000E+00
  1.00000000E+00  1.00000000E+00  2.00000000E+00  2.00000000E+00  0.00000000E+00
Virial Ratio                               R      2.002162495120739E+00
SCF Energy                                 R     -2.795071242605358E+02
MP2 Energy                                 R     -2.804552148433155E+02
Total Energy                               R     -2.804552148433155E+02
Post-SCF wavefunction norm                 R      1.583318596171274E+00
RMS Force                                  R      2.154230101630658E-03
RMS Density                                R      4.047506198826688E-09
NImag                                      I                0
Job Status                                 I                1
Nuclear derivative order                   I                2
External E-field                           R   N=          35
  0.00000000E+00  0.00000000E+00  0.00000000E+00  0.00000000E+00  0.00000000E+00
  0.00000000E+00  0.00000000E+00  0.00000000E+00  0.00000000E+00  0.00000000E+00
  0.00000000E+00  0.00000000E+00  0.00000000E+00  0.00000000E+00  0.00000000E+00
  0.00000000E+00  0.00000000E+00  0.00000000E+00  0.00000000E+00  0.00000000E+00
  0.00000000E+00  0.00000000E+00  0.00000000E+00  0.00000000E+00  0.00000000E+00
  0.00000000E+00  0.00000000E+00  0.00000000E+00  0.00000000E+00  0.00000000E+00
  0.00000000E+00  0.00000000E+00  0.00000000E+00  0.00000000E+00  0.00000000E+00
IOpCl                                      I                0
IROHF                                      I                0
Alpha Orbital Energies                     R   N=         207
 -2.07188398E+01 -2.06874693E+01 -2.06679129E+01 -1.58253399E+01 -1.64667416E+00
 -1.50612639E+00 -1.29335751E+00 -9.59722901E-01 -8.35606491E-01 -7.59832615E-01
 -7.40633635E-01 -6.37406252E-01 -6.19344641E-01 -6.18805475E-01 -5.03937923E-01
 -4.97238903E-01  3.50419245E-02  6.15582525E-02  9.51366069E-02  1.00414789E-01
  1.19622273E-01  1.22643367E-01  1.49322752E-01  1.52054023E-01  1.77655985E-01
  1.80308205E-01  1.89789535E-01  2.11009977E-01  2.16727652E-01  2.42940621E-01
  2.46429203E-01  2.69136957E-01  3.12736504E-01  3.16722401E-01  3.38050844E-01
  3.44222085E-01  3.47165119E-01  3.92779544E-01  4.48915233E-01  4.88913107E-01
  5.05119318E-01  5.18712676E-01  5.45185088E-01  5.60944598E-01  6.00416093E-01
  6.20977006E-01  6.39517496E-01  6.88932427E-01  7.16959837E-01  7.24370884E-01
  7.44004203E-01  7.63508180E-01  7.67212912E-01  7.95847246E-01  8.06811468E-01
  8.40281903E-01  8.43404832E-01  8.51772518E-01  8.85759232E-01  9.08061255E-01
  9.31124071E-01  9.48771693E-01  9.54076073E-01  1.01851624E+00  1.03208605E+00
  1.06297539E+00  1.06623148E+00  1.09537608E+00  1.14430534E+00  1.15637630E+00
  1.17015824E+00  1.22300860E+00  1.22746751E+00  1.24623452E+00  1.35315478E+00
  1.36090027E+00  1.37235042E+00  1.46861970E+00  1.48551445E+00  1.50491046E+00
  1.54188675E+00  1.59674059E+00  1.59778684E+00  1.60622463E+00  1.62933865E+00
  1.69662838E+00  1.74083902E+00  1.80174804E+00  1.82981013E+00  1.88955690E+00
  1.89652539E+00  1.92852473E+00  1.97961689E+00  1.98994533E+00  2.05098442E+00
  2.12496251E+00  2.13059176E+00  2.16589563E+00  2.18743503E+00  2.24375544E+00
  2.25939962E+00  2.29455449E+00  2.35245635E+00  2.36690959E+00  2.38699512E+00
  2.40369959E+00  2.43431466E+00  2.46899405E+00  2.47965842E+00  2.52924684E+00
  2.53884400E+00  2.55079190E+00  2.55998749E+00  2.61751741E+00  2.63012804E+00
  2.67417664E+00  2.67614701E+00  2.75630881E+00  2.81067020E+00  2.81865636E+00
  2.84079573E+00  2.91917295E+00  2.98689308E+00  3.04915062E+00  3.05174205E+00
  3.11605866E+00  3.11768846E+00  3.17466170E+00  3.21358940E+00  3.30955083E+00
  3.33222575E+00  3.36166559E+00  3.47847153E+00  3.68176531E+00  3.86986866E+00
  3.93060012E+00  4.18480409E+00  4.22407550E+00  4.22655600E+00  4.27548904E+00
  4.37011597E+00  4.50152193E+00  4.52884513E+00  4.56032543E+00  4.59937275E+00
  4.69528055E+00  4.81208469E+00  4.89932901E+00  4.91404820E+00  4.94287941E+00
  4.99830120E+00  5.00527238E+00  5.10818755E+00  5.13601090E+00  5.17997980E+00
  5.25461344E+00  5.25915244E+00  5.31940032E+00  5.34841727E+00  5.35621458E+00
  5.54423539E+00  5.65120473E+00  5.70847575E+00  5.88805485E+00  6.00125618E+00
  6.26544240E+00  6.29684084E+00  6.36207156E+00  6.37765026E+00  6.59877452E+00
  6.66007527E+00  6.66023121E+00  6.69070173E+00  6.72817893E+00  6.79608350E+00
  6.80479001E+00  6.85430547E+00  6.96939767E+00  7.02078048E+00  7.06678789E+00
  7.08095609E+00  7.14087287E+00  7.17683380E+00  7.17893730E+00  7.20459424E+00
  7.24830421E+00  7.24883870E+00  7.27783789E+00  7.35086517E+00  7.39731808E+00
  7.43004152E+00  7.44370175E+00  7.46797663E+00  7.56666928E+00  7.66412369E+00
  7.66970819E+00  7.79663721E+00  7.88501773E+00  7.95490642E+00  8.07069343E+00
  8.30723326E+00  8.50092000E+00  8.65414516E+00  1.36277273E+01  1.47892238E+01
  1.51235684E+01  1.58683330E+01
Alpha MO coefficients                      R   N=       42849
  6.42155076E-05 -2.29399640E-05 -1.10387595E-03  1.35859000E-05 -5.14871616E-05
  4.20503622E-05  0.00000000E+00 -8.96051055E-05 -2.87759223E-04  0.00000000E+00
 -2.10465442E-06 -3.48224395E-04  0.00000000E+00  4.22936056E-05  0.00000000E+00
  0.00000000E+00 -2.53115828E-05  1.19843129E-05  2.27551045E-04  0.00000000E+00
  0.00000000E+00 -4.00482957E-05 -2.08585944E-04  3.10631758E-03 -9.64031480E-05
 -9.78657292E-05  3.54232176E-03  2.47718598E-03  1.02614096E-04 -5.33740052E-05
  0.00000000E+00 -7.29372198E-04  2.86165296E-04  0.00000000E+00 -1.98035566E-03
  1.10960618E-03  0.00000000E+00 -5.37738954E-04  3.89373565E-05  0.00000000E+00
  2.04919857E-05  0.00000000E+00  0.00000000E+00 -8.91856559E-06  4.41808221E-05
 -4.43450024E-04  0.00000000E+00  0.00000000E+00  4.28826437E-04 -6.62328945E-04
 -3.64821986E-04  0.00000000E+00  0.00000000E+00  5.44711128E-04 -7.40684440E-04
  0.00000000E+00  7.40594983E-05 -5.24622982E-05  0.00000000E+00  0.00000000E+00
 -2.78013158E-05  1.08221357E-04  0.00000000E+00  2.08009576E-04 -5.04826209E-05
  0.00000000E+00  0.00000000E+00 -1.70368030E-04  3.00314872E-04  9.76902526E-01
 -9.17416524E-03  4.34089233E-02  5.09119749E-04 -2.20349205E-03  4.52725149E-04
 -2.14487751E-03  0.00000000E+00 -3.24251538E-04  2.25059443E-03  0.00000000E+00
 -2.32208719E-03 -4.86618138E-04  0.00000000E+00 -2.23456155E-04  9.62380703E-05
  0.00000000E+00  7.29119133E-06  0.00000000E+00  0.00000000E+00 -5.27266818E-06
  3.82164545E-05  8.26810342E-04  0.00000000E+00  0.00000000E+00 -4.74727198E-04
 -1.70133766E-04 -1.38903654E-04  0.00000000E+00  0.00000000E+00 -5.49653967E-04
  3.54795016E-04  0.00000000E+00 -6.21363034E-06 -7.92335885E-05  0.00000000E+00
  0.00000000E+00 -8.99747432E-06  4.79910323E-05  0.00000000E+00  9.22654094E-05
  7.12159573E-07  0.00000000E+00  0.00000000E+00 -3.37371759E-04  3.79803128E-04
  1.03580748E-04  4.52888033E-04 -3.23365976E-04 -8.59150324E-04  3.42398506E-04
 -4.40594288E-05 -9.99046693E-05  0.00000000E+00  6.95300859E-04  1.11548969E-03
  0.00000000E+00 -7.77453856E-04 -6.61866029E-04  0.00000000E+00  1.94326768E-04
  2.13894897E-04  0.00000000E+00 -5.22921061E-05  0.00000000E+00  0.00000000E+00
  1.92365650E-05  9.35395557E-05 -4.14816390E-04  0.00000000E+00  0.00000000E+00
  4.24403753E-05  1.08011669E-03  2.90669812E-05  0.00000000E+00  0.00000000E+00
 -3.17228715E-04  2.62724214E-05  0.00000000E+00 -7.85742733E-05 -1.13579321E-04
  0.00000000E+00  0.00000000E+00 -9.61661769E-05  1.05425100E-04  0.00000000E+00
 -1.23995390E-04  4.79400579E-05  0.00000000E+00  0.00000000E+00  1.67703508E-05
  5.20137805E-04 -7.36749939E-04  4.78045292E-05 -7.15648270E-05  2.25822473E-04
 -1.70771549E-04 -2.87172872E-05 -4.16270489E-05  0.00000000E+00  1.68547295E-04
  2.57406972E-04  0.00000000E+00  5.26801548E-04  3.36356987E-04  0.00000000E+00
 -2.20979947E-04 -6.15615733E-05  0.00000000E+00 -1.31576422E-05  0.00000000E+00
  0.00000000E+00  3.17207679E-06  1.57327629E-05 -1.75691976E-06  0.00000000E+00
  0.00000000E+00 -1.64586584E-04  6.56832518E-06 -2.31172571E-05  0.00000000E+00
  0.00000000E+00 -1.73482396E-04 -4.54460399E-05  0.00000000E+00 -5.58469169E-06
 -8.90570542E-06  0.00000000E+00  0.00000000E+00 -2.10063671E-05  9.76630818E-06
  0.00000000E+00  4.04158484E-05  6.10941842E-05  0.00000000E+00  0.00000000E+00
  1.58974827E-04 -1.03320025E-04  3.96065099E-05  6.29348160E-05 -1.03140059E-04
 -2.80564787E-05  1.93915558E-05  1.12194876E-05  0.00000000E+00  2.37994221E-04
  5.63987250E-05  0.00000000E+00  1.22695582E-04  2.39727331E-05  0.00000000E+00
  1.32705819E-05  0.00000000E+00  0.00000000E+00 -1.16526519E-05  1.68204073E-05
  2.00151638E-05  0.00000000E+00  0.00000000E+00 -9.18114687E-05  6.50239701E-05
 -2.49605699E-04  2.53937701E-05 -1.42122855E-05 -5.48038812E-04  1.53477363E-04
  6.89821159E-06  1.37648231E-05  0.00000000E+00  1.83124242E-06 -4.33785544E-05
  0.00000000E+00  1.75464993E-04  1.30790639E-04  0.00000000E+00 -4.50146493E-05
  5.03631032E-05  0.00000000E+00 -1.48049461E-06  0.00000000E+00  0.00000000E+00
 -8.26483824E-06 -1.16573914E-05  2.18467342E-05  0.00000000E+00  0.00000000E+00
  4.81659143E-05  1.09635174E-04  6.23013929E-05  0.00000000E+00  0.00000000E+00
 -2.53473556E-05 -7.44790178E-05  0.00000000E+00  7.58515621E-06  1.03950318E-05
  0.00000000E+00  0.00000000E+00 -8.34927173E-07 -2.50378459E-05  0.00000000E+00
 -1.39218392E-05 -3.65935269E-05  0.00000000E+00  0.00000000E+00 -1.84767507E-06
 -2.05462549E-05  7.64986589E-04  2.17844939E-05 -1.81370488E-05  3.21584573E-04
 -3.68537288E-04  1.70755984E-05  2.69949584E-05  0.00000000E+00 -6.87074863E-05
 -1.53126512E-04  0.00000000E+00  1.28258455E-04 -2.03446882E-04  0.00000000E+00
 -1.60099517E-04  1.38556381E-04  0.00000000E+00 -3.99056279E-06  0.00000000E+00
  0.00000000E+00 -3.06536740E-05 -9.68406800E-06 -5.26086716E-05  0.00000000E+00
  0.00000000E+00  8.77277366E-05  1.22399300E-04 -6.84710711E-05  0.00000000E+00
  0.00000000E+00  5.14820860E-05  3.34503558E-05  0.00000000E+00  3.10212452E-06
  3.12862965E-06  0.00000000E+00  0.00000000E+00 -7.77901782E-06 -3.08306309E-06
  0.00000000E+00  4.55890911E-06 -2.46015388E-05  0.00000000E+00  0.00000000E+00
  9.29758055E-05 -1.59239985E-04  2.38492999E-04  1.36870853E-03 -1.30273521E-04
 -8.03021926E-04  8.64887243E-04  6.64474627E-05 -8.02607401E-05  0.00000000E+00
  5.72356094E-04 -2.07814594E-03  0.00000000E+00  8.61573462E-05  5.22512561E-04
  0.00000000E+00  1.80128233E-04 -3.02767058E-04  0.00000000E+00 -1.27576504E-04
  0.00000000E+00  0.00000000E+00 -2.04731719E-04 -1.58281118E-04 -4.48295485E-04
  0.00000000E+00  0.00000000E+00 -5.76941516E-04 -9.15604320E-04 -3.32959689E-05
  0.00000000E+00  0.00000000E+00  7.23717554E-05  1.20925454E-04  0.00000000E+00
  1.02350411E-05  3.09368745E-05  0.00000000E+00  0.00000000E+00 -1.68055543E-05
 -9.07687215E-06  0.00000000E+00 -1.33950594E-04  1.57643517E-04  0.00000000E+00
  0.00000000E+00 -3.04926253E-04 -3.31320352E-05  9.76639038E-01 -9.88412446E-03
  4.35862806E-02  3.75610294E-03 -8.65984420E-04 -4.50125110E-04  2.13550169E-03
  0.00000000E+00  5.08226907E-04 -2.49294687E-03  0.00000000E+00 -8.45054399E-05
  8.35051098E-04  0.00000000E+00  1.02592376E-04 -6.12699443E-05  0.00000000E+00
 -1.96966157E-04  0.00000000E+00  0.00000000E+00 -7.78367985E-05 -4.61896214E-05
  4.06967147E-04  0.00000000E+00  0.00000000E+00  8.54977830E-04  4.78999901E-04
 -2.02788449E-04  0.00000000E+00  0.00000000E+00 -1.39480038E-04 -3.71328627E-05
  0.00000000E+00 -4.07964587E-06  6.83566660E-05  0.00000000E+00  0.00000000E+00
 -2.65525308E-05  9.44026722E-06  0.00000000E+00 -8.95971176E-05  9.43911945E-05
  0.00000000E+00  0.00000000E+00 -1.66586448E-04  2.05943628E-04  3.74967325E-04
  2.00023283E-03  1.38578984E-03 -1.90994116E-05  5.11349643E-05  2.68937054E-04
  0.00000000E+00  3.78641754E-04  1.02891630E-03  0.00000000E+00 -1.27647081E-04
  2.40880781E-04  0.00000000E+00 -2.38688574E-05  0.00000000E+00  0.00000000E+00
  3.25680821E-05 -2.90503678E-05 -2.16957358E-04  0.00000000E+00  0.00000000E+00
 -3.47013565E-04  4.04953327E-04  9.76834302E-01 -9.18682617E-03  4.34655148E-02
  1.33326599E-04 -1.92082585E-03 -2.04363285E-03 -8.37030981E-04  0.00000000E+00
  2.08204307E-03  7.73711635E-04  0.00000000E+00 -4.03666139E-04  6.49309026E-04
  0.00000000E+00  2.26804602E-04 -2.99076172E-04  0.00000000E+00  3.06726396E-05
  0.00000000E+00  0.00000000E+00 -7.43670238E-05  6.31040132E-05  7.66201194E-04
  0.00000000E+00  0.00000000E+00 -2.08428389E-04  3.51359948E-04 -2.37985386E-04
  0.00000000E+00  0.00000000E+00  3.35899398E-04  2.87243342E-06  0.00000000E+00
 -8.06770208E-05  1.45634620E-06  0.00000000E+00  0.00000000E+00  1.59068976E-05