title                                                                   
Freq      RMP2-FC                                                     Aug-CC-pVTZ         
Number of atoms                            I                5
Info1-9                                    I   N=           9
          33          24           0           0           0         100
           6           2           1
Full Title                                 C   N=           1
title       
Route                                      C   N=           4
#p freq mp2/aug-cc-pvtz density=current         
Charge                                     I                0
Multiplicity                               I                1
Number of electrons                        I               32
Number of alpha electrons                  I               16
Number of beta electrons                   I               16
Number of basis functions                  I              207
Number of independent functions            I              207
Number of point charges in /Mol/           I                0
Number of translation vectors              I                0
Atomic numbers                             I   N=           5
           1           8           8           7           8
Nuclear charges                            R   N=           5
  1.00000000E+00  8.00000000E+00  8.00000000E+00  7.00000000E+00  8.00000000E+00
Current cartesian coordinates              R   N=          15
  1.02183475E+00 -2.15104419E+00  7.38508431E-02  2.41271267E+00 -9.15698713E-01
 -8.40920296E-03  1.02594817E+00  1.39643205E+00  2.30395675E-03 -1.55971762E+00
  1.04148221E+00  2.86599659E-03 -2.20163726E+00 -1.12314974E+00 -5.63385620E-03
Number of symbols in /Mol/                 I                0
Force Field                                I                0
Atom Types                                 C   N=           5
                                                            
Int Atom Types                             I   N=           5
           0           0           0           0           0
MM charges                                 R   N=           5
  0.00000000E+00  0.00000000E+00  0.00000000E+00  0.00000000E+00  0.00000000E+00
Integer atomic weights                     I   N=           5
           1          16          16          14          16
Real atomic weights                        R   N=           5
  1.00782504E+00  1.59949146E+01  1.59949146E+01  1.40030740E+01  1.59949146E+01
Atom fragment info                         I   N=           5
           0           0           0           0           0
Atom residue num                           I   N=           5
           0           0           0           0           0
Nuclear spins                              I   N=           5
           1           0           0           2           0
Nuclear ZEff                               R   N=           5
 -1.00000000E+00 -5.60000000E+00 -5.60000000E+00 -4.55000000E+00 -5.60000000E+00
Nuclear ZNuc                               R   N=           5
  1.00000000E+00  8.00000000E+00  8.00000000E+00  7.00000000E+00  8.00000000E+00
Nuclear QMom                               R   N=           5
  0.00000000E+00  0.00000000E+00  0.00000000E+00  2.04400000E+00  0.00000000E+00
Nuclear GFac                               R   N=           5
  2.79284600E+00  0.00000000E+00  0.00000000E+00  4.03761000E-01  0.00000000E+00
MicOpt                                     I   N=           5
          -1          -1          -1          -1          -1
Number of residues                         I                0
Number of secondary structures             I                0
SymInf integers                            I   N=          26
           1           1           1           1           1           0
           0           0           0           0           0           0
           0           0           0           0           0           0
           0           0           0           0           0           0
           0           0
RotTr to input orientation                 R   N=          12
 -6.63607782E-01  4.12285074E-02  7.46943721E-01  7.47978923E-01  2.00993587E-02
  6.63418078E-01  1.23386474E-02  9.98947559E-01 -4.41761454E-02  2.28612200E+00
 -7.26672323E-02  6.67050996E-01
Number of contracted shells                I               65
Number of primitive shells                 I              119
Pure/Cartesian d shells                    I                0
Pure/Cartesian f shells                    I                0
Highest angular momentum                   I                3
Largest degree of contraction              I                7
Shell types                                I   N=          65
           0           0           0           0           1           1
           1          -2          -2           0           0           0
           0           0           1           1           1           1
          -2          -2          -2          -3          -3           0
           0           0           0           0           1           1
           1           1          -2          -2          -2          -3
          -3           0           0           0           0           0
           1           1           1           1          -2          -2
          -2          -3          -3           0           0           0
           0           0           1           1           1           1
          -2          -2          -2          -3          -3
Number of primitives per shell             I   N=          65
           3           1           1           1           1           1
           1           1           1           7           6           1
           1           1           3           1           1           1
           1           1           1           1           1           7
           6           1           1           1           3           1
           1           1           1           1           1           1
           1           7           6           1           1           1
           3           1           1           1           1           1
           1           1           1           7           6           1
           1           1           3           1           1           1
           1           1           1           1           1
Shell to atom map                          I   N=          65
           1           1           1           1           1           1
           1           1           1           2           2           2
           2           2           2           2           2           2
           2           2           2           2           2           3
           3           3           3           3           3           3
           3           3           3           3           3           3
           3           4           4           4           4           4
           4           4           4           4           4           4
           4           4           4           5           5           5
           5           5           5           5           5           5
           5           5           5           5           5
Primitive exponents                        R   N=         119
  3.38700000E+01  5.09500000E+00  1.15900000E+00  3.25800000E-01  1.02700000E-01
  2.52600000E-02  1.40700000E+00  3.88000000E-01  1.02000000E-01  1.05700000E+00
  2.47000000E-01  1.53300000E+04  2.29900000E+03  5.22400000E+02  1.47300000E+02
  4.75500000E+01  1.67600000E+01  6.20700000E+00  5.22400000E+02  1.47300000E+02
  4.75500000E+01  1.67600000E+01  6.20700000E+00  6.88200000E-01  1.75200000E+00
  2.38400000E-01  7.37600000E-02  3.44600000E+01  7.74900000E+00  2.28000000E+00
  7.15600000E-01  2.14000000E-01  5.97400000E-02  2.31400000E+00  6.45000000E-01
  2.14000000E-01  1.42800000E+00  5.00000000E-01  1.53300000E+04  2.29900000E+03
  5.22400000E+02  1.47300000E+02  4.75500000E+01  1.67600000E+01  6.20700000E+00
  5.22400000E+02  1.47300000E+02  4.75500000E+01  1.67600000E+01  6.20700000E+00
  6.88200000E-01  1.75200000E+00  2.38400000E-01  7.37600000E-02  3.44600000E+01
  7.74900000E+00  2.28000000E+00  7.15600000E-01  2.14000000E-01  5.97400000E-02
  2.31400000E+00  6.45000000E-01  2.14000000E-01  1.42800000E+00  5.00000000E-01
  1.14200000E+04  1.71200000E+03  3.89300000E+02  1.10000000E+02  3.55700000E+01
  1.25400000E+01  4.64400000E+00  3.89300000E+02  1.10000000E+02  3.55700000E+01
  1.25400000E+01  4.64400000E+00  5.11800000E-01  1.29300000E+00  1.78700000E-01
  5.76000000E-02  2.66300000E+01  5.94800000E+00  1.74200000E+00  5.55000000E-01
  1.72500000E-01  4.91000000E-02  1.65400000E+00  4.69000000E-01  1.51000000E-01
  1.09300000E+00  3.64000000E-01  1.53300000E+04  2.29900000E+03  5.22400000E+02
  1.47300000E+02  4.75500000E+01  1.67600000E+01  6.20700000E+00  5.22400000E+02
  1.47300000E+02  4.75500000E+01  1.67600000E+01  6.20700000E+00  6.88200000E-01
  1.75200000E+00  2.38400000E-01  7.37600000E-02  3.44600000E+01  7.74900000E+00
  2.28000000E+00  7.15600000E-01  2.14000000E-01  5.97400000E-02  2.31400000E+00
  6.45000000E-01  2.14000000E-01  1.42800000E+00  5.00000000E-01
Contraction coefficients                   R   N=         119
  2.54948632E-02  1.90362766E-01  8.52162022E-01  1.00000000E+00  1.00000000E+00
  1.00000000E+00  1.00000000E+00  1.00000000E+00  1.00000000E+00  1.00000000E+00
  1.00000000E+00  5.19808943E-04  4.02025621E-03  2.07128267E-02  8.10105536E-02
  2.35962985E-01  4.42653446E-01  3.57064423E-01 -4.42115008E-05 -1.22591041E-03
 -1.05517725E-02 -6.74452633E-02 -1.71198607E-01  1.07329856E+00  1.00000000E+00
  1.00000000E+00  1.00000000E+00  4.11634896E-02  2.57762836E-01  8.02419274E-01
  1.00000000E+00  1.00000000E+00  1.00000000E+00  1.00000000E+00  1.00000000E+00
  1.00000000E+00  1.00000000E+00  1.00000000E+00  5.19808943E-04  4.02025621E-03
  2.07128267E-02  8.10105536E-02  2.35962985E-01  4.42653446E-01  3.57064423E-01
 -4.42115008E-05 -1.22591041E-03 -1.05517725E-02 -6.74452633E-02 -1.71198607E-01
  1.07329856E+00  1.00000000E+00  1.00000000E+00  1.00000000E+00  4.11634896E-02
  2.57762836E-01  8.02419274E-01  1.00000000E+00  1.00000000E+00  1.00000000E+00
  1.00000000E+00  1.00000000E+00  1.00000000E+00  1.00000000E+00  1.00000000E+00
  5.34563860E-04  4.13435660E-03  2.12335358E-02  8.25006224E-02  2.38138871E-01
  4.42551547E-01  3.53757422E-01 -4.89867350E-05 -1.19527323E-03 -1.03490714E-02
 -6.48680190E-02 -1.71552477E-01  1.07289568E+00  1.00000000E+00  1.00000000E+00
  1.00000000E+00  3.98072123E-02  2.49002660E-01  8.10479727E-01  1.00000000E+00
  1.00000000E+00  1.00000000E+00  1.00000000E+00  1.00000000E+00  1.00000000E+00
  1.00000000E+00  1.00000000E+00  5.19808943E-04  4.02025621E-03  2.07128267E-02
  8.10105536E-02  2.35962985E-01  4.42653446E-01  3.57064423E-01 -4.42115008E-05
 -1.22591041E-03 -1.05517725E-02 -6.74452633E-02 -1.71198607E-01  1.07329856E+00
  1.00000000E+00  1.00000000E+00  1.00000000E+00  4.11634896E-02  2.57762836E-01
  8.02419274E-01  1.00000000E+00  1.00000000E+00  1.00000000E+00  1.00000000E+00
  1.00000000E+00  1.00000000E+00  1.00000000E+00  1.00000000E+00
Coordinates of each shell                  R   N=         195
  1.02183475E+00 -2.15104419E+00  7.38508431E-02  1.02183475E+00 -2.15104419E+00
  7.38508431E-02  1.02183475E+00 -2.15104419E+00  7.38508431E-02  1.02183475E+00
 -2.15104419E+00  7.38508431E-02  1.02183475E+00 -2.15104419E+00  7.38508431E-02
  1.02183475E+00 -2.15104419E+00  7.38508431E-02  1.02183475E+00 -2.15104419E+00
  7.38508431E-02  1.02183475E+00 -2.15104419E+00  7.38508431E-02  1.02183475E+00
 -2.15104419E+00  7.38508431E-02  2.41271267E+00 -9.15698713E-01 -8.40920296E-03
  2.41271267E+00 -9.15698713E-01 -8.40920296E-03  2.41271267E+00 -9.15698713E-01
 -8.40920296E-03  2.41271267E+00 -9.15698713E-01 -8.40920296E-03  2.41271267E+00
 -9.15698713E-01 -8.40920296E-03  2.41271267E+00 -9.15698713E-01 -8.40920296E-03
  2.41271267E+00 -9.15698713E-01 -8.40920296E-03  2.41271267E+00 -9.15698713E-01
 -8.40920296E-03  2.41271267E+00 -9.15698713E-01 -8.40920296E-03  2.41271267E+00
 -9.15698713E-01 -8.40920296E-03  2.41271267E+00 -9.15698713E-01 -8.40920296E-03
  2.41271267E+00 -9.15698713E-01 -8.40920296E-03  2.41271267E+00 -9.15698713E-01
 -8.40920296E-03  2.41271267E+00 -9.15698713E-01 -8.40920296E-03  1.02594817E+00
  1.39643205E+00  2.30395675E-03  1.02594817E+00  1.39643205E+00  2.30395675E-03
  1.02594817E+00  1.39643205E+00  2.30395675E-03  1.02594817E+00  1.39643205E+00
  2.30395675E-03  1.02594817E+00  1.39643205E+00  2.30395675E-03  1.02594817E+00
  1.39643205E+00  2.30395675E-03  1.02594817E+00  1.39643205E+00  2.30395675E-03
  1.02594817E+00  1.39643205E+00  2.30395675E-03  1.02594817E+00  1.39643205E+00
  2.30395675E-03  1.02594817E+00  1.39643205E+00  2.30395675E-03  1.02594817E+00
  1.39643205E+00  2.30395675E-03  1.02594817E+00  1.39643205E+00  2.30395675E-03
  1.02594817E+00  1.39643205E+00  2.30395675E-03  1.02594817E+00  1.39643205E+00
  2.30395675E-03 -1.55971762E+00  1.04148221E+00  2.86599659E-03 -1.55971762E+00
  1.04148221E+00  2.86599659E-03 -1.55971762E+00  1.04148221E+00  2.86599659E-03
 -1.55971762E+00  1.04148221E+00  2.86599659E-03 -1.55971762E+00  1.04148221E+00
  2.86599659E-03 -1.55971762E+00  1.04148221E+00  2.86599659E-03 -1.55971762E+00
  1.04148221E+00  2.86599659E-03 -1.55971762E+00  1.04148221E+00  2.86599659E-03
 -1.55971762E+00  1.04148221E+00  2.86599659E-03 -1.55971762E+00  1.04148221E+00
  2.86599659E-03 -1.55971762E+00  1.04148221E+00  2.86599659E-03 -1.55971762E+00
  1.04148221E+00  2.86599659E-03 -1.55971762E+00  1.04148221E+00  2.86599659E-03
 -1.55971762E+00  1.04148221E+00  2.86599659E-03 -2.20163726E+00 -1.12314974E+00
 -5.63385620E-03 -2.20163726E+00 -1.12314974E+00 -5.63385620E-03 -2.20163726E+00
 -1.12314974E+00 -5.63385620E-03 -2.20163726E+00 -1.12314974E+00 -5.63385620E-03
 -2.20163726E+00 -1.12314974E+00 -5.63385620E-03 -2.20163726E+00 -1.12314974E+00
 -5.63385620E-03 -2.20163726E+00 -1.12314974E+00 -5.63385620E-03 -2.20163726E+00
 -1.12314974E+00 -5.63385620E-03 -2.20163726E+00 -1.12314974E+00 -5.63385620E-03
 -2.20163726E+00 -1.12314974E+00 -5.63385620E-03 -2.20163726E+00 -1.12314974E+00
 -5.63385620E-03 -2.20163726E+00 -1.12314974E+00 -5.63385620E-03 -2.20163726E+00
 -1.12314974E+00 -5.63385620E-03 -2.20163726E+00 -1.12314974E+00 -5.63385620E-03
Num ILSW                                   I              100
ILSW                                       I   N=         100
           0           0           0           0           2           0
           0           0           0           0           0          -1
           5           0           0           0           2           0
           0           0           0           0           1           0
           1           0           0           0           0           0
           0           0      100000           0          -1           0
           0           0           0           0           0           0
           0           0           0           1           1           0
           0 -2000000000           1           0           0           0
           0           0           4          52           0           0
           0           0           0           0           0           0
           0           0           0           5           4           1
           0           0           0           0           0           0
           0           0           0           0           0           0
           0           0           0           0           0           0
           0           0           0           0           0           0
           0           0           0           0
Num RLSW                                   I               52
RLSW                                       R   N=          52
  1.00000000E+00  1.00000000E+00  1.00000000E+00  1.00000000E+00  1.00000000E+00
  0.00000000E+00  0.00000000E+00  1.00000000E+00  0.00000000E+00  0.00000000E+00
  0.00000000E+00  0.00000000E+00  1.00000000E+00  0.00000000E+00  0.00000000E+00
  0.00000000E+00  0.00000000E+00  1.00000000E+00  0.00000000E+00  0.00000000E+00
  0.00000000E+00  0.00000000E+00  1.00000000E+00  0.00000000E+00  0.00000000E+00
  0.00000000E+00  0.00000000E+00  1.00000000E+00  0.00000000E+00  0.00000000E+00
  0.00000000E+00  0.00000000E+00  1.00000000E+00  0.00000000E+00  0.00000000E+00
  0.00000000E+00  0.00000000E+00  0.00000000E+00  1.00000000E+00  1.00000000E+00
  0.00000000E+00  1.00000000E+00  0.00000000E+00  0.00000000E+00  0.00000000E+00
  0.00000000E+00  0.00000000E+00  0.00000000E+00  0.00000000E+00  0.00000000E+00
  0.00000000E+00  0.00000000E+00
MxBond                                     I                2
NBond                                      I   N=           5
           1           2           2           2           1
IBond                                      I   N=          10
           2           0           1           3           2           4
           3           5           4           0
RBond                                      R   N=          10
  1.00000000E+00  0.00000000E+00  1.00000000E+00  1.00000000E+00  1.00000000E+00
  1.00000000E+00  1.00000000E+00  2.00000000E+00  2.00000000E+00  0.00000000E+00
Virial Ratio                               R      2.002227939875694E+00
SCF Energy                                 R     -2.795064170818826E+02
MP2 Energy                                 R     -2.804552175089588E+02
Total Energy                               R     -2.804552175089588E+02
Post-SCF wavefunction norm                 R      1.583729642126900E+00
RMS Force                                  R      3.452156269144316E-04
RMS Density                                R      6.570045628576729E-09
NImag                                      I                0
Job Status                                 I                1
Nuclear derivative order                   I                2
External E-field                           R   N=          35
  0.00000000E+00  0.00000000E+00  0.00000000E+00  0.00000000E+00  0.00000000E+00
  0.00000000E+00  0.00000000E+00  0.00000000E+00  0.00000000E+00  0.00000000E+00
  0.00000000E+00  0.00000000E+00  0.00000000E+00  0.00000000E+00  0.00000000E+00
  0.00000000E+00  0.00000000E+00  0.00000000E+00  0.00000000E+00  0.00000000E+00
  0.00000000E+00  0.00000000E+00  0.00000000E+00  0.00000000E+00  0.00000000E+00
  0.00000000E+00  0.00000000E+00  0.00000000E+00  0.00000000E+00  0.00000000E+00
  0.00000000E+00  0.00000000E+00  0.00000000E+00  0.00000000E+00  0.00000000E+00
IOpCl                                      I                0
IROHF                                      I                0
Alpha Orbital Energies                     R   N=         207
 -2.07197859E+01 -2.06872067E+01 -2.06683209E+01 -1.58259781E+01 -1.64424444E+00
 -1.50514512E+00 -1.29376499E+00 -9.60326730E-01 -8.34603891E-01 -7.58894341E-01
 -7.39992508E-01 -6.37516556E-01 -6.18976952E-01 -6.17949675E-01 -5.04669976E-01
 -4.97531467E-01  3.50532398E-02  6.02859061E-02  9.51177718E-02  1.00385194E-01
  1.19614497E-01  1.22612407E-01  1.49411835E-01  1.52018510E-01  1.77384452E-01
  1.80486588E-01  1.89673705E-01  2.11143182E-01  2.16735374E-01  2.42500369E-01
  2.46334870E-01  2.69014968E-01  3.09835184E-01  3.19578341E-01  3.38102189E-01
  3.43857943E-01  3.46830606E-01  3.92614110E-01  4.48205765E-01  4.88226008E-01
  5.05781030E-01  5.18461314E-01  5.44941709E-01  5.61214852E-01  5.99035885E-01
  6.20252194E-01  6.38555976E-01  6.89641861E-01  7.16010045E-01  7.25159817E-01
  7.43219737E-01  7.62945257E-01  7.68113456E-01  7.95005000E-01  8.06450036E-01
  8.39954394E-01  8.43327925E-01  8.52042797E-01  8.85797663E-01  9.07692245E-01
  9.30368394E-01  9.48704163E-01  9.54114235E-01  1.01823190E+00  1.03258808E+00
  1.06209389E+00  1.06581927E+00  1.09559330E+00  1.14371176E+00  1.15610930E+00
  1.16995437E+00  1.22070724E+00  1.22890704E+00  1.24605196E+00  1.35258808E+00
  1.36111811E+00  1.37125339E+00  1.46674053E+00  1.48779440E+00  1.50517336E+00
  1.54109675E+00  1.59205029E+00  1.59804426E+00  1.60967342E+00  1.62897021E+00
  1.69558487E+00  1.74029511E+00  1.80124031E+00  1.82971028E+00  1.88864790E+00
  1.89568076E+00  1.92927971E+00  1.97865829E+00  1.99057497E+00  2.05177543E+00
  2.12376003E+00  2.13026567E+00  2.16598851E+00  2.18815460E+00  2.24345217E+00
  2.25980417E+00  2.29495953E+00  2.35200313E+00  2.36621892E+00  2.38680016E+00
  2.40204816E+00  2.43336971E+00  2.46858029E+00  2.47995863E+00  2.52935915E+00
  2.53701908E+00  2.54949419E+00  2.56013759E+00  2.61603786E+00  2.63006088E+00
  2.67128362E+00  2.67395516E+00  2.75465675E+00  2.80975324E+00  2.81815844E+00
  2.84088560E+00  2.91870103E+00  2.98511929E+00  3.04656223E+00  3.05129211E+00
  3.11427863E+00  3.11956742E+00  3.17311787E+00  3.21282446E+00  3.30761469E+00
  3.33306300E+00  3.36090856E+00  3.47750810E+00  3.67831438E+00  3.86846718E+00
  3.93068814E+00  4.18041266E+00  4.22080574E+00  4.23113568E+00  4.26964988E+00
  4.37046543E+00  4.50004279E+00  4.52740899E+00  4.55577094E+00  4.59993675E+00
  4.69402857E+00  4.81017887E+00  4.89799401E+00  4.91507631E+00  4.94171371E+00
  4.99843388E+00  5.00596360E+00  5.10689921E+00  5.13295974E+00  5.18028195E+00
  5.25042233E+00  5.25884824E+00  5.31783393E+00  5.34660015E+00  5.35625818E+00
  5.54730606E+00  5.64483485E+00  5.70577447E+00  5.88913574E+00  5.99741460E+00
  6.26534155E+00  6.29613795E+00  6.36077958E+00  6.37672344E+00  6.59867006E+00
  6.65594176E+00  6.66346836E+00  6.69027455E+00  6.72631091E+00  6.79305691E+00
  6.80754420E+00  6.85199953E+00  6.96764190E+00  7.01996302E+00  7.06669119E+00
  7.08087731E+00  7.13890681E+00  7.17311836E+00  7.17783741E+00  7.20341645E+00
  7.24591800E+00  7.24768268E+00  7.27180673E+00  7.34917876E+00  7.39421997E+00
  7.42809218E+00  7.44253184E+00  7.46296813E+00  7.55973247E+00  7.66301333E+00
  7.66740558E+00  7.79515189E+00  7.88372360E+00  7.95262592E+00  8.06350769E+00
  8.30669546E+00  8.49981963E+00  8.65196341E+00  1.36190785E+01  1.47622697E+01
  1.51033579E+01  1.57640476E+01
Alpha MO coefficients                      R   N=       42849
  6.44505883E-05 -2.89652697E-05 -1.10380329E-03  1.26010353E-05 -1.65348666E-05
  6.43330220E-05  2.10939578E-06 -2.42990295E-04 -1.82068055E-04 -6.50311030E-06
 -2.08151435E-04 -2.79725356E-04 -9.02527103E-06  4.24914377E-05  3.07083937E-06
 -2.43368968E-06  4.49153094E-06  2.76030302E-05  2.27290786E-04  1.74494250E-05
 -8.20572701E-06 -2.09333740E-04 -2.44492149E-05  3.07397354E-03 -9.59870975E-05
 -9.92833885E-05  3.54472536E-03  2.47724305E-03  5.11620222E-05 -1.03751946E-04
 -1.21147627E-06 -4.18534844E-04  6.62306124E-04  9.36886584E-06 -9.40932695E-04
  2.06633811E-03  3.74327277E-05 -4.09755420E-04  3.49767291E-04  1.34416081E-05
  2.04286142E-05  8.08289006E-07  3.71121393E-07  3.94187061E-05  2.16958205E-05
 -4.43123479E-04 -7.27620099E-06  1.66845292E-06 -5.03629294E-04 -6.06533941E-04
 -3.64468465E-04 -6.38175358E-06  4.07512626E-06 -5.42815883E-04 -7.40330121E-04
  2.05235254E-07  2.86612987E-05 -8.60817573E-05 -9.09535613E-07 -8.82214051E-07
  1.11313141E-04 -8.98340719E-06 -6.69421832E-06  1.37434926E-04 -1.63925528E-04
 -1.32911456E-06 -4.78399095E-06  3.38844529E-04  6.33352844E-05  9.76903863E-01
 -9.17361885E-03  4.34070398E-02  4.94618012E-04 -2.20880824E-03 -9.09459967E-04
 -1.99708754E-03 -5.67367163E-06  1.07652132E-03  2.00560514E-03  4.25970263E-06
 -2.15273840E-03  9.83223224E-04  1.34449161E-05 -1.21962871E-04  2.10168246E-04
  8.13711030E-07  7.12995527E-06  1.34694399E-07 -2.32249544E-07  3.46629220E-05
  1.60203387E-05  8.27230422E-04  1.52660695E-06 -3.46419028E-06 -3.05353999E-04
  4.01904353E-04 -1.38973972E-04 -3.48625737E-06 -2.59059955E-06  1.74832576E-04
  6.30679220E-04  5.98953669E-09 -5.21479041E-05 -6.01308064E-05 -1.82952912E-07
 -2.19036266E-07  4.84530705E-05 -7.06152585E-06 -2.14285227E-06  7.48500213E-05
 -5.40946728E-05 -4.93395943E-07 -1.15525566E-06  4.68794048E-04  1.95183544E-04
  1.04464167E-04  4.58114807E-04 -3.23555208E-04 -8.28921915E-04  3.57091908E-04
 -9.48331174E-05 -5.44339000E-05  3.66026250E-07  1.22019095E-03  4.82162345E-04
 -6.76776347E-07 -1.00941700E-03 -7.74050485E-05 -3.08871083E-06  2.83319451E-04
  5.52034093E-05  1.64047261E-07 -5.24860616E-05  2.01189725E-07 -1.64833613E-07
  9.46797330E-05  9.49724752E-06 -4.15888040E-04 -2.95674882E-06 -1.15643987E-06
  1.04391848E-03  2.84895371E-04  2.66899664E-05 -2.92016634E-06 -1.81415041E-06
 -6.72639242E-05  3.11880460E-04  1.76473508E-07 -1.30640026E-04 -4.50327875E-05
 -4.40979836E-07  5.69746530E-07  1.31730250E-04  5.68493407E-05  1.24498645E-06
 -7.24124450E-05  1.11477538E-04 -1.85579035E-06 -1.59541041E-06  4.88207382E-04
 -1.83353751E-04 -7.05293235E-04  4.60956960E-05 -7.02680495E-05  2.08414075E-04
 -1.83760551E-04 -4.78297605E-05 -1.62497134E-05  4.71044623E-07  2.86134541E-04
  1.04166581E-04 -2.69570769E-06  6.19686660E-04 -5.21578362E-05  1.69551705E-05
 -2.13786582E-04  7.78963925E-05  1.66019867E-06 -1.30065396E-05 -4.43160513E-07
  1.69697220E-07  1.55509612E-05  1.29548477E-06 -1.98074901E-06  1.64162299E-06
 -3.94885658E-07 -3.93458680E-05  1.60147205E-04 -2.11143636E-05  1.59701801E-05
 -5.78509978E-06 -9.03920448E-05  1.51635475E-04  1.33621630E-06 -1.02467663E-05
 -3.76130558E-06 -1.18207027E-06  9.78716020E-07  1.58283408E-05  1.72193768E-05
 -4.63307535E-06  6.87859460E-05  2.51011773E-05  4.30031176E-06 -2.91410079E-06
 -1.49019030E-04 -1.14639846E-04  4.00406521E-05  6.60089478E-05 -1.21836043E-04
 -3.01896151E-05  2.16296930E-05 -2.05860347E-06 -3.42130194E-07  2.27336832E-04
 -9.11740413E-05 -1.76544021E-06  1.12948895E-04 -5.55033171E-05  4.63276844E-06
  1.32949437E-05 -2.08655789E-06  1.31180327E-06  1.16205996E-05  1.68059340E-05
  2.26947695E-05  1.16894881E-06  9.60255104E-07  3.01458916E-05  1.10725750E-04
 -2.59981133E-04  2.63692395E-05 -1.52444052E-05 -5.53516859E-04  1.62560064E-04
  1.39931154E-05  6.65432196E-06  4.99587893E-07 -2.50796779E-05 -3.36308924E-05
 -3.56487367E-06  2.30268488E-04 -4.83764261E-06 -6.77259971E-06 -8.71211565E-06
  6.57655244E-05 -1.81107875E-06 -1.44400022E-06  3.19821912E-07 -4.62829433E-07
 -1.35375033E-05  4.50250090E-06  2.13114434E-05 -9.28230035E-08  2.98674840E-06
  1.18087617E-04 -1.53771340E-05  6.17923162E-05 -1.27123553E-06  4.75223198E-06
 -8.55426951E-05  4.30361022E-06  7.73680499E-07  1.23415159E-05  3.63469133E-06
 -7.28268707E-07 -1.63645397E-07 -2.32434328E-05  9.03062791E-06 -1.74117369E-06
 -3.27655010E-05 -2.04622705E-05  4.38375830E-06 -2.16715772E-06 -1.69491888E-05
  9.30939637E-06  7.33338645E-04  2.26409245E-05 -1.89354216E-05  2.97695467E-04
 -3.94365025E-04  2.94502181E-05  1.21219895E-05  2.33863821E-07 -1.44145307E-04
 -8.42127897E-05 -1.11868150E-06  4.19894581E-06 -2.57160060E-04  4.38372661E-06
 -4.13644594E-05  2.07667623E-04  2.83023030E-06 -4.04403424E-06  3.12569067E-07
 -1.08914603E-07 -1.82352285E-05  2.52121717E-05 -5.14399261E-05 -1.49558482E-06
  9.74958838E-07  1.40355900E-04 -3.96362087E-05 -6.48123008E-05 -4.32797396E-06
 -8.42001129E-07  3.71344268E-05 -3.14944572E-05  4.19408717E-07  4.42764075E-06
  8.90914850E-07  8.88146670E-08 -7.13945354E-08  3.65054824E-07  8.19954164E-06
 -1.45617420E-06 -1.19600495E-05 -2.23716848E-05  1.50794158E-06  1.65550364E-06
 -1.77213304E-04 -4.07405063E-05  2.37164006E-04  1.35807067E-03 -1.47172964E-04
 -6.87897992E-04  9.06592985E-04  8.88982797E-06 -9.46550365E-05 -8.16430002E-08
 -7.72718352E-04 -2.01756128E-03 -8.68373684E-06  3.86758934E-04  3.34792582E-04
 -6.84612764E-06 -3.18840876E-05 -3.57512876E-04 -1.37882182E-06 -1.27781921E-04
  7.63054820E-07  1.60797269E-06 -2.12177198E-04  1.47330794E-04 -4.60563604E-04
 -1.56607934E-06  6.78646742E-06 -1.05862650E-03  3.00350666E-04 -4.22933602E-05
 -3.04293291E-06  4.33941715E-07  1.29583577E-04 -2.19790903E-05  2.99768419E-07
  2.86235590E-05  2.47650141E-05  2.07167379E-07  3.82132585E-07  4.00244899E-06
  2.45311440E-05  2.51274492E-06 -1.54722214E-05  2.07537227E-04  1.21106617E-06
 -8.41742272E-07  6.99977930E-05  3.09387825E-04  9.76646005E-01 -9.88635401E-03
  4.35754629E-02  3.68779070E-03 -8.95850696E-04  9.00882076E-04  1.98328393E-03
  1.15230748E-05 -1.07065969E-03 -2.32327151E-03 -1.26003280E-05  4.26259135E-04
  6.98455432E-04  1.24403416E-05  4.60134242E-05 -1.14213295E-04 -3.58201586E-07
 -1.93956754E-04 -5.30470022E-07  1.97247540E-06 -6.37310642E-05  5.79422748E-05
  4.09023522E-04 -2.36652539E-06 -6.80600113E-06  7.18464228E-04 -6.75394773E-04
 -2.05944470E-04  6.79784414E-06  3.16671338E-06 -7.64721171E-05  1.22402596E-04
  1.28655479E-06  3.77960747E-05  5.95195570E-05 -3.02144794E-07 -2.89288519E-07
  1.94117812E-05  2.40598181E-05 -1.66546707E-06 -1.74919494E-05  1.26677250E-04
  4.91956800E-06 -2.08309249E-06  2.47962693E-04  9.05519389E-05  3.75212187E-04
  1.99323261E-03  1.37027086E-03 -1.80510645E-05  2.00102483E-04  1.86245563E-04
 -1.00810552E-05  9.13013196E-04  6.00855586E-04 -5.48974414E-05  4.04761334E-05
  2.64020272E-04 -2.04843728E-05 -2.35942452E-05  1.40459383E-06 -4.90593403E-07
 -1.77834794E-05 -3.97809343E-05 -2.15400570E-04 -1.97955001E-05 -2.15754307E-05
  2.82961558E-04  4.51540092E-04  9.76834552E-01 -9.18664051E-03  4.34652971E-02
  1.36821889E-04 -1.90802052E-03 -2.14047432E-03  5.37807084E-04  7.64845045E-05
  2.13353252E-03 -6.12032020E-04 -7.02302769E-05  5.53564955E-05  7.57427068E-04
 -3.14161168E-05  3.48363895E-06 -3.72749276E-04  7.70871074E-07  3.08088024E-05
 -5.23651786E-07 -1.25092150E-06  3.80851912E-05  8.99744535E-05  7.64192201E-04
  3.34882243E-05  2.49437871E-05  2.74489471E-04  3.05490221E-04 -2.38346124E-04
  1.06426345E-07  1.30563940E-05  1.03843477E-04 -3.18670729E-04  2.45074099E-06
 -6.39076281E-05  4.90435033E-05 -1.69020767E-06 -1.40492117E-07 -4.63235100E-05