 Entering Gaussian System, Link 0=g16
 Input=hoono_a2_113p6734.gjf
 Output=hoono_a2_113p6734.log
 Initial command:
 /sw/contrib/gaussian/g16/B01/g16/l1.exe "/scr/Gau-69201.inp" -scrdir="/scr/"
 Entering Link 1 = /sw/contrib/gaussian/g16/B01/g16/l1.exe PID=     69202.
  
 Copyright (c) 1988-2017, Gaussian, Inc.  All Rights Reserved.
  
 This is part of the Gaussian(R) 16 program.  It is based on
 the Gaussian(R) 09 system (copyright 2009, Gaussian, Inc.),
 the Gaussian(R) 03 system (copyright 2003, Gaussian, Inc.),
 the Gaussian(R) 98 system (copyright 1998, Gaussian, Inc.),
 the Gaussian(R) 94 system (copyright 1995, Gaussian, Inc.),
 the Gaussian 92(TM) system (copyright 1992, Gaussian, Inc.),
 the Gaussian 90(TM) system (copyright 1990, Gaussian, Inc.),
 the Gaussian 88(TM) system (copyright 1988, Gaussian, Inc.),
 the Gaussian 86(TM) system (copyright 1986, Carnegie Mellon
 University), and the Gaussian 82(TM) system (copyright 1983,
 Carnegie Mellon University). Gaussian is a federally registered
 trademark of Gaussian, Inc.
  
 This software contains proprietary and confidential information,
 including trade secrets, belonging to Gaussian, Inc.
  
 This software is provided under written license and may be
 used, copied, transmitted, or stored only in accord with that
 written license.
  
 The following legend is applicable only to US Government
 contracts under FAR:
  
                    RESTRICTED RIGHTS LEGEND
  
 Use, reproduction and disclosure by the US Government is
 subject to restrictions as set forth in subparagraphs (a)
 and (c) of the Commercial Computer Software - Restricted
 Rights clause in FAR 52.227-19.
  
 Gaussian, Inc.
 340 Quinnipiac St., Bldg. 40, Wallingford CT 06492
  
  
 ---------------------------------------------------------------
 Warning -- This program may not be used in any manner that
 competes with the business of Gaussian, Inc. or will provide
 assistance to any competitor of Gaussian, Inc.  The licensee
 of this program is prohibited from giving any competitor of
 Gaussian, Inc. access to this program.  By using this program,
 the user acknowledges that Gaussian, Inc. is engaged in the
 business of creating and licensing software in the field of
 computational chemistry and represents and warrants to the
 licensee that it is not a competitor of Gaussian, Inc. and that
 it will not use this program in any manner prohibited above.
 ---------------------------------------------------------------
  

 Cite this work as:
 Gaussian 16, Revision B.01,
 M. J. Frisch, G. W. Trucks, H. B. Schlegel, G. E. Scuseria, 
 M. A. Robb, J. R. Cheeseman, G. Scalmani, V. Barone, 
 G. A. Petersson, H. Nakatsuji, X. Li, M. Caricato, A. V. Marenich, 
 J. Bloino, B. G. Janesko, R. Gomperts, B. Mennucci, H. P. Hratchian, 
 J. V. Ortiz, A. F. Izmaylov, J. L. Sonnenberg, D. Williams-Young, 
 F. Ding, F. Lipparini, F. Egidi, J. Goings, B. Peng, A. Petrone, 
 T. Henderson, D. Ranasinghe, V. G. Zakrzewski, J. Gao, N. Rega, 
 G. Zheng, W. Liang, M. Hada, M. Ehara, K. Toyota, R. Fukuda, 
 J. Hasegawa, M. Ishida, T. Nakajima, Y. Honda, O. Kitao, H. Nakai, 
 T. Vreven, K. Throssell, J. A. Montgomery, Jr., J. E. Peralta, 
 F. Ogliaro, M. J. Bearpark, J. J. Heyd, E. N. Brothers, K. N. Kudin, 
 V. N. Staroverov, T. A. Keith, R. Kobayashi, J. Normand, 
 K. Raghavachari, A. P. Rendell, J. C. Burant, S. S. Iyengar, 
 J. Tomasi, M. Cossi, J. M. Millam, M. Klene, C. Adamo, R. Cammi, 
 J. W. Ochterski, R. L. Martin, K. Morokuma, O. Farkas, 
 J. B. Foresman, and D. J. Fox, Gaussian, Inc., Wallingford CT, 2016.
 
 ******************************************
 Gaussian 16:  ES64L-G16RevB.01 20-Dec-2017
                 6-Mar-2022 
 ******************************************
 %nproc=28
 Will use up to   28 processors via shared memory.
 %mem=120GB
 %chk=hoono_a2_113p6734.chk
 ---------------------------------------
 #p freq mp2/aug-cc-pvtz density=current
 ---------------------------------------
 1/10=4,30=1,38=1/1,3;
 2/12=2,17=6,18=5,40=1/2;
 3/5=16,6=1,7=10,11=9,25=1,30=1,71=2,140=1/1,2,3;
 4//1;
 5/5=2,38=5,98=1/2;
 8/6=3,8=1,10=1,19=11,30=-1/1;
 9/15=3,16=-3/6;
 11/6=1,8=1,15=11,17=12,24=-1,27=1,28=-2,29=300,32=6,42=3/1,2,10;
 10/6=2,21=1/2;
 8/6=4,8=1,10=1,19=11,30=-1/11,4;
 10/5=1,20=4/2;
 11/12=2,14=11,16=1,17=2,28=-2,42=3,76=2/2,10,12;
 6/7=2,8=2,9=2,10=2,22=-1/1;
 7/8=1,10=1,12=2,25=1,44=2/1,2,3,16;
 1/10=4,30=1/3;
 99//99;
 Leave Link    1 at Sun Mar  6 19:27:41 2022, MaxMem= 16106127360 cpu:               2.3 elap:               0.1
 (Enter /sw/contrib/gaussian/g16/B01/g16/l101.exe)
 -----
 title
 -----
 Symbolic Z-matrix:
 Charge =  0 Multiplicity = 1
 H
 O                    1    r1
 O                    2    r2       1    a1
 N                    3    r3       2    a2       1    d1       0
 O                    4    r4       3    a3       2    d2       0
       Variables:
  r1                    0.98538                  
  r2                    1.42674                  
  r3                    1.38111                  
  r4                    1.19479                  
  a1                  100.63551                  
  a2                  113.67343                  
  a3                  114.33392                  
  d1                    0.                       
  d2                    0.                       
 
 ITRead=  0  0  0  0  0
 MicOpt= -1 -1 -1 -1 -1
 NAtoms=      5 NQM=        5 NQMF=       0 NMMI=      0 NMMIF=      0
                NMic=       0 NMicF=      0.
                    Isotopes and Nuclear Properties:
 (Nuclear quadrupole moments (NQMom) in fm**2, nuclear magnetic moments (NMagM)
  in nuclear magnetons)

  Atom         1           2           3           4           5
 IAtWgt=           1          16          16          14          16
 AtmWgt=   1.0078250  15.9949146  15.9949146  14.0030740  15.9949146
 NucSpn=           1           0           0           2           0
 AtZEff=  -0.0000000  -0.0000000  -0.0000000  -0.0000000  -0.0000000
 NQMom=    0.0000000   0.0000000   0.0000000   2.0440000   0.0000000
 NMagM=    2.7928460   0.0000000   0.0000000   0.4037610   0.0000000
 AtZNuc=   1.0000000   8.0000000   8.0000000   7.0000000   8.0000000
 Leave Link  101 at Sun Mar  6 19:27:41 2022, MaxMem= 16106127360 cpu:               3.6 elap:               0.2
 (Enter /sw/contrib/gaussian/g16/B01/g16/l103.exe)

 GradGradGradGradGradGradGradGradGradGradGradGradGradGradGradGradGradGrad
 Berny optimization.
 Initialization pass.
                       ----------------------------
                       !    Initial Parameters    !
                       ! (Angstroms and Degrees)  !
 ----------------------                            ----------------------
 !      Name          Value   Derivative information (Atomic Units)     !
 ------------------------------------------------------------------------
 !       r1          0.9854   calculate D2E/DX2 analytically            !
 !       r2          1.4267   calculate D2E/DX2 analytically            !
 !       r3          1.3811   calculate D2E/DX2 analytically            !
 !       r4          1.1948   calculate D2E/DX2 analytically            !
 !       a1        100.6355   calculate D2E/DX2 analytically            !
 !       a2        113.6734   calculate D2E/DX2 analytically            !
 !       a3        114.3339   calculate D2E/DX2 analytically            !
 !       d1          0.0      calculate D2E/DX2 analytically            !
 !       d2          0.0      calculate D2E/DX2 analytically            !
 ------------------------------------------------------------------------
 Trust Radius=3.00D-01 FncErr=1.00D-07 GrdErr=1.00D-07 EigMax=2.50D+02 EigMin=1.00D-04
 Number of steps in this run=      2 maximum allowed number of steps=      2.
 GradGradGradGradGradGradGradGradGradGradGradGradGradGradGradGradGradGrad

 Leave Link  103 at Sun Mar  6 19:27:41 2022, MaxMem= 16106127360 cpu:               0.4 elap:               0.0
 (Enter /sw/contrib/gaussian/g16/B01/g16/l202.exe)
                          Input orientation:                          
 ---------------------------------------------------------------------
 Center     Atomic      Atomic             Coordinates (Angstroms)
 Number     Number       Type             X           Y           Z
 ---------------------------------------------------------------------
      1          1           0        0.000000    0.000000    0.000000
      2          8           0        0.000000    0.000000    0.985377
      3          8           0        1.402227    0.000000    1.248696
      4          7           0        2.180695    0.000000    0.107887
      5          8           0        1.558962    0.000000   -0.912391
 ---------------------------------------------------------------------
                    Distance matrix (angstroms):
                    1          2          3          4          5
     1  H    0.000000
     2  O    0.985377   0.000000
     3  O    1.877627   1.426737   0.000000
     4  N    2.183362   2.350621   1.381108   0.000000
     5  O    1.806328   2.455990   2.166763   1.194788   0.000000
 Stoichiometry    HNO3
 Framework group  CS[SG(HNO3)]
 Deg. of freedom     7
 Full point group                 CS      NOp   2
 Largest Abelian subgroup         CS      NOp   2
 Largest concise Abelian subgroup C1      NOp   1
                         Standard orientation:                         
 ---------------------------------------------------------------------
 Center     Atomic      Atomic             Coordinates (Angstroms)
 Number     Number       Type             X           Y           Z
 ---------------------------------------------------------------------
      1          1           0        1.120480   -0.593072    0.000000
      2          8           0        1.319913    0.371912    0.000000
      3          8           0       -0.000000    0.913583   -0.000000
      4          7           0       -0.993249   -0.046060   -0.000000
      5          8           0       -0.590880   -1.171058    0.000000
 ---------------------------------------------------------------------
 Rotational constants (GHZ):          21.4519264           8.0438809           5.8502125
 Leave Link  202 at Sun Mar  6 19:27:41 2022, MaxMem= 16106127360 cpu:               0.2 elap:               0.0
 (Enter /sw/contrib/gaussian/g16/B01/g16/l301.exe)
 Standard basis: Aug-CC-pVTZ (5D, 7F)
 Ernie: Thresh=  0.10000D-02 Tol=  0.10000D-05 Strict=F.
 Ernie:  12 primitive shells out of 131 were deleted.
 There are   166 symmetry adapted cartesian basis functions of A'  symmetry.
 There are    79 symmetry adapted cartesian basis functions of A"  symmetry.
 There are   136 symmetry adapted basis functions of A'  symmetry.
 There are    71 symmetry adapted basis functions of A"  symmetry.
   207 basis functions,   315 primitive gaussians,   245 cartesian basis functions
    16 alpha electrons       16 beta electrons
       nuclear repulsion energy       122.6149811859 Hartrees.
 IExCor=    0 DFT=F Ex=HF Corr=None ExCW=0 ScaHFX=  1.000000
 ScaDFX=  1.000000  1.000000  1.000000  1.000000 ScalE2=  1.000000  1.000000
 IRadAn=      5 IRanWt=     -1 IRanGd=            0 ICorTp=0 IEmpDi=  4
 NAtoms=    5 NActive=    5 NUniq=    5 SFac= 1.00D+00 NAtFMM=   60 NAOKFM=F Big=F
 Integral buffers will be    131072 words long.
 Raffenetti 1 integral format.
 Two-electron integral symmetry is turned on.
 Leave Link  301 at Sun Mar  6 19:27:41 2022, MaxMem= 16106127360 cpu:               1.7 elap:               0.1
 (Enter /sw/contrib/gaussian/g16/B01/g16/l302.exe)
 NPDir=0 NMtPBC=     1 NCelOv=     1 NCel=       1 NClECP=     1 NCelD=      1
         NCelK=      1 NCelE2=     1 NClLst=     1 CellRange=     0.0.
 One-electron integrals computed using PRISM.
 One-electron integral symmetry used in STVInt
 NBasis=   207 RedAO= T EigKep=  1.31D-04  NBF=   136    71
 NBsUse=   207 1.00D-06 EigRej= -1.00D+00 NBFU=   136    71
 Leave Link  302 at Sun Mar  6 19:27:42 2022, MaxMem= 16106127360 cpu:               4.8 elap:               0.2
 (Enter /sw/contrib/gaussian/g16/B01/g16/l303.exe)
 DipDrv:  MaxL=1.
 Leave Link  303 at Sun Mar  6 19:27:42 2022, MaxMem= 16106127360 cpu:               1.2 elap:               0.1
 (Enter /sw/contrib/gaussian/g16/B01/g16/l401.exe)
 ExpMin= 2.53D-02 ExpMax= 1.53D+04 ExpMxC= 5.22D+02 IAcc=3 IRadAn=         5 AccDes= 0.00D+00
 Harris functional with IExCor=  205 and IRadAn=       5 diagonalized for initial guess.
 HarFok:  IExCor=  205 AccDes= 0.00D+00 IRadAn=         5 IDoV= 1 UseB2=F ITyADJ=14
 ICtDFT=  3500011 ScaDFX=  1.000000  1.000000  1.000000  1.000000
 FoFCou: FMM=F IPFlag=           0 FMFlag=      100000 FMFlg1=           0
         NFxFlg=           0 DoJE=T BraDBF=F KetDBF=T FulRan=T
         wScrn=  0.000000 ICntrl=       500 IOpCl=  0 I1Cent=   200000004 NGrid=           0
         NMat0=    1 NMatS0=      1 NMatT0=    0 NMatD0=    1 NMtDS0=    0 NMtDT0=    0
 Petite list used in FoFCou.
 Harris En= -279.644825071435    
 JPrj=0 DoOrth=F DoCkMO=F.
 Initial guess orbital symmetries:
       Occupied  (A') (A') (A') (A') (A') (A') (A') (A') (A') (A')
                 (A") (A') (A") (A') (A") (A')
       Virtual   (A") (A') (A') (A') (A') (A") (A') (A') (A') (A')
                 (A") (A') (A") (A') (A') (A") (A') (A') (A") (A')
                 (A') (A') (A') (A') (A") (A') (A') (A') (A") (A')
                 (A') (A") (A") (A') (A') (A") (A') (A") (A') (A")
                 (A') (A") (A') (A") (A') (A') (A') (A') (A") (A')
                 (A') (A") (A') (A") (A') (A") (A') (A') (A') (A")
                 (A') (A') (A") (A') (A') (A') (A") (A") (A') (A')
                 (A") (A') (A") (A") (A') (A') (A") (A') (A') (A')
                 (A") (A') (A') (A") (A') (A") (A") (A') (A') (A')
                 (A') (A") (A') (A") (A') (A') (A") (A') (A") (A')
                 (A") (A') (A') (A") (A") (A') (A') (A') (A") (A')
                 (A") (A') (A') (A') (A") (A') (A') (A') (A") (A')
                 (A") (A') (A') (A") (A") (A") (A") (A') (A') (A')
                 (A') (A') (A') (A") (A') (A") (A') (A") (A') (A')
                 (A") (A") (A') (A') (A') (A") (A') (A') (A') (A")
                 (A') (A') (A') (A") (A') (A") (A") (A') (A") (A')
                 (A') (A") (A") (A') (A") (A') (A') (A") (A") (A')
                 (A") (A") (A") (A') (A") (A') (A') (A') (A') (A")
                 (A') (A') (A') (A') (A') (A') (A') (A') (A') (A')
                 (A')
 The electronic state of the initial guess is 1-A'.
 Leave Link  401 at Sun Mar  6 19:27:42 2022, MaxMem= 16106127360 cpu:               7.9 elap:               0.3
 (Enter /sw/contrib/gaussian/g16/B01/g16/l502.exe)
 Keep R1 ints in memory in symmetry-blocked form, NReq=348887737.
 FoFCou: FMM=F IPFlag=           0 FMFlag=           0 FMFlg1=           0
         NFxFlg=           0 DoJE=F BraDBF=F KetDBF=F FulRan=T
         wScrn=  0.000000 ICntrl=       600 IOpCl=  0 I1Cent=           0 NGrid=           0
         NMat0=    1 NMatS0=  21528 NMatT0=    0 NMatD0=    1 NMtDS0=    0 NMtDT0=    0
 Petite list used in FoFCou.
 Closed shell SCF:
 Using DIIS extrapolation, IDIIS=  1040.
 NGot= 16106127360 LenX= 15988850015 LenY= 15988789549
 Requested convergence on RMS density matrix=1.00D-08 within 128 cycles.
 Requested convergence on MAX density matrix=1.00D-06.
 Requested convergence on             energy=1.00D-06.
 No special actions if energy rises.

 Cycle   1  Pass 1  IDiag  1:
 E= -279.364366097701    
 DIIS: error= 2.75D-02 at cycle   1 NSaved=   1.
 NSaved= 1 IEnMin= 1 EnMin= -279.364366097701     IErMin= 1 ErrMin= 2.75D-02
 ErrMax= 2.75D-02  0.00D+00 EMaxC= 1.00D-01 BMatC= 4.50D-01 BMatP= 4.50D-01
 IDIUse=3 WtCom= 7.25D-01 WtEn= 2.75D-01
 Coeff-Com:  0.100D+01
 Coeff-En:   0.100D+01
 Coeff:      0.100D+01
 Gap=     0.498 Goal=   None    Shift=    0.000
 GapD=    0.498 DampG=2.000 DampE=0.500 DampFc=1.0000 IDamp=-1.
 RMSDP=1.68D-03 MaxDP=8.77D-02              OVMax= 1.23D-01

 Cycle   2  Pass 1  IDiag  1:
 E= -279.446358210553     Delta-E=       -0.081992112851 Rises=F Damp=F
 DIIS: error= 1.92D-02 at cycle   2 NSaved=   2.
 NSaved= 2 IEnMin= 2 EnMin= -279.446358210553     IErMin= 2 ErrMin= 1.92D-02
 ErrMax= 1.92D-02  0.00D+00 EMaxC= 1.00D-01 BMatC= 8.59D-02 BMatP= 4.50D-01
 IDIUse=3 WtCom= 8.08D-01 WtEn= 1.92D-01
 Coeff-Com:  0.218D+00 0.782D+00
 Coeff-En:   0.768D-01 0.923D+00
 Coeff:      0.191D+00 0.809D+00
 Gap=     0.561 Goal=   None    Shift=    0.000
 RMSDP=9.66D-04 MaxDP=3.66D-02 DE=-8.20D-02 OVMax= 9.13D-02

 Cycle   3  Pass 1  IDiag  1:
 E= -279.484117053661     Delta-E=       -0.037758843108 Rises=F Damp=F
 DIIS: error= 1.11D-02 at cycle   3 NSaved=   3.
 NSaved= 3 IEnMin= 3 EnMin= -279.484117053661     IErMin= 3 ErrMin= 1.11D-02
 ErrMax= 1.11D-02  0.00D+00 EMaxC= 1.00D-01 BMatC= 3.09D-02 BMatP= 8.59D-02
 IDIUse=3 WtCom= 8.89D-01 WtEn= 1.11D-01
 Coeff-Com: -0.348D-01 0.365D+00 0.670D+00
 Coeff-En:   0.000D+00 0.218D+00 0.782D+00
 Coeff:     -0.309D-01 0.348D+00 0.683D+00
 Gap=     0.541 Goal=   None    Shift=    0.000
 RMSDP=4.10D-04 MaxDP=1.58D-02 DE=-3.78D-02 OVMax= 3.90D-02

 Cycle   4  Pass 1  IDiag  1:
 E= -279.505245473171     Delta-E=       -0.021128419511 Rises=F Damp=F
 DIIS: error= 1.62D-03 at cycle   4 NSaved=   4.
 NSaved= 4 IEnMin= 4 EnMin= -279.505245473171     IErMin= 4 ErrMin= 1.62D-03
 ErrMax= 1.62D-03  0.00D+00 EMaxC= 1.00D-01 BMatC= 5.96D-04 BMatP= 3.09D-02
 IDIUse=3 WtCom= 9.84D-01 WtEn= 1.62D-02
 Coeff-Com: -0.119D-01 0.465D-01 0.153D+00 0.813D+00
 Coeff-En:   0.000D+00 0.000D+00 0.000D+00 0.100D+01
 Coeff:     -0.117D-01 0.457D-01 0.150D+00 0.816D+00
 Gap=     0.528 Goal=   None    Shift=    0.000
 RMSDP=9.88D-05 MaxDP=2.30D-03 DE=-2.11D-02 OVMax= 1.18D-02

 Cycle   5  Pass 1  IDiag  1:
 E= -279.506054635572     Delta-E=       -0.000809162401 Rises=F Damp=F
 DIIS: error= 1.09D-03 at cycle   5 NSaved=   5.
 NSaved= 5 IEnMin= 5 EnMin= -279.506054635572     IErMin= 5 ErrMin= 1.09D-03
 ErrMax= 1.09D-03  0.00D+00 EMaxC= 1.00D-01 BMatC= 1.02D-04 BMatP= 5.96D-04
 IDIUse=3 WtCom= 9.89D-01 WtEn= 1.09D-02
 Coeff-Com:  0.538D-02-0.659D-01-0.111D+00 0.607D-01 0.111D+01
 Coeff-En:   0.000D+00 0.000D+00 0.000D+00 0.000D+00 0.100D+01
 Coeff:      0.532D-02-0.652D-01-0.109D+00 0.601D-01 0.111D+01
 Gap=     0.532 Goal=   None    Shift=    0.000
 RMSDP=7.97D-05 MaxDP=2.12D-03 DE=-8.09D-04 OVMax= 1.29D-02

 Cycle   6  Pass 1  IDiag  1:
 E= -279.506416128421     Delta-E=       -0.000361492849 Rises=F Damp=F
 DIIS: error= 3.28D-04 at cycle   6 NSaved=   6.
 NSaved= 6 IEnMin= 6 EnMin= -279.506416128421     IErMin= 6 ErrMin= 3.28D-04
 ErrMax= 3.28D-04  0.00D+00 EMaxC= 1.00D-01 BMatC= 2.41D-05 BMatP= 1.02D-04
 IDIUse=3 WtCom= 9.97D-01 WtEn= 3.28D-03
 Coeff-Com:  0.188D-02-0.705D-02-0.177D-01-0.184D+00 0.151D-01 0.119D+01
 Coeff-En:   0.000D+00 0.000D+00 0.000D+00 0.000D+00 0.000D+00 0.100D+01
 Coeff:      0.187D-02-0.703D-02-0.177D-01-0.183D+00 0.150D-01 0.119D+01
 Gap=     0.532 Goal=   None    Shift=    0.000
 RMSDP=4.66D-05 MaxDP=1.07D-03 DE=-3.61D-04 OVMax= 6.09D-03

 Cycle   7  Pass 1  IDiag  1:
 E= -279.506501980244     Delta-E=       -0.000085851822 Rises=F Damp=F
 DIIS: error= 1.33D-04 at cycle   7 NSaved=   7.
 NSaved= 7 IEnMin= 7 EnMin= -279.506501980244     IErMin= 7 ErrMin= 1.33D-04
 ErrMax= 1.33D-04  0.00D+00 EMaxC= 1.00D-01 BMatC= 3.59D-06 BMatP= 2.41D-05
 IDIUse=3 WtCom= 9.99D-01 WtEn= 1.33D-03
 Coeff-Com: -0.109D-02 0.114D-01 0.250D-01 0.164D-01-0.182D+00-0.151D+00
 Coeff-Com:  0.128D+01
 Coeff-En:   0.000D+00 0.000D+00 0.000D+00 0.000D+00 0.000D+00 0.000D+00
 Coeff-En:   0.100D+01
 Coeff:     -0.109D-02 0.114D-01 0.250D-01 0.164D-01-0.182D+00-0.150D+00
 Coeff:      0.128D+01
 Gap=     0.532 Goal=   None    Shift=    0.000
 RMSDP=1.76D-05 MaxDP=5.12D-04 DE=-8.59D-05 OVMax= 2.33D-03

 Cycle   8  Pass 1  IDiag  1:
 E= -279.506514023894     Delta-E=       -0.000012043650 Rises=F Damp=F
 DIIS: error= 4.73D-05 at cycle   8 NSaved=   8.
 NSaved= 8 IEnMin= 8 EnMin= -279.506514023894     IErMin= 8 ErrMin= 4.73D-05
 ErrMax= 4.73D-05  0.00D+00 EMaxC= 1.00D-01 BMatC= 5.99D-07 BMatP= 3.59D-06
 IDIUse=1 WtCom= 1.00D+00 WtEn= 0.00D+00
 Coeff-Com: -0.560D-03 0.410D-02 0.972D-02 0.250D-01-0.575D-01-0.192D+00
 Coeff-Com:  0.353D+00 0.858D+00
 Coeff:     -0.560D-03 0.410D-02 0.972D-02 0.250D-01-0.575D-01-0.192D+00
 Coeff:      0.353D+00 0.858D+00
 Gap=     0.532 Goal=   None    Shift=    0.000
 RMSDP=5.44D-06 MaxDP=1.54D-04 DE=-1.20D-05 OVMax= 6.51D-04

 Cycle   9  Pass 1  IDiag  1:
 E= -279.506515405211     Delta-E=       -0.000001381317 Rises=F Damp=F
 DIIS: error= 2.49D-05 at cycle   9 NSaved=   9.
 NSaved= 9 IEnMin= 9 EnMin= -279.506515405211     IErMin= 9 ErrMin= 2.49D-05
 ErrMax= 2.49D-05  0.00D+00 EMaxC= 1.00D-01 BMatC= 1.17D-07 BMatP= 5.99D-07
 IDIUse=1 WtCom= 1.00D+00 WtEn= 0.00D+00
 Coeff-Com:  0.241D-03-0.256D-02-0.534D-02-0.562D-02 0.470D-01 0.492D-01
 Coeff-Com: -0.340D+00 0.319D-01 0.122D+01
 Coeff:      0.241D-03-0.256D-02-0.534D-02-0.562D-02 0.470D-01 0.492D-01
 Coeff:     -0.340D+00 0.319D-01 0.122D+01
 Gap=     0.532 Goal=   None    Shift=    0.000
 RMSDP=2.46D-06 MaxDP=6.64D-05 DE=-1.38D-06 OVMax= 2.59D-04

 Cycle  10  Pass 1  IDiag  1:
 E= -279.506515669605     Delta-E=       -0.000000264395 Rises=F Damp=F
 DIIS: error= 5.82D-06 at cycle  10 NSaved=  10.
 NSaved=10 IEnMin=10 EnMin= -279.506515669605     IErMin=10 ErrMin= 5.82D-06
 ErrMax= 5.82D-06  0.00D+00 EMaxC= 1.00D-01 BMatC= 8.30D-09 BMatP= 1.17D-07
 IDIUse=1 WtCom= 1.00D+00 WtEn= 0.00D+00
 Coeff-Com: -0.387D-04 0.499D-03 0.121D-02-0.186D-02-0.110D-01 0.510D-02
 Coeff-Com:  0.735D-01-0.537D-01-0.440D+00 0.143D+01
 Coeff:     -0.387D-04 0.499D-03 0.121D-02-0.186D-02-0.110D-01 0.510D-02
 Coeff:      0.735D-01-0.537D-01-0.440D+00 0.143D+01
 Gap=     0.532 Goal=   None    Shift=    0.000
 RMSDP=7.08D-07 MaxDP=2.58D-05 DE=-2.64D-07 OVMax= 7.53D-05

 Cycle  11  Pass 1  IDiag  1:
 E= -279.506515694567     Delta-E=       -0.000000024961 Rises=F Damp=F
 DIIS: error= 2.22D-06 at cycle  11 NSaved=  11.
 NSaved=11 IEnMin=11 EnMin= -279.506515694567     IErMin=11 ErrMin= 2.22D-06
 ErrMax= 2.22D-06  0.00D+00 EMaxC= 1.00D-01 BMatC= 8.22D-10 BMatP= 8.30D-09
 IDIUse=1 WtCom= 1.00D+00 WtEn= 0.00D+00
 Coeff-Com: -0.155D-04 0.155D-03 0.320D-03 0.921D-03-0.198D-02-0.719D-02
 Coeff-Com:  0.174D-01 0.201D-01-0.410D-01-0.344D+00 0.136D+01
 Coeff:     -0.155D-04 0.155D-03 0.320D-03 0.921D-03-0.198D-02-0.719D-02
 Coeff:      0.174D-01 0.201D-01-0.410D-01-0.344D+00 0.136D+01
 Gap=     0.532 Goal=   None    Shift=    0.000
 RMSDP=2.43D-07 MaxDP=9.00D-06 DE=-2.50D-08 OVMax= 2.84D-05

 Cycle  12  Pass 1  IDiag  1:
 E= -279.506515697533     Delta-E=       -0.000000002967 Rises=F Damp=F
 DIIS: error= 6.96D-07 at cycle  12 NSaved=  12.
 NSaved=12 IEnMin=12 EnMin= -279.506515697533     IErMin=12 ErrMin= 6.96D-07
 ErrMax= 6.96D-07  0.00D+00 EMaxC= 1.00D-01 BMatC= 8.44D-11 BMatP= 8.22D-10
 IDIUse=1 WtCom= 1.00D+00 WtEn= 0.00D+00
 Coeff-Com:  0.271D-05-0.461D-04-0.987D-04 0.119D-03 0.112D-02-0.632D-03
 Coeff-Com: -0.734D-02 0.603D-02 0.403D-01-0.107D+00-0.191D+00 0.126D+01
 Coeff:      0.271D-05-0.461D-04-0.987D-04 0.119D-03 0.112D-02-0.632D-03
 Coeff:     -0.734D-02 0.603D-02 0.403D-01-0.107D+00-0.191D+00 0.126D+01
 Gap=     0.532 Goal=   None    Shift=    0.000
 RMSDP=8.32D-08 MaxDP=2.71D-06 DE=-2.97D-09 OVMax= 9.63D-06

 Cycle  13  Pass 1  IDiag  1:
 E= -279.506515697829     Delta-E=       -0.000000000296 Rises=F Damp=F
 DIIS: error= 1.59D-07 at cycle  13 NSaved=  13.
 NSaved=13 IEnMin=13 EnMin= -279.506515697829     IErMin=13 ErrMin= 1.59D-07
 ErrMax= 1.59D-07  0.00D+00 EMaxC= 1.00D-01 BMatC= 6.96D-12 BMatP= 8.44D-11
 IDIUse=1 WtCom= 1.00D+00 WtEn= 0.00D+00
 Coeff-Com:  0.124D-05-0.115D-04-0.161D-04-0.121D-03 0.365D-04 0.913D-03
 Coeff-Com: -0.949D-03-0.251D-02-0.244D-02 0.547D-01-0.127D+00-0.148D+00
 Coeff-Com:  0.123D+01
 Coeff:      0.124D-05-0.115D-04-0.161D-04-0.121D-03 0.365D-04 0.913D-03
 Coeff:     -0.949D-03-0.251D-02-0.244D-02 0.547D-01-0.127D+00-0.148D+00
 Coeff:      0.123D+01
 Gap=     0.532 Goal=   None    Shift=    0.000
 RMSDP=2.19D-08 MaxDP=6.44D-07 DE=-2.96D-10 OVMax= 2.03D-06

 Cycle  14  Pass 1  IDiag  1:
 E= -279.506515697849     Delta-E=       -0.000000000020 Rises=F Damp=F
 DIIS: error= 4.10D-08 at cycle  14 NSaved=  14.
 NSaved=14 IEnMin=14 EnMin= -279.506515697849     IErMin=14 ErrMin= 4.10D-08
 ErrMax= 4.10D-08  0.00D+00 EMaxC= 1.00D-01 BMatC= 4.77D-13 BMatP= 6.96D-12
 IDIUse=1 WtCom= 1.00D+00 WtEn= 0.00D+00
 Coeff-Com: -0.304D-06 0.448D-05 0.891D-05-0.355D-05-0.112D-03 0.556D-04
 Coeff-Com:  0.640D-03-0.305D-03-0.353D-02 0.782D-02 0.165D-01-0.896D-01
 Coeff-Com: -0.164D-01 0.108D+01
 Coeff:     -0.304D-06 0.448D-05 0.891D-05-0.355D-05-0.112D-03 0.556D-04
 Coeff:      0.640D-03-0.305D-03-0.353D-02 0.782D-02 0.165D-01-0.896D-01
 Coeff:     -0.164D-01 0.108D+01
 Gap=     0.532 Goal=   None    Shift=    0.000
 RMSDP=4.28D-09 MaxDP=1.07D-07 DE=-1.96D-11 OVMax= 4.61D-07

 SCF Done:  E(RHF) =  -279.506515698     A.U. after   14 cycles
            NFock= 14  Conv=0.43D-08     -V/T= 2.0022
 KE= 2.788814882173D+02 PE=-9.060994519433D+02 EE= 2.250964668422D+02
 Leave Link  502 at Sun Mar  6 19:27:45 2022, MaxMem= 16106127360 cpu:              52.8 elap:               3.4
 (Enter /sw/contrib/gaussian/g16/B01/g16/l801.exe)
 ExpMin= 2.53D-02 ExpMax= 1.53D+04 ExpMxC= 5.22D+02 IAcc=3 IRadAn=         5 AccDes= 0.00D+00
 HarFok:  IExCor=  205 AccDes= 0.00D+00 IRadAn=         5 IDoV=-2 UseB2=F ITyADJ=14
 ICtDFT= 12500011 ScaDFX=  1.000000  1.000000  1.000000  1.000000
 Largest valence mixing into a core orbital is  2.07D-04
 Largest core mixing into a valence orbital is  3.10D-05
 Range of M.O.s used for correlation:     5   207
 NBasis=   207 NAE=    16 NBE=    16 NFC=     4 NFV=     0
 NROrb=    203 NOA=    12 NOB=    12 NVA=   191 NVB=   191

 **** Warning!!: The largest alpha MO coefficient is  0.15874146D+02

 Leave Link  801 at Sun Mar  6 19:27:45 2022, MaxMem= 16106127360 cpu:               1.5 elap:               0.1
 (Enter /sw/contrib/gaussian/g16/B01/g16/l906.exe)
 Frozen-core derivative calculation, NFC=   4 NFV=   0.
 FulOut=F Deriv=T AODrv=T NAtomX=     5
   MMem=           0  MDisk=          12 MDiskD=          12
  W3Min=      811440 MinDsk=     2425030 NBas6D=         245
 NBas2D=       30762    NTT=       30135    LW2=     7400000
    MDV= 16105571602 MDiskM=      328644 NBas2p=       30759
 Disk-based method using ON**2 memory for 12 occupieds at a time.
 Permanent disk used for amplitudes=    11516536 words.
 Estimated scratch disk usage=   321863743 words.
 IMap=   1   2   3   4   5   6   7   8   9  10  11  12  13  14  15  16
 Actual    scratch disk usage=   310892607 words.
 JobTyp=1 Pass  1:  I=   5 to  16 NPSUse= 28 ParTrn=T ParDer=T DoDerP=T.
 (rs|ai) integrals will be sorted in core.
 Spin components of T(2) and E(2):
     alpha-alpha T2 =       0.3479474345D-01 E2=     -0.1245175006D+00
     alpha-beta  T2 =       0.1845418282D+00 E2=     -0.6996694766D+00
     beta-beta   T2 =       0.3479474345D-01 E2=     -0.1245175006D+00
 The integrals were generated   1 times.
 ANorm=    0.1119880045D+01
 E2 =    -0.9487044779D+00 EUMP2 =    -0.28045522017572D+03
 Leave Link  906 at Sun Mar  6 19:29:21 2022, MaxMem= 16106127360 cpu:            2656.6 elap:              95.1
 (Enter /sw/contrib/gaussian/g16/B01/g16/l1101.exe)
 Using compressed Sx but separate Hx and Fx, NAtomX=     5.
 Will process      6 centers per pass.
 Leave Link 1101 at Sun Mar  6 19:29:21 2022, MaxMem= 16106127360 cpu:               4.6 elap:               0.2
 (Enter /sw/contrib/gaussian/g16/B01/g16/l1102.exe)
 Leave Link 1102 at Sun Mar  6 19:29:21 2022, MaxMem= 16106127360 cpu:               0.5 elap:               0.0
 (Enter /sw/contrib/gaussian/g16/B01/g16/l1110.exe)
 Forming Gx(P) for the SCF density, NAtomX=     5.
 Integral derivatives from FoFJK, PRISM(SPDF).
 Do as many integral derivatives as possible in FoFJK.
 G2DrvN: MDV=   16106126844.
 G2DrvN: will do     6 centers at a time, making    1 passes.
 Calling FoFCou, ICntrl=  3107 FMM=F I1Cent=   0 AccDes= 0.00D+00.
 FoFJK:  IHMeth= 1 ICntrl=    3107 DoSepK=F KAlg= 0 I1Cent=           0 FoldK=F
 IRaf=         0 NMat=       1 IRICut=       1 DoRegI=T DoRafI=F ISym2E= 1 IDoP0=0 IntGTp=1.
 FoFCou: FMM=F IPFlag=           0 FMFlag=      100000 FMFlg1=           0
         NFxFlg=           0 DoJE=F BraDBF=F KetDBF=F FulRan=T
         wScrn=  0.000000 ICntrl=      3107 IOpCl=  0 I1Cent=           0 NGrid=           0
         NMat0=    1 NMatS0=      1 NMatT0=    0 NMatD0=    1 NMtDS0=    0 NMtDT0=    0
 Petite list used in FoFCou.
 End of G2Drv F.D. properties file   721 does not exist.
 End of G2Drv F.D. properties file   722 does not exist.
 End of G2Drv F.D. properties file   788 does not exist.
 Leave Link 1110 at Sun Mar  6 19:29:24 2022, MaxMem= 16106127360 cpu:              80.7 elap:               2.9
 (Enter /sw/contrib/gaussian/g16/B01/g16/l1002.exe)
 Minotr:  Closed shell wavefunction.
          IDoAtm=11111
          Frozen-core window.
          Direct CPHF calculation.
          Differentiating once with respect to electric field.
                with respect to dipole field.
          Differentiating once with respect to nuclear coordinates.
          Requested convergence is 1.0D-08 RMS, and 1.0D-07 maximum.
          Secondary convergence is 1.0D-12 RMS, and 1.0D-12 maximum.
          NewPWx=T KeepS1=T KeepF1=T KeepIn=T MapXYZ=F SortEE=F KeepMc=T.
 Keep R1 ints in memory in symmetry-blocked form, NReq=348888983.
 FoFCou: FMM=F IPFlag=           0 FMFlag=           0 FMFlg1=           0
         NFxFlg=           0 DoJE=F BraDBF=F KetDBF=F FulRan=T
         wScrn=  0.000000 ICntrl=       600 IOpCl=  0 I1Cent=           0 NGrid=           0
         NMat0=    1 NMatS0=  21528 NMatT0=    0 NMatD0=    1 NMtDS0=    0 NMtDT0=    0
 Petite list used in FoFCou.
          MDV=   16106127360 using IRadAn=       1.
          Solving linear equations simultaneously, MaxMat=       0.
          There are    18 degrees of freedom in the 1st order CPHF.  IDoFFX=6 NUNeed=    18.
     15 vectors produced by pass  0 Test12= 1.70D-14 5.56D-09 XBig12= 7.91D+00 1.23D+00.
 AX will form    15 AO Fock derivatives at one time.
     15 vectors produced by pass  1 Test12= 1.70D-14 5.56D-09 XBig12= 1.35D+00 2.23D-01.
     15 vectors produced by pass  2 Test12= 1.70D-14 5.56D-09 XBig12= 6.72D-02 5.81D-02.
     15 vectors produced by pass  3 Test12= 1.70D-14 5.56D-09 XBig12= 1.95D-03 1.07D-02.
     15 vectors produced by pass  4 Test12= 1.70D-14 5.56D-09 XBig12= 4.32D-05 1.23D-03.
     15 vectors produced by pass  5 Test12= 1.70D-14 5.56D-09 XBig12= 6.08D-07 1.18D-04.
     15 vectors produced by pass  6 Test12= 1.70D-14 5.56D-09 XBig12= 4.66D-09 1.18D-05.
     14 vectors produced by pass  7 Test12= 1.70D-14 5.56D-09 XBig12= 3.48D-11 7.92D-07.
      3 vectors produced by pass  8 Test12= 1.70D-14 5.56D-09 XBig12= 2.40D-13 6.19D-08.
      1 vectors produced by pass  9 Test12= 1.70D-14 5.56D-09 XBig12= 1.64D-15 6.84D-09.
 InvSVY:  IOpt=1 It=  1 EMax= 1.22D-15
 Solved reduced A of dimension   123 with    15 vectors.
 FullF1:  Do perturbations      1 to      18.
 Saving first derivative matrices.
 End of Minotr F.D. properties file   721 does not exist.
 End of Minotr F.D. properties file   722 does not exist.
 End of Minotr F.D. properties file   788 does not exist.
 Leave Link 1002 at Sun Mar  6 19:29:27 2022, MaxMem= 16106127360 cpu:              74.9 elap:               2.8
 (Enter /sw/contrib/gaussian/g16/B01/g16/l811.exe)
 MDV= 16106127360.
 Form MO integral derivatives with frozen-active canonical formalism.
 MOERI=1 MOERIx=1 NAtoms=     5 NAtomX=     5.
 Discarding MO integrals.
 MO basis two electron integral derivatives will not be stored on disk.
 IAlg= 3 DoFC=T DoPWx=T Debug=F.
 Frozen-core window:  NFC=   4 NFV=   0.
 Reordered first order wavefunction length =     18678272
 In DefCFB: NBatch=  1 ICI= 16 ICA=191 LFMax= 96
            Large arrays: LIAPS=   619940160 LIARS=   288257200 words.
 In StABat: MaxSiz= 55 MinSiz= 25 NAtomB=  5
 DoIAMN: NPSUse= 28.
 Leave Link  811 at Sun Mar  6 19:30:54 2022, MaxMem= 16106127360 cpu:            2448.6 elap:              87.7
 (Enter /sw/contrib/gaussian/g16/B01/g16/l804.exe)
 Frozen-core window:  NFC=   4 NFV=   0.
 Closed-shell transformation, MDV= 16106127360 ITran=4 ISComp=1.
 Semi-Direct transformation.
 ModeAB=           2 MOrb=            16 LenV=   16104919953
 LASXX=     67341636 LTotXX=    67341636 LenRXX=    67341636
 LTotAB=    68301760 MaxLAS=    99807120 LenRXY=    99807120
 NonZer=   134683272 LenScr=   202817536 LnRSAI=           0
 LnScr1=           0 LExtra=           0 Total=    369966292
 MaxDsk=          -1 SrtSym=           F ITran=            4
 DoSDTr:  NPSUse= 28
 JobTyp=0 Pass  1:  I=   1 to  16.
 (rs|ai) integrals will be sorted in core.
 Complete sort for first half transformation.
 First half transformation complete.
 Begin second half transformation for I=  10.
 Begin second half transformation for I=  10.
 Complete sort for second half transformation.
 Second half transformation complete.
 Spin components of T(2) and E(2):
     alpha-alpha T2 =       0.3479474345D-01 E2=     -0.1245175006D+00
     alpha-beta  T2 =       0.1845418282D+00 E2=     -0.6996694766D+00
     beta-beta   T2 =       0.3479474345D-01 E2=     -0.1245175006D+00
 ANorm=    0.1583749548D+01
 E2 =    -0.9487044779D+00 EUMP2 =    -0.28045522017572D+03
 Leave Link  804 at Sun Mar  6 19:31:09 2022, MaxMem= 16106127360 cpu:             417.5 elap:              15.0
 (Enter /sw/contrib/gaussian/g16/B01/g16/l1002.exe)
 Minotr:  Closed shell wavefunction.
          Computing MP2/KS-MP2 derivatives.
          Using Z-Vector for PSCF gradient.
          Skipping F1 and S1 gradient terms here.
          IDoAtm=11111
          Frozen-core window.
          Using MO integrals in the linear equations.
          Forming densities via direct SCF.
          Differentiating once with respect to electric field.
                with respect to dipole field.
          Differentiating once with respect to nuclear coordinates.
          Using symmetry in CPHF.
          Requested convergence is 1.0D-10 RMS, and 1.0D-09 maximum.
          NewPWx=F KeepS1=T KeepF1=T KeepIn=T MapXYZ=F SortEE=F KeepMc=T.
          MDV=   16106127360 using IRadAn=       5.
          Solving linear equations separately, MaxMat=       0.
          There are     1 degrees of freedom in the 1st order CPHF.  IDoFFX=0 NUNeed=     1.
 FoFJK:  IHMeth= 1 ICntrl=       0 DoSepK=F KAlg= 0 I1Cent=           0 FoldK=F
 IRaf=         0 NMat=       1 IRICut=       1 DoRegI=T DoRafI=F ISym2E= 0 IDoP0=0 IntGTp=1.
 FoFCou: FMM=F IPFlag=           0 FMFlag=      100000 FMFlg1=           0
         NFxFlg=           0 DoJE=F BraDBF=F KetDBF=F FulRan=T
         wScrn=  0.000000 ICntrl=         0 IOpCl=  0 I1Cent=           0 NGrid=           0
         NMat0=    1 NMatS0=      1 NMatT0=    0 NMatD0=    1 NMtDS0=    0 NMtDT0=    0
 Symmetry not used in FoFCou.
 LinEq1:  Iter=  0 NonCon=     1 RMS=6.59D-03 Max=1.69D-01 NDo=     1
 LinEq1:  Iter=  1 NonCon=     1 RMS=2.00D-03 Max=3.08D-02 NDo=     1
 LinEq1:  Iter=  2 NonCon=     1 RMS=8.87D-04 Max=1.44D-02 NDo=     1
 LinEq1:  Iter=  3 NonCon=     1 RMS=3.80D-04 Max=8.16D-03 NDo=     1
 LinEq1:  Iter=  4 NonCon=     1 RMS=1.37D-04 Max=1.67D-03 NDo=     1
 LinEq1:  Iter=  5 NonCon=     1 RMS=7.65D-05 Max=1.38D-03 NDo=     1
 LinEq1:  Iter=  6 NonCon=     1 RMS=2.44D-05 Max=3.41D-04 NDo=     1
 LinEq1:  Iter=  7 NonCon=     1 RMS=8.12D-06 Max=1.09D-04 NDo=     1
 LinEq1:  Iter=  8 NonCon=     1 RMS=3.98D-06 Max=6.17D-05 NDo=     1
 LinEq1:  Iter=  9 NonCon=     1 RMS=1.04D-06 Max=1.22D-05 NDo=     1
 LinEq1:  Iter= 10 NonCon=     1 RMS=2.31D-07 Max=2.99D-06 NDo=     1
 LinEq1:  Iter= 11 NonCon=     1 RMS=4.94D-08 Max=8.26D-07 NDo=     1
 LinEq1:  Iter= 12 NonCon=     1 RMS=1.16D-08 Max=1.76D-07 NDo=     1
 LinEq1:  Iter= 13 NonCon=     1 RMS=2.05D-09 Max=2.12D-08 NDo=     1
 LinEq1:  Iter= 14 NonCon=     1 RMS=4.23D-10 Max=5.68D-09 NDo=     1
 LinEq1:  Iter= 15 NonCon=     0 RMS=8.69D-11 Max=8.66D-10 NDo=     1
 Linear equations converged to 1.000D-10 1.000D-09 after    15 iterations.
 End of Minotr F.D. properties file   721 does not exist.
 End of Minotr F.D. properties file   722 does not exist.
 End of Minotr F.D. properties file   788 does not exist.
 Leave Link 1002 at Sun Mar  6 19:31:12 2022, MaxMem= 16106127360 cpu:              65.1 elap:               2.4
 (Enter /sw/contrib/gaussian/g16/B01/g16/l1102.exe)
 Use density number 2.
 Symmetrizing basis deriv contribution to polar:
 IMax=3 JMax=2 DiffMx= 0.00D+00
 Leave Link 1102 at Sun Mar  6 19:31:12 2022, MaxMem= 16106127360 cpu:               0.9 elap:               0.1
 (Enter /sw/contrib/gaussian/g16/B01/g16/l1110.exe)
 Forming Gx(P) for generalized density number  2 NAtomX=     5.
 Integral derivatives from FoFJK, PRISM(SPDF).
 Do as many integral derivatives as possible in FoFJK.
 G2DrvN: MDV=   16106126844.
 G2DrvN: will do     6 centers at a time, making    1 passes.
 Calling FoFCou, ICntrl=  3107 FMM=F I1Cent=   0 AccDes= 0.00D+00.
 FoFJK:  IHMeth= 1 ICntrl=    3107 DoSepK=F KAlg= 0 I1Cent=           0 FoldK=F
 IRaf=         0 NMat=       1 IRICut=       1 DoRegI=T DoRafI=F ISym2E= 1 IDoP0=0 IntGTp=1.
 FoFCou: FMM=F IPFlag=           0 FMFlag=      100000 FMFlg1=           0
         NFxFlg=           0 DoJE=F BraDBF=F KetDBF=F FulRan=T
         wScrn=  0.000000 ICntrl=      3107 IOpCl=  0 I1Cent=           0 NGrid=           0
         NMat0=    1 NMatS0=      1 NMatT0=    0 NMatD0=    1 NMtDS0=    0 NMtDT0=    0
 Petite list used in FoFCou.
 End of G2Drv F.D. properties file   721 does not exist.
 End of G2Drv F.D. properties file   722 does not exist.
 End of G2Drv F.D. properties file   788 does not exist.
 Leave Link 1110 at Sun Mar  6 19:31:15 2022, MaxMem= 16106127360 cpu:              81.0 elap:               2.9
 (Enter /sw/contrib/gaussian/g16/B01/g16/l1112.exe)
 MP22nd: MDV=   16106127360
 This link is doing NAtomX=     5 total of    18 degrees of freedom.
 Using ON3 I/O method in MakUI.
 Frozen-core window:  NFC=   4 NFV=   0.
 Using Ix for Sx.
 Use MO integrals over full window.
 Using OV2 memory method for fx*t*t/D, MaxI=    16 DoOO2=F NP=  28.
 R2 and R3 integrals will be kept in memory, NReq=   915591705.
 FoFCou: FMM=F IPFlag=           0 FMFlag=           0 FMFlg1=           0
         NFxFlg=           0 DoJE=F BraDBF=F KetDBF=F FulRan=T
         wScrn=  0.000000 ICntrl=       600 IOpCl=  0 I1Cent=           0 NGrid=           0
         NMat0=    1 NMatS0=      1 NMatT0=    0 NMatD0=    1 NMtDS0=    0 NMtDT0=    0
 Symmetry not used in FoFCou.
 DD1Dir will call FoFMem   1 times, MxPair=       272
 NAB=   136 NAA=     0 NBB=     0.
 Symmetry is being used.
 FoFJK:  IHMeth= 1 ICntrl=       0 DoSepK=F KAlg= 0 I1Cent=           0 FoldK=F
 IRaf=         0 NMat=      18 IRICut=      45 DoRegI=T DoRafI=T ISym2E= 2 IDoP0=3 IntGTp=3.
 Discarding MO integrals.
 Leave Link 1112 at Sun Mar  6 19:31:42 2022, MaxMem= 16106127360 cpu:             754.6 elap:              27.1
 (Enter /sw/contrib/gaussian/g16/B01/g16/l601.exe)
 Copying SCF densities to generalized density rwf, IOpCl= 0 IROHF=0.

 **********************************************************************

            Population analysis using the MP2 Density.

 **********************************************************************

 Orbital symmetries:
       Occupied  (A') (A') (A') (A') (A') (A') (A') (A') (A') (A')
                 (A") (A') (A") (A') (A') (A")
       Virtual   (A') (A") (A') (A') (A") (A') (A') (A') (A") (A')
                 (A") (A') (A') (A') (A") (A') (A') (A") (A') (A')
                 (A') (A') (A') (A') (A") (A') (A') (A") (A') (A')
                 (A') (A") (A") (A') (A') (A') (A") (A') (A") (A')
                 (A") (A") (A') (A') (A") (A') (A') (A") (A') (A')
                 (A') (A") (A') (A') (A") (A') (A") (A') (A") (A')
                 (A') (A') (A") (A') (A') (A') (A") (A") (A') (A')
                 (A") (A') (A") (A") (A') (A') (A") (A') (A') (A')
                 (A") (A') (A') (A") (A') (A") (A") (A') (A') (A')
                 (A') (A') (A") (A") (A') (A') (A") (A") (A') (A")
                 (A') (A') (A") (A') (A") (A') (A') (A') (A") (A')
                 (A") (A') (A') (A') (A") (A') (A') (A') (A") (A')
                 (A") (A") (A') (A') (A") (A") (A') (A") (A') (A')
                 (A') (A') (A") (A') (A') (A") (A") (A') (A') (A')
                 (A") (A") (A') (A') (A') (A") (A') (A') (A') (A")
                 (A') (A') (A') (A") (A") (A') (A") (A') (A') (A")
                 (A') (A") (A') (A") (A") (A') (A') (A") (A") (A")
                 (A') (A") (A") (A') (A') (A") (A') (A') (A') (A")
                 (A') (A') (A') (A') (A') (A') (A') (A') (A') (A')
                 (A')
 The electronic state is 1-A'.
 Alpha  occ. eigenvalues --  -20.71915 -20.68695 -20.66901 -15.82604  -1.64355
 Alpha  occ. eigenvalues --   -1.50522  -1.29380  -0.96026  -0.83367  -0.75865
 Alpha  occ. eigenvalues --   -0.73956  -0.63816  -0.61857  -0.61822  -0.50435
 Alpha  occ. eigenvalues --   -0.49735
 Alpha virt. eigenvalues --    0.03496   0.06049   0.09515   0.10057   0.11973
 Alpha virt. eigenvalues --    0.12254   0.14907   0.15176   0.17758   0.18048
 Alpha virt. eigenvalues --    0.18985   0.21103   0.21670   0.24184   0.24642
 Alpha virt. eigenvalues --    0.26899   0.31195   0.31601   0.33800   0.34447
 Alpha virt. eigenvalues --    0.34712   0.39204   0.44809   0.48833   0.50495
 Alpha virt. eigenvalues --    0.51882   0.54492   0.56129   0.59963   0.62036
 Alpha virt. eigenvalues --    0.63853   0.68920   0.71726   0.72455   0.74255
 Alpha virt. eigenvalues --    0.76270   0.76687   0.79563   0.80571   0.84053
 Alpha virt. eigenvalues --    0.84336   0.85150   0.88522   0.90739   0.92994
 Alpha virt. eigenvalues --    0.94789   0.95381   1.01848   1.03108   1.05934
 Alpha virt. eigenvalues --    1.06542   1.09383   1.14253   1.15615   1.16940
 Alpha virt. eigenvalues --    1.22227   1.22644   1.24639   1.35072   1.36385
 Alpha virt. eigenvalues --    1.37316   1.46795   1.48514   1.50549   1.54077
 Alpha virt. eigenvalues --    1.59492   1.59759   1.60553   1.62726   1.69577
 Alpha virt. eigenvalues --    1.74057   1.80159   1.83040   1.88840   1.89421
 Alpha virt. eigenvalues --    1.92785   1.97878   1.98871   2.05153   2.12548
 Alpha virt. eigenvalues --    2.12915   2.16479   2.18608   2.24272   2.25841
 Alpha virt. eigenvalues --    2.29485   2.34941   2.36402   2.38741   2.40091
 Alpha virt. eigenvalues --    2.43254   2.46867   2.47762   2.52802   2.53646
 Alpha virt. eigenvalues --    2.54912   2.55807   2.61455   2.62858   2.67173
 Alpha virt. eigenvalues --    2.67176   2.75461   2.80956   2.81456   2.84131
 Alpha virt. eigenvalues --    2.91691   2.98533   3.04671   3.04855   3.11742
 Alpha virt. eigenvalues --    3.11750   3.16788   3.21308   3.30819   3.33224
 Alpha virt. eigenvalues --    3.36393   3.47537   3.68073   3.86898   3.92524
 Alpha virt. eigenvalues --    4.18147   4.21982   4.22361   4.26415   4.36752
 Alpha virt. eigenvalues --    4.50159   4.51635   4.55630   4.59787   4.69630
 Alpha virt. eigenvalues --    4.81191   4.89996   4.91368   4.93964   4.99920
 Alpha virt. eigenvalues --    5.00613   5.10797   5.13108   5.18084   5.24924
 Alpha virt. eigenvalues --    5.25837   5.31796   5.33792   5.35225   5.54959
 Alpha virt. eigenvalues --    5.64520   5.70466   5.88804   5.99886   6.26601
 Alpha virt. eigenvalues --    6.29644   6.36118   6.37777   6.59735   6.65518
 Alpha virt. eigenvalues --    6.65838   6.68758   6.72765   6.79900   6.80461
 Alpha virt. eigenvalues --    6.84947   6.96772   7.02064   7.06623   7.08047
 Alpha virt. eigenvalues --    7.13744   7.16959   7.17503   7.20290   7.24553
 Alpha virt. eigenvalues --    7.24771   7.27053   7.34709   7.39150   7.42685
 Alpha virt. eigenvalues --    7.44269   7.46341   7.55728   7.66282   7.66432
 Alpha virt. eigenvalues --    7.79517   7.88221   7.94980   8.05713   8.30376
 Alpha virt. eigenvalues --    8.49779   8.65361  13.61236  14.77326  15.09451
 Alpha virt. eigenvalues --   15.74485
          Condensed to atoms (all electrons):
               1          2          3          4          5
     1  H    0.576826   0.125227   0.024347  -0.000678  -0.005121
     2  O    0.125227   8.388933  -0.232250  -0.000736  -0.007690
     3  O    0.024347  -0.232250   8.372914  -0.168239  -0.034803
     4  N   -0.000678  -0.000736  -0.168239   7.134343  -0.117734
     5  O   -0.005121  -0.007690  -0.034803  -0.117734   8.362335
 Mulliken charges:
               1
     1  H    0.279398
     2  O   -0.273484
     3  O    0.038030
     4  N    0.153044
     5  O   -0.196988
 Sum of Mulliken charges =  -0.00000
 Mulliken charges with hydrogens summed into heavy atoms:
               1
     2  O    0.005914
     3  O    0.038030
     4  N    0.153044
     5  O   -0.196988
 APT charges:
               1
     1  H    0.270112
     2  O   -0.302908
     3  O   -0.308739
     4  N    0.644714
     5  O   -0.303179
 Sum of APT charges =  -0.00000
 APT charges with hydrogens summed into heavy atoms:
               1
     2  O   -0.032796
     3  O   -0.308739
     4  N    0.644714
     5  O   -0.303179
 Electronic spatial extent (au):  <R**2>=            207.9145
 Charge=             -0.0000 electrons
 Dipole moment (field-independent basis, Debye):
    X=              0.0687    Y=             -1.0990    Z=              0.0000  Tot=              1.1011
 Quadrupole moment (field-independent basis, Debye-Ang):
   XX=            -23.3348   YY=            -22.9788   ZZ=            -21.9352
   XY=             -1.9861   XZ=             -0.0000   YZ=              0.0000
 Traceless Quadrupole moment (field-independent basis, Debye-Ang):
   XX=             -0.5852   YY=             -0.2292   ZZ=              0.8144
   XY=             -1.9861   XZ=             -0.0000   YZ=              0.0000
 Octapole moment (field-independent basis, Debye-Ang**2):
  XXX=              2.6216  YYY=              0.2933  ZZZ=             -0.0000  XYY=              2.3634
  XXY=             -2.8437  XXZ=              0.0000  XZZ=             -0.5880  YZZ=             -0.7093
  YYZ=              0.0000  XYZ=             -0.0000
 Hexadecapole moment (field-independent basis, Debye-Ang**3):
 XXXX=           -127.5839 YYYY=            -94.9872 ZZZZ=            -18.0453 XXXY=            -21.9247
 XXXZ=             -0.0000 YYYX=            -20.0969 YYYZ=              0.0000 ZZZX=             -0.0000
 ZZZY=              0.0000 XXYY=            -35.8076 XXZZ=            -24.4605 YYZZ=            -18.6064
 XXYZ=              0.0000 YYXZ=             -0.0000 ZZXY=             -6.0178
 N-N= 1.226149811859D+02 E-N=-9.067887232249D+02  KE= 2.801995493733D+02
 Symmetry A'   KE= 2.663471885501D+02
 Symmetry A"   KE= 1.385236082324D+01
  Exact polarizability:  31.025   4.194  29.893   0.000  -0.000  17.629
 Approx polarizability:  24.626   0.566  27.654   0.000  -0.000  15.521
 No NMR shielding tensors so no spin-rotation constants.
 Leave Link  601 at Sun Mar  6 19:31:42 2022, MaxMem= 16106127360 cpu:               3.8 elap:               0.2
 (Enter /sw/contrib/gaussian/g16/B01/g16/l701.exe)
 ... and contract with generalized density number  2.
 Compute integral second derivatives.
 Leave Link  701 at Sun Mar  6 19:31:42 2022, MaxMem= 16106127360 cpu:               6.7 elap:               0.3
 (Enter /sw/contrib/gaussian/g16/B01/g16/l702.exe)
 L702 exits ... SP integral derivatives will be done elsewhere.
 Leave Link  702 at Sun Mar  6 19:31:42 2022, MaxMem= 16106127360 cpu:               0.5 elap:               0.0
 (Enter /sw/contrib/gaussian/g16/B01/g16/l703.exe)
 Integral derivatives from FoFJK, PRISM(SPDF).
 Compute integral second derivatives, UseDBF=F ICtDFT=           0.
 Calling FoFJK, ICntrl=  10100127 FMM=F ISym2X=1 I1Cent= 0 IOpClX= 0 NMat=1 NMatS=1 NMatT=0.
 FoFJK:  IHMeth= 1 ICntrl=10100127 DoSepK=F KAlg= 0 I1Cent=           0 FoldK=F
 IRaf=         0 NMat=       1 IRICut=       1 DoRegI=T DoRafI=F ISym2E= 1 IDoP0=0 IntGTp=1.
 FoFCou: FMM=F IPFlag=           0 FMFlag=      100000 FMFlg1=         800
         NFxFlg=           0 DoJE=F BraDBF=F KetDBF=F FulRan=T
         wScrn=  0.000000 ICntrl=  10100127 IOpCl=  0 I1Cent=           0 NGrid=           0
         NMat0=    1 NMatS0=      1 NMatT0=    0 NMatD0=    1 NMtDS0=    0 NMtDT0=    0
 Petite list used in FoFCou.
 Leave Link  703 at Sun Mar  6 19:31:58 2022, MaxMem= 16106127360 cpu:             430.7 elap:              15.4
 (Enter /sw/contrib/gaussian/g16/B01/g16/l716.exe)
 Dipole        = 2.70429451D-02-4.32372356D-01 7.27644179D-33
 Polarizability= 3.10251896D+01 4.19411718D+00 2.98931165D+01
                 3.36084796D-31-3.31785608D-31 1.76293204D+01
 Full mass-weighted force constant matrix:
 Low frequencies ---  -32.3996    0.0011    0.0013    0.0018   14.9133   27.9735
 Low frequencies ---  354.0966  385.9310  521.0504
 Diagonal vibrational polarizability:
        7.2817039      10.0255758      16.0940933
 Harmonic frequencies (cm**-1), IR intensities (KM/Mole), Raman scattering
 activities (A**4/AMU), depolarization ratios for plane and unpolarized
 incident light, reduced masses (AMU), force constants (mDyne/A),
 and normal coordinates:
                      1                      2                      3
                     A"                     A'                     A"
 Frequencies --    354.0821               385.9310               521.0461
 Red. masses --      1.5528                 7.0341                 2.9299
 Frc consts  --      0.1147                 0.6173                 0.4687
 IR Inten    --     63.1465                 7.7465                25.6231
  Atom  AN      X      Y      Z        X      Y      Z        X      Y      Z
     1   1    -0.00  -0.00   0.98    -0.73  -0.26  -0.00    -0.00  -0.00   0.93
     2   8    -0.00  -0.00  -0.11    -0.32  -0.31   0.00    -0.00  -0.00   0.05
     3   8    -0.00   0.00   0.12    -0.07   0.09  -0.00     0.00   0.00  -0.18
     4   7     0.00   0.00  -0.11     0.05   0.09   0.00     0.00   0.00   0.27
     5   8     0.00   0.00   0.03     0.39   0.17   0.00     0.00   0.00  -0.17
                      4                      5                      6
                     A'                     A'                     A'
 Frequencies --    712.2668               836.1091               971.1190
 Red. masses --     13.2875                12.3047                 9.6752
 Frc consts  --      3.9717                 5.0681                 5.3759
 IR Inten    --    218.8586                29.7828                12.8534
  Atom  AN      X      Y      Z        X      Y      Z        X      Y      Z
     1   1    -0.36   0.00  -0.00     0.44  -0.15   0.00    -0.63  -0.01  -0.00
     2   8     0.00  -0.08   0.00     0.53  -0.20   0.00     0.20  -0.17  -0.00
     3   8     0.37   0.58  -0.00    -0.38  -0.03  -0.00    -0.36   0.40   0.00
     4   7    -0.41  -0.46  -0.00    -0.43  -0.05   0.00     0.37   0.04  -0.00
     5   8     0.01  -0.10   0.00     0.21   0.28  -0.00    -0.13  -0.28   0.00
                      7                      8                      9
                     A'                     A'                     A'
 Frequencies --   1432.4726              1568.4067              3491.3321
 Red. masses --      1.2965                 6.7353                 1.0638
 Frc consts  --      1.5675                 9.7617                 7.6403
 IR Inten    --     79.0950               151.4743                40.9786
  Atom  AN      X      Y      Z        X      Y      Z        X      Y      Z
     1   1     0.97  -0.20  -0.00    -0.75   0.16   0.00     0.15   0.99   0.00
     2   8    -0.07  -0.05  -0.00     0.02   0.02  -0.00    -0.01  -0.06  -0.00
     3   8    -0.03   0.06   0.00    -0.04  -0.06   0.00     0.00  -0.00   0.00
     4   7     0.06  -0.05  -0.00     0.25  -0.41   0.00    -0.00   0.00   0.00
     5   8    -0.02   0.04   0.00    -0.15   0.39  -0.00     0.00  -0.00  -0.00

 -------------------
 - Thermochemistry -
 -------------------
 Temperature   298.150 Kelvin.  Pressure   1.00000 Atm.
 Atom     1 has atomic number  1 and mass   1.00783
 Atom     2 has atomic number  8 and mass  15.99491
 Atom     3 has atomic number  8 and mass  15.99491
 Atom     4 has atomic number  7 and mass  14.00307
 Atom     5 has atomic number  8 and mass  15.99491
 Molecular mass:    62.99564 amu.
 Principal axes and moments of inertia in atomic units:
                           1         2         3
     Eigenvalues --    84.12956 224.36200 308.49156
           X            0.79712  -0.60382   0.00000
           Y            0.60382   0.79712   0.00000
           Z            0.00000  -0.00000   1.00000
 This molecule is an asymmetric top.
 Rotational symmetry number  1.
 Rotational temperatures (Kelvin)      1.02953     0.38605     0.28077
 Rotational constants (GHZ):          21.45193     8.04388     5.85021
 Zero-point vibrational energy      61444.8 (Joules/Mol)
                                   14.68566 (Kcal/Mol)
 Warning -- explicit consideration of   3 degrees of freedom as
           vibrations may cause significant error
 Vibrational temperatures:    509.45   555.27   749.67  1024.79  1202.97
          (Kelvin)           1397.22  2061.01  2256.59  5023.25
 
 Zero-point correction=                           0.023403 (Hartree/Particle)
 Thermal correction to Energy=                    0.027353
 Thermal correction to Enthalpy=                  0.028297
 Thermal correction to Gibbs Free Energy=        -0.002584
 Sum of electronic and zero-point Energies=           -280.431817
 Sum of electronic and thermal Energies=              -280.427868
 Sum of electronic and thermal Enthalpies=            -280.426923
 Sum of electronic and thermal Free Energies=         -280.457804
 
                     E (Thermal)             CV                S
                      KCal/Mol        Cal/Mol-Kelvin    Cal/Mol-Kelvin
 Total                   17.164             12.195             64.994
 Electronic               0.000              0.000              0.000
 Translational            0.889              2.981             38.341
 Rotational               0.889              2.981             23.281
 Vibrational             15.387              6.233              3.373
 Vibration     1          0.730              1.567              1.148
 Vibration     2          0.755              1.500              1.016
 Vibration     3          0.876              1.203              0.608
                       Q            Log10(Q)             Ln(Q)
 Total Bot       0.154352D+02          1.188513          2.736651
 Total V=0       0.897787D+12         11.953173         27.523199
 Vib (Bot)       0.287526D-10        -10.541323        -24.272294
 Vib (Bot)    1  0.519678D+00         -0.284266         -0.654546
 Vib (Bot)    2  0.466539D+00         -0.331112         -0.762413
 Vib (Bot)    3  0.309490D+00         -0.509353         -1.172829
 Vib (V=0)       0.167239D+01          0.223338          0.514254
 Vib (V=0)    1  0.122116D+01          0.086771          0.199797
 Vib (V=0)    2  0.118386D+01          0.073299          0.168777
 Vib (V=0)    3  0.108803D+01          0.036643          0.084373
 Electronic      0.100000D+01          0.000000          0.000000
 Translational   0.196526D+08          7.293420         16.793719
 Rotational      0.273159D+05          4.436416         10.215226
 
                                                                title
                                                             IR Spectrum
 
     3                                                                     1    1                                                    
     4                                                                     5    4                9    8    7      5   3 3            
     9                                                                     6    3                7    3    1      2   8 5            
     1                                                                     8    2                1    6    2      1   6 4            
 
     X                                                                     X    X                X    X    X      X   X X            
     X                                                                     X    X                     X    X      X     X            
     X                                                                     X    X                     X    X            X            
     X                                                                     X    X                          X            X            
                                                                           X    X                          X            X            
                                                                           X    X                          X            X            
                                                                           X    X                          X                         
                                                                           X                               X                         
                                                                           X                               X                         
                                                                           X                               X                         
                                                                           X                               X                         
                                                                           X                               X                         
                                                                           X                               X                         
                                                                           X                               X                         
                                                                                                           X                         
                                                                                                           X                         
                                                                                                           X                         
                                                                                                           X                         
                                                                                                           X                         
                                                                                                           X                         
 
 ***** Axes restored to original set *****
 -------------------------------------------------------------------
 Center     Atomic                   Forces (Hartrees/Bohr)
 Number     Number              X              Y              Z
 -------------------------------------------------------------------
      1        1          -0.000027234   -0.000000000    0.000085141
      2        8           0.000398898    0.000000000   -0.001734679
      3        8           0.001443106    0.000000000    0.001603211
      4        7          -0.001456795   -0.000000000    0.000070980
      5        8          -0.000357976   -0.000000000   -0.000024653
 -------------------------------------------------------------------
 Cartesian Forces:  Max     0.001734679 RMS     0.000819964
 -----------------------------------------------------------------------------------------------
                       Internal Coordinate Forces (Hartree/Bohr or radian)
  Cent   Atom   N1       Length/X         N2         Alpha/Y        N3         Beta/Z          J
 -----------------------------------------------------------------------------------------------
      1  H 
      2  O        1  -0.000085(     1)
      3  O        2  -0.000061(     2)      1   0.000051(     5)
      4  N        3  -0.001061(     3)      2  -0.004505(     6)      1  -0.000000(     8)     0
      5  O        4   0.000207(     4)      3  -0.000661(     7)      2  -0.000000(     9)     0
 -----------------------------------------------------------------------------------------------
 Internal  Forces:  Max     0.004505393 RMS     0.001560568
 Force constants in Cartesian coordinates: 
                1             2             3             4             5 
      1  0.716655D-01
      2  0.000000D+00  0.605852D-02
      3  0.238331D-01  0.000000D+00  0.437623D+00
      4 -0.518359D-01  0.000000D+00 -0.476057D-02  0.279958D+00
      5  0.000000D+00 -0.251229D-02  0.000000D+00  0.000000D+00  0.122929D-01
      6  0.326312D-01  0.000000D+00 -0.421788D+00 -0.105531D-01  0.000000D+00
      7 -0.251985D-01  0.000000D+00 -0.155951D-01 -0.171235D+00  0.000000D+00
      8  0.000000D+00 -0.409425D-02  0.000000D+00  0.000000D+00 -0.185231D-01
      9 -0.445944D-01  0.000000D+00 -0.194550D-01  0.985772D-02  0.000000D+00
     10 -0.509486D-02  0.000000D+00  0.630014D-02 -0.831346D-01  0.000000D+00
     11  0.000000D+00  0.788315D-02  0.000000D+00  0.000000D+00  0.195154D-01
     12 -0.185909D-01  0.000000D+00  0.114001D-01  0.945928D-02  0.000000D+00
     13  0.104637D-01  0.000000D+00 -0.977757D-02  0.262470D-01  0.000000D+00
     14  0.000000D+00 -0.733513D-02  0.000000D+00  0.000000D+00 -0.107729D-01
     15  0.672105D-02  0.000000D+00 -0.778023D-02 -0.400329D-02  0.000000D+00
                6             7             8             9            10 
      6  0.522265D+00
      7 -0.911738D-01  0.303764D+00
      8  0.000000D+00  0.000000D+00  0.401750D-01
      9 -0.975124D-01  0.815875D-01  0.000000D+00  0.318869D+00
     10  0.399161D-01 -0.143795D+00  0.000000D+00 -0.370934D-01  0.547619D+00
     11  0.000000D+00  0.000000D+00 -0.478127D-01  0.000000D+00  0.000000D+00
     12 -0.871634D-02  0.144481D-01  0.000000D+00 -0.267661D-01  0.244196D+00
     13  0.291796D-01  0.364639D-01  0.000000D+00 -0.975739D-02 -0.315594D+00
     14  0.000000D+00  0.000000D+00  0.302550D-01  0.000000D+00  0.000000D+00
     15  0.575206D-02  0.107332D-01  0.000000D+00 -0.175136D+00 -0.253319D+00
               11            12            13            14            15 
     11  0.578879D-01
     12  0.000000D+00  0.453764D+00
     13  0.000000D+00 -0.249512D+00  0.242420D+00
     14 -0.374738D-01  0.000000D+00  0.000000D+00  0.253269D-01
     15  0.000000D+00 -0.429682D+00  0.239868D+00  0.000000D+00  0.606845D+00
 Force constants in internal coordinates: 
                1             2             3             4             5 
      1  0.437623D+00
      2  0.216674D-01  0.258396D+00
      3  0.495012D-02  0.166068D-01  0.205252D+00
      4 -0.117318D-01  0.225997D-01  0.148756D+00  0.721342D+00
      5  0.443521D-01  0.556954D-01 -0.238920D-01  0.208262D-01  0.248333D+00
      6  0.118821D-01  0.183747D-01  0.844931D-01  0.932289D-02 -0.119004D-01
      7  0.971057D-02 -0.737696D-01  0.116680D+00  0.117646D+00 -0.228634D-01
      8  0.000000D+00  0.000000D+00  0.000000D+00  0.000000D+00  0.000000D+00
      9  0.000000D+00  0.000000D+00  0.000000D+00  0.000000D+00  0.000000D+00
                6             7             8             9 
      6  0.497271D+00
      7  0.489442D-01  0.652590D+00
      8  0.000000D+00  0.000000D+00  0.201293D-01
      9  0.000000D+00  0.000000D+00  0.276167D-01  0.107826D+00
 Leave Link  716 at Sun Mar  6 19:31:58 2022, MaxMem= 16106127360 cpu:               0.9 elap:               0.1
 (Enter /sw/contrib/gaussian/g16/B01/g16/l103.exe)

 GradGradGradGradGradGradGradGradGradGradGradGradGradGradGradGradGradGrad
 Berny optimization.
 Search for a local minimum.
 Step number   1 out of a maximum of    2
 All quantities printed in internal units (Hartrees-Bohrs-Radians)
 Second derivative matrix not updated -- analytic derivatives used.
 The second derivative matrix:
                          r1        r2        r3        r4        a1
           r1           0.43762
           r2           0.02167   0.25840
           r3           0.00495   0.01661   0.20525
           r4          -0.01173   0.02260   0.14876   0.72134
           a1           0.04435   0.05570  -0.02389   0.02083   0.24833
           a2           0.01188   0.01837   0.08449   0.00932  -0.01190
           a3           0.00971  -0.07377   0.11668   0.11765  -0.02286
           d1           0.00000   0.00000   0.00000  -0.00000  -0.00000
           d2           0.00000  -0.00000  -0.00000  -0.00000  -0.00000
                          a2        a3        d1        d2
           a2           0.49727
           a3           0.04894   0.65259
           d1           0.00000  -0.00000   0.02013
           d2          -0.00000   0.00000   0.02762   0.10783
 ITU=  0
     Eigenvalues ---    0.01216   0.11580   0.12491   0.20269   0.27414
     Eigenvalues ---    0.44936   0.50089   0.59487   0.87396
 Angle between quadratic step and forces=  10.81 degrees.
 Linear search not attempted -- first point.
 Variable       Old X    -DE/DX   Delta X   Delta X   Delta X     New X
                                 (Linear)    (Quad)   (Total)
    r1        1.86209  -0.00009   0.00000   0.00013   0.00013   1.86223
    r2        2.69614  -0.00006   0.00000   0.00057   0.00057   2.69671
    r3        2.60992  -0.00106   0.00000  -0.00232  -0.00232   2.60760
    r4        2.25782   0.00021   0.00000   0.00089   0.00089   2.25872
    a1        1.75642   0.00005   0.00000  -0.00067  -0.00067   1.75575
    a2        1.98398  -0.00451   0.00000  -0.00872  -0.00872   1.97526
    a3        1.99550  -0.00066   0.00000  -0.00007  -0.00007   1.99544
    d1        0.00000  -0.00000   0.00000  -0.00000  -0.00000  -0.00000
    d2        0.00000  -0.00000   0.00000  -0.00000  -0.00000  -0.00000
         Item               Value     Threshold  Converged?
 Maximum Force            0.004505     0.000450     NO 
 RMS     Force            0.001561     0.000300     NO 
 Maximum Displacement     0.008717     0.001800     NO 
 RMS     Displacement     0.003036     0.001200     NO 
 Predicted change in Energy=-2.094092D-05
                       ----------------------------
                       ! Non-Optimized Parameters !
                       ! (Angstroms and Degrees)  !
 ----------------------                            ----------------------
 !      Name          Value   Derivative information (Atomic Units)     !
 ------------------------------------------------------------------------
 !       r1          0.9854   -DE/DX =   -0.0001                        !
 !       r2          1.427    -DE/DX =   -0.0001                        !
 !       r3          1.3799   -DE/DX =   -0.0011                        !
 !       r4          1.1953   -DE/DX =    0.0002                        !
 !       a1        100.5971   -DE/DX =    0.0001                        !
 !       a2        113.174    -DE/DX =   -0.0045                        !
 !       a3        114.3301   -DE/DX =   -0.0007                        !
 !       d1          0.0      -DE/DX =    0.0                           !
 !       d2          0.0      -DE/DX =    0.0                           !
 ------------------------------------------------------------------------
 GradGradGradGradGradGradGradGradGradGradGradGradGradGradGradGradGradGrad

 Leave Link  103 at Sun Mar  6 19:31:58 2022, MaxMem= 16106127360 cpu:               0.7 elap:               0.0
 (Enter /sw/contrib/gaussian/g16/B01/g16/l9999.exe)

 ----------------------------------------------------------------------

 Electric dipole moment (input orientation):
 (Debye = 10**-18 statcoulomb cm , SI units = C m)
                  (au)            (Debye)         (10**-30 SI)
   Tot        0.433217D+00      0.110113D+01      0.367297D+01
   x         -0.113992D+00     -0.289740D+00     -0.966468D+00
   y          0.000000D+00      0.000000D+00      0.000000D+00
   z         -0.417951D+00     -0.106233D+01     -0.354353D+01

 Dipole polarizability, Alpha (input orientation).
 (esu units = cm**3 , SI units = C**2 m**2 J**-1)
 Alpha(0;0):
               (au)            (10**-24 esu)      (10**-40 SI)
   iso        0.261825D+02      0.387985D+01      0.431692D+01
   aniso      0.147763D+02      0.218961D+01      0.243628D+01
   xx         0.293162D+02      0.434422D+01      0.483359D+01
   yx         0.000000D+00      0.000000D+00      0.000000D+00
   yy         0.176293D+02      0.261240D+01      0.290668D+01
   zx        -0.407489D+01     -0.603837D+00     -0.671859D+00
   zy         0.000000D+00      0.000000D+00      0.000000D+00
   zz         0.316021D+02      0.468294D+01      0.521048D+01

 ----------------------------------------------------------------------

 Dipole orientation:
     1         -0.00000000          0.00000000         -0.00000000
     8         -0.48997219          0.00000000         -1.79647260
     8          1.93554025          0.00000000         -2.97378673
     7          3.92205110         -0.00000000         -1.28102805
     8          3.29587529         -0.00000000          0.88822722

 Electric dipole moment (dipole orientation):
 (Debye = 10**-18 statcoulomb cm , SI units = C m)
                  (au)            (Debye)         (10**-30 SI)
   Tot        0.433217D+00      0.110113D+01      0.367297D+01
   x          0.000000D+00      0.000000D+00      0.000000D+00
   y          0.000000D+00      0.000000D+00      0.000000D+00
   z          0.433217D+00      0.110113D+01      0.367297D+01

 Dipole polarizability, Alpha (dipole orientation).
 (esu units = cm**3 , SI units = C**2 m**2 J**-1)
 Alpha(0;0):
               (au)            (10**-24 esu)      (10**-40 SI)
   iso        0.261825D+02      0.387985D+01      0.431692D+01
   aniso      0.147763D+02      0.218961D+01      0.243628D+01
   xx         0.315434D+02      0.467425D+01      0.520080D+01
   yx         0.000000D+00      0.000000D+00      0.000000D+00
   yy         0.176293D+02      0.261240D+01      0.290668D+01
   zx         0.409090D+01      0.606209D+00      0.674498D+00
   zy         0.000000D+00      0.000000D+00      0.000000D+00
   zz         0.293749D+02      0.435291D+01      0.484327D+01

 ----------------------------------------------------------------------
 1\1\GINC-N2398\Freq\RMP2-FC\Aug-CC-pVTZ\H1N1O3\CGAVINH\06-Mar-2022\1\\
 #p freq mp2/aug-cc-pvtz density=current\\title\\0,1\H\O,1,r1\O,2,r2,1,
 a1\N,3,r3,2,a2,1,d1,0\O,4,r4,3,a3,2,d2,0\\r1=0.98537664\r2=1.42673666\
 r3=1.38110764\r4=1.19478846\a1=100.6355057\a2=113.6734309\a3=114.33392
 022\d1=0.\d2=0.\\Version=ES64L-G16RevB.01\State=1-A'\HF=-279.5065157\M
 P2=-280.4552202\RMSD=4.285e-09\RMSF=8.200e-04\ZeroPoint=0.0234031\Ther
 mal=0.0273525\Dipole=-0.1139924,0.,-0.4179508\DipoleDeriv=0.3154705,0.
 ,0.0398922,0.,0.2989604,0.,-0.0209441,0.,0.1959058,-0.5329293,0.,0.280
 2955,0.,-0.2535067,0.,-0.1088905,0.,-0.1222875,0.000264,0.,0.3434693,0
 .,-0.0124614,0.,0.4489229,0.,-0.9140185,0.2061384,0.,-0.1529152,0.,0.0
 138082,0.,-0.6812081,0.,1.7141946,0.0110564,0.,-0.5107418,0.,-0.046800
 5,0.,0.3621199,0.,-0.8737943\Polar=29.3162316,0.,17.6293204,-4.0748922
 ,0.,31.6020745\Quadrupole=0.1611226,0.6054809,-0.7666035,0.,1.4081124,
 0.\PG=CS [SG(H1N1O3)]\NImag=0\\0.07166550,0.,0.00605852,0.02383306,0.,
 0.43762308,-0.05183586,0.,-0.00476057,0.27995811,0.,-0.00251229,0.,0.,
 0.01229289,0.03263123,0.,-0.42178792,-0.01055314,0.,0.52226459,-0.0251
 9852,0.,-0.01559505,-0.17123462,0.,-0.09117376,0.30376407,0.,-0.004094
 25,0.,0.,-0.01852308,0.,0.,0.04017502,-0.04459442,0.,-0.01945503,0.009
 85772,0.,-0.09751239,0.08158749,0.,0.31886907,-0.00509486,0.,0.0063001
 4,-0.08313461,0.,0.03991609,-0.14379484,0.,-0.03709339,0.54761874,0.,0
 .00788315,0.,0.,0.01951540,0.,0.,-0.04781265,0.,0.,0.05788790,-0.01859
 092,0.,0.01140010,0.00945928,0.,-0.00871634,0.01444814,0.,-0.02676606,
 0.24419588,0.,0.45376385,0.01046373,0.,-0.00977757,0.02624698,0.,0.029
 17959,0.03646390,0.,-0.00975739,-0.31559444,0.,-0.24951238,0.24241982,
 0.,-0.00733513,0.,0.,-0.01077292,0.,0.,0.03025496,0.,0.,-0.03747379,0.
 ,0.,0.02532688,0.00672105,0.,-0.00778023,-0.00400329,0.,0.00575206,0.0
 1073319,0.,-0.17513560,-0.25331871,0.,-0.42968155,0.23986776,0.,0.6068
 4532\\0.00002723,0.,-0.00008514,-0.00039890,0.,0.00173468,-0.00144311,
 0.,-0.00160321,0.00145679,0.,-0.00007098,0.00035798,0.,0.00002465\\\@


    UPON JULIA'S CLOTHES

 WHENAS IN SILKS MY JULIA GOES,
 THEN, THEN, METHINKS, HOW SWEETLY FLOWS
 THAT LIQUEFACTION OF HER CLOTHES.

 NEXT, WHEN I CAST MINE EYES, AND SEE
 THAT BRAVE VIBRATION, EACH WAY FREE,
 O, HOW THAT GLITTERING TAKETH ME!
     -- ROBERT HERRICK, 1648
 Job cpu time:       0 days  1 hours 58 minutes 26.1 seconds.
 Elapsed time:       0 days  0 hours  4 minutes 16.8 seconds.
 File lengths (MBytes):  RWF=   7239 Int=      0 D2E=      0 Chk=      8 Scr=      1
 Normal termination of Gaussian 16 at Sun Mar  6 19:31:59 2022.
