 Entering Gaussian System, Link 0=g16
 Input=hoono_r2_1p406879.gjf
 Output=hoono_r2_1p406879.log
 Initial command:
 /sw/contrib/gaussian/g16/B01/g16/l1.exe "/scr/Gau-19149.inp" -scrdir="/scr/"
 Entering Link 1 = /sw/contrib/gaussian/g16/B01/g16/l1.exe PID=     19150.
  
 Copyright (c) 1988-2017, Gaussian, Inc.  All Rights Reserved.
  
 This is part of the Gaussian(R) 16 program.  It is based on
 the Gaussian(R) 09 system (copyright 2009, Gaussian, Inc.),
 the Gaussian(R) 03 system (copyright 2003, Gaussian, Inc.),
 the Gaussian(R) 98 system (copyright 1998, Gaussian, Inc.),
 the Gaussian(R) 94 system (copyright 1995, Gaussian, Inc.),
 the Gaussian 92(TM) system (copyright 1992, Gaussian, Inc.),
 the Gaussian 90(TM) system (copyright 1990, Gaussian, Inc.),
 the Gaussian 88(TM) system (copyright 1988, Gaussian, Inc.),
 the Gaussian 86(TM) system (copyright 1986, Carnegie Mellon
 University), and the Gaussian 82(TM) system (copyright 1983,
 Carnegie Mellon University). Gaussian is a federally registered
 trademark of Gaussian, Inc.
  
 This software contains proprietary and confidential information,
 including trade secrets, belonging to Gaussian, Inc.
  
 This software is provided under written license and may be
 used, copied, transmitted, or stored only in accord with that
 written license.
  
 The following legend is applicable only to US Government
 contracts under FAR:
  
                    RESTRICTED RIGHTS LEGEND
  
 Use, reproduction and disclosure by the US Government is
 subject to restrictions as set forth in subparagraphs (a)
 and (c) of the Commercial Computer Software - Restricted
 Rights clause in FAR 52.227-19.
  
 Gaussian, Inc.
 340 Quinnipiac St., Bldg. 40, Wallingford CT 06492
  
  
 ---------------------------------------------------------------
 Warning -- This program may not be used in any manner that
 competes with the business of Gaussian, Inc. or will provide
 assistance to any competitor of Gaussian, Inc.  The licensee
 of this program is prohibited from giving any competitor of
 Gaussian, Inc. access to this program.  By using this program,
 the user acknowledges that Gaussian, Inc. is engaged in the
 business of creating and licensing software in the field of
 computational chemistry and represents and warrants to the
 licensee that it is not a competitor of Gaussian, Inc. and that
 it will not use this program in any manner prohibited above.
 ---------------------------------------------------------------
  

 Cite this work as:
 Gaussian 16, Revision B.01,
 M. J. Frisch, G. W. Trucks, H. B. Schlegel, G. E. Scuseria, 
 M. A. Robb, J. R. Cheeseman, G. Scalmani, V. Barone, 
 G. A. Petersson, H. Nakatsuji, X. Li, M. Caricato, A. V. Marenich, 
 J. Bloino, B. G. Janesko, R. Gomperts, B. Mennucci, H. P. Hratchian, 
 J. V. Ortiz, A. F. Izmaylov, J. L. Sonnenberg, D. Williams-Young, 
 F. Ding, F. Lipparini, F. Egidi, J. Goings, B. Peng, A. Petrone, 
 T. Henderson, D. Ranasinghe, V. G. Zakrzewski, J. Gao, N. Rega, 
 G. Zheng, W. Liang, M. Hada, M. Ehara, K. Toyota, R. Fukuda, 
 J. Hasegawa, M. Ishida, T. Nakajima, Y. Honda, O. Kitao, H. Nakai, 
 T. Vreven, K. Throssell, J. A. Montgomery, Jr., J. E. Peralta, 
 F. Ogliaro, M. J. Bearpark, J. J. Heyd, E. N. Brothers, K. N. Kudin, 
 V. N. Staroverov, T. A. Keith, R. Kobayashi, J. Normand, 
 K. Raghavachari, A. P. Rendell, J. C. Burant, S. S. Iyengar, 
 J. Tomasi, M. Cossi, J. M. Millam, M. Klene, C. Adamo, R. Cammi, 
 J. W. Ochterski, R. L. Martin, K. Morokuma, O. Farkas, 
 J. B. Foresman, and D. J. Fox, Gaussian, Inc., Wallingford CT, 2016.
 
 ******************************************
 Gaussian 16:  ES64L-G16RevB.01 20-Dec-2017
                 6-Mar-2022 
 ******************************************
 %nproc=28
 Will use up to   28 processors via shared memory.
 %mem=120GB
 %chk=hoono_r2_1p406879.chk
 ---------------------------------------
 #p freq mp2/aug-cc-pvtz density=current
 ---------------------------------------
 1/10=4,30=1,38=1/1,3;
 2/12=2,17=6,18=5,40=1/2;
 3/5=16,6=1,7=10,11=9,25=1,30=1,71=2,140=1/1,2,3;
 4//1;
 5/5=2,38=5,98=1/2;
 8/6=3,8=1,10=1,19=11,30=-1/1;
 9/15=3,16=-3/6;
 11/6=1,8=1,15=11,17=12,24=-1,27=1,28=-2,29=300,32=6,42=3/1,2,10;
 10/6=2,21=1/2;
 8/6=4,8=1,10=1,19=11,30=-1/11,4;
 10/5=1,20=4/2;
 11/12=2,14=11,16=1,17=2,28=-2,42=3,76=2/2,10,12;
 6/7=2,8=2,9=2,10=2,22=-1/1;
 7/8=1,10=1,12=2,25=1,44=2/1,2,3,16;
 1/10=4,30=1/3;
 99//99;
 Leave Link    1 at Sun Mar  6 18:59:49 2022, MaxMem= 16106127360 cpu:               2.8 elap:               0.1
 (Enter /sw/contrib/gaussian/g16/B01/g16/l101.exe)
 -----
 title
 -----
 Symbolic Z-matrix:
 Charge =  0 Multiplicity = 1
 H
 O                    1    r1
 O                    2    r2       1    a1
 N                    3    r3       2    a2       1    d1       0
 O                    4    r4       3    a3       2    d2       0
       Variables:
  r1                    0.98538                  
  r2                    1.40688                  
  r3                    1.38111                  
  r4                    1.19479                  
  a1                  100.63551                  
  a2                  113.13777                  
  a3                  114.33392                  
  d1                    0.                       
  d2                    0.                       
 
 ITRead=  0  0  0  0  0
 MicOpt= -1 -1 -1 -1 -1
 NAtoms=      5 NQM=        5 NQMF=       0 NMMI=      0 NMMIF=      0
                NMic=       0 NMicF=      0.
                    Isotopes and Nuclear Properties:
 (Nuclear quadrupole moments (NQMom) in fm**2, nuclear magnetic moments (NMagM)
  in nuclear magnetons)

  Atom         1           2           3           4           5
 IAtWgt=           1          16          16          14          16
 AtmWgt=   1.0078250  15.9949146  15.9949146  14.0030740  15.9949146
 NucSpn=           1           0           0           2           0
 AtZEff=  -0.0000000  -0.0000000  -0.0000000  -0.0000000  -0.0000000
 NQMom=    0.0000000   0.0000000   0.0000000   2.0440000   0.0000000
 NMagM=    2.7928460   0.0000000   0.0000000   0.4037610   0.0000000
 AtZNuc=   1.0000000   8.0000000   8.0000000   7.0000000   8.0000000
 Leave Link  101 at Sun Mar  6 18:59:49 2022, MaxMem= 16106127360 cpu:               3.0 elap:               0.1
 (Enter /sw/contrib/gaussian/g16/B01/g16/l103.exe)

 GradGradGradGradGradGradGradGradGradGradGradGradGradGradGradGradGradGrad
 Berny optimization.
 Initialization pass.
                       ----------------------------
                       !    Initial Parameters    !
                       ! (Angstroms and Degrees)  !
 ----------------------                            ----------------------
 !      Name          Value   Derivative information (Atomic Units)     !
 ------------------------------------------------------------------------
 !       r1          0.9854   calculate D2E/DX2 analytically            !
 !       r2          1.4069   calculate D2E/DX2 analytically            !
 !       r3          1.3811   calculate D2E/DX2 analytically            !
 !       r4          1.1948   calculate D2E/DX2 analytically            !
 !       a1        100.6355   calculate D2E/DX2 analytically            !
 !       a2        113.1378   calculate D2E/DX2 analytically            !
 !       a3        114.3339   calculate D2E/DX2 analytically            !
 !       d1          0.0      calculate D2E/DX2 analytically            !
 !       d2          0.0      calculate D2E/DX2 analytically            !
 ------------------------------------------------------------------------
 Trust Radius=3.00D-01 FncErr=1.00D-07 GrdErr=1.00D-07 EigMax=2.50D+02 EigMin=1.00D-04
 Number of steps in this run=      2 maximum allowed number of steps=      2.
 GradGradGradGradGradGradGradGradGradGradGradGradGradGradGradGradGradGrad

 Leave Link  103 at Sun Mar  6 18:59:49 2022, MaxMem= 16106127360 cpu:               0.5 elap:               0.0
 (Enter /sw/contrib/gaussian/g16/B01/g16/l202.exe)
                          Input orientation:                          
 ---------------------------------------------------------------------
 Center     Atomic      Atomic             Coordinates (Angstroms)
 Number     Number       Type             X           Y           Z
 ---------------------------------------------------------------------
      1          1           0        0.000000    0.000000    0.000000
      2          8           0        0.000000    0.000000    0.985377
      3          8           0        1.382711    0.000000    1.245031
      4          7           0        2.150479    0.000000    0.096994
      5          8           0        1.519235    0.000000   -0.917427
 ---------------------------------------------------------------------
                    Distance matrix (angstroms):
                    1          2          3          4          5
     1  H    0.000000
     2  O    0.985377   0.000000
     3  O    1.860643   1.406879   0.000000
     4  N    2.152666   2.326754   1.381108   0.000000
     5  O    1.774753   2.434900   2.166763   1.194788   0.000000
 Stoichiometry    HNO3
 Framework group  CS[SG(HNO3)]
 Deg. of freedom     7
 Full point group                 CS      NOp   2
 Largest Abelian subgroup         CS      NOp   2
 Largest concise Abelian subgroup C1      NOp   1
                         Standard orientation:                         
 ---------------------------------------------------------------------
 Center     Atomic      Atomic             Coordinates (Angstroms)
 Number     Number       Type             X           Y           Z
 ---------------------------------------------------------------------
      1          1           0        1.099348   -0.586297    0.000000
      2          8           0        1.300557    0.378318    0.000000
      3          8           0       -0.000000    0.914844    0.000000
      4          7           0       -0.986016   -0.052229   -0.000000
      5          8           0       -0.575212   -1.174174   -0.000000
 ---------------------------------------------------------------------
 Rotational constants (GHZ):          21.6523632           8.1609471           5.9270101
 Leave Link  202 at Sun Mar  6 18:59:49 2022, MaxMem= 16106127360 cpu:               0.5 elap:               0.0
 (Enter /sw/contrib/gaussian/g16/B01/g16/l301.exe)
 Standard basis: Aug-CC-pVTZ (5D, 7F)
 Ernie: Thresh=  0.10000D-02 Tol=  0.10000D-05 Strict=F.
 Ernie:  12 primitive shells out of 131 were deleted.
 There are   166 symmetry adapted cartesian basis functions of A'  symmetry.
 There are    79 symmetry adapted cartesian basis functions of A"  symmetry.
 There are   136 symmetry adapted basis functions of A'  symmetry.
 There are    71 symmetry adapted basis functions of A"  symmetry.
   207 basis functions,   315 primitive gaussians,   245 cartesian basis functions
    16 alpha electrons       16 beta electrons
       nuclear repulsion energy       123.2852495590 Hartrees.
 IExCor=    0 DFT=F Ex=HF Corr=None ExCW=0 ScaHFX=  1.000000
 ScaDFX=  1.000000  1.000000  1.000000  1.000000 ScalE2=  1.000000  1.000000
 IRadAn=      5 IRanWt=     -1 IRanGd=            0 ICorTp=0 IEmpDi=  4
 NAtoms=    5 NActive=    5 NUniq=    5 SFac= 1.00D+00 NAtFMM=   60 NAOKFM=F Big=F
 Integral buffers will be    131072 words long.
 Raffenetti 1 integral format.
 Two-electron integral symmetry is turned on.
 Leave Link  301 at Sun Mar  6 18:59:49 2022, MaxMem= 16106127360 cpu:               1.7 elap:               0.1
 (Enter /sw/contrib/gaussian/g16/B01/g16/l302.exe)
 NPDir=0 NMtPBC=     1 NCelOv=     1 NCel=       1 NClECP=     1 NCelD=      1
         NCelK=      1 NCelE2=     1 NClLst=     1 CellRange=     0.0.
 One-electron integrals computed using PRISM.
 One-electron integral symmetry used in STVInt
 NBasis=   207 RedAO= T EigKep=  1.30D-04  NBF=   136    71
 NBsUse=   207 1.00D-06 EigRej= -1.00D+00 NBFU=   136    71
 Leave Link  302 at Sun Mar  6 18:59:50 2022, MaxMem= 16106127360 cpu:               6.8 elap:               0.3
 (Enter /sw/contrib/gaussian/g16/B01/g16/l303.exe)
 DipDrv:  MaxL=1.
 Leave Link  303 at Sun Mar  6 18:59:50 2022, MaxMem= 16106127360 cpu:               0.9 elap:               0.1
 (Enter /sw/contrib/gaussian/g16/B01/g16/l401.exe)
 ExpMin= 2.53D-02 ExpMax= 1.53D+04 ExpMxC= 5.22D+02 IAcc=3 IRadAn=         5 AccDes= 0.00D+00
 Harris functional with IExCor=  205 and IRadAn=       5 diagonalized for initial guess.
 HarFok:  IExCor=  205 AccDes= 0.00D+00 IRadAn=         5 IDoV= 1 UseB2=F ITyADJ=14
 ICtDFT=  3500011 ScaDFX=  1.000000  1.000000  1.000000  1.000000
 FoFCou: FMM=F IPFlag=           0 FMFlag=      100000 FMFlg1=           0
         NFxFlg=           0 DoJE=T BraDBF=F KetDBF=T FulRan=T
         wScrn=  0.000000 ICntrl=       500 IOpCl=  0 I1Cent=   200000004 NGrid=           0
         NMat0=    1 NMatS0=      1 NMatT0=    0 NMatD0=    1 NMtDS0=    0 NMtDT0=    0
 Petite list used in FoFCou.
 Harris En= -279.645340036045    
 JPrj=0 DoOrth=F DoCkMO=F.
 Initial guess orbital symmetries:
       Occupied  (A') (A') (A') (A') (A') (A') (A') (A') (A') (A')
                 (A") (A') (A") (A') (A") (A')
       Virtual   (A") (A') (A') (A') (A') (A") (A') (A') (A') (A')
                 (A") (A') (A") (A') (A') (A") (A') (A') (A") (A')
                 (A') (A') (A') (A') (A") (A') (A') (A') (A") (A')
                 (A') (A") (A") (A') (A') (A") (A') (A") (A') (A")
                 (A') (A") (A') (A") (A') (A') (A') (A") (A') (A')
                 (A') (A") (A') (A") (A') (A") (A') (A') (A') (A")
                 (A') (A') (A") (A') (A') (A') (A") (A") (A') (A')
                 (A") (A') (A") (A") (A') (A') (A") (A') (A') (A')
                 (A") (A') (A') (A") (A') (A") (A') (A") (A') (A')
                 (A') (A") (A') (A") (A') (A') (A") (A') (A") (A')
                 (A") (A') (A') (A") (A") (A') (A') (A') (A") (A')
                 (A") (A') (A') (A') (A") (A') (A') (A') (A") (A')
                 (A") (A') (A') (A") (A") (A") (A") (A') (A') (A')
                 (A') (A') (A') (A") (A') (A") (A') (A") (A') (A')
                 (A") (A") (A') (A') (A') (A") (A') (A') (A') (A")
                 (A') (A') (A') (A") (A') (A") (A") (A') (A') (A")
                 (A') (A") (A") (A') (A") (A') (A') (A") (A") (A')
                 (A") (A") (A") (A') (A") (A') (A') (A') (A') (A")
                 (A') (A') (A') (A') (A') (A') (A') (A') (A') (A')
                 (A')
 The electronic state of the initial guess is 1-A'.
 Leave Link  401 at Sun Mar  6 18:59:50 2022, MaxMem= 16106127360 cpu:               7.0 elap:               0.3
 (Enter /sw/contrib/gaussian/g16/B01/g16/l502.exe)
 Keep R1 ints in memory in symmetry-blocked form, NReq=348887737.
 FoFCou: FMM=F IPFlag=           0 FMFlag=           0 FMFlg1=           0
         NFxFlg=           0 DoJE=F BraDBF=F KetDBF=F FulRan=T
         wScrn=  0.000000 ICntrl=       600 IOpCl=  0 I1Cent=           0 NGrid=           0
         NMat0=    1 NMatS0=  21528 NMatT0=    0 NMatD0=    1 NMtDS0=    0 NMtDT0=    0
 Petite list used in FoFCou.
 Closed shell SCF:
 Using DIIS extrapolation, IDIIS=  1040.
 NGot= 16106127360 LenX= 15988850015 LenY= 15988789549
 Requested convergence on RMS density matrix=1.00D-08 within 128 cycles.
 Requested convergence on MAX density matrix=1.00D-06.
 Requested convergence on             energy=1.00D-06.
 No special actions if energy rises.

 Cycle   1  Pass 1  IDiag  1:
 E= -279.367019223109    
 DIIS: error= 2.73D-02 at cycle   1 NSaved=   1.
 NSaved= 1 IEnMin= 1 EnMin= -279.367019223109     IErMin= 1 ErrMin= 2.73D-02
 ErrMax= 2.73D-02  0.00D+00 EMaxC= 1.00D-01 BMatC= 4.50D-01 BMatP= 4.50D-01
 IDIUse=3 WtCom= 7.27D-01 WtEn= 2.73D-01
 Coeff-Com:  0.100D+01
 Coeff-En:   0.100D+01
 Coeff:      0.100D+01
 Gap=     0.497 Goal=   None    Shift=    0.000
 GapD=    0.497 DampG=2.000 DampE=0.500 DampFc=1.0000 IDamp=-1.
 RMSDP=1.66D-03 MaxDP=8.79D-02              OVMax= 1.20D-01

 Cycle   2  Pass 1  IDiag  1:
 E= -279.449830985646     Delta-E=       -0.082811762537 Rises=F Damp=F
 DIIS: error= 1.91D-02 at cycle   2 NSaved=   2.
 NSaved= 2 IEnMin= 2 EnMin= -279.449830985646     IErMin= 2 ErrMin= 1.91D-02
 ErrMax= 1.91D-02  0.00D+00 EMaxC= 1.00D-01 BMatC= 8.22D-02 BMatP= 4.50D-01
 IDIUse=3 WtCom= 8.09D-01 WtEn= 1.91D-01
 Coeff-Com:  0.212D+00 0.788D+00
 Coeff-En:   0.526D-01 0.947D+00
 Coeff:      0.182D+00 0.818D+00
 Gap=     0.555 Goal=   None    Shift=    0.000
 RMSDP=9.57D-04 MaxDP=3.69D-02 DE=-8.28D-02 OVMax= 9.13D-02

 Cycle   3  Pass 1  IDiag  1:
 E= -279.485199367393     Delta-E=       -0.035368381746 Rises=F Damp=F
 DIIS: error= 1.09D-02 at cycle   3 NSaved=   3.
 NSaved= 3 IEnMin= 3 EnMin= -279.485199367393     IErMin= 3 ErrMin= 1.09D-02
 ErrMax= 1.09D-02  0.00D+00 EMaxC= 1.00D-01 BMatC= 3.08D-02 BMatP= 8.22D-02
 IDIUse=3 WtCom= 8.91D-01 WtEn= 1.09D-01
 Coeff-Com: -0.343D-01 0.370D+00 0.665D+00
 Coeff-En:   0.000D+00 0.226D+00 0.774D+00
 Coeff:     -0.305D-01 0.354D+00 0.677D+00
 Gap=     0.537 Goal=   None    Shift=    0.000
 RMSDP=4.08D-04 MaxDP=1.60D-02 DE=-3.54D-02 OVMax= 3.86D-02

 Cycle   4  Pass 1  IDiag  1:
 E= -279.506134718271     Delta-E=       -0.020935350879 Rises=F Damp=F
 DIIS: error= 1.67D-03 at cycle   4 NSaved=   4.
 NSaved= 4 IEnMin= 4 EnMin= -279.506134718271     IErMin= 4 ErrMin= 1.67D-03
 ErrMax= 1.67D-03  0.00D+00 EMaxC= 1.00D-01 BMatC= 5.67D-04 BMatP= 3.08D-02
 IDIUse=3 WtCom= 9.83D-01 WtEn= 1.67D-02
 Coeff-Com: -0.115D-01 0.458D-01 0.147D+00 0.819D+00
 Coeff-En:   0.000D+00 0.000D+00 0.000D+00 0.100D+01
 Coeff:     -0.113D-01 0.450D-01 0.144D+00 0.822D+00
 Gap=     0.525 Goal=   None    Shift=    0.000
 RMSDP=9.85D-05 MaxDP=2.20D-03 DE=-2.09D-02 OVMax= 1.16D-02

 Cycle   5  Pass 1  IDiag  1:
 E= -279.506930568261     Delta-E=       -0.000795849990 Rises=F Damp=F
 DIIS: error= 1.12D-03 at cycle   5 NSaved=   5.
 NSaved= 5 IEnMin= 5 EnMin= -279.506930568261     IErMin= 5 ErrMin= 1.12D-03
 ErrMax= 1.12D-03  0.00D+00 EMaxC= 1.00D-01 BMatC= 1.01D-04 BMatP= 5.67D-04
 IDIUse=3 WtCom= 9.89D-01 WtEn= 1.12D-02
 Coeff-Com:  0.529D-02-0.660D-01-0.109D+00 0.581D-01 0.111D+01
 Coeff-En:   0.000D+00 0.000D+00 0.000D+00 0.000D+00 0.100D+01
 Coeff:      0.524D-02-0.653D-01-0.108D+00 0.574D-01 0.111D+01
 Gap=     0.529 Goal=   None    Shift=    0.000
 RMSDP=7.98D-05 MaxDP=2.12D-03 DE=-7.96D-04 OVMax= 1.31D-02

 Cycle   6  Pass 1  IDiag  1:
 E= -279.507291888315     Delta-E=       -0.000361320054 Rises=F Damp=F
 DIIS: error= 3.46D-04 at cycle   6 NSaved=   6.
 NSaved= 6 IEnMin= 6 EnMin= -279.507291888315     IErMin= 6 ErrMin= 3.46D-04
 ErrMax= 3.46D-04  0.00D+00 EMaxC= 1.00D-01 BMatC= 2.45D-05 BMatP= 1.01D-04
 IDIUse=3 WtCom= 9.97D-01 WtEn= 3.46D-03
 Coeff-Com:  0.192D-02-0.745D-02-0.184D-01-0.192D+00 0.240D-01 0.119D+01
 Coeff-En:   0.000D+00 0.000D+00 0.000D+00 0.000D+00 0.000D+00 0.100D+01
 Coeff:      0.191D-02-0.742D-02-0.183D-01-0.191D+00 0.239D-01 0.119D+01
 Gap=     0.529 Goal=   None    Shift=    0.000
 RMSDP=4.75D-05 MaxDP=1.10D-03 DE=-3.61D-04 OVMax= 6.30D-03

 Cycle   7  Pass 1  IDiag  1:
 E= -279.507379828943     Delta-E=       -0.000087940628 Rises=F Damp=F
 DIIS: error= 1.29D-04 at cycle   7 NSaved=   7.
 NSaved= 7 IEnMin= 7 EnMin= -279.507379828943     IErMin= 7 ErrMin= 1.29D-04
 ErrMax= 1.29D-04  0.00D+00 EMaxC= 1.00D-01 BMatC= 3.53D-06 BMatP= 2.45D-05
 IDIUse=3 WtCom= 9.99D-01 WtEn= 1.29D-03
 Coeff-Com: -0.113D-02 0.118D-01 0.255D-01 0.214D-01-0.183D+00-0.179D+00
 Coeff-Com:  0.130D+01
 Coeff-En:   0.000D+00 0.000D+00 0.000D+00 0.000D+00 0.000D+00 0.000D+00
 Coeff-En:   0.100D+01
 Coeff:     -0.113D-02 0.117D-01 0.255D-01 0.213D-01-0.183D+00-0.179D+00
 Coeff:      0.130D+01
 Gap=     0.529 Goal=   None    Shift=    0.000
 RMSDP=1.79D-05 MaxDP=5.36D-04 DE=-8.79D-05 OVMax= 2.43D-03

 Cycle   8  Pass 1  IDiag  1:
 E= -279.507392026464     Delta-E=       -0.000012197521 Rises=F Damp=F
 DIIS: error= 4.63D-05 at cycle   8 NSaved=   8.
 NSaved= 8 IEnMin= 8 EnMin= -279.507392026464     IErMin= 8 ErrMin= 4.63D-05
 ErrMax= 4.63D-05  0.00D+00 EMaxC= 1.00D-01 BMatC= 5.70D-07 BMatP= 3.53D-06
 IDIUse=1 WtCom= 1.00D+00 WtEn= 0.00D+00
 Coeff-Com: -0.547D-03 0.406D-02 0.951D-02 0.252D-01-0.559D-01-0.189D+00
 Coeff-Com:  0.348D+00 0.859D+00
 Coeff:     -0.547D-03 0.406D-02 0.951D-02 0.252D-01-0.559D-01-0.189D+00
 Coeff:      0.348D+00 0.859D+00
 Gap=     0.529 Goal=   None    Shift=    0.000
 RMSDP=5.27D-06 MaxDP=1.50D-04 DE=-1.22D-05 OVMax= 6.25D-04

 Cycle   9  Pass 1  IDiag  1:
 E= -279.507393338178     Delta-E=       -0.000001311714 Rises=F Damp=F
 DIIS: error= 2.41D-05 at cycle   9 NSaved=   9.
 NSaved= 9 IEnMin= 9 EnMin= -279.507393338178     IErMin= 9 ErrMin= 2.41D-05
 ErrMax= 2.41D-05  0.00D+00 EMaxC= 1.00D-01 BMatC= 1.19D-07 BMatP= 5.70D-07
 IDIUse=1 WtCom= 1.00D+00 WtEn= 0.00D+00
 Coeff-Com:  0.242D-03-0.262D-02-0.539D-02-0.626D-02 0.479D-01 0.499D-01
 Coeff-Com: -0.346D+00 0.528D-01 0.121D+01
 Coeff:      0.242D-03-0.262D-02-0.539D-02-0.626D-02 0.479D-01 0.499D-01
 Coeff:     -0.346D+00 0.528D-01 0.121D+01
 Gap=     0.529 Goal=   None    Shift=    0.000
 RMSDP=2.48D-06 MaxDP=6.79D-05 DE=-1.31D-06 OVMax= 2.61D-04

 Cycle  10  Pass 1  IDiag  1:
 E= -279.507393603004     Delta-E=       -0.000000264826 Rises=F Damp=F
 DIIS: error= 5.65D-06 at cycle  10 NSaved=  10.
 NSaved=10 IEnMin=10 EnMin= -279.507393603004     IErMin=10 ErrMin= 5.65D-06
 ErrMax= 5.65D-06  0.00D+00 EMaxC= 1.00D-01 BMatC= 8.23D-09 BMatP= 1.19D-07
 IDIUse=1 WtCom= 1.00D+00 WtEn= 0.00D+00
 Coeff-Com: -0.338D-04 0.456D-03 0.111D-02-0.189D-02-0.102D-01 0.582D-02
 Coeff-Com:  0.684D-01-0.619D-01-0.403D+00 0.140D+01
 Coeff:     -0.338D-04 0.456D-03 0.111D-02-0.189D-02-0.102D-01 0.582D-02
 Coeff:      0.684D-01-0.619D-01-0.403D+00 0.140D+01
 Gap=     0.529 Goal=   None    Shift=    0.000
 RMSDP=6.93D-07 MaxDP=2.55D-05 DE=-2.65D-07 OVMax= 7.53D-05

 Cycle  11  Pass 1  IDiag  1:
 E= -279.507393627244     Delta-E=       -0.000000024240 Rises=F Damp=F
 DIIS: error= 2.25D-06 at cycle  11 NSaved=  11.
 NSaved=11 IEnMin=11 EnMin= -279.507393627244     IErMin=11 ErrMin= 2.25D-06
 ErrMax= 2.25D-06  0.00D+00 EMaxC= 1.00D-01 BMatC= 8.36D-10 BMatP= 8.23D-09
 IDIUse=1 WtCom= 1.00D+00 WtEn= 0.00D+00
 Coeff-Com: -0.172D-04 0.177D-03 0.369D-03 0.954D-03-0.245D-02-0.731D-02
 Coeff-Com:  0.208D-01 0.178D-01-0.551D-01-0.315D+00 0.134D+01
 Coeff:     -0.172D-04 0.177D-03 0.369D-03 0.954D-03-0.245D-02-0.731D-02
 Coeff:      0.208D-01 0.178D-01-0.551D-01-0.315D+00 0.134D+01
 Gap=     0.529 Goal=   None    Shift=    0.000
 RMSDP=2.41D-07 MaxDP=9.03D-06 DE=-2.42D-08 OVMax= 2.86D-05

 Cycle  12  Pass 1  IDiag  1:
 E= -279.507393630204     Delta-E=       -0.000000002959 Rises=F Damp=F
 DIIS: error= 7.15D-07 at cycle  12 NSaved=  12.
 NSaved=12 IEnMin=12 EnMin= -279.507393630204     IErMin=12 ErrMin= 7.15D-07
 ErrMax= 7.15D-07  0.00D+00 EMaxC= 1.00D-01 BMatC= 8.71D-11 BMatP= 8.36D-10
 IDIUse=1 WtCom= 1.00D+00 WtEn= 0.00D+00
 Coeff-Com:  0.270D-05-0.468D-04-0.100D-03 0.121D-03 0.115D-02-0.695D-03
 Coeff-Com: -0.749D-02 0.698D-02 0.400D-01-0.109D+00-0.199D+00 0.127D+01
 Coeff:      0.270D-05-0.468D-04-0.100D-03 0.121D-03 0.115D-02-0.695D-03
 Coeff:     -0.749D-02 0.698D-02 0.400D-01-0.109D+00-0.199D+00 0.127D+01
 Gap=     0.529 Goal=   None    Shift=    0.000
 RMSDP=8.43D-08 MaxDP=2.81D-06 DE=-2.96D-09 OVMax= 9.96D-06

 Cycle  13  Pass 1  IDiag  1:
 E= -279.507393630508     Delta-E=       -0.000000000304 Rises=F Damp=F
 DIIS: error= 1.69D-07 at cycle  13 NSaved=  13.
 NSaved=13 IEnMin=13 EnMin= -279.507393630508     IErMin=13 ErrMin= 1.69D-07
 ErrMax= 1.69D-07  0.00D+00 EMaxC= 1.00D-01 BMatC= 7.00D-12 BMatP= 8.71D-11
 IDIUse=1 WtCom= 1.00D+00 WtEn= 0.00D+00
 Coeff-Com:  0.135D-05-0.130D-04-0.193D-04-0.121D-03 0.753D-04 0.905D-03
 Coeff-Com: -0.122D-02-0.233D-02-0.105D-02 0.507D-01-0.121D+00-0.148D+00
 Coeff-Com:  0.122D+01
 Coeff:      0.135D-05-0.130D-04-0.193D-04-0.121D-03 0.753D-04 0.905D-03
 Coeff:     -0.122D-02-0.233D-02-0.105D-02 0.507D-01-0.121D+00-0.148D+00
 Coeff:      0.122D+01
 Gap=     0.529 Goal=   None    Shift=    0.000
 RMSDP=2.16D-08 MaxDP=6.43D-07 DE=-3.04D-10 OVMax= 2.02D-06

 Cycle  14  Pass 1  IDiag  1:
 E= -279.507393630527     Delta-E=       -0.000000000019 Rises=F Damp=F
 DIIS: error= 4.10D-08 at cycle  14 NSaved=  14.
 NSaved=14 IEnMin=14 EnMin= -279.507393630527     IErMin=14 ErrMin= 4.10D-08
 ErrMax= 4.10D-08  0.00D+00 EMaxC= 1.00D-01 BMatC= 4.45D-13 BMatP= 7.00D-12
 IDIUse=1 WtCom= 1.00D+00 WtEn= 0.00D+00
 Coeff-Com: -0.282D-06 0.427D-05 0.874D-05-0.565D-05-0.111D-03 0.741D-04
 Coeff-Com:  0.630D-03-0.417D-03-0.349D-02 0.872D-02 0.149D-01-0.916D-01
 Coeff-Com:  0.390D-02 0.107D+01
 Coeff:     -0.282D-06 0.427D-05 0.874D-05-0.565D-05-0.111D-03 0.741D-04
 Coeff:      0.630D-03-0.417D-03-0.349D-02 0.872D-02 0.149D-01-0.916D-01
 Coeff:      0.390D-02 0.107D+01
 Gap=     0.529 Goal=   None    Shift=    0.000
 RMSDP=4.08D-09 MaxDP=9.70D-08 DE=-1.90D-11 OVMax= 4.30D-07

 SCF Done:  E(RHF) =  -279.507393631     A.U. after   14 cycles
            NFock= 14  Conv=0.41D-08     -V/T= 2.0021
 KE= 2.789224605217D+02 PE=-9.074447892111D+02 EE= 2.257296854999D+02
 Leave Link  502 at Sun Mar  6 18:59:54 2022, MaxMem= 16106127360 cpu:              56.7 elap:               3.7
 (Enter /sw/contrib/gaussian/g16/B01/g16/l801.exe)
 ExpMin= 2.53D-02 ExpMax= 1.53D+04 ExpMxC= 5.22D+02 IAcc=3 IRadAn=         5 AccDes= 0.00D+00
 HarFok:  IExCor=  205 AccDes= 0.00D+00 IRadAn=         5 IDoV=-2 UseB2=F ITyADJ=14
 ICtDFT= 12500011 ScaDFX=  1.000000  1.000000  1.000000  1.000000
 Largest valence mixing into a core orbital is  2.07D-04
 Largest core mixing into a valence orbital is  3.04D-05
 Range of M.O.s used for correlation:     5   207
 NBasis=   207 NAE=    16 NBE=    16 NFC=     4 NFV=     0
 NROrb=    203 NOA=    12 NOB=    12 NVA=   191 NVB=   191

 **** Warning!!: The largest alpha MO coefficient is  0.16616140D+02

 Leave Link  801 at Sun Mar  6 18:59:54 2022, MaxMem= 16106127360 cpu:               3.1 elap:               0.2
 (Enter /sw/contrib/gaussian/g16/B01/g16/l906.exe)
 Frozen-core derivative calculation, NFC=   4 NFV=   0.
 FulOut=F Deriv=T AODrv=T NAtomX=     5
   MMem=           0  MDisk=          12 MDiskD=          12
  W3Min=      811440 MinDsk=     2425030 NBas6D=         245
 NBas2D=       30762    NTT=       30135    LW2=     7400000
    MDV= 16105571476 MDiskM=      328644 NBas2p=       30759
 Disk-based method using ON**2 memory for 12 occupieds at a time.
 Permanent disk used for amplitudes=    11516536 words.
 Estimated scratch disk usage=   321863743 words.
 IMap=   1   2   3   4   5   6   7   8   9  10  11  12  13  14  15  16
 Actual    scratch disk usage=   310892607 words.
 JobTyp=1 Pass  1:  I=   5 to  16 NPSUse= 28 ParTrn=T ParDer=T DoDerP=T.
 (rs|ai) integrals will be sorted in core.
 Spin components of T(2) and E(2):
     alpha-alpha T2 =       0.3465860520D-01 E2=     -0.1245274276D+00
     alpha-beta  T2 =       0.1832729719D+00 E2=     -0.6985971122D+00
     beta-beta   T2 =       0.3465860520D-01 E2=     -0.1245274276D+00
 The integrals were generated   1 times.
 ANorm=    0.1119191754D+01
 E2 =    -0.9476519674D+00 EUMP2 =    -0.28045504559796D+03
 Leave Link  906 at Sun Mar  6 19:01:31 2022, MaxMem= 16106127360 cpu:            2717.7 elap:              97.2
 (Enter /sw/contrib/gaussian/g16/B01/g16/l1101.exe)
 Using compressed Sx but separate Hx and Fx, NAtomX=     5.
 Will process      6 centers per pass.
 Leave Link 1101 at Sun Mar  6 19:01:31 2022, MaxMem= 16106127360 cpu:               6.1 elap:               0.3
 (Enter /sw/contrib/gaussian/g16/B01/g16/l1102.exe)
 Leave Link 1102 at Sun Mar  6 19:01:31 2022, MaxMem= 16106127360 cpu:               0.6 elap:               0.0
 (Enter /sw/contrib/gaussian/g16/B01/g16/l1110.exe)
 Forming Gx(P) for the SCF density, NAtomX=     5.
 Integral derivatives from FoFJK, PRISM(SPDF).
 Do as many integral derivatives as possible in FoFJK.
 G2DrvN: MDV=   16106126844.
 G2DrvN: will do     6 centers at a time, making    1 passes.
 Calling FoFCou, ICntrl=  3107 FMM=F I1Cent=   0 AccDes= 0.00D+00.
 FoFJK:  IHMeth= 1 ICntrl=    3107 DoSepK=F KAlg= 0 I1Cent=           0 FoldK=F
 IRaf=         0 NMat=       1 IRICut=       1 DoRegI=T DoRafI=F ISym2E= 1 IDoP0=0 IntGTp=1.
 FoFCou: FMM=F IPFlag=           0 FMFlag=      100000 FMFlg1=           0
         NFxFlg=           0 DoJE=F BraDBF=F KetDBF=F FulRan=T
         wScrn=  0.000000 ICntrl=      3107 IOpCl=  0 I1Cent=           0 NGrid=           0
         NMat0=    1 NMatS0=      1 NMatT0=    0 NMatD0=    1 NMtDS0=    0 NMtDT0=    0
 Petite list used in FoFCou.
 End of G2Drv F.D. properties file   721 does not exist.
 End of G2Drv F.D. properties file   722 does not exist.
 End of G2Drv F.D. properties file   788 does not exist.
 Leave Link 1110 at Sun Mar  6 19:01:34 2022, MaxMem= 16106127360 cpu:              86.6 elap:               3.1
 (Enter /sw/contrib/gaussian/g16/B01/g16/l1002.exe)
 Minotr:  Closed shell wavefunction.
          IDoAtm=11111
          Frozen-core window.
          Direct CPHF calculation.
          Differentiating once with respect to electric field.
                with respect to dipole field.
          Differentiating once with respect to nuclear coordinates.
          Requested convergence is 1.0D-08 RMS, and 1.0D-07 maximum.
          Secondary convergence is 1.0D-12 RMS, and 1.0D-12 maximum.
          NewPWx=T KeepS1=T KeepF1=T KeepIn=T MapXYZ=F SortEE=F KeepMc=T.
 Keep R1 ints in memory in symmetry-blocked form, NReq=348888983.
 FoFCou: FMM=F IPFlag=           0 FMFlag=           0 FMFlg1=           0
         NFxFlg=           0 DoJE=F BraDBF=F KetDBF=F FulRan=T
         wScrn=  0.000000 ICntrl=       600 IOpCl=  0 I1Cent=           0 NGrid=           0
         NMat0=    1 NMatS0=  21528 NMatT0=    0 NMatD0=    1 NMtDS0=    0 NMtDT0=    0
 Petite list used in FoFCou.
          MDV=   16106127360 using IRadAn=       1.
          Solving linear equations simultaneously, MaxMat=       0.
          There are    18 degrees of freedom in the 1st order CPHF.  IDoFFX=6 NUNeed=    18.
     15 vectors produced by pass  0 Test12= 1.70D-14 5.56D-09 XBig12= 7.89D+00 1.23D+00.
 AX will form    15 AO Fock derivatives at one time.
     15 vectors produced by pass  1 Test12= 1.70D-14 5.56D-09 XBig12= 1.35D+00 2.05D-01.
     15 vectors produced by pass  2 Test12= 1.70D-14 5.56D-09 XBig12= 6.40D-02 5.88D-02.
     15 vectors produced by pass  3 Test12= 1.70D-14 5.56D-09 XBig12= 1.89D-03 9.75D-03.
     15 vectors produced by pass  4 Test12= 1.70D-14 5.56D-09 XBig12= 3.76D-05 1.22D-03.
     15 vectors produced by pass  5 Test12= 1.70D-14 5.56D-09 XBig12= 5.31D-07 1.16D-04.
     15 vectors produced by pass  6 Test12= 1.70D-14 5.56D-09 XBig12= 4.23D-09 1.23D-05.
     14 vectors produced by pass  7 Test12= 1.70D-14 5.56D-09 XBig12= 3.30D-11 7.18D-07.
      3 vectors produced by pass  8 Test12= 1.70D-14 5.56D-09 XBig12= 2.38D-13 6.03D-08.
      1 vectors produced by pass  9 Test12= 1.70D-14 5.56D-09 XBig12= 1.64D-15 6.74D-09.
 InvSVY:  IOpt=1 It=  1 EMax= 1.11D-15
 Solved reduced A of dimension   123 with    15 vectors.
 FullF1:  Do perturbations      1 to      18.
 Saving first derivative matrices.
 End of Minotr F.D. properties file   721 does not exist.
 End of Minotr F.D. properties file   722 does not exist.
 End of Minotr F.D. properties file   788 does not exist.
 Leave Link 1002 at Sun Mar  6 19:01:37 2022, MaxMem= 16106127360 cpu:              76.4 elap:               2.9
 (Enter /sw/contrib/gaussian/g16/B01/g16/l811.exe)
 MDV= 16106127360.
 Form MO integral derivatives with frozen-active canonical formalism.
 MOERI=1 MOERIx=1 NAtoms=     5 NAtomX=     5.
 Discarding MO integrals.
 MO basis two electron integral derivatives will not be stored on disk.
 IAlg= 3 DoFC=T DoPWx=T Debug=F.
 Frozen-core window:  NFC=   4 NFV=   0.
 Reordered first order wavefunction length =     18678272
 In DefCFB: NBatch=  1 ICI= 16 ICA=191 LFMax= 96
            Large arrays: LIAPS=   619940160 LIARS=   288257200 words.
 In StABat: MaxSiz= 55 MinSiz= 25 NAtomB=  5
 DoIAMN: NPSUse= 28.
 Leave Link  811 at Sun Mar  6 19:02:58 2022, MaxMem= 16106127360 cpu:            2262.4 elap:              80.9
 (Enter /sw/contrib/gaussian/g16/B01/g16/l804.exe)
 Frozen-core window:  NFC=   4 NFV=   0.
 Closed-shell transformation, MDV= 16106127360 ITran=4 ISComp=1.
 Semi-Direct transformation.
 ModeAB=           2 MOrb=            16 LenV=   16104919827
 LASXX=     67341636 LTotXX=    67341636 LenRXX=    67341636
 LTotAB=    68301760 MaxLAS=    99807120 LenRXY=    99807120
 NonZer=   134683272 LenScr=   202817536 LnRSAI=           0
 LnScr1=           0 LExtra=           0 Total=    369966292
 MaxDsk=          -1 SrtSym=           F ITran=            4
 DoSDTr:  NPSUse= 28
 JobTyp=0 Pass  1:  I=   1 to  16.
 (rs|ai) integrals will be sorted in core.
 Complete sort for first half transformation.
 First half transformation complete.
 Begin second half transformation for I=  10.
 Begin second half transformation for I=  10.
 Complete sort for second half transformation.
 Second half transformation complete.
 Spin components of T(2) and E(2):
     alpha-alpha T2 =       0.3465860520D-01 E2=     -0.1245274276D+00
     alpha-beta  T2 =       0.1832729719D+00 E2=     -0.6985971122D+00
     beta-beta   T2 =       0.3465860520D-01 E2=     -0.1245274276D+00
 ANorm=    0.1582776157D+01
 E2 =    -0.9476519674D+00 EUMP2 =    -0.28045504559796D+03
 Leave Link  804 at Sun Mar  6 19:03:14 2022, MaxMem= 16106127360 cpu:             433.3 elap:              15.5
 (Enter /sw/contrib/gaussian/g16/B01/g16/l1002.exe)
 Minotr:  Closed shell wavefunction.
          Computing MP2/KS-MP2 derivatives.
          Using Z-Vector for PSCF gradient.
          Skipping F1 and S1 gradient terms here.
          IDoAtm=11111
          Frozen-core window.
          Using MO integrals in the linear equations.
          Forming densities via direct SCF.
          Differentiating once with respect to electric field.
                with respect to dipole field.
          Differentiating once with respect to nuclear coordinates.
          Using symmetry in CPHF.
          Requested convergence is 1.0D-10 RMS, and 1.0D-09 maximum.
          NewPWx=F KeepS1=T KeepF1=T KeepIn=T MapXYZ=F SortEE=F KeepMc=T.
          MDV=   16106127360 using IRadAn=       5.
          Solving linear equations separately, MaxMat=       0.
          There are     1 degrees of freedom in the 1st order CPHF.  IDoFFX=0 NUNeed=     1.
 FoFJK:  IHMeth= 1 ICntrl=       0 DoSepK=F KAlg= 0 I1Cent=           0 FoldK=F
 IRaf=         0 NMat=       1 IRICut=       1 DoRegI=T DoRafI=F ISym2E= 0 IDoP0=0 IntGTp=1.
 FoFCou: FMM=F IPFlag=           0 FMFlag=      100000 FMFlg1=           0
         NFxFlg=           0 DoJE=F BraDBF=F KetDBF=F FulRan=T
         wScrn=  0.000000 ICntrl=         0 IOpCl=  0 I1Cent=           0 NGrid=           0
         NMat0=    1 NMatS0=      1 NMatT0=    0 NMatD0=    1 NMtDS0=    0 NMtDT0=    0
 Symmetry not used in FoFCou.
 LinEq1:  Iter=  0 NonCon=     1 RMS=6.59D-03 Max=1.74D-01 NDo=     1
 LinEq1:  Iter=  1 NonCon=     1 RMS=2.02D-03 Max=3.08D-02 NDo=     1
 LinEq1:  Iter=  2 NonCon=     1 RMS=8.93D-04 Max=1.39D-02 NDo=     1
 LinEq1:  Iter=  3 NonCon=     1 RMS=3.83D-04 Max=8.27D-03 NDo=     1
 LinEq1:  Iter=  4 NonCon=     1 RMS=1.38D-04 Max=1.67D-03 NDo=     1
 LinEq1:  Iter=  5 NonCon=     1 RMS=7.67D-05 Max=1.42D-03 NDo=     1
 LinEq1:  Iter=  6 NonCon=     1 RMS=2.44D-05 Max=3.63D-04 NDo=     1
 LinEq1:  Iter=  7 NonCon=     1 RMS=8.05D-06 Max=1.12D-04 NDo=     1
 LinEq1:  Iter=  8 NonCon=     1 RMS=3.92D-06 Max=5.68D-05 NDo=     1
 LinEq1:  Iter=  9 NonCon=     1 RMS=1.04D-06 Max=1.21D-05 NDo=     1
 LinEq1:  Iter= 10 NonCon=     1 RMS=2.28D-07 Max=2.88D-06 NDo=     1
 LinEq1:  Iter= 11 NonCon=     1 RMS=4.78D-08 Max=7.71D-07 NDo=     1
 LinEq1:  Iter= 12 NonCon=     1 RMS=1.11D-08 Max=1.78D-07 NDo=     1
 LinEq1:  Iter= 13 NonCon=     1 RMS=1.95D-09 Max=2.10D-08 NDo=     1
 LinEq1:  Iter= 14 NonCon=     1 RMS=4.17D-10 Max=5.69D-09 NDo=     1
 LinEq1:  Iter= 15 NonCon=     0 RMS=8.49D-11 Max=9.26D-10 NDo=     1
 Linear equations converged to 1.000D-10 1.000D-09 after    15 iterations.
 End of Minotr F.D. properties file   721 does not exist.
 End of Minotr F.D. properties file   722 does not exist.
 End of Minotr F.D. properties file   788 does not exist.
 Leave Link 1002 at Sun Mar  6 19:03:16 2022, MaxMem= 16106127360 cpu:              66.1 elap:               2.4
 (Enter /sw/contrib/gaussian/g16/B01/g16/l1102.exe)
 Use density number 2.
 Symmetrizing basis deriv contribution to polar:
 IMax=3 JMax=2 DiffMx= 0.00D+00
 Leave Link 1102 at Sun Mar  6 19:03:16 2022, MaxMem= 16106127360 cpu:               1.5 elap:               0.1
 (Enter /sw/contrib/gaussian/g16/B01/g16/l1110.exe)
 Forming Gx(P) for generalized density number  2 NAtomX=     5.
 Integral derivatives from FoFJK, PRISM(SPDF).
 Do as many integral derivatives as possible in FoFJK.
 G2DrvN: MDV=   16106126844.
 G2DrvN: will do     6 centers at a time, making    1 passes.
 Calling FoFCou, ICntrl=  3107 FMM=F I1Cent=   0 AccDes= 0.00D+00.
 FoFJK:  IHMeth= 1 ICntrl=    3107 DoSepK=F KAlg= 0 I1Cent=           0 FoldK=F
 IRaf=         0 NMat=       1 IRICut=       1 DoRegI=T DoRafI=F ISym2E= 1 IDoP0=0 IntGTp=1.
 FoFCou: FMM=F IPFlag=           0 FMFlag=      100000 FMFlg1=           0
         NFxFlg=           0 DoJE=F BraDBF=F KetDBF=F FulRan=T
         wScrn=  0.000000 ICntrl=      3107 IOpCl=  0 I1Cent=           0 NGrid=           0
         NMat0=    1 NMatS0=      1 NMatT0=    0 NMatD0=    1 NMtDS0=    0 NMtDT0=    0
 Petite list used in FoFCou.
 End of G2Drv F.D. properties file   721 does not exist.
 End of G2Drv F.D. properties file   722 does not exist.
 End of G2Drv F.D. properties file   788 does not exist.
 Leave Link 1110 at Sun Mar  6 19:03:20 2022, MaxMem= 16106127360 cpu:              88.2 elap:               3.2
 (Enter /sw/contrib/gaussian/g16/B01/g16/l1112.exe)
 MP22nd: MDV=   16106127360
 This link is doing NAtomX=     5 total of    18 degrees of freedom.
 Using ON3 I/O method in MakUI.
 Frozen-core window:  NFC=   4 NFV=   0.
 Using Ix for Sx.
 Use MO integrals over full window.
 Using OV2 memory method for fx*t*t/D, MaxI=    16 DoOO2=F NP=  28.
 R2 and R3 integrals will be kept in memory, NReq=   915591705.
 FoFCou: FMM=F IPFlag=           0 FMFlag=           0 FMFlg1=           0
         NFxFlg=           0 DoJE=F BraDBF=F KetDBF=F FulRan=T
         wScrn=  0.000000 ICntrl=       600 IOpCl=  0 I1Cent=           0 NGrid=           0
         NMat0=    1 NMatS0=      1 NMatT0=    0 NMatD0=    1 NMtDS0=    0 NMtDT0=    0
 Symmetry not used in FoFCou.
 DD1Dir will call FoFMem   1 times, MxPair=       272
 NAB=   136 NAA=     0 NBB=     0.
 Symmetry is being used.
 FoFJK:  IHMeth= 1 ICntrl=       0 DoSepK=F KAlg= 0 I1Cent=           0 FoldK=F
 IRaf=         0 NMat=      18 IRICut=      45 DoRegI=T DoRafI=T ISym2E= 2 IDoP0=3 IntGTp=3.
 Discarding MO integrals.
 Leave Link 1112 at Sun Mar  6 19:03:59 2022, MaxMem= 16106127360 cpu:            1101.4 elap:              39.9
 (Enter /sw/contrib/gaussian/g16/B01/g16/l601.exe)
 Copying SCF densities to generalized density rwf, IOpCl= 0 IROHF=0.

 **********************************************************************

            Population analysis using the MP2 Density.

 **********************************************************************

 Orbital symmetries:
       Occupied  (A') (A') (A') (A') (A') (A') (A') (A') (A') (A')
                 (A") (A') (A') (A") (A') (A")
       Virtual   (A') (A") (A') (A') (A") (A') (A') (A') (A") (A')
                 (A") (A') (A') (A") (A') (A') (A') (A") (A') (A')
                 (A') (A') (A') (A') (A") (A') (A') (A") (A') (A')
                 (A') (A") (A") (A') (A') (A') (A") (A') (A") (A')
                 (A") (A") (A') (A') (A") (A') (A') (A") (A') (A')
                 (A') (A") (A') (A') (A") (A') (A") (A') (A") (A')
                 (A') (A') (A") (A') (A') (A") (A') (A") (A') (A')
                 (A") (A') (A") (A") (A') (A') (A") (A') (A') (A')
                 (A") (A') (A') (A") (A') (A") (A") (A') (A') (A')
                 (A') (A') (A") (A") (A') (A') (A") (A") (A') (A")
                 (A') (A') (A") (A') (A") (A') (A') (A') (A") (A")
                 (A') (A') (A') (A') (A") (A') (A') (A') (A") (A')
                 (A") (A') (A") (A') (A") (A") (A') (A") (A') (A')
                 (A') (A') (A") (A') (A') (A") (A") (A') (A') (A')
                 (A") (A") (A') (A') (A') (A") (A') (A') (A') (A")
                 (A') (A') (A') (A") (A') (A") (A") (A') (A') (A")
                 (A') (A") (A') (A") (A") (A') (A") (A') (A") (A")
                 (A') (A") (A") (A') (A") (A') (A') (A') (A") (A')
                 (A') (A') (A') (A') (A') (A') (A') (A') (A') (A')
                 (A')
 The electronic state is 1-A'.
 Alpha  occ. eigenvalues --  -20.71993 -20.68756 -20.66641 -15.82573  -1.64771
 Alpha  occ. eigenvalues --   -1.51198  -1.29121  -0.96149  -0.83835  -0.76039
 Alpha  occ. eigenvalues --   -0.74288  -0.63459  -0.62333  -0.62045  -0.50541
 Alpha  occ. eigenvalues --   -0.49407
 Alpha virt. eigenvalues --    0.03529   0.06016   0.09514   0.10057   0.11957
 Alpha virt. eigenvalues --    0.12299   0.14974   0.15395   0.17747   0.18005
 Alpha virt. eigenvalues --    0.18965   0.21111   0.21690   0.24638   0.25208
 Alpha virt. eigenvalues --    0.26882   0.31402   0.31726   0.33836   0.34459
 Alpha virt. eigenvalues --    0.34868   0.39229   0.44948   0.49001   0.50545
 Alpha virt. eigenvalues --    0.51878   0.54435   0.56114   0.59926   0.62086
 Alpha virt. eigenvalues --    0.63914   0.69020   0.71687   0.72363   0.74519
 Alpha virt. eigenvalues --    0.76464   0.76920   0.79443   0.80675   0.83861
 Alpha virt. eigenvalues --    0.84344   0.85137   0.88610   0.90974   0.93335
 Alpha virt. eigenvalues --    0.94816   0.95325   1.01921   1.03404   1.06583
 Alpha virt. eigenvalues --    1.06695   1.09760   1.14600   1.15754   1.16934
 Alpha virt. eigenvalues --    1.22355   1.22736   1.24722   1.35716   1.35898
 Alpha virt. eigenvalues --    1.37219   1.46755   1.48419   1.50416   1.54335
 Alpha virt. eigenvalues --    1.59775   1.59823   1.60600   1.63072   1.69662
 Alpha virt. eigenvalues --    1.74363   1.80129   1.82992   1.88862   1.90163
 Alpha virt. eigenvalues --    1.93168   1.98251   1.99036   2.05245   2.12568
 Alpha virt. eigenvalues --    2.13142   2.16839   2.18850   2.24359   2.26816
 Alpha virt. eigenvalues --    2.29765   2.35662   2.36782   2.38730   2.40133
 Alpha virt. eigenvalues --    2.44389   2.47129   2.48293   2.53004   2.53927
 Alpha virt. eigenvalues --    2.55349   2.56008   2.61782   2.63622   2.67874
 Alpha virt. eigenvalues --    2.67900   2.76484   2.81526   2.81965   2.84536
 Alpha virt. eigenvalues --    2.92379   2.98797   3.05183   3.05542   3.11775
 Alpha virt. eigenvalues --    3.12179   3.18280   3.22409   3.31700   3.33757
 Alpha virt. eigenvalues --    3.36495   3.49839   3.67822   3.87206   3.93816
 Alpha virt. eigenvalues --    4.19018   4.22759   4.22984   4.27317   4.37213
 Alpha virt. eigenvalues --    4.51773   4.53829   4.56428   4.60580   4.69094
 Alpha virt. eigenvalues --    4.81468   4.90084   4.91594   4.94392   4.99926
 Alpha virt. eigenvalues --    5.00511   5.10815   5.13749   5.17891   5.25189
 Alpha virt. eigenvalues --    5.25850   5.32173   5.35077   5.37050   5.54425
 Alpha virt. eigenvalues --    5.64524   5.71107   5.91607   6.00752   6.23198
 Alpha virt. eigenvalues --    6.29930   6.36793   6.37647   6.59113   6.64598
 Alpha virt. eigenvalues --    6.66250   6.68980   6.72337   6.79672   6.81079
 Alpha virt. eigenvalues --    6.84764   6.97128   7.03502   7.07532   7.08944
 Alpha virt. eigenvalues --    7.14800   7.18411   7.18629   7.22489   7.25375
 Alpha virt. eigenvalues --    7.26293   7.27528   7.35556   7.40473   7.44277
 Alpha virt. eigenvalues --    7.44356   7.47568   7.56460   7.67741   7.67950
 Alpha virt. eigenvalues --    7.81142   7.90455   7.96195   8.08191   8.34013
 Alpha virt. eigenvalues --    8.51248   8.67467  13.69827  14.79898  15.13682
 Alpha virt. eigenvalues --   15.79566
          Condensed to atoms (all electrons):
               1          2          3          4          5
     1  H    0.581417   0.123183   0.023899  -0.000531  -0.002484
     2  O    0.123183   8.419963  -0.259185  -0.002817  -0.009128
     3  O    0.023899  -0.259185   8.392499  -0.167444  -0.033654
     4  N   -0.000531  -0.002817  -0.167444   7.144512  -0.123859
     5  O   -0.002484  -0.009128  -0.033654  -0.123859   8.365645
 Mulliken charges:
               1
     1  H    0.274515
     2  O   -0.272017
     3  O    0.043884
     4  N    0.150138
     5  O   -0.196520
 Sum of Mulliken charges =  -0.00000
 Mulliken charges with hydrogens summed into heavy atoms:
               1
     2  O    0.002498
     3  O    0.043884
     4  N    0.150138
     5  O   -0.196520
 APT charges:
               1
     1  H    0.272043
     2  O   -0.299167
     3  O   -0.310742
     4  N    0.644319
     5  O   -0.306453
 Sum of APT charges =  -0.00000
 APT charges with hydrogens summed into heavy atoms:
               1
     2  O   -0.027124
     3  O   -0.310742
     4  N    0.644319
     5  O   -0.306453
 Electronic spatial extent (au):  <R**2>=            205.8248
 Charge=             -0.0000 electrons
 Dipole moment (field-independent basis, Debye):
    X=              0.0862    Y=             -1.0665    Z=              0.0000  Tot=              1.0700
 Quadrupole moment (field-independent basis, Debye-Ang):
   XX=            -23.3791   YY=            -22.9739   ZZ=            -21.9068
   XY=             -1.9289   XZ=             -0.0000   YZ=             -0.0000
 Traceless Quadrupole moment (field-independent basis, Debye-Ang):
   XX=             -0.6258   YY=             -0.2206   ZZ=              0.8464
   XY=             -1.9289   XZ=             -0.0000   YZ=             -0.0000
 Octapole moment (field-independent basis, Debye-Ang**2):
  XXX=              2.6308  YYY=              0.4045  ZZZ=             -0.0000  XYY=              2.3182
  XXY=             -2.7687  XXZ=              0.0000  XZZ=             -0.5393  YZZ=             -0.6781
  YYZ=              0.0000  XYZ=             -0.0000
 Hexadecapole moment (field-independent basis, Debye-Ang**3):
 XXXX=           -124.8655 YYYY=            -95.3751 ZZZZ=            -17.9972 XXXY=            -21.6711
 XXXZ=             -0.0000 YYYX=            -19.8909 YYYZ=             -0.0000 ZZZX=             -0.0000
 ZZZY=             -0.0000 XXYY=            -35.3942 XXZZ=            -23.9552 YYZZ=            -18.6542
 XXYZ=             -0.0000 YYXZ=             -0.0000 ZZXY=             -5.9657
 N-N= 1.232852495590D+02 E-N=-9.081232839108D+02  KE= 2.802337497443D+02
 Symmetry A'   KE= 2.663766494401D+02
 Symmetry A"   KE= 1.385710030421D+01
  Exact polarizability:  30.592   4.255  29.871   0.000   0.000  17.564
 Approx polarizability:  24.168   0.665  27.589   0.000   0.000  15.485
 No NMR shielding tensors so no spin-rotation constants.
 Leave Link  601 at Sun Mar  6 19:04:00 2022, MaxMem= 16106127360 cpu:               5.7 elap:               0.3
 (Enter /sw/contrib/gaussian/g16/B01/g16/l701.exe)
 ... and contract with generalized density number  2.
 Compute integral second derivatives.
 Leave Link  701 at Sun Mar  6 19:04:00 2022, MaxMem= 16106127360 cpu:               6.1 elap:               0.2
 (Enter /sw/contrib/gaussian/g16/B01/g16/l702.exe)
 L702 exits ... SP integral derivatives will be done elsewhere.
 Leave Link  702 at Sun Mar  6 19:04:00 2022, MaxMem= 16106127360 cpu:               0.5 elap:               0.0
 (Enter /sw/contrib/gaussian/g16/B01/g16/l703.exe)
 Integral derivatives from FoFJK, PRISM(SPDF).
 Compute integral second derivatives, UseDBF=F ICtDFT=           0.
 Calling FoFJK, ICntrl=  10100127 FMM=F ISym2X=1 I1Cent= 0 IOpClX= 0 NMat=1 NMatS=1 NMatT=0.
 FoFJK:  IHMeth= 1 ICntrl=10100127 DoSepK=F KAlg= 0 I1Cent=           0 FoldK=F
 IRaf=         0 NMat=       1 IRICut=       1 DoRegI=T DoRafI=F ISym2E= 1 IDoP0=0 IntGTp=1.
 FoFCou: FMM=F IPFlag=           0 FMFlag=      100000 FMFlg1=         800
         NFxFlg=           0 DoJE=F BraDBF=F KetDBF=F FulRan=T
         wScrn=  0.000000 ICntrl=  10100127 IOpCl=  0 I1Cent=           0 NGrid=           0
         NMat0=    1 NMatS0=      1 NMatT0=    0 NMatD0=    1 NMtDS0=    0 NMtDT0=    0
 Petite list used in FoFCou.
 Leave Link  703 at Sun Mar  6 19:04:16 2022, MaxMem= 16106127360 cpu:             445.9 elap:              16.0
 (Enter /sw/contrib/gaussian/g16/B01/g16/l716.exe)
 Dipole        = 3.38978640D-02-4.19606936D-01 8.50963135D-34
 Polarizability= 3.05921577D+01 4.25518592D+00 2.98706296D+01
                 9.78708034D-31 3.73355707D-31 1.75641446D+01
 Full mass-weighted force constant matrix:
 Low frequencies ---  -95.4409  -54.2792   -8.8199   -0.0010   -0.0006    0.0006
 Low frequencies ---  354.1530  400.0511  525.3186
 Diagonal vibrational polarizability:
        7.1978608       9.9791256      15.8050364
 Harmonic frequencies (cm**-1), IR intensities (KM/Mole), Raman scattering
 activities (A**4/AMU), depolarization ratios for plane and unpolarized
 incident light, reduced masses (AMU), force constants (mDyne/A),
 and normal coordinates:
                      1                      2                      3
                     A"                     A'                     A"
 Frequencies --    354.1388               399.9862               525.2721
 Red. masses --      1.5702                 7.0295                 2.8637
 Frc consts  --      0.1160                 0.6626                 0.4655
 IR Inten    --     61.9863                 8.0029                25.6736
  Atom  AN      X      Y      Z        X      Y      Z        X      Y      Z
     1   1     0.00   0.00   0.98    -0.73  -0.26   0.00     0.00   0.00   0.93
     2   8     0.00   0.00  -0.11    -0.32  -0.32  -0.00     0.00   0.00   0.05
     3   8     0.00  -0.00   0.12    -0.07   0.08   0.00     0.00  -0.00  -0.18
     4   7    -0.00  -0.00  -0.11     0.05   0.09  -0.00     0.00   0.00   0.27
     5   8    -0.00  -0.00   0.03     0.39   0.17  -0.00    -0.00  -0.00  -0.16
                      4                      5                      6
                     A'                     A'                     A'
 Frequencies --    716.3697               868.7873               999.7093
 Red. masses --     13.3876                11.2887                10.7638
 Frc consts  --      4.0479                 5.0202                 6.3381
 IR Inten    --    222.2227                30.7974                11.7752
  Atom  AN      X      Y      Z        X      Y      Z        X      Y      Z
     1   1    -0.35  -0.00   0.00     0.52  -0.13   0.00     0.58   0.03   0.00
     2   8     0.01  -0.09   0.00     0.47  -0.15   0.00    -0.29   0.20  -0.00
     3   8     0.35   0.59  -0.00    -0.30  -0.11  -0.00     0.44  -0.40   0.00
     4   7    -0.41  -0.46   0.00    -0.47  -0.06   0.00    -0.33  -0.05  -0.00
     5   8     0.01  -0.10  -0.00     0.21   0.32  -0.00     0.10   0.24   0.00
                      7                      8                      9
                     A'                     A'                     A'
 Frequencies --   1451.6443              1575.7176              3478.8503
 Red. masses --      1.3703                 5.1656                 1.0634
 Frc consts  --      1.7014                 7.5566                 7.5825
 IR Inten    --     79.5666               152.1515                43.7309
  Atom  AN      X      Y      Z        X      Y      Z        X      Y      Z
     1   1     0.97  -0.19  -0.00    -0.82   0.17   0.00     0.14   0.99   0.00
     2   8    -0.07  -0.05  -0.00     0.02   0.03   0.00    -0.01  -0.06  -0.00
     3   8    -0.03   0.06   0.00    -0.03  -0.06  -0.00     0.00  -0.00   0.00
     4   7     0.07  -0.07  -0.00     0.22  -0.35   0.00    -0.00   0.00   0.00
     5   8    -0.03   0.06   0.00    -0.13   0.33  -0.00     0.00  -0.00  -0.00

 -------------------
 - Thermochemistry -
 -------------------
 Temperature   298.150 Kelvin.  Pressure   1.00000 Atm.
 Atom     1 has atomic number  1 and mass   1.00783
 Atom     2 has atomic number  8 and mass  15.99491
 Atom     3 has atomic number  8 and mass  15.99491
 Atom     4 has atomic number  7 and mass  14.00307
 Atom     5 has atomic number  8 and mass  15.99491
 Molecular mass:    62.99564 amu.
 Principal axes and moments of inertia in atomic units:
                           1         2         3
     Eigenvalues --    83.35077 221.14360 304.49437
           X            0.78569  -0.61862   0.00000
           Y            0.61862   0.78569   0.00000
           Z           -0.00000   0.00000   1.00000
 This molecule is an asymmetric top.
 Rotational symmetry number  1.
 Rotational temperatures (Kelvin)      1.03915     0.39166     0.28445
 Rotational constants (GHZ):          21.65236     8.16095     5.92701
 Zero-point vibrational energy      62029.2 (Joules/Mol)
                                   14.82534 (Kcal/Mol)
 Warning -- explicit consideration of   3 degrees of freedom as
           vibrations may cause significant error
 Vibrational temperatures:    509.53   575.49   755.75  1030.70  1249.99
          (Kelvin)           1438.36  2088.59  2267.11  5005.29
 
 Zero-point correction=                           0.023626 (Hartree/Particle)
 Thermal correction to Energy=                    0.027544
 Thermal correction to Enthalpy=                  0.028488
 Thermal correction to Gibbs Free Energy=        -0.002327
 Sum of electronic and zero-point Energies=           -280.431420
 Sum of electronic and thermal Energies=              -280.427502
 Sum of electronic and thermal Enthalpies=            -280.426558
 Sum of electronic and thermal Free Energies=         -280.457372
 
                     E (Thermal)             CV                S
                      KCal/Mol        Cal/Mol-Kelvin    Cal/Mol-Kelvin
 Total                   17.284             12.058             64.855
 Electronic               0.000              0.000              0.000
 Translational            0.889              2.981             38.341
 Rotational               0.889              2.981             23.244
 Vibrational             15.507              6.097              3.270
 Vibration     1          0.730              1.567              1.148
 Vibration     2          0.766              1.470              0.963
 Vibration     3          0.880              1.194              0.598
                       Q            Log10(Q)             Ln(Q)
 Total Bot       0.117529D+02          1.070144          2.464097
 Total V=0       0.865353D+12         11.937193         27.486404
 Vib (Bot)       0.222996D-10        -10.651703        -24.526452
 Vib (Bot)    1  0.519575D+00         -0.284352         -0.654744
 Vib (Bot)    2  0.445610D+00         -0.351045         -0.808311
 Vib (Bot)    3  0.305807D+00         -0.514552         -1.184801
 Vib (V=0)       0.164190D+01          0.215347          0.495854
 Vib (V=0)    1  0.122108D+01          0.086745          0.199737
 Vib (V=0)    2  0.116975D+01          0.068094          0.156792
 Vib (V=0)    3  0.108610D+01          0.035871          0.082597
 Electronic      0.100000D+01          0.000000          0.000000
 Translational   0.196526D+08          7.293420         16.793719
 Rotational      0.268181D+05          4.428427         10.196831
 
                                                                title
                                                             IR Spectrum
 
     3                                                                     1    1               1                                    
     4                                                                     5    4               0    8    7      5    4 3            
     7                                                                     7    5               0    6    1      2    0 5            
     9                                                                     6    2               0    9    6      5    0 4            
 
     X                                                                     X    X               X    X    X      X    X X            
     X                                                                     X    X                    X    X      X      X            
     X                                                                     X    X                    X    X             X            
     X                                                                     X    X                         X             X            
                                                                           X    X                         X             X            
                                                                           X    X                         X             X            
                                                                           X    X                         X                          
                                                                           X                              X                          
                                                                           X                              X                          
                                                                           X                              X                          
                                                                           X                              X                          
                                                                           X                              X                          
                                                                           X                              X                          
                                                                           X                              X                          
                                                                                                          X                          
                                                                                                          X                          
                                                                                                          X                          
                                                                                                          X                          
                                                                                                          X                          
                                                                                                          X                          
 
 ***** Axes restored to original set *****
 -------------------------------------------------------------------
 Center     Atomic                   Forces (Hartrees/Bohr)
 Number     Number              X              Y              Z
 -------------------------------------------------------------------
      1        1          -0.001165256    0.000000000   -0.000911215
      2        8          -0.009034310    0.000000000   -0.001406443
      3        8           0.008674498   -0.000000000    0.001765373
      4        7           0.003267940   -0.000000000    0.000845346
      5        8          -0.001742873    0.000000000   -0.000293061
 -------------------------------------------------------------------
 Cartesian Forces:  Max     0.009034310 RMS     0.003451241
 -----------------------------------------------------------------------------------------------
                       Internal Coordinate Forces (Hartree/Bohr or radian)
  Cent   Atom   N1       Length/X         N2         Alpha/Y        N3         Beta/Z          J
 -----------------------------------------------------------------------------------------------
      1  H 
      2  O        1   0.000911(     1)
      3  O        2   0.010452(     2)      1   0.002170(     5)
      4  N        3   0.000389(     3)      2   0.001118(     6)      1  -0.000000(     8)     0
      5  O        4   0.001170(     4)      3  -0.002991(     7)      2   0.000000(     9)     0
 -----------------------------------------------------------------------------------------------
 Internal  Forces:  Max     0.010452097 RMS     0.003749118
 Force constants in Cartesian coordinates: 
                1             2             3             4             5 
      1  0.746690D-01
      2  0.000000D+00  0.610292D-02
      3  0.263821D-01  0.000000D+00  0.434322D+00
      4 -0.519743D-01  0.000000D+00 -0.409116D-02  0.309854D+00
      5  0.000000D+00 -0.269740D-02  0.000000D+00  0.000000D+00  0.984980D-02
      6  0.326647D-01  0.000000D+00 -0.417113D+00 -0.866753D-02  0.000000D+00
      7 -0.269866D-01  0.000000D+00 -0.183027D-01 -0.198098D+00  0.000000D+00
      8  0.000000D+00 -0.390013D-02  0.000000D+00  0.000000D+00 -0.170742D-01
      9 -0.454328D-01  0.000000D+00 -0.214601D-01  0.729633D-02  0.000000D+00
     10 -0.695748D-02  0.000000D+00  0.717175D-02 -0.871891D-01  0.000000D+00
     11  0.000000D+00  0.832961D-02  0.000000D+00  0.000000D+00  0.210948D-01
     12 -0.202578D-01  0.000000D+00  0.125906D-01  0.942949D-02  0.000000D+00
     13  0.112494D-01  0.000000D+00 -0.111600D-01  0.274073D-01  0.000000D+00
     14  0.000000D+00 -0.783499D-02  0.000000D+00  0.000000D+00 -0.111730D-01
     15  0.664378D-02  0.000000D+00 -0.834018D-02 -0.396713D-02  0.000000D+00
                6             7             8             9            10 
      6  0.521806D+00
      7 -0.985672D-01  0.335496D+00
      8  0.000000D+00  0.000000D+00  0.393464D-01
      9 -0.975610D-01  0.876354D-01  0.000000D+00  0.319784D+00
     10  0.411025D-01 -0.144450D+00  0.000000D+00 -0.356447D-01  0.560387D+00
     11  0.000000D+00  0.000000D+00 -0.492422D-01  0.000000D+00  0.000000D+00
     12 -0.118208D-01  0.199733D-01  0.000000D+00 -0.256663D-01  0.241960D+00
     13  0.334675D-01  0.340387D-01  0.000000D+00 -0.138542D-01 -0.321791D+00
     14  0.000000D+00  0.000000D+00  0.308702D-01  0.000000D+00  0.000000D+00
     15  0.468815D-02  0.926119D-02  0.000000D+00 -0.175097D+00 -0.254590D+00
               11            12            13            14            15 
     11  0.574279D-01
     12  0.000000D+00  0.449801D+00
     13  0.000000D+00 -0.251105D+00  0.249095D+00
     14 -0.376101D-01  0.000000D+00  0.000000D+00  0.257479D-01
     15  0.000000D+00 -0.424905D+00  0.242652D+00  0.000000D+00  0.603653D+00
 Force constants in internal coordinates: 
                1             2             3             4             5 
      1  0.434322D+00
      2  0.250843D-01  0.291962D+00
      3  0.575027D-02  0.159740D-01  0.211465D+00
      4 -0.129773D-01  0.239091D-01  0.149426D+00  0.722379D+00
      5  0.479606D-01  0.618263D-01 -0.255150D-01  0.215707D-01  0.260603D+00
      6  0.139302D-01  0.240615D-01  0.950802D-01  0.100137D-01 -0.595638D-02
      7  0.114447D-01 -0.783892D-01  0.121160D+00  0.118412D+00 -0.253988D-01
      8  0.000000D+00  0.000000D+00  0.000000D+00  0.000000D+00  0.000000D+00
      9  0.000000D+00  0.000000D+00  0.000000D+00  0.000000D+00  0.000000D+00
                6             7             8             9 
      6  0.536424D+00
      7  0.629270D-01  0.667235D+00
      8  0.000000D+00  0.000000D+00  0.216857D-01
      9  0.000000D+00  0.000000D+00  0.294986D-01  0.112286D+00
 Leave Link  716 at Sun Mar  6 19:04:16 2022, MaxMem= 16106127360 cpu:               1.7 elap:               0.1
 (Enter /sw/contrib/gaussian/g16/B01/g16/l103.exe)

 GradGradGradGradGradGradGradGradGradGradGradGradGradGradGradGradGradGrad
 Berny optimization.
 Search for a local minimum.
 Step number   1 out of a maximum of    2
 All quantities printed in internal units (Hartrees-Bohrs-Radians)
 Second derivative matrix not updated -- analytic derivatives used.
 The second derivative matrix:
                          r1        r2        r3        r4        a1
           r1           0.43432
           r2           0.02508   0.29196
           r3           0.00575   0.01597   0.21147
           r4          -0.01298   0.02391   0.14943   0.72238
           a1           0.04796   0.06183  -0.02552   0.02157   0.26060
           a2           0.01393   0.02406   0.09508   0.01001  -0.00596
           a3           0.01144  -0.07839   0.12116   0.11841  -0.02540
           d1          -0.00000  -0.00000  -0.00000   0.00000   0.00000
           d2          -0.00000   0.00000   0.00000   0.00000   0.00000
                          a2        a3        d1        d2
           a2           0.53642
           a3           0.06293   0.66724
           d1          -0.00000   0.00000   0.02169
           d2           0.00000  -0.00000   0.02950   0.11229
 ITU=  0
     Eigenvalues ---    0.01293   0.12104   0.12872   0.21711   0.29259
     Eigenvalues ---    0.45066   0.53264   0.61408   0.88859
 Angle between quadratic step and forces=  21.57 degrees.
 Linear search not attempted -- first point.
 Variable       Old X    -DE/DX   Delta X   Delta X   Delta X     New X
                                 (Linear)    (Quad)   (Total)
    r1        1.86209   0.00091   0.00000   0.00011   0.00011   1.86220
    r2        2.65862   0.01045   0.00000   0.03579   0.03579   2.69441
    r3        2.60992   0.00039   0.00000  -0.00175  -0.00175   2.60817
    r4        2.25782   0.00117   0.00000   0.00083   0.00083   2.25866
    a1        1.75642   0.00217   0.00000  -0.00043  -0.00043   1.75599
    a2        1.97463   0.00112   0.00000   0.00079   0.00079   1.97542
    a3        1.99550  -0.00299   0.00000  -0.00020  -0.00020   1.99530
    d1        0.00000  -0.00000   0.00000   0.00000   0.00000   0.00000
    d2        0.00000   0.00000   0.00000  -0.00000  -0.00000  -0.00000
         Item               Value     Threshold  Converged?
 Maximum Force            0.010452     0.000450     NO 
 RMS     Force            0.003749     0.000300     NO 
 Maximum Displacement     0.035789     0.001800     NO 
 RMS     Displacement     0.011951     0.001200     NO 
 Predicted change in Energy=-1.875107D-04
                       ----------------------------
                       ! Non-Optimized Parameters !
                       ! (Angstroms and Degrees)  !
 ----------------------                            ----------------------
 !      Name          Value   Derivative information (Atomic Units)     !
 ------------------------------------------------------------------------
 !       r1          0.9854   -DE/DX =    0.0009                        !
 !       r2          1.4258   -DE/DX =    0.0105                        !
 !       r3          1.3802   -DE/DX =    0.0004                        !
 !       r4          1.1952   -DE/DX =    0.0012                        !
 !       a1        100.6111   -DE/DX =    0.0022                        !
 !       a2        113.183    -DE/DX =    0.0011                        !
 !       a3        114.3224   -DE/DX =   -0.003                         !
 !       d1          0.0      -DE/DX =    0.0                           !
 !       d2          0.0      -DE/DX =    0.0                           !
 ------------------------------------------------------------------------
 GradGradGradGradGradGradGradGradGradGradGradGradGradGradGradGradGradGrad

 Leave Link  103 at Sun Mar  6 19:04:16 2022, MaxMem= 16106127360 cpu:               0.5 elap:               0.0
 (Enter /sw/contrib/gaussian/g16/B01/g16/l9999.exe)

 ----------------------------------------------------------------------

 Electric dipole moment (input orientation):
 (Debye = 10**-18 statcoulomb cm , SI units = C m)
                  (au)            (Debye)         (10**-30 SI)
   Tot        0.420974D+00      0.107001D+01      0.356917D+01
   x         -0.118865D+00     -0.302126D+00     -0.100778D+01
   y          0.000000D+00      0.000000D+00      0.000000D+00
   z         -0.403844D+00     -0.102647D+01     -0.342393D+01

 Dipole polarizability, Alpha (input orientation).
 (esu units = cm**3 , SI units = C**2 m**2 J**-1)
 Alpha(0;0):
               (au)            (10**-24 esu)      (10**-40 SI)
   iso        0.260090D+02      0.385413D+01      0.428830D+01
   aniso      0.146687D+02      0.217367D+01      0.241853D+01
   xx         0.288609D+02      0.427675D+01      0.475852D+01
   yx         0.000000D+00      0.000000D+00      0.000000D+00
   yy         0.175641D+02      0.260274D+01      0.289594D+01
   zx        -0.404457D+01     -0.599343D+00     -0.666859D+00
   zy         0.000000D+00      0.000000D+00      0.000000D+00
   zz         0.316019D+02      0.468292D+01      0.521045D+01

 ----------------------------------------------------------------------

 Dipole orientation:
     1          0.00000000         -0.00000000          0.00000000
     8         -0.52577698         -0.00000000         -1.78632167
     8          1.84229819         -0.00000000         -2.99481744
     7          3.84670281          0.00000000         -1.32328539
     8          3.24363717          0.00000000          0.85250789

 Electric dipole moment (dipole orientation):
 (Debye = 10**-18 statcoulomb cm , SI units = C m)
                  (au)            (Debye)         (10**-30 SI)
   Tot        0.420974D+00      0.107001D+01      0.356917D+01
   x          0.000000D+00      0.000000D+00      0.000000D+00
   y          0.000000D+00      0.000000D+00      0.000000D+00
   z          0.420974D+00      0.107001D+01      0.356917D+01

 Dipole polarizability, Alpha (dipole orientation).
 (esu units = cm**3 , SI units = C**2 m**2 J**-1)
 Alpha(0;0):
               (au)            (10**-24 esu)      (10**-40 SI)
   iso        0.260090D+02      0.385413D+01      0.428830D+01
   aniso      0.146687D+02      0.217367D+01      0.241853D+01
   xx         0.312705D+02      0.463381D+01      0.515581D+01
   yx         0.000000D+00      0.000000D+00      0.000000D+00
   yy         0.175641D+02      0.260274D+01      0.289594D+01
   zx         0.414210D+01      0.613795D+00      0.682939D+00
   zy         0.000000D+00      0.000000D+00      0.000000D+00
   zz         0.291923D+02      0.432585D+01      0.481315D+01

 ----------------------------------------------------------------------
 1\1\GINC-N2109\Freq\RMP2-FC\Aug-CC-pVTZ\H1N1O3\CGAVINH\06-Mar-2022\1\\
 #p freq mp2/aug-cc-pvtz density=current\\title\\0,1\H\O,1,r1\O,2,r2,1,
 a1\N,3,r3,2,a2,1,d1,0\O,4,r4,3,a3,2,d2,0\\r1=0.98537664\r2=1.4068793\r
 3=1.38110764\r4=1.19478846\a1=100.6355057\a2=113.13777052\a3=114.33392
 022\d1=0.\d2=0.\\Version=ES64L-G16RevB.01\State=1-A'\HF=-279.5073936\M
 P2=-280.4550456\RMSD=4.084e-09\RMSF=3.451e-03\ZeroPoint=0.0236257\Ther
 mal=0.0275439\Dipole=-0.1188654,0.,-0.4038441\DipoleDeriv=0.3171243,0.
 ,0.038662,0.,0.2970456,0.,-0.0308712,0.,0.2019599,-0.5280905,0.,0.3030
 087,0.,-0.251024,0.,-0.1036763,0.,-0.1183861,0.0085893,0.,0.3123533,0.
 ,-0.0083336,0.,0.4504402,0.,-0.9324804,0.1970052,0.,-0.1324083,0.,0.00
 93133,0.,-0.6728012,0.,1.7266374,0.0053718,0.,-0.5216158,0.,-0.0470014
 ,0.,0.3569085,0.,-0.8777308\Polar=28.8609089,0.,17.5641446,-4.0445679,
 0.,31.6018784\Quadrupole=0.1205918,0.6293068,-0.7498986,0.,1.37473,0.\
 PG=CS [SG(H1N1O3)]\NImag=0\\0.07466899,0.,0.00610292,0.02638212,0.,0.4
 3432240,-0.05197431,0.,-0.00409116,0.30985423,0.,-0.00269740,0.,0.,0.0
 0984980,0.03266473,0.,-0.41711271,-0.00866753,0.,0.52180629,-0.0269866
 1,0.,-0.01830270,-0.19809807,0.,-0.09856719,0.33549552,0.,-0.00390013,
 0.,0.,-0.01707420,0.,0.,0.03934640,-0.04543283,0.,-0.02146015,0.007296
 33,0.,-0.09756096,0.08763543,0.,0.31978414,-0.00695748,0.,0.00717175,-
 0.08718912,0.,0.04110253,-0.14444954,0.,-0.03564475,0.56038667,0.,0.00
 832961,0.,0.,0.02109477,0.,0.,-0.04924221,0.,0.,0.05742789,-0.02025780
 ,0.,0.01259063,0.00942949,0.,-0.01182076,0.01997327,0.,-0.02566634,0.2
 4196045,0.,0.44980105,0.01124940,0.,-0.01116001,0.02740726,0.,0.033467
 45,0.03403870,0.,-0.01385418,-0.32179054,0.,-0.25110541,0.24909517,0.,
 -0.00783499,0.,0.,-0.01117297,0.,0.,0.03087015,0.,0.,-0.03761006,0.,0.
 ,0.02574788,0.00664378,0.,-0.00834018,-0.00396713,0.,0.00468815,0.0092
 6119,0.,-0.17509668,-0.25458999,0.,-0.42490457,0.24265215,0.,0.6036532
 8\\0.00116526,0.,0.00091122,0.00903431,0.,0.00140644,-0.00867450,0.,-0
 .00176537,-0.00326794,0.,-0.00084535,0.00174287,0.,0.00029306\\\@


 WHEN YOU REACH FOR THE STARS, YOU MAY NOT QUITE GET ONE,
 BUT YOU WON'T COME UP WITH A HANDFUL OF MUD, EITHER.

                                         -- LEO BURNETT (AD AGENCY HEAD)
 Job cpu time:       0 days  2 hours  3 minutes  5.6 seconds.
 Elapsed time:       0 days  0 hours  4 minutes 27.2 seconds.
 File lengths (MBytes):  RWF=   7239 Int=      0 D2E=      0 Chk=      8 Scr=      1
 Normal termination of Gaussian 16 at Sun Mar  6 19:04:17 2022.
