 Entering Gaussian System, Link 0=g16
 Input=hoono_r3_1p429273.gjf
 Output=hoono_r3_1p429273.log
 Initial command:
 /sw/contrib/gaussian/g16/B01/g16/l1.exe "/scr/Gau-11985.inp" -scrdir="/scr/"
 Entering Link 1 = /sw/contrib/gaussian/g16/B01/g16/l1.exe PID=     11986.
  
 Copyright (c) 1988-2017, Gaussian, Inc.  All Rights Reserved.
  
 This is part of the Gaussian(R) 16 program.  It is based on
 the Gaussian(R) 09 system (copyright 2009, Gaussian, Inc.),
 the Gaussian(R) 03 system (copyright 2003, Gaussian, Inc.),
 the Gaussian(R) 98 system (copyright 1998, Gaussian, Inc.),
 the Gaussian(R) 94 system (copyright 1995, Gaussian, Inc.),
 the Gaussian 92(TM) system (copyright 1992, Gaussian, Inc.),
 the Gaussian 90(TM) system (copyright 1990, Gaussian, Inc.),
 the Gaussian 88(TM) system (copyright 1988, Gaussian, Inc.),
 the Gaussian 86(TM) system (copyright 1986, Carnegie Mellon
 University), and the Gaussian 82(TM) system (copyright 1983,
 Carnegie Mellon University). Gaussian is a federally registered
 trademark of Gaussian, Inc.
  
 This software contains proprietary and confidential information,
 including trade secrets, belonging to Gaussian, Inc.
  
 This software is provided under written license and may be
 used, copied, transmitted, or stored only in accord with that
 written license.
  
 The following legend is applicable only to US Government
 contracts under FAR:
  
                    RESTRICTED RIGHTS LEGEND
  
 Use, reproduction and disclosure by the US Government is
 subject to restrictions as set forth in subparagraphs (a)
 and (c) of the Commercial Computer Software - Restricted
 Rights clause in FAR 52.227-19.
  
 Gaussian, Inc.
 340 Quinnipiac St., Bldg. 40, Wallingford CT 06492
  
  
 ---------------------------------------------------------------
 Warning -- This program may not be used in any manner that
 competes with the business of Gaussian, Inc. or will provide
 assistance to any competitor of Gaussian, Inc.  The licensee
 of this program is prohibited from giving any competitor of
 Gaussian, Inc. access to this program.  By using this program,
 the user acknowledges that Gaussian, Inc. is engaged in the
 business of creating and licensing software in the field of
 computational chemistry and represents and warrants to the
 licensee that it is not a competitor of Gaussian, Inc. and that
 it will not use this program in any manner prohibited above.
 ---------------------------------------------------------------
  

 Cite this work as:
 Gaussian 16, Revision B.01,
 M. J. Frisch, G. W. Trucks, H. B. Schlegel, G. E. Scuseria, 
 M. A. Robb, J. R. Cheeseman, G. Scalmani, V. Barone, 
 G. A. Petersson, H. Nakatsuji, X. Li, M. Caricato, A. V. Marenich, 
 J. Bloino, B. G. Janesko, R. Gomperts, B. Mennucci, H. P. Hratchian, 
 J. V. Ortiz, A. F. Izmaylov, J. L. Sonnenberg, D. Williams-Young, 
 F. Ding, F. Lipparini, F. Egidi, J. Goings, B. Peng, A. Petrone, 
 T. Henderson, D. Ranasinghe, V. G. Zakrzewski, J. Gao, N. Rega, 
 G. Zheng, W. Liang, M. Hada, M. Ehara, K. Toyota, R. Fukuda, 
 J. Hasegawa, M. Ishida, T. Nakajima, Y. Honda, O. Kitao, H. Nakai, 
 T. Vreven, K. Throssell, J. A. Montgomery, Jr., J. E. Peralta, 
 F. Ogliaro, M. J. Bearpark, J. J. Heyd, E. N. Brothers, K. N. Kudin, 
 V. N. Staroverov, T. A. Keith, R. Kobayashi, J. Normand, 
 K. Raghavachari, A. P. Rendell, J. C. Burant, S. S. Iyengar, 
 J. Tomasi, M. Cossi, J. M. Millam, M. Klene, C. Adamo, R. Cammi, 
 J. W. Ochterski, R. L. Martin, K. Morokuma, O. Farkas, 
 J. B. Foresman, and D. J. Fox, Gaussian, Inc., Wallingford CT, 2016.
 
 ******************************************
 Gaussian 16:  ES64L-G16RevB.01 20-Dec-2017
                21-Feb-2022 
 ******************************************
 %nproc=28
 Will use up to   28 processors via shared memory.
 %mem=120GB
 %chk=hoono_r3_1p429273.chk
 ---------------------------------------
 #p freq mp2/aug-cc-pvtz density=current
 ---------------------------------------
 1/10=4,30=1,38=1/1,3;
 2/12=2,17=6,18=5,40=1/2;
 3/5=16,6=1,7=10,11=9,25=1,30=1,71=2,140=1/1,2,3;
 4//1;
 5/5=2,38=5,98=1/2;
 8/6=3,8=1,10=1,19=11,30=-1/1;
 9/15=3,16=-3/6;
 11/6=1,8=1,15=11,17=12,24=-1,27=1,28=-2,29=300,32=6,42=3/1,2,10;
 10/6=2,21=1/2;
 8/6=4,8=1,10=1,19=11,30=-1/11,4;
 10/5=1,20=4/2;
 11/12=2,14=11,16=1,17=2,28=-2,42=3,76=2/2,10,12;
 6/7=2,8=2,9=2,10=2,22=-1/1;
 7/8=1,10=1,12=2,25=1,44=2/1,2,3,16;
 1/10=4,30=1/3;
 99//99;
 Leave Link    1 at Mon Feb 21 20:20:35 2022, MaxMem= 16106127360 cpu:               2.8 elap:               0.1
 (Enter /sw/contrib/gaussian/g16/B01/g16/l101.exe)
 -----
 title
 -----
 Symbolic Z-matrix:
 Charge =  0 Multiplicity = 1
 H
 O                    1    r1
 O                    2    r2       1    a1
 N                    3    r3       2    a2       1    d1       0
 O                    4    r4       3    a3       2    d2       0
       Variables:
  r1                    0.96898                  
  r2                    1.45492                  
  r3                    1.42927                  
  r4                    1.17073                  
  a1                   97.59495                  
  a2                  102.29752                  
  a3                  109.06955                  
  d1                  180.                       
  d2                  180.                       
 
 ITRead=  0  0  0  0  0
 MicOpt= -1 -1 -1 -1 -1
 NAtoms=      5 NQM=        5 NQMF=       0 NMMI=      0 NMMIF=      0
                NMic=       0 NMicF=      0.
                    Isotopes and Nuclear Properties:
 (Nuclear quadrupole moments (NQMom) in fm**2, nuclear magnetic moments (NMagM)
  in nuclear magnetons)

  Atom         1           2           3           4           5
 IAtWgt=           1          16          16          14          16
 AtmWgt=   1.0078250  15.9949146  15.9949146  14.0030740  15.9949146
 NucSpn=           1           0           0           2           0
 AtZEff=  -0.0000000  -0.0000000  -0.0000000  -0.0000000  -0.0000000
 NQMom=    0.0000000   0.0000000   0.0000000   2.0440000   0.0000000
 NMagM=    2.7928460   0.0000000   0.0000000   0.4037610   0.0000000
 AtZNuc=   1.0000000   8.0000000   8.0000000   7.0000000   8.0000000
 Leave Link  101 at Mon Feb 21 20:20:35 2022, MaxMem= 16106127360 cpu:               2.6 elap:               0.1
 (Enter /sw/contrib/gaussian/g16/B01/g16/l103.exe)

 GradGradGradGradGradGradGradGradGradGradGradGradGradGradGradGradGradGrad
 Berny optimization.
 Initialization pass.
                       ----------------------------
                       !    Initial Parameters    !
                       ! (Angstroms and Degrees)  !
 ----------------------                            ----------------------
 !      Name          Value   Derivative information (Atomic Units)     !
 ------------------------------------------------------------------------
 !       r1          0.969    calculate D2E/DX2 analytically            !
 !       r2          1.4549   calculate D2E/DX2 analytically            !
 !       r3          1.4293   calculate D2E/DX2 analytically            !
 !       r4          1.1707   calculate D2E/DX2 analytically            !
 !       a1         97.5949   calculate D2E/DX2 analytically            !
 !       a2        102.2975   calculate D2E/DX2 analytically            !
 !       a3        109.0696   calculate D2E/DX2 analytically            !
 !       d1        180.0      calculate D2E/DX2 analytically            !
 !       d2        180.0      calculate D2E/DX2 analytically            !
 ------------------------------------------------------------------------
 Trust Radius=3.00D-01 FncErr=1.00D-07 GrdErr=1.00D-07 EigMax=2.50D+02 EigMin=1.00D-04
 Number of steps in this run=      2 maximum allowed number of steps=      2.
 GradGradGradGradGradGradGradGradGradGradGradGradGradGradGradGradGradGrad

 Leave Link  103 at Mon Feb 21 20:20:36 2022, MaxMem= 16106127360 cpu:               1.3 elap:               0.1
 (Enter /sw/contrib/gaussian/g16/B01/g16/l202.exe)
                          Input orientation:                          
 ---------------------------------------------------------------------
 Center     Atomic      Atomic             Coordinates (Angstroms)
 Number     Number       Type             X           Y           Z
 ---------------------------------------------------------------------
      1          1           0        0.000000    0.000000    0.000000
      2          8           0        0.000000    0.000000    0.968976
      3          8           0        1.442156    0.000000    1.161271
      4          7           0        1.559332    0.000000    2.585733
      5          8           0        2.693448    0.000000    2.876228
 ---------------------------------------------------------------------
                    Distance matrix (angstroms):
                    1          2          3          4          5
     1  H    0.000000
     2  O    0.968976   0.000000
     3  O    1.851584   1.454919   0.000000
     4  N    3.019525   2.246202   1.429274   0.000000
     5  O    3.940476   3.300345   2.122925   1.170729   0.000000
 Stoichiometry    HNO3
 Framework group  CS[SG(HNO3)]
 Deg. of freedom     7
 Full point group                 CS      NOp   2
 Largest Abelian subgroup         CS      NOp   2
 Largest concise Abelian subgroup C1      NOp   1
                         Standard orientation:                         
 ---------------------------------------------------------------------
 Center     Atomic      Atomic             Coordinates (Angstroms)
 Number     Number       Type             X           Y           Z
 ---------------------------------------------------------------------
      1          1           0        1.552917    1.667776    0.000000
      2          8           0        1.454241    0.703838   -0.000000
      3          8           0        0.000000    0.659405    0.000000
      4          7           0       -0.261628   -0.745719   -0.000000
      5          8           0       -1.419431   -0.919211    0.000000
 ---------------------------------------------------------------------
 Rotational constants (GHZ):          56.2491747           5.0863871           4.6645872
 Leave Link  202 at Mon Feb 21 20:20:36 2022, MaxMem= 16106127360 cpu:               0.3 elap:               0.0
 (Enter /sw/contrib/gaussian/g16/B01/g16/l301.exe)
 Standard basis: Aug-CC-pVTZ (5D, 7F)
 Ernie: Thresh=  0.10000D-02 Tol=  0.10000D-05 Strict=F.
 Ernie:  12 primitive shells out of 131 were deleted.
 There are   166 symmetry adapted cartesian basis functions of A'  symmetry.
 There are    79 symmetry adapted cartesian basis functions of A"  symmetry.
 There are   136 symmetry adapted basis functions of A'  symmetry.
 There are    71 symmetry adapted basis functions of A"  symmetry.
   207 basis functions,   315 primitive gaussians,   245 cartesian basis functions
    16 alpha electrons       16 beta electrons
       nuclear repulsion energy       117.6879950589 Hartrees.
 IExCor=    0 DFT=F Ex=HF Corr=None ExCW=0 ScaHFX=  1.000000
 ScaDFX=  1.000000  1.000000  1.000000  1.000000 ScalE2=  1.000000  1.000000
 IRadAn=      5 IRanWt=     -1 IRanGd=            0 ICorTp=0 IEmpDi=  4
 NAtoms=    5 NActive=    5 NUniq=    5 SFac= 1.00D+00 NAtFMM=   60 NAOKFM=F Big=F
 Integral buffers will be    131072 words long.
 Raffenetti 1 integral format.
 Two-electron integral symmetry is turned on.
 Leave Link  301 at Mon Feb 21 20:20:36 2022, MaxMem= 16106127360 cpu:               1.8 elap:               0.1
 (Enter /sw/contrib/gaussian/g16/B01/g16/l302.exe)
 NPDir=0 NMtPBC=     1 NCelOv=     1 NCel=       1 NClECP=     1 NCelD=      1
         NCelK=      1 NCelE2=     1 NClLst=     1 CellRange=     0.0.
 One-electron integrals computed using PRISM.
 One-electron integral symmetry used in STVInt
 NBasis=   207 RedAO= T EigKep=  1.78D-04  NBF=   136    71
 NBsUse=   207 1.00D-06 EigRej= -1.00D+00 NBFU=   136    71
 Leave Link  302 at Mon Feb 21 20:20:36 2022, MaxMem= 16106127360 cpu:               4.5 elap:               0.2
 (Enter /sw/contrib/gaussian/g16/B01/g16/l303.exe)
 DipDrv:  MaxL=1.
 Leave Link  303 at Mon Feb 21 20:20:36 2022, MaxMem= 16106127360 cpu:               2.2 elap:               0.1
 (Enter /sw/contrib/gaussian/g16/B01/g16/l401.exe)
 ExpMin= 2.53D-02 ExpMax= 1.53D+04 ExpMxC= 5.22D+02 IAcc=3 IRadAn=         5 AccDes= 0.00D+00
 Harris functional with IExCor=  205 and IRadAn=       5 diagonalized for initial guess.
 HarFok:  IExCor=  205 AccDes= 0.00D+00 IRadAn=         5 IDoV= 1 UseB2=F ITyADJ=14
 ICtDFT=  3500011 ScaDFX=  1.000000  1.000000  1.000000  1.000000
 FoFCou: FMM=F IPFlag=           0 FMFlag=      100000 FMFlg1=           0
         NFxFlg=           0 DoJE=T BraDBF=F KetDBF=T FulRan=T
         wScrn=  0.000000 ICntrl=       500 IOpCl=  0 I1Cent=   200000004 NGrid=           0
         NMat0=    1 NMatS0=      1 NMatT0=    0 NMatD0=    1 NMtDS0=    0 NMtDT0=    0
 Petite list used in FoFCou.
 Harris En= -279.629756099285    
 JPrj=0 DoOrth=F DoCkMO=F.
 Initial guess orbital symmetries:
       Occupied  (A') (A') (A') (A') (A') (A') (A') (A') (A') (A')
                 (A") (A') (A') (A") (A") (A')
       Virtual   (A") (A') (A') (A') (A') (A') (A") (A') (A') (A')
                 (A") (A') (A") (A') (A') (A") (A') (A") (A') (A')
                 (A') (A') (A') (A') (A') (A") (A') (A") (A') (A')
                 (A") (A') (A") (A') (A') (A") (A') (A") (A') (A')
                 (A") (A') (A") (A') (A") (A') (A') (A') (A") (A")
                 (A') (A') (A') (A') (A") (A') (A") (A') (A") (A')
                 (A') (A') (A") (A') (A') (A") (A') (A") (A') (A')
                 (A") (A') (A') (A") (A") (A') (A') (A") (A') (A')
                 (A') (A") (A') (A") (A') (A") (A') (A") (A') (A')
                 (A') (A") (A') (A") (A') (A") (A") (A') (A") (A')
                 (A') (A') (A") (A') (A') (A') (A") (A') (A") (A')
                 (A") (A') (A') (A') (A") (A') (A') (A') (A") (A')
                 (A") (A') (A') (A") (A") (A') (A') (A") (A") (A')
                 (A') (A') (A') (A") (A") (A') (A") (A') (A') (A')
                 (A') (A") (A") (A') (A') (A") (A') (A') (A') (A')
                 (A") (A') (A') (A") (A') (A") (A') (A") (A') (A")
                 (A') (A") (A') (A") (A') (A") (A") (A") (A') (A')
                 (A") (A') (A") (A') (A") (A') (A") (A") (A') (A')
                 (A') (A') (A') (A') (A') (A') (A') (A') (A') (A')
                 (A')
 The electronic state of the initial guess is 1-A'.
 Leave Link  401 at Mon Feb 21 20:20:36 2022, MaxMem= 16106127360 cpu:               7.0 elap:               0.3
 (Enter /sw/contrib/gaussian/g16/B01/g16/l502.exe)
 Keep R1 ints in memory in symmetry-blocked form, NReq=348887737.
 FoFCou: FMM=F IPFlag=           0 FMFlag=           0 FMFlg1=           0
         NFxFlg=           0 DoJE=F BraDBF=F KetDBF=F FulRan=T
         wScrn=  0.000000 ICntrl=       600 IOpCl=  0 I1Cent=           0 NGrid=           0
         NMat0=    1 NMatS0=  21528 NMatT0=    0 NMatD0=    1 NMtDS0=    0 NMtDT0=    0
 Petite list used in FoFCou.
 Closed shell SCF:
 Using DIIS extrapolation, IDIIS=  1040.
 NGot= 16106127360 LenX= 15988850015 LenY= 15988789549
 Requested convergence on RMS density matrix=1.00D-08 within 128 cycles.
 Requested convergence on MAX density matrix=1.00D-06.
 Requested convergence on             energy=1.00D-06.
 No special actions if energy rises.

 Cycle   1  Pass 1  IDiag  1:
 E= -279.369721575304    
 DIIS: error= 2.55D-02 at cycle   1 NSaved=   1.
 NSaved= 1 IEnMin= 1 EnMin= -279.369721575304     IErMin= 1 ErrMin= 2.55D-02
 ErrMax= 2.55D-02  0.00D+00 EMaxC= 1.00D-01 BMatC= 4.43D-01 BMatP= 4.43D-01
 IDIUse=3 WtCom= 7.45D-01 WtEn= 2.55D-01
 Coeff-Com:  0.100D+01
 Coeff-En:   0.100D+01
 Coeff:      0.100D+01
 Gap=     0.522 Goal=   None    Shift=    0.000
 GapD=    0.522 DampG=2.000 DampE=0.500 DampFc=1.0000 IDamp=-1.
 RMSDP=1.65D-03 MaxDP=9.70D-02              OVMax= 1.18D-01

 Cycle   2  Pass 1  IDiag  1:
 E= -279.451321390111     Delta-E=       -0.081599814807 Rises=F Damp=F
 DIIS: error= 1.79D-02 at cycle   2 NSaved=   2.
 NSaved= 2 IEnMin= 2 EnMin= -279.451321390111     IErMin= 2 ErrMin= 1.79D-02
 ErrMax= 1.79D-02  0.00D+00 EMaxC= 1.00D-01 BMatC= 7.80D-02 BMatP= 4.43D-01
 IDIUse=3 WtCom= 8.21D-01 WtEn= 1.79D-01
 Coeff-Com:  0.206D+00 0.794D+00
 Coeff-En:   0.334D-01 0.967D+00
 Coeff:      0.175D+00 0.825D+00
 Gap=     0.534 Goal=   None    Shift=    0.000
 RMSDP=9.22D-04 MaxDP=3.81D-02 DE=-8.16D-02 OVMax= 6.63D-02

 Cycle   3  Pass 1  IDiag  1:
 E= -279.484094593787     Delta-E=       -0.032773203676 Rises=F Damp=F
 DIIS: error= 9.62D-03 at cycle   3 NSaved=   3.
 NSaved= 3 IEnMin= 3 EnMin= -279.484094593787     IErMin= 3 ErrMin= 9.62D-03
 ErrMax= 9.62D-03  0.00D+00 EMaxC= 1.00D-01 BMatC= 2.88D-02 BMatP= 7.80D-02
 IDIUse=3 WtCom= 9.04D-01 WtEn= 9.62D-02
 Coeff-Com: -0.338D-01 0.368D+00 0.666D+00
 Coeff-En:   0.000D+00 0.224D+00 0.776D+00
 Coeff:     -0.306D-01 0.354D+00 0.677D+00
 Gap=     0.510 Goal=   None    Shift=    0.000
 RMSDP=3.78D-04 MaxDP=1.48D-02 DE=-3.28D-02 OVMax= 4.05D-02

 Cycle   4  Pass 1  IDiag  1:
 E= -279.503285839645     Delta-E=       -0.019191245858 Rises=F Damp=F
 DIIS: error= 1.25D-03 at cycle   4 NSaved=   4.
 NSaved= 4 IEnMin= 4 EnMin= -279.503285839645     IErMin= 4 ErrMin= 1.25D-03
 ErrMax= 1.25D-03  0.00D+00 EMaxC= 1.00D-01 BMatC= 4.63D-04 BMatP= 2.88D-02
 IDIUse=3 WtCom= 9.87D-01 WtEn= 1.25D-02
 Coeff-Com: -0.110D-01 0.468D-01 0.145D+00 0.819D+00
 Coeff-En:   0.000D+00 0.000D+00 0.000D+00 0.100D+01
 Coeff:     -0.108D-01 0.462D-01 0.143D+00 0.821D+00
 Gap=     0.502 Goal=   None    Shift=    0.000
 RMSDP=8.98D-05 MaxDP=2.67D-03 DE=-1.92D-02 OVMax= 1.06D-02

 Cycle   5  Pass 1  IDiag  1:
 E= -279.503931573854     Delta-E=       -0.000645734209 Rises=F Damp=F
 DIIS: error= 6.83D-04 at cycle   5 NSaved=   5.
 NSaved= 5 IEnMin= 5 EnMin= -279.503931573854     IErMin= 5 ErrMin= 6.83D-04
 ErrMax= 6.83D-04  0.00D+00 EMaxC= 1.00D-01 BMatC= 8.18D-05 BMatP= 4.63D-04
 IDIUse=3 WtCom= 9.93D-01 WtEn= 6.83D-03
 Coeff-Com:  0.593D-02-0.681D-01-0.113D+00 0.304D-01 0.114D+01
 Coeff-En:   0.000D+00 0.000D+00 0.000D+00 0.000D+00 0.100D+01
 Coeff:      0.589D-02-0.676D-01-0.112D+00 0.302D-01 0.114D+01
 Gap=     0.502 Goal=   None    Shift=    0.000
 RMSDP=7.25D-05 MaxDP=2.03D-03 DE=-6.46D-04 OVMax= 1.07D-02

 Cycle   6  Pass 1  IDiag  1:
 E= -279.504218156605     Delta-E=       -0.000286582751 Rises=F Damp=F
 DIIS: error= 2.84D-04 at cycle   6 NSaved=   6.
 NSaved= 6 IEnMin= 6 EnMin= -279.504218156605     IErMin= 6 ErrMin= 2.84D-04
 ErrMax= 2.84D-04  0.00D+00 EMaxC= 1.00D-01 BMatC= 1.58D-05 BMatP= 8.18D-05
 IDIUse=3 WtCom= 9.97D-01 WtEn= 2.84D-03
 Coeff-Com:  0.509D-03 0.239D-02 0.543D-02-0.137D+00-0.215D+00 0.134D+01
 Coeff-En:   0.000D+00 0.000D+00 0.000D+00 0.000D+00 0.000D+00 0.100D+01
 Coeff:      0.507D-03 0.238D-02 0.541D-02-0.137D+00-0.215D+00 0.134D+01
 Gap=     0.502 Goal=   None    Shift=    0.000
 RMSDP=4.27D-05 MaxDP=1.16D-03 DE=-2.87D-04 OVMax= 5.34D-03

 Cycle   7  Pass 1  IDiag  1:
 E= -279.504283513449     Delta-E=       -0.000065356845 Rises=F Damp=F
 DIIS: error= 1.01D-04 at cycle   7 NSaved=   7.
 NSaved= 7 IEnMin= 7 EnMin= -279.504283513449     IErMin= 7 ErrMin= 1.01D-04
 ErrMax= 1.01D-04  0.00D+00 EMaxC= 1.00D-01 BMatC= 3.81D-06 BMatP= 1.58D-05
 IDIUse=3 WtCom= 9.99D-01 WtEn= 1.01D-03
 Coeff-Com: -0.903D-03 0.124D-01 0.246D-01-0.225D-01-0.263D+00 0.332D+00
 Coeff-Com:  0.918D+00
 Coeff-En:   0.000D+00 0.000D+00 0.000D+00 0.000D+00 0.000D+00 0.000D+00
 Coeff-En:   0.100D+01
 Coeff:     -0.902D-03 0.124D-01 0.246D-01-0.225D-01-0.263D+00 0.331D+00
 Coeff:      0.918D+00
 Gap=     0.502 Goal=   None    Shift=    0.000
 RMSDP=1.25D-05 MaxDP=3.52D-04 DE=-6.54D-05 OVMax= 1.49D-03

 Cycle   8  Pass 1  IDiag  1:
 E= -279.504291253573     Delta-E=       -0.000007740124 Rises=F Damp=F
 DIIS: error= 5.61D-05 at cycle   8 NSaved=   8.
 NSaved= 8 IEnMin= 8 EnMin= -279.504291253573     IErMin= 8 ErrMin= 5.61D-05
 ErrMax= 5.61D-05  0.00D+00 EMaxC= 1.00D-01 BMatC= 5.46D-07 BMatP= 3.81D-06
 IDIUse=1 WtCom= 1.00D+00 WtEn= 0.00D+00
 Coeff-Com: -0.410D-03 0.304D-02 0.690D-02 0.266D-01-0.418D-01-0.190D+00
 Coeff-Com:  0.206D+00 0.990D+00
 Coeff:     -0.410D-03 0.304D-02 0.690D-02 0.266D-01-0.418D-01-0.190D+00
 Coeff:      0.206D+00 0.990D+00
 Gap=     0.502 Goal=   None    Shift=    0.000
 RMSDP=6.08D-06 MaxDP=1.87D-04 DE=-7.74D-06 OVMax= 6.59D-04

 Cycle   9  Pass 1  IDiag  1:
 E= -279.504292743782     Delta-E=       -0.000001490209 Rises=F Damp=F
 DIIS: error= 1.60D-05 at cycle   9 NSaved=   9.
 NSaved= 9 IEnMin= 9 EnMin= -279.504292743782     IErMin= 9 ErrMin= 1.60D-05
 ErrMax= 1.60D-05  0.00D+00 EMaxC= 1.00D-01 BMatC= 6.85D-08 BMatP= 5.46D-07
 IDIUse=1 WtCom= 1.00D+00 WtEn= 0.00D+00
 Coeff-Com:  0.108D-03-0.155D-02-0.278D-02-0.795D-03 0.328D-01-0.622D-02
 Coeff-Com: -0.176D+00-0.537D-01 0.121D+01
 Coeff:      0.108D-03-0.155D-02-0.278D-02-0.795D-03 0.328D-01-0.622D-02
 Coeff:     -0.176D+00-0.537D-01 0.121D+01
 Gap=     0.502 Goal=   None    Shift=    0.000
 RMSDP=1.85D-06 MaxDP=6.35D-05 DE=-1.49D-06 OVMax= 1.73D-04

 Cycle  10  Pass 1  IDiag  1:
 E= -279.504292896757     Delta-E=       -0.000000152975 Rises=F Damp=F
 DIIS: error= 4.27D-06 at cycle  10 NSaved=  10.
 NSaved=10 IEnMin=10 EnMin= -279.504292896757     IErMin=10 ErrMin= 4.27D-06
 ErrMax= 4.27D-06  0.00D+00 EMaxC= 1.00D-01 BMatC= 5.71D-09 BMatP= 6.85D-08
 IDIUse=1 WtCom= 1.00D+00 WtEn= 0.00D+00
 Coeff-Com:  0.339D-04-0.269D-03-0.392D-03-0.292D-02 0.255D-02 0.211D-01
 Coeff-Com: -0.207D-01-0.790D-01-0.675D-01 0.115D+01
 Coeff:      0.339D-04-0.269D-03-0.392D-03-0.292D-02 0.255D-02 0.211D-01
 Coeff:     -0.207D-01-0.790D-01-0.675D-01 0.115D+01
 Gap=     0.502 Goal=   None    Shift=    0.000
 RMSDP=5.19D-07 MaxDP=2.16D-05 DE=-1.53D-07 OVMax= 4.53D-05

 Cycle  11  Pass 1  IDiag  1:
 E= -279.504292910051     Delta-E=       -0.000000013294 Rises=F Damp=F
 DIIS: error= 2.01D-06 at cycle  11 NSaved=  11.
 NSaved=11 IEnMin=11 EnMin= -279.504292910051     IErMin=11 ErrMin= 2.01D-06
 ErrMax= 2.01D-06  0.00D+00 EMaxC= 1.00D-01 BMatC= 6.82D-10 BMatP= 5.71D-09
 IDIUse=1 WtCom= 1.00D+00 WtEn= 0.00D+00
 Coeff-Com: -0.212D-04 0.237D-03 0.482D-03 0.525D-03-0.451D-02-0.351D-02
 Coeff-Com:  0.241D-01 0.294D-01-0.140D+00-0.208D+00 0.130D+01
 Coeff:     -0.212D-04 0.237D-03 0.482D-03 0.525D-03-0.451D-02-0.351D-02
 Coeff:      0.241D-01 0.294D-01-0.140D+00-0.208D+00 0.130D+01
 Gap=     0.502 Goal=   None    Shift=    0.000
 RMSDP=1.87D-07 MaxDP=7.10D-06 DE=-1.33D-08 OVMax= 1.74D-05

 Cycle  12  Pass 1  IDiag  1:
 E= -279.504292911955     Delta-E=       -0.000000001904 Rises=F Damp=F
 DIIS: error= 5.47D-07 at cycle  12 NSaved=  12.
 NSaved=12 IEnMin=12 EnMin= -279.504292911955     IErMin=12 ErrMin= 5.47D-07
 ErrMax= 5.47D-07  0.00D+00 EMaxC= 1.00D-01 BMatC= 6.52D-11 BMatP= 6.82D-10
 IDIUse=1 WtCom= 1.00D+00 WtEn= 0.00D+00
 Coeff-Com:  0.952D-06-0.250D-04-0.549D-04 0.216D-03 0.986D-03-0.236D-02
 Coeff-Com: -0.395D-02 0.627D-02 0.402D-01-0.101D+00-0.285D+00 0.134D+01
 Coeff:      0.952D-06-0.250D-04-0.549D-04 0.216D-03 0.986D-03-0.236D-02
 Coeff:     -0.395D-02 0.627D-02 0.402D-01-0.101D+00-0.285D+00 0.134D+01
 Gap=     0.502 Goal=   None    Shift=    0.000
 RMSDP=7.02D-08 MaxDP=2.78D-06 DE=-1.90D-09 OVMax= 6.15D-06

 Cycle  13  Pass 1  IDiag  1:
 E= -279.504292912162     Delta-E=       -0.000000000206 Rises=F Damp=F
 DIIS: error= 1.54D-07 at cycle  13 NSaved=  13.
 NSaved=13 IEnMin=13 EnMin= -279.504292912162     IErMin=13 ErrMin= 1.54D-07
 ErrMax= 1.54D-07  0.00D+00 EMaxC= 1.00D-01 BMatC= 3.25D-12 BMatP= 6.52D-11
 IDIUse=1 WtCom= 1.00D+00 WtEn= 0.00D+00
 Coeff-Com:  0.121D-05-0.130D-04-0.217D-04-0.847D-04 0.142D-03 0.693D-03
 Coeff-Com: -0.102D-02-0.295D-02 0.737D-03 0.366D-01-0.317D-01-0.296D+00
 Coeff-Com:  0.129D+01
 Coeff:      0.121D-05-0.130D-04-0.217D-04-0.847D-04 0.142D-03 0.693D-03
 Coeff:     -0.102D-02-0.295D-02 0.737D-03 0.366D-01-0.317D-01-0.296D+00
 Coeff:      0.129D+01
 Gap=     0.502 Goal=   None    Shift=    0.000
 RMSDP=1.73D-08 MaxDP=4.67D-07 DE=-2.06D-10 OVMax= 1.41D-06

 Cycle  14  Pass 1  IDiag  1:
 E= -279.504292912174     Delta-E=       -0.000000000012 Rises=F Damp=F
 DIIS: error= 2.06D-08 at cycle  14 NSaved=  14.
 NSaved=14 IEnMin=14 EnMin= -279.504292912174     IErMin=14 ErrMin= 2.06D-08
 ErrMax= 2.06D-08  0.00D+00 EMaxC= 1.00D-01 BMatC= 1.54D-13 BMatP= 3.25D-12
 IDIUse=1 WtCom= 1.00D+00 WtEn= 0.00D+00
 Coeff-Com: -0.159D-06 0.261D-05 0.471D-05 0.267D-05-0.744D-04 0.467D-04
 Coeff-Com:  0.288D-03 0.149D-03-0.223D-02 0.104D-02 0.158D-01-0.261D-01
 Coeff-Com: -0.188D+00 0.120D+01
 Coeff:     -0.159D-06 0.261D-05 0.471D-05 0.267D-05-0.744D-04 0.467D-04
 Coeff:      0.288D-03 0.149D-03-0.223D-02 0.104D-02 0.158D-01-0.261D-01
 Coeff:     -0.188D+00 0.120D+01
 Gap=     0.502 Goal=   None    Shift=    0.000
 RMSDP=3.43D-09 MaxDP=8.64D-08 DE=-1.21D-11 OVMax= 3.08D-07

 SCF Done:  E(RHF) =  -279.504292912     A.U. after   14 cycles
            NFock= 14  Conv=0.34D-08     -V/T= 2.0022
 KE= 2.788957446097D+02 PE=-8.967110164938D+02 EE= 2.206229839130D+02
 Leave Link  502 at Mon Feb 21 20:20:40 2022, MaxMem= 16106127360 cpu:              55.1 elap:               3.6
 (Enter /sw/contrib/gaussian/g16/B01/g16/l801.exe)
 ExpMin= 2.53D-02 ExpMax= 1.53D+04 ExpMxC= 5.22D+02 IAcc=3 IRadAn=         5 AccDes= 0.00D+00
 HarFok:  IExCor=  205 AccDes= 0.00D+00 IRadAn=         5 IDoV=-2 UseB2=F ITyADJ=14
 ICtDFT= 12500011 ScaDFX=  1.000000  1.000000  1.000000  1.000000
 Largest valence mixing into a core orbital is  2.07D-04
 Largest core mixing into a valence orbital is  3.53D-05
 Range of M.O.s used for correlation:     5   207
 NBasis=   207 NAE=    16 NBE=    16 NFC=     4 NFV=     0
 NROrb=    203 NOA=    12 NOB=    12 NVA=   191 NVB=   191

 **** Warning!!: The largest alpha MO coefficient is  0.17990353D+02

 Leave Link  801 at Mon Feb 21 20:20:40 2022, MaxMem= 16106127360 cpu:               2.1 elap:               0.1
 (Enter /sw/contrib/gaussian/g16/B01/g16/l906.exe)
 Frozen-core derivative calculation, NFC=   4 NFV=   0.
 FulOut=F Deriv=T AODrv=T NAtomX=     5
   MMem=           0  MDisk=          12 MDiskD=          12
  W3Min=      811440 MinDsk=     2425030 NBas6D=         245
 NBas2D=       30762    NTT=       30135    LW2=     7400000
    MDV= 16105574227 MDiskM=      328644 NBas2p=       30702
 Disk-based method using ON**2 memory for 12 occupieds at a time.
 Permanent disk used for amplitudes=    11516536 words.
 Estimated scratch disk usage=   321251614 words.
 IMap=   1   2   3   4   5   6   7   8   9  10  11  12  13  14  15  16
 Actual    scratch disk usage=   310331678 words.
 JobTyp=1 Pass  1:  I=   5 to  16 NPSUse= 28 ParTrn=T ParDer=T DoDerP=T.
 (rs|ai) integrals will be sorted in core.
 Spin components of T(2) and E(2):
     alpha-alpha T2 =       0.3367616660D-01 E2=     -0.1220801192D+00
     alpha-beta  T2 =       0.1848153578D+00 E2=     -0.6980896006D+00
     beta-beta   T2 =       0.3367616660D-01 E2=     -0.1220801192D+00
 The integrals were generated   1 times.
 ANorm=    0.1119002990D+01
 E2 =    -0.9422498390D+00 EUMP2 =    -0.28044654275122D+03
 Leave Link  906 at Mon Feb 21 20:22:17 2022, MaxMem= 16106127360 cpu:            2705.8 elap:              96.8
 (Enter /sw/contrib/gaussian/g16/B01/g16/l1101.exe)
 Using compressed Sx but separate Hx and Fx, NAtomX=     5.
 Will process      6 centers per pass.
 Leave Link 1101 at Mon Feb 21 20:22:17 2022, MaxMem= 16106127360 cpu:               6.1 elap:               0.3
 (Enter /sw/contrib/gaussian/g16/B01/g16/l1102.exe)
 Leave Link 1102 at Mon Feb 21 20:22:17 2022, MaxMem= 16106127360 cpu:               1.6 elap:               0.1
 (Enter /sw/contrib/gaussian/g16/B01/g16/l1110.exe)
 Forming Gx(P) for the SCF density, NAtomX=     5.
 Integral derivatives from FoFJK, PRISM(SPDF).
 Do as many integral derivatives as possible in FoFJK.
 G2DrvN: MDV=   16106126844.
 G2DrvN: will do     6 centers at a time, making    1 passes.
 Calling FoFCou, ICntrl=  3107 FMM=F I1Cent=   0 AccDes= 0.00D+00.
 FoFJK:  IHMeth= 1 ICntrl=    3107 DoSepK=F KAlg= 0 I1Cent=           0 FoldK=F
 IRaf=         0 NMat=       1 IRICut=       1 DoRegI=T DoRafI=F ISym2E= 1 IDoP0=0 IntGTp=1.
 FoFCou: FMM=F IPFlag=           0 FMFlag=      100000 FMFlg1=           0
         NFxFlg=           0 DoJE=F BraDBF=F KetDBF=F FulRan=T
         wScrn=  0.000000 ICntrl=      3107 IOpCl=  0 I1Cent=           0 NGrid=           0
         NMat0=    1 NMatS0=      1 NMatT0=    0 NMatD0=    1 NMtDS0=    0 NMtDT0=    0
 Petite list used in FoFCou.
 End of G2Drv F.D. properties file   721 does not exist.
 End of G2Drv F.D. properties file   722 does not exist.
 End of G2Drv F.D. properties file   788 does not exist.
 Leave Link 1110 at Mon Feb 21 20:22:20 2022, MaxMem= 16106127360 cpu:              83.1 elap:               3.0
 (Enter /sw/contrib/gaussian/g16/B01/g16/l1002.exe)
 Minotr:  Closed shell wavefunction.
          IDoAtm=11111
          Frozen-core window.
          Direct CPHF calculation.
          Differentiating once with respect to electric field.
                with respect to dipole field.
          Differentiating once with respect to nuclear coordinates.
          Requested convergence is 1.0D-08 RMS, and 1.0D-07 maximum.
          Secondary convergence is 1.0D-12 RMS, and 1.0D-12 maximum.
          NewPWx=T KeepS1=T KeepF1=T KeepIn=T MapXYZ=F SortEE=F KeepMc=T.
 Keep R1 ints in memory in symmetry-blocked form, NReq=348888983.
 FoFCou: FMM=F IPFlag=           0 FMFlag=           0 FMFlg1=           0
         NFxFlg=           0 DoJE=F BraDBF=F KetDBF=F FulRan=T
         wScrn=  0.000000 ICntrl=       600 IOpCl=  0 I1Cent=           0 NGrid=           0
         NMat0=    1 NMatS0=  21528 NMatT0=    0 NMatD0=    1 NMtDS0=    0 NMtDT0=    0
 Petite list used in FoFCou.
          MDV=   16106127360 using IRadAn=       1.
          Solving linear equations simultaneously, MaxMat=       0.
          There are    18 degrees of freedom in the 1st order CPHF.  IDoFFX=6 NUNeed=    18.
     15 vectors produced by pass  0 Test12= 1.70D-14 5.56D-09 XBig12= 8.24D+00 1.01D+00.
 AX will form    15 AO Fock derivatives at one time.
     15 vectors produced by pass  1 Test12= 1.70D-14 5.56D-09 XBig12= 1.30D+00 2.08D-01.
     15 vectors produced by pass  2 Test12= 1.70D-14 5.56D-09 XBig12= 1.33D-01 9.10D-02.
     15 vectors produced by pass  3 Test12= 1.70D-14 5.56D-09 XBig12= 4.52D-03 1.00D-02.
     15 vectors produced by pass  4 Test12= 1.70D-14 5.56D-09 XBig12= 9.06D-05 1.73D-03.
     15 vectors produced by pass  5 Test12= 1.70D-14 5.56D-09 XBig12= 1.24D-06 1.50D-04.
     15 vectors produced by pass  6 Test12= 1.70D-14 5.56D-09 XBig12= 9.82D-09 1.44D-05.
     12 vectors produced by pass  7 Test12= 1.70D-14 5.56D-09 XBig12= 7.11D-11 1.21D-06.
      3 vectors produced by pass  8 Test12= 1.70D-14 5.56D-09 XBig12= 5.16D-13 1.17D-07.
      2 vectors produced by pass  9 Test12= 1.70D-14 5.56D-09 XBig12= 3.61D-15 1.02D-08.
 InvSVY:  IOpt=1 It=  1 EMax= 1.55D-15
 Solved reduced A of dimension   122 with    15 vectors.
 FullF1:  Do perturbations      1 to      18.
 Saving first derivative matrices.
 End of Minotr F.D. properties file   721 does not exist.
 End of Minotr F.D. properties file   722 does not exist.
 End of Minotr F.D. properties file   788 does not exist.
 Leave Link 1002 at Mon Feb 21 20:22:23 2022, MaxMem= 16106127360 cpu:              79.4 elap:               2.9
 (Enter /sw/contrib/gaussian/g16/B01/g16/l811.exe)
 MDV= 16106127360.
 Form MO integral derivatives with frozen-active canonical formalism.
 MOERI=1 MOERIx=1 NAtoms=     5 NAtomX=     5.
 Discarding MO integrals.
 MO basis two electron integral derivatives will not be stored on disk.
 IAlg= 3 DoFC=T DoPWx=T Debug=F.
 Frozen-core window:  NFC=   4 NFV=   0.
 Reordered first order wavefunction length =     18678272
 In DefCFB: NBatch=  1 ICI= 16 ICA=191 LFMax= 96
            Large arrays: LIAPS=   619940160 LIARS=   288257200 words.
 In StABat: MaxSiz= 55 MinSiz= 25 NAtomB=  5
 DoIAMN: NPSUse= 28.
 Leave Link  811 at Mon Feb 21 20:23:44 2022, MaxMem= 16106127360 cpu:            2270.9 elap:              81.3
 (Enter /sw/contrib/gaussian/g16/B01/g16/l804.exe)
 Frozen-core window:  NFC=   4 NFV=   0.
 Closed-shell transformation, MDV= 16106127360 ITran=4 ISComp=1.
 Semi-Direct transformation.
 ModeAB=           2 MOrb=            16 LenV=   16104922925
 LASXX=     67341636 LTotXX=    67341636 LenRXX=    67341636
 LTotAB=    68301760 MaxLAS=    99807120 LenRXY=    99807120
 NonZer=   134683272 LenScr=   202817536 LnRSAI=           0
 LnScr1=           0 LExtra=           0 Total=    369966292
 MaxDsk=          -1 SrtSym=           F ITran=            4
 DoSDTr:  NPSUse= 28
 JobTyp=0 Pass  1:  I=   1 to  16.
 (rs|ai) integrals will be sorted in core.
 Complete sort for first half transformation.
 First half transformation complete.
 Begin second half transformation for I=  10.
 Begin second half transformation for I=  10.
 Complete sort for second half transformation.
 Second half transformation complete.
 Spin components of T(2) and E(2):
     alpha-alpha T2 =       0.3367616660D-01 E2=     -0.1220801192D+00
     alpha-beta  T2 =       0.1848153578D+00 E2=     -0.6980896006D+00
     beta-beta   T2 =       0.3367616660D-01 E2=     -0.1220801192D+00
 ANorm=    0.1582509204D+01
 E2 =    -0.9422498390D+00 EUMP2 =    -0.28044654275122D+03
 Leave Link  804 at Mon Feb 21 20:24:00 2022, MaxMem= 16106127360 cpu:             426.5 elap:              15.3
 (Enter /sw/contrib/gaussian/g16/B01/g16/l1002.exe)
 Minotr:  Closed shell wavefunction.
          Computing MP2/KS-MP2 derivatives.
          Using Z-Vector for PSCF gradient.
          Skipping F1 and S1 gradient terms here.
          IDoAtm=11111
          Frozen-core window.
          Using MO integrals in the linear equations.
          Forming densities via direct SCF.
          Differentiating once with respect to electric field.
                with respect to dipole field.
          Differentiating once with respect to nuclear coordinates.
          Using symmetry in CPHF.
          Requested convergence is 1.0D-10 RMS, and 1.0D-09 maximum.
          NewPWx=F KeepS1=T KeepF1=T KeepIn=T MapXYZ=F SortEE=F KeepMc=T.
          MDV=   16106127360 using IRadAn=       5.
          Solving linear equations separately, MaxMat=       0.
          There are     1 degrees of freedom in the 1st order CPHF.  IDoFFX=0 NUNeed=     1.
 FoFJK:  IHMeth= 1 ICntrl=       0 DoSepK=F KAlg= 0 I1Cent=           0 FoldK=F
 IRaf=         0 NMat=       1 IRICut=       1 DoRegI=T DoRafI=F ISym2E= 0 IDoP0=0 IntGTp=1.
 FoFCou: FMM=F IPFlag=           0 FMFlag=      100000 FMFlg1=           0
         NFxFlg=           0 DoJE=F BraDBF=F KetDBF=F FulRan=T
         wScrn=  0.000000 ICntrl=         0 IOpCl=  0 I1Cent=           0 NGrid=           0
         NMat0=    1 NMatS0=      1 NMatT0=    0 NMatD0=    1 NMtDS0=    0 NMtDT0=    0
 Symmetry not used in FoFCou.
 LinEq1:  Iter=  0 NonCon=     1 RMS=5.85D-03 Max=1.33D-01 NDo=     1
 LinEq1:  Iter=  1 NonCon=     1 RMS=1.82D-03 Max=3.58D-02 NDo=     1
 LinEq1:  Iter=  2 NonCon=     1 RMS=8.26D-04 Max=1.17D-02 NDo=     1
 LinEq1:  Iter=  3 NonCon=     1 RMS=3.66D-04 Max=7.77D-03 NDo=     1
 LinEq1:  Iter=  4 NonCon=     1 RMS=1.13D-04 Max=1.35D-03 NDo=     1
 LinEq1:  Iter=  5 NonCon=     1 RMS=4.35D-05 Max=6.94D-04 NDo=     1
 LinEq1:  Iter=  6 NonCon=     1 RMS=1.96D-05 Max=2.20D-04 NDo=     1
 LinEq1:  Iter=  7 NonCon=     1 RMS=7.69D-06 Max=1.40D-04 NDo=     1
 LinEq1:  Iter=  8 NonCon=     1 RMS=3.29D-06 Max=2.97D-05 NDo=     1
 LinEq1:  Iter=  9 NonCon=     1 RMS=8.88D-07 Max=1.12D-05 NDo=     1
 LinEq1:  Iter= 10 NonCon=     1 RMS=1.69D-07 Max=1.75D-06 NDo=     1
 LinEq1:  Iter= 11 NonCon=     1 RMS=3.07D-08 Max=3.05D-07 NDo=     1
 LinEq1:  Iter= 12 NonCon=     1 RMS=7.38D-09 Max=1.10D-07 NDo=     1
 LinEq1:  Iter= 13 NonCon=     1 RMS=1.36D-09 Max=2.18D-08 NDo=     1
 LinEq1:  Iter= 14 NonCon=     1 RMS=2.42D-10 Max=3.07D-09 NDo=     1
 LinEq1:  Iter= 15 NonCon=     0 RMS=4.38D-11 Max=4.45D-10 NDo=     1
 Linear equations converged to 1.000D-10 1.000D-09 after    15 iterations.
 End of Minotr F.D. properties file   721 does not exist.
 End of Minotr F.D. properties file   722 does not exist.
 End of Minotr F.D. properties file   788 does not exist.
 Leave Link 1002 at Mon Feb 21 20:24:02 2022, MaxMem= 16106127360 cpu:              64.2 elap:               2.3
 (Enter /sw/contrib/gaussian/g16/B01/g16/l1102.exe)
 Use density number 2.
 Symmetrizing basis deriv contribution to polar:
 IMax=3 JMax=2 DiffMx= 0.00D+00
 Leave Link 1102 at Mon Feb 21 20:24:02 2022, MaxMem= 16106127360 cpu:               0.6 elap:               0.1
 (Enter /sw/contrib/gaussian/g16/B01/g16/l1110.exe)
 Forming Gx(P) for generalized density number  2 NAtomX=     5.
 Integral derivatives from FoFJK, PRISM(SPDF).
 Do as many integral derivatives as possible in FoFJK.
 G2DrvN: MDV=   16106126844.
 G2DrvN: will do     6 centers at a time, making    1 passes.
 Calling FoFCou, ICntrl=  3107 FMM=F I1Cent=   0 AccDes= 0.00D+00.
 FoFJK:  IHMeth= 1 ICntrl=    3107 DoSepK=F KAlg= 0 I1Cent=           0 FoldK=F
 IRaf=         0 NMat=       1 IRICut=       1 DoRegI=T DoRafI=F ISym2E= 1 IDoP0=0 IntGTp=1.
 FoFCou: FMM=F IPFlag=           0 FMFlag=      100000 FMFlg1=           0
         NFxFlg=           0 DoJE=F BraDBF=F KetDBF=F FulRan=T
         wScrn=  0.000000 ICntrl=      3107 IOpCl=  0 I1Cent=           0 NGrid=           0
         NMat0=    1 NMatS0=      1 NMatT0=    0 NMatD0=    1 NMtDS0=    0 NMtDT0=    0
 Petite list used in FoFCou.
 End of G2Drv F.D. properties file   721 does not exist.
 End of G2Drv F.D. properties file   722 does not exist.
 End of G2Drv F.D. properties file   788 does not exist.
 Leave Link 1110 at Mon Feb 21 20:24:05 2022, MaxMem= 16106127360 cpu:              83.4 elap:               3.0
 (Enter /sw/contrib/gaussian/g16/B01/g16/l1112.exe)
 MP22nd: MDV=   16106127360
 This link is doing NAtomX=     5 total of    18 degrees of freedom.
 Using ON3 I/O method in MakUI.
 Frozen-core window:  NFC=   4 NFV=   0.
 Using Ix for Sx.
 Use MO integrals over full window.
 Using OV2 memory method for fx*t*t/D, MaxI=    16 DoOO2=F NP=  28.
 R2 and R3 integrals will be kept in memory, NReq=   915591705.
 FoFCou: FMM=F IPFlag=           0 FMFlag=           0 FMFlg1=           0
         NFxFlg=           0 DoJE=F BraDBF=F KetDBF=F FulRan=T
         wScrn=  0.000000 ICntrl=       600 IOpCl=  0 I1Cent=           0 NGrid=           0
         NMat0=    1 NMatS0=      1 NMatT0=    0 NMatD0=    1 NMtDS0=    0 NMtDT0=    0
 Symmetry not used in FoFCou.
 DD1Dir will call FoFMem   1 times, MxPair=       272
 NAB=   136 NAA=     0 NBB=     0.
 Symmetry is being used.
 FoFJK:  IHMeth= 1 ICntrl=       0 DoSepK=F KAlg= 0 I1Cent=           0 FoldK=F
 IRaf=         0 NMat=      18 IRICut=      45 DoRegI=T DoRafI=T ISym2E= 2 IDoP0=3 IntGTp=3.
 Discarding MO integrals.
 Leave Link 1112 at Mon Feb 21 20:24:41 2022, MaxMem= 16106127360 cpu:             996.1 elap:              36.0
 (Enter /sw/contrib/gaussian/g16/B01/g16/l601.exe)
 Copying SCF densities to generalized density rwf, IOpCl= 0 IROHF=0.

 **********************************************************************

            Population analysis using the MP2 Density.

 **********************************************************************

 Orbital symmetries:
       Occupied  (A') (A') (A') (A') (A') (A') (A') (A') (A') (A')
                 (A") (A') (A") (A') (A") (A')
       Virtual   (A') (A") (A') (A') (A') (A") (A') (A') (A") (A')
                 (A") (A') (A') (A') (A") (A') (A') (A") (A') (A')
                 (A') (A') (A') (A') (A") (A') (A') (A") (A') (A')
                 (A") (A') (A") (A') (A') (A") (A') (A") (A') (A")
                 (A') (A') (A") (A') (A') (A") (A') (A') (A") (A')
                 (A") (A') (A') (A') (A") (A') (A") (A') (A") (A')
                 (A') (A') (A") (A') (A') (A") (A') (A") (A') (A')
                 (A") (A') (A') (A") (A") (A') (A') (A") (A') (A')
                 (A') (A") (A') (A") (A") (A') (A') (A") (A') (A')
                 (A") (A') (A') (A") (A') (A") (A') (A") (A') (A')
                 (A") (A') (A") (A') (A') (A') (A") (A') (A") (A')
                 (A") (A') (A') (A') (A") (A') (A') (A') (A") (A')
                 (A") (A') (A") (A') (A') (A") (A") (A') (A") (A')
                 (A') (A') (A') (A") (A") (A") (A') (A') (A') (A')
                 (A") (A') (A") (A') (A') (A") (A') (A') (A') (A')
                 (A") (A') (A') (A") (A') (A") (A') (A") (A') (A")
                 (A') (A") (A') (A") (A') (A") (A") (A') (A") (A')
                 (A") (A') (A") (A') (A") (A') (A") (A") (A') (A')
                 (A') (A') (A') (A') (A') (A') (A') (A') (A') (A')
                 (A')
 The electronic state is 1-A'.
 Alpha  occ. eigenvalues --  -20.69588 -20.67723 -20.66358 -15.80812  -1.62625
 Alpha  occ. eigenvalues --   -1.49967  -1.26335  -0.94600  -0.77523  -0.76284
 Alpha  occ. eigenvalues --   -0.71721  -0.67785  -0.61888  -0.59092  -0.48815
 Alpha  occ. eigenvalues --   -0.47351
 Alpha virt. eigenvalues --    0.02882   0.07550   0.08646   0.10203   0.13369
 Alpha virt. eigenvalues --    0.13408   0.14349   0.15395   0.17761   0.19420
 Alpha virt. eigenvalues --    0.19997   0.20983   0.21989   0.23410   0.23776
 Alpha virt. eigenvalues --    0.26612   0.30258   0.30324   0.31452   0.34562
 Alpha virt. eigenvalues --    0.35119   0.38913   0.42088   0.43069   0.52874
 Alpha virt. eigenvalues --    0.53046   0.56183   0.58323   0.62808   0.64006
 Alpha virt. eigenvalues --    0.67526   0.68433   0.70524   0.71048   0.72380
 Alpha virt. eigenvalues --    0.72743   0.74374   0.79099   0.79347   0.81069
 Alpha virt. eigenvalues --    0.81151   0.83213   0.87040   0.90839   0.92084
 Alpha virt. eigenvalues --    0.92849   0.95381   0.98165   0.98349   1.01408
 Alpha virt. eigenvalues --    1.05340   1.05627   1.08519   1.11991   1.14430
 Alpha virt. eigenvalues --    1.19103   1.22156   1.23349   1.34224   1.35599
 Alpha virt. eigenvalues --    1.38281   1.45798   1.48795   1.50754   1.53994
 Alpha virt. eigenvalues --    1.57033   1.58556   1.61477   1.66604   1.67028
 Alpha virt. eigenvalues --    1.70602   1.79334   1.83291   1.83982   1.87767
 Alpha virt. eigenvalues --    1.91375   1.95636   1.99812   2.00808   2.08737
 Alpha virt. eigenvalues --    2.12408   2.13616   2.14587   2.23021   2.26252
 Alpha virt. eigenvalues --    2.26436   2.29495   2.31519   2.35150   2.38587
 Alpha virt. eigenvalues --    2.42866   2.43548   2.45843   2.46653   2.48139
 Alpha virt. eigenvalues --    2.50586   2.58689   2.59908   2.62706   2.62810
 Alpha virt. eigenvalues --    2.63237   2.67133   2.76250   2.83751   2.86851
 Alpha virt. eigenvalues --    2.89232   2.89512   2.94780   2.95950   3.03669
 Alpha virt. eigenvalues --    3.07924   3.13144   3.20016   3.23440   3.32196
 Alpha virt. eigenvalues --    3.35052   3.52159   3.65460   3.85240   3.85252
 Alpha virt. eigenvalues --    4.14882   4.15728   4.18878   4.27096   4.35145
 Alpha virt. eigenvalues --    4.39457   4.46177   4.52283   4.67251   4.71424
 Alpha virt. eigenvalues --    4.81059   4.82492   4.84877   4.89862   5.03307
 Alpha virt. eigenvalues --    5.08638   5.11346   5.14383   5.18723   5.25048
 Alpha virt. eigenvalues --    5.28233   5.31474   5.33318   5.36764   5.61223
 Alpha virt. eigenvalues --    5.67901   5.78626   5.82720   5.96414   6.18143
 Alpha virt. eigenvalues --    6.30923   6.34978   6.40212   6.50059   6.51179
 Alpha virt. eigenvalues --    6.61492   6.66645   6.71110   6.75508   6.76286
 Alpha virt. eigenvalues --    6.84050   6.90858   7.02161   7.05452   7.06179
 Alpha virt. eigenvalues --    7.08980   7.13357   7.15815   7.18291   7.23796
 Alpha virt. eigenvalues --    7.23980   7.30234   7.33037   7.35513   7.40825
 Alpha virt. eigenvalues --    7.44502   7.49257   7.61347   7.63062   7.65218
 Alpha virt. eigenvalues --    7.68486   7.80060   7.89594   8.12879   8.32721
 Alpha virt. eigenvalues --    8.40891   8.55891  13.47810  14.56186  15.18817
 Alpha virt. eigenvalues --   16.21278
          Condensed to atoms (all electrons):
               1          2          3          4          5
     1  H    0.589040   0.128197   0.020284   0.012621  -0.000627
     2  O    0.128197   8.322115  -0.171134  -0.095894   0.016294
     3  O    0.020284  -0.171134   8.461746  -0.138321  -0.044915
     4  N    0.012621  -0.095894  -0.138321   6.998390  -0.059653
     5  O   -0.000627   0.016294  -0.044915  -0.059653   8.295005
 Mulliken charges:
               1
     1  H    0.250485
     2  O   -0.199578
     3  O   -0.127660
     4  N    0.282858
     5  O   -0.206104
 Sum of Mulliken charges =  -0.00000
 Mulliken charges with hydrogens summed into heavy atoms:
               1
     2  O    0.050907
     3  O   -0.127660
     4  N    0.282858
     5  O   -0.206104
 APT charges:
               1
     1  H    0.300171
     2  O   -0.282014
     3  O   -0.477600
     4  N    0.857815
     5  O   -0.398372
 Sum of APT charges =  -0.00000
 APT charges with hydrogens summed into heavy atoms:
               1
     2  O    0.018157
     3  O   -0.477600
     4  N    0.857815
     5  O   -0.398372
 Electronic spatial extent (au):  <R**2>=            249.8550
 Charge=             -0.0000 electrons
 Dipole moment (field-independent basis, Debye):
    X=              0.6435    Y=              1.5285    Z=             -0.0000  Tot=              1.6584
 Quadrupole moment (field-independent basis, Debye-Ang):
   XX=            -22.5202   YY=            -18.7399   ZZ=            -21.9677
   XY=              3.2000   XZ=              0.0000   YZ=             -0.0000
 Traceless Quadrupole moment (field-independent basis, Debye-Ang):
   XX=             -1.4443   YY=              2.3361   ZZ=             -0.8918
   XY=              3.2000   XZ=              0.0000   YZ=             -0.0000
 Octapole moment (field-independent basis, Debye-Ang**2):
  XXX=              3.4417  YYY=             11.3442  ZZZ=             -0.0000  XYY=              7.9538
  XXY=              6.8161  XXZ=              0.0000  XZZ=             -1.5280  YZZ=             -0.7417
  YYZ=             -0.0000  XYZ=              0.0000
 Hexadecapole moment (field-independent basis, Debye-Ang**3):
 XXXX=           -158.6118 YYYY=            -86.8649 ZZZZ=            -18.1549 XXXY=            -35.7241
 XXXZ=              0.0000 YYYX=            -30.2525 YYYZ=             -0.0000 ZZZX=              0.0000
 ZZZY=             -0.0000 XXYY=            -33.6117 XXZZ=            -30.8901 YYZZ=            -20.0503
 XXYZ=              0.0000 YYXZ=              0.0000 ZZXY=            -14.7400
 N-N= 1.176879950589D+02 E-N=-8.974704839871D+02  KE= 2.802361541731D+02
 Symmetry A'   KE= 2.662540087195D+02
 Symmetry A"   KE= 1.398214545356D+01
  Exact polarizability:  34.030   9.305  29.649  -0.000   0.000  17.830
 Approx polarizability:  28.876   4.917  22.885  -0.000   0.000  15.476
 No NMR shielding tensors so no spin-rotation constants.
 Leave Link  601 at Mon Feb 21 20:24:42 2022, MaxMem= 16106127360 cpu:               5.1 elap:               0.2
 (Enter /sw/contrib/gaussian/g16/B01/g16/l701.exe)
 ... and contract with generalized density number  2.
 Compute integral second derivatives.
 Leave Link  701 at Mon Feb 21 20:24:42 2022, MaxMem= 16106127360 cpu:              10.5 elap:               0.4
 (Enter /sw/contrib/gaussian/g16/B01/g16/l702.exe)
 L702 exits ... SP integral derivatives will be done elsewhere.
 Leave Link  702 at Mon Feb 21 20:24:42 2022, MaxMem= 16106127360 cpu:               0.5 elap:               0.0
 (Enter /sw/contrib/gaussian/g16/B01/g16/l703.exe)
 Integral derivatives from FoFJK, PRISM(SPDF).
 Compute integral second derivatives, UseDBF=F ICtDFT=           0.
 Calling FoFJK, ICntrl=  10100127 FMM=F ISym2X=1 I1Cent= 0 IOpClX= 0 NMat=1 NMatS=1 NMatT=0.
 FoFJK:  IHMeth= 1 ICntrl=10100127 DoSepK=F KAlg= 0 I1Cent=           0 FoldK=F
 IRaf=         0 NMat=       1 IRICut=       1 DoRegI=T DoRafI=F ISym2E= 1 IDoP0=0 IntGTp=1.
 FoFCou: FMM=F IPFlag=           0 FMFlag=      100000 FMFlg1=         800
         NFxFlg=           0 DoJE=F BraDBF=F KetDBF=F FulRan=T
         wScrn=  0.000000 ICntrl=  10100127 IOpCl=  0 I1Cent=           0 NGrid=           0
         NMat0=    1 NMatS0=      1 NMatT0=    0 NMatD0=    1 NMtDS0=    0 NMtDT0=    0
 Petite list used in FoFCou.
 Leave Link  703 at Mon Feb 21 20:24:57 2022, MaxMem= 16106127360 cpu:             422.9 elap:              15.1
 (Enter /sw/contrib/gaussian/g16/B01/g16/l716.exe)
 Dipole        = 2.53159449D-01 6.01362676D-01-3.23793445D-34
 Polarizability= 3.40295847D+01 9.30487392D+00 2.96489038D+01
                -2.13862277D-30 5.97549620D-30 1.78297919D+01
 Full mass-weighted force constant matrix:
 Low frequencies --- -261.4250  -93.0714  -52.9838  -48.9755   -0.0010   -0.0010
 Low frequencies ---    0.0012  218.2655  350.9695
 ******    1 imaginary frequencies (negative Signs) ****** 
 Diagonal vibrational polarizability:
       11.1709465      18.6283383      49.4031563
 Harmonic frequencies (cm**-1), IR intensities (KM/Mole), Raman scattering
 activities (A**4/AMU), depolarization ratios for plane and unpolarized
 incident light, reduced masses (AMU), force constants (mDyne/A),
 and normal coordinates:
                      1                      2                      3
                     A"                     A"                     A'
 Frequencies --   -261.2784               216.1698               350.8661
 Red. masses --      1.1465                10.0800                 8.6692
 Frc consts  --      0.0461                 0.2775                 0.6288
 IR Inten    --    123.9423                 0.9447                 2.2954
  Atom  AN      X      Y      Z        X      Y      Z        X      Y      Z
     1   1    -0.00   0.00   1.00    -0.00   0.00  -0.60     0.53  -0.45  -0.00
     2   8    -0.00   0.00  -0.07     0.00   0.00  -0.30    -0.10  -0.38  -0.00
     3   8     0.00  -0.00  -0.04     0.00  -0.00   0.32    -0.15   0.41   0.00
     4   7     0.00   0.00   0.06     0.00  -0.00   0.51     0.05   0.28   0.00
     5   8     0.00   0.00  -0.01    -0.00   0.00  -0.43     0.17  -0.25  -0.00
                      4                      5                      6
                     A'                     A'                     A'
 Frequencies --    511.6907               809.1637               971.7510
 Red. masses --     12.2933                12.4683                15.2128
 Frc consts  --      1.8964                 4.8098                 8.4639
 IR Inten    --    163.5673               197.9287                26.4361
  Atom  AN      X      Y      Z        X      Y      Z        X      Y      Z
     1   1     0.43   0.18  -0.00    -0.39   0.18  -0.00    -0.20  -0.03   0.00
     2   8     0.36   0.19  -0.00     0.40   0.07   0.00    -0.50   0.03  -0.00
     3   8     0.16   0.43   0.00    -0.09  -0.31  -0.00     0.75  -0.03   0.00
     4   7    -0.36  -0.34   0.00    -0.10   0.63  -0.00    -0.13   0.26   0.00
     5   8    -0.23  -0.34  -0.00    -0.20  -0.32   0.00    -0.12  -0.23  -0.00
                      7                      8                      9
                     A'                     A'                     A'
 Frequencies --   1376.9871              1691.4854              3779.3207
 Red. masses --      1.1383                13.1106                 1.0675
 Frc consts  --      1.2716                22.1009                 8.9837
 IR Inten    --    158.3856               127.0174                81.9646
  Atom  AN      X      Y      Z        X      Y      Z        X      Y      Z
     1   1     0.99  -0.06  -0.00    -0.36   0.01   0.00     0.11   0.99   0.00
     2   8    -0.03   0.05  -0.00    -0.00  -0.04   0.00    -0.01  -0.06   0.00
     3   8    -0.02  -0.05   0.00     0.00   0.15  -0.00     0.00   0.00  -0.00
     4   7     0.02   0.01   0.00     0.70  -0.05  -0.00    -0.00  -0.00  -0.00
     5   8    -0.03  -0.01  -0.00    -0.59  -0.06   0.00     0.00   0.00   0.00

 -------------------
 - Thermochemistry -
 -------------------
 Temperature   298.150 Kelvin.  Pressure   1.00000 Atm.
 Atom     1 has atomic number  1 and mass   1.00783
 Atom     2 has atomic number  8 and mass  15.99491
 Atom     3 has atomic number  8 and mass  15.99491
 Atom     4 has atomic number  7 and mass  14.00307
 Atom     5 has atomic number  8 and mass  15.99491
 Molecular mass:    62.99564 amu.
 Principal axes and moments of inertia in atomic units:
                           1         2         3
     Eigenvalues --    32.08476 354.81790 386.90266
           X            0.81764  -0.57572   0.00000
           Y            0.57572   0.81764   0.00000
           Z            0.00000  -0.00000   1.00000
 This molecule is an asymmetric top.
 Rotational symmetry number  1.
 Rotational temperatures (Kelvin)      2.69953     0.24411     0.22386
 Rotational constants (GHZ):          56.24917     5.08639     4.66459
    1 imaginary frequencies ignored.
 Zero-point vibrational energy      58063.4 (Joules/Mol)
                                   13.87747 (Kcal/Mol)
 Warning -- explicit consideration of   3 degrees of freedom as
           vibrations may cause significant error
 Vibrational temperatures:    311.02   504.82   736.21  1164.21  1398.13
          (Kelvin)           1981.18  2433.67  5437.60
 
 Zero-point correction=                           0.022115 (Hartree/Particle)
 Thermal correction to Energy=                    0.026187
 Thermal correction to Enthalpy=                  0.027131
 Thermal correction to Gibbs Free Energy=        -0.003969
 Sum of electronic and zero-point Energies=           -280.424428
 Sum of electronic and thermal Energies=              -280.420356
 Sum of electronic and thermal Enthalpies=            -280.419412
 Sum of electronic and thermal Free Energies=         -280.450512
 
                     E (Thermal)             CV                S
                      KCal/Mol        Cal/Mol-Kelvin    Cal/Mol-Kelvin
 Total                   16.432             11.773             65.456
 Electronic               0.000              0.000              0.000
 Translational            0.889              2.981             38.341
 Rotational               0.889              2.981             23.003
 Vibrational             14.655              5.811              4.113
 Vibration     1          0.645              1.816              1.991
 Vibration     2          0.728              1.573              1.162
 Vibration     3          0.867              1.224              0.630
                       Q            Log10(Q)             Ln(Q)
 Total Bot       0.669630D+02          1.825835          4.204141
 Total V=0       0.995623D+12         11.998095         27.626635
 Vib (Bot)       0.143422D-09         -9.843383        -22.665227
 Vib (Bot)    1  0.916495D+00         -0.037870         -0.087198
 Vib (Bot)    2  0.525544D+00         -0.279391         -0.643322
 Vib (Bot)    3  0.317848D+00         -0.497780         -1.146182
 Vib (V=0)       0.213244D+01          0.328877          0.757267
 Vib (V=0)    1  0.154401D+01          0.188651          0.434385
 Vib (V=0)    2  0.122539D+01          0.088276          0.203262
 Vib (V=0)    3  0.109248D+01          0.038412          0.088446
 Electronic      0.100000D+01          0.000000          0.000000
 Translational   0.196526D+08          7.293420         16.793719
 Rotational      0.237574D+05          4.375799         10.075649
 
                                                                title
                                                             IR Spectrum
 
     3                                                                      1         1                                              
     7                                                                      6         3             9    8         5     3   2       
     7                                                                      9         7             7    0         1     5   1       
     9                                                                      1         7             2    9         2     1   6       
 
     X                                                                      X         X             X    X         X     X   X       
     X                                                                      X         X             X    X         X                 
     X                                                                      X         X             X    X         X                 
     X                                                                      X         X                  X         X                 
     X                                                                      X         X                  X         X                 
     X                                                                      X         X                  X         X                 
     X                                                                      X         X                  X         X                 
     X                                                                      X         X                  X         X                 
                                                                            X         X                  X         X                 
                                                                            X         X                  X         X                 
                                                                            X         X                  X         X                 
                                                                            X         X                  X         X                 
                                                                            X         X                  X         X                 
                                                                                      X                  X         X                 
                                                                                      X                  X         X                 
                                                                                      X                  X         X                 
                                                                                                         X         X                 
                                                                                                         X                           
                                                                                                         X                           
                                                                                                         X                           
 
 ***** Axes restored to original set *****
 -------------------------------------------------------------------
 Center     Atomic                   Forces (Hartrees/Bohr)
 Number     Number              X              Y              Z
 -------------------------------------------------------------------
      1        1          -0.000017354   -0.000000000   -0.000202791
      2        8           0.000177599   -0.000000000   -0.000667325
      3        8          -0.002360860   -0.000000000   -0.006231242
      4        7          -0.006373822    0.000000000    0.003993589
      5        8           0.008574437   -0.000000000    0.003107770
 -------------------------------------------------------------------
 Cartesian Forces:  Max     0.008574437 RMS     0.003508788
 -----------------------------------------------------------------------------------------------
                       Internal Coordinate Forces (Hartree/Bohr or radian)
  Cent   Atom   N1       Length/X         N2         Alpha/Y        N3         Beta/Z          J
 -----------------------------------------------------------------------------------------------
      1  H 
      2  O        1   0.000203(     1)
      3  O        2  -0.000044(     2)      1   0.000032(     5)
      4  N        3   0.007258(     3)      2   0.002398(     6)      1  -0.000000(     8)     0
      5  O        4   0.009077(     4)      3   0.001953(     7)      2  -0.000000(     9)     0
 -----------------------------------------------------------------------------------------------
 Internal  Forces:  Max     0.009077419 RMS     0.004009511
 Force constants in Cartesian coordinates: 
                1             2             3             4             5 
      1  0.651236D-01
      2  0.000000D+00 -0.219948D-02
      3  0.545303D-02  0.000000D+00  0.512549D+00
      4 -0.365421D-01  0.000000D+00 -0.166598D-01  0.274391D+00
      5  0.000000D+00  0.287821D-02  0.000000D+00  0.000000D+00  0.266777D-02
      6  0.488300D-01  0.000000D+00 -0.508413D+00  0.345010D-01  0.000000D+00
      7 -0.174734D-01  0.000000D+00  0.129229D-01 -0.219134D+00  0.000000D+00
      8  0.000000D+00  0.860577D-03  0.000000D+00  0.000000D+00 -0.711222D-02
      9 -0.533787D-01  0.000000D+00 -0.373161D-03 -0.187867D-01  0.000000D+00
     10 -0.100201D-01  0.000000D+00 -0.500903D-02 -0.194803D-01  0.000000D+00
     11  0.000000D+00 -0.256966D-02  0.000000D+00  0.000000D+00 -0.524147D-02
     12  0.478751D-02  0.000000D+00 -0.534623D-02  0.110835D-01  0.000000D+00
     13 -0.108795D-02  0.000000D+00  0.329289D-02  0.766189D-03  0.000000D+00
     14  0.000000D+00  0.103036D-02  0.000000D+00  0.000000D+00  0.680771D-02
     15 -0.569180D-02  0.000000D+00  0.158423D-02 -0.101380D-01  0.000000D+00
                6             7             8             9            10 
      6  0.597907D+00
      7 -0.185041D-01  0.345710D+00
      8  0.000000D+00  0.000000D+00  0.272463D-02
      9 -0.798336D-01  0.391120D-01  0.000000D+00  0.208910D+00
     10 -0.569365D-01 -0.818278D-01  0.000000D+00  0.175896D+00  0.845096D+00
     11  0.000000D+00  0.000000D+00  0.107396D-01  0.000000D+00  0.000000D+00
     12  0.149173D-01  0.619823D-01  0.000000D+00 -0.103880D+00 -0.142602D-01
     13 -0.789048D-02 -0.272747D-01  0.000000D+00 -0.142842D+00 -0.733767D+00
     14  0.000000D+00  0.000000D+00 -0.721261D-02  0.000000D+00  0.000000D+00
     15 -0.245772D-01 -0.955132D-01  0.000000D+00 -0.248231D-01 -0.996900D-01
               11            12            13            14            15 
     11  0.372741D-02
     12  0.000000D+00  0.209764D+00
     13  0.000000D+00 -0.635931D-01  0.761364D+00
     14 -0.665591D-02  0.000000D+00  0.000000D+00  0.603046D-02
     15  0.000000D+00 -0.115454D+00  0.211033D+00  0.000000D+00  0.163271D+00
 Force constants in internal coordinates: 
                1             2             3             4             5 
      1  0.512549D+00
      2 -0.105619D-01  0.282309D+00
      3  0.389004D-02  0.487186D-02  0.147576D+00
      4 -0.358301D-02  0.554510D-02  0.158630D+00  0.825992D+00
      5  0.996771D-02  0.650137D-01  0.331794D-02  0.451598D-02  0.218726D+00
      6  0.537415D-02  0.632304D-01  0.471314D-01  0.216298D-01  0.331415D-01
      7 -0.158761D-02  0.396327D-01  0.397890D-01  0.904477D-01  0.212443D-01
      8  0.000000D+00  0.000000D+00  0.000000D+00  0.000000D+00  0.000000D+00
      9  0.000000D+00  0.000000D+00  0.000000D+00  0.000000D+00  0.000000D+00
                6             7             8             9 
      6  0.302592D+00
      7  0.939093D-01  0.502888D+00
      8  0.000000D+00  0.000000D+00 -0.688459D-02
      9  0.000000D+00  0.000000D+00 -0.390991D-02  0.437012D-01
 Leave Link  716 at Mon Feb 21 20:24:57 2022, MaxMem= 16106127360 cpu:               1.0 elap:               0.1
 (Enter /sw/contrib/gaussian/g16/B01/g16/l103.exe)

 GradGradGradGradGradGradGradGradGradGradGradGradGradGradGradGradGradGrad
 Berny optimization.
 Search for a local minimum.
 Step number   1 out of a maximum of    2
 All quantities printed in internal units (Hartrees-Bohrs-Radians)
 Second derivative matrix not updated -- analytic derivatives used.
 The second derivative matrix:
                          r1        r2        r3        r4        a1
           r1           0.51255
           r2          -0.01056   0.28231
           r3           0.00389   0.00487   0.14758
           r4          -0.00358   0.00555   0.15863   0.82599
           a1           0.00997   0.06501   0.00332   0.00452   0.21873
           a2           0.00537   0.06323   0.04713   0.02163   0.03314
           a3          -0.00159   0.03963   0.03979   0.09045   0.02124
           d1           0.00000   0.00000  -0.00000  -0.00000   0.00000
           d2           0.00000   0.00000  -0.00000  -0.00000   0.00000
                          a2        a3        d1        d2
           a2           0.30259
           a3           0.09391   0.50289
           d1           0.00000   0.00000  -0.00688
           d2           0.00000   0.00000  -0.00391   0.04370
 ITU=  0
     Eigenvalues ---   -0.00719   0.04400   0.10309   0.17726   0.23851
     Eigenvalues ---    0.33499   0.51332   0.53331   0.89216
 Eigenvalue     1 is  -7.19D-03 should be greater than     0.000000 Eigenvector:
                          d1        d2        r3        a2        a3
   1                    0.99706   0.07661   0.00000  -0.00000  -0.00000
                          r4        a1        r2        r1
   1                   -0.00000   0.00000  -0.00000  -0.00000
 Angle between quadratic step and forces=  50.40 degrees.
 Linear search not attempted -- first point.
 Variable       Old X    -DE/DX   Delta X   Delta X   Delta X     New X
                                 (Linear)    (Quad)   (Total)
    r1        1.83110   0.00020   0.00000   0.00003   0.00003   1.83113
    r2        2.74940  -0.00004   0.00000  -0.00106  -0.00106   2.74834
    r3        2.70094   0.00726   0.00000   0.04687   0.04687   2.74781
    r4        2.21236   0.00908   0.00000   0.00200   0.00200   2.21436
    a1        1.70335   0.00003   0.00000  -0.00039  -0.00039   1.70296
    a2        1.78543   0.00240   0.00000   0.00082   0.00082   1.78625
    a3        1.90362   0.00195   0.00000  -0.00024  -0.00024   1.90339
    d1        3.14159  -0.00000   0.00000  -0.00000   0.00000   3.14159
    d2        3.14159  -0.00000   0.00000  -0.00000   0.00000   3.14159
         Item               Value     Threshold  Converged?
 Maximum Force            0.009077     0.000450     NO 
 RMS     Force            0.004010     0.000300     NO 
 Maximum Displacement     0.046875     0.001800     NO 
 RMS     Displacement     0.015646     0.001200     NO 
 Predicted change in Energy=-1.799587D-04
                       ----------------------------
                       ! Non-Optimized Parameters !
                       ! (Angstroms and Degrees)  !
 ----------------------                            ----------------------
 !      Name          Value   Derivative information (Atomic Units)     !
 ------------------------------------------------------------------------
 !       r1          0.969    -DE/DX =    0.0002                        !
 !       r2          1.4544   -DE/DX =    0.0                           !
 !       r3          1.4541   -DE/DX =    0.0073                        !
 !       r4          1.1718   -DE/DX =    0.0091                        !
 !       a1         97.5724   -DE/DX =    0.0                           !
 !       a2        102.3444   -DE/DX =    0.0024                        !
 !       a3        109.056    -DE/DX =    0.002                         !
 !       d1        180.0      -DE/DX =    0.0                           !
 !       d2        180.0      -DE/DX =    0.0                           !
 ------------------------------------------------------------------------
 GradGradGradGradGradGradGradGradGradGradGradGradGradGradGradGradGradGrad

 Leave Link  103 at Mon Feb 21 20:24:57 2022, MaxMem= 16106127360 cpu:               0.7 elap:               0.1
 (Enter /sw/contrib/gaussian/g16/B01/g16/l9999.exe)

 ----------------------------------------------------------------------

 Electric dipole moment (input orientation):
 (Debye = 10**-18 statcoulomb cm , SI units = C m)
                  (au)            (Debye)         (10**-30 SI)
   Tot        0.652477D+00      0.165843D+01      0.553193D+01
   x         -0.190603D+00     -0.484465D+00     -0.161600D+01
   y          0.000000D+00      0.000000D+00      0.000000D+00
   z         -0.624017D+00     -0.158609D+01     -0.529064D+01

 Dipole polarizability, Alpha (input orientation).
 (esu units = cm**3 , SI units = C**2 m**2 J**-1)
 Alpha(0;0):
               (au)            (10**-24 esu)      (10**-40 SI)
   iso        0.271694D+02      0.402609D+01      0.447963D+01
   aniso      0.216887D+02      0.321393D+01      0.357598D+01
   xx         0.320989D+02      0.475656D+01      0.529239D+01
   yx         0.000000D+00      0.000000D+00      0.000000D+00
   yy         0.178298D+02      0.264210D+01      0.293974D+01
   zx         0.955567D+01      0.141600D+01      0.157552D+01
   zy         0.000000D+00      0.000000D+00      0.000000D+00
   zz         0.315796D+02      0.467962D+01      0.520677D+01

 ----------------------------------------------------------------------

 Dipole orientation:
     1          0.00000000          0.00000000         -0.00000000
     8         -0.53490507         -0.00000000         -1.75122758
     8          1.96534679          0.00000000         -2.89487774
     7          1.39077163          0.00000000         -5.53399096
     8          3.28009468          0.00000000         -6.68506934

 Electric dipole moment (dipole orientation):
 (Debye = 10**-18 statcoulomb cm , SI units = C m)
                  (au)            (Debye)         (10**-30 SI)
   Tot        0.652477D+00      0.165843D+01      0.553193D+01
   x          0.000000D+00      0.000000D+00      0.000000D+00
   y          0.000000D+00      0.000000D+00      0.000000D+00
   z          0.652477D+00      0.165843D+01      0.553193D+01

 Dipole polarizability, Alpha (dipole orientation).
 (esu units = cm**3 , SI units = C**2 m**2 J**-1)
 Alpha(0;0):
               (au)            (10**-24 esu)      (10**-40 SI)
   iso        0.271694D+02      0.402609D+01      0.447963D+01
   aniso      0.216887D+02      0.321393D+01      0.357598D+01
   xx         0.267152D+02      0.395879D+01      0.440475D+01
   yx         0.000000D+00      0.000000D+00      0.000000D+00
   yy         0.178298D+02      0.264210D+01      0.293974D+01
   zx        -0.806987D+01     -0.119583D+01     -0.133054D+01
   zy         0.000000D+00      0.000000D+00      0.000000D+00
   zz         0.369633D+02      0.547739D+01      0.609442D+01

 ----------------------------------------------------------------------
 1\1\GINC-N2126\Freq\RMP2-FC\Aug-CC-pVTZ\H1N1O3\CGAVINH\21-Feb-2022\1\\
 #p freq mp2/aug-cc-pvtz density=current\\title\\0,1\H\O,1,r1\O,2,r2,1,
 a1\N,3,r3,2,a2,1,d1,0\O,4,r4,3,a3,2,d2,0\\r1=0.96897556\r2=1.45491931\
 r3=1.42927377\r4=1.17072885\a1=97.59494903\a2=102.29752444\a3=109.0695
 5123\d1=180.\d2=180.\\Version=ES64L-G16RevB.01\State=1-A'\HF=-279.5042
 929\MP2=-280.4465428\RMSD=3.425e-09\RMSF=3.509e-03\ZeroPoint=0.0221152
 \Thermal=0.0261867\Dipole=-0.1906033,0.,-0.6240169\DipoleDeriv=0.26887
 18,0.,0.051032,0.,0.3564132,0.,0.0820326,0.,0.2752281,-0.3232223,0.,-0
 .2089772,0.,-0.3110833,0.,-0.1091088,0.,-0.2117363,-0.0259248,0.,0.161
 8856,0.,-0.0689573,0.,-0.7627259,0.,-1.3379168,0.8583192,0.,0.8615833,
 0.,0.0573618,0.,0.9336373,0.,1.6577634,-0.778044,0.,-0.8655237,0.,-0.0
 337344,0.,-0.1438352,0.,-0.3833384\Polar=32.0988765,0.,17.8297919,9.55
 56717,0.,31.579612\Quadrupole=-1.5266926,-0.6630158,2.1897084,0.,2.045
 0578,0.\PG=CS [SG(H1N1O3)]\NImag=1\\0.06512361,0.,-0.00219948,0.005453
 03,0.,0.51254859,-0.03654212,0.,-0.01665981,0.27439069,0.,0.00287821,0
 .,0.,0.00266777,0.04882997,0.,-0.50841343,0.03450105,0.,0.59790691,-0.
 01747341,0.,0.01292291,-0.21913449,0.,-0.01850407,0.34571038,0.,0.0008
 6058,0.,0.,-0.00711222,0.,0.,0.00272463,-0.05337871,0.,-0.00037316,-0.
 01878667,0.,-0.07983359,0.03911202,0.,0.20891013,-0.01002013,0.,-0.005
 00903,-0.01948026,0.,-0.05693647,-0.08182783,0.,0.17589566,0.84509561,
 0.,-0.00256966,0.,0.,-0.00524147,0.,0.,0.01073963,0.,0.,0.00372741,0.0
 0478751,0.,-0.00534623,0.01108348,0.,0.01491731,0.06198232,0.,-0.10388
 025,-0.01426018,0.,0.20976358,-0.00108795,0.,0.00329289,0.00076619,0.,
 -0.00789048,-0.02727465,0.,-0.14284231,-0.73376739,0.,-0.06359313,0.76
 136380,0.,0.00103036,0.,0.,0.00680771,0.,0.,-0.00721261,0.,0.,-0.00665
 591,0.,0.,0.00603046,-0.00569180,0.,0.00158423,-0.01013805,0.,-0.02457
 721,-0.09551318,0.,-0.02482313,-0.09969000,0.,-0.11545441,0.21103303,0
 .,0.16327052\\0.00001735,0.,0.00020279,-0.00017760,0.,0.00066733,0.002
 36086,0.,0.00623124,0.00637382,0.,-0.00399359,-0.00857444,0.,-0.003107
 77\\\@


 I (ERNEST RUTHERFORD) CAME INTO THE ROOM, WHICH WAS HALF DARK, AND PRESENTLY
 SPOTTED LORD KELVIN IN THE AUDIENCE AND REALIZED I WAS IN TROUBLE AT
 THE LAST PART OF MY SPEECH DEALING THE AGE OF THE EARTH, WHERE MY VIEWS
 CONFLICTED WITH HIS.  TO MY RELIEF KELVIN FELL FAST ASLEEP, BUT AS I CAME
 TO THE IMPORTANT POINT, I SAW THE OLD BIRD SIT UP AND COCK A BALEFUL GLANCE
 AT ME! THEN A SUDDEN INSPIRATION CAME AND I SAID LORD KELVIN HAD LIMITED
 THE AGE OF THE EARTH PROVIDED NO NEW SOURCE WAS DISCOVERED. THAT
 PROPHETIC UTTERANCE REFERS TO WHAT WE ARE NOW CONSIDERING TONIGHT, RADIUM!
 BEHOLD!  THE OLD BOY BEAMED UPON ME.
 Job cpu time:       0 days  2 hours  0 minutes 39.5 seconds.
 Elapsed time:       0 days  0 hours  4 minutes 21.8 seconds.
 File lengths (MBytes):  RWF=   7239 Int=      0 D2E=      0 Chk=      8 Scr=      1
 Normal termination of Gaussian 16 at Mon Feb 21 20:24:58 2022.
