title                                                                   
Freq      RMP2-FC                                                     Aug-CC-pVTZ         
Number of atoms                            I                5
Info1-9                                    I   N=           9
          33          24           0           0           0         100
           6           2           1
Full Title                                 C   N=           1
title       
Route                                      C   N=           4
#p freq mp2/aug-cc-pvtz density=current         
Charge                                     I                0
Multiplicity                               I                1
Number of electrons                        I               32
Number of alpha electrons                  I               16
Number of beta electrons                   I               16
Number of basis functions                  I              207
Number of independent functions            I              207
Number of point charges in /Mol/           I                0
Number of translation vectors              I                0
Atomic numbers                             I   N=           5
           1           8           8           7           8
Nuclear charges                            R   N=           5
  1.00000000E+00  8.00000000E+00  8.00000000E+00  7.00000000E+00  8.00000000E+00
Current cartesian coordinates              R   N=          15
  2.14831997E+00 -1.14279119E+00  0.00000000E+00  2.48552050E+00  6.88514992E-01
  0.00000000E+00  2.94579849E-16  1.73320014E+00  0.00000000E+00 -1.87536406E+00
 -8.19215944E-02  0.00000000E+00 -1.11311694E+00 -2.20718484E+00  0.00000000E+00
Number of symbols in /Mol/                 I                0
Force Field                                I                0
Atom Types                                 C   N=           5
                                                            
Int Atom Types                             I   N=           5
           0           0           0           0           0
MM charges                                 R   N=           5
  0.00000000E+00  0.00000000E+00  0.00000000E+00  0.00000000E+00  0.00000000E+00
Integer atomic weights                     I   N=           5
           1          16          16          14          16
Real atomic weights                        R   N=           5
  1.00782504E+00  1.59949146E+01  1.59949146E+01  1.40030740E+01  1.59949146E+01
Atom fragment info                         I   N=           5
           0           0           0           0           0
Atom residue num                           I   N=           5
           0           0           0           0           0
Nuclear spins                              I   N=           5
           1           0           0           2           0
Nuclear ZEff                               R   N=           5
 -1.00000000E+00 -5.60000000E+00 -5.60000000E+00 -4.55000000E+00 -5.60000000E+00
Nuclear ZNuc                               R   N=           5
  1.00000000E+00  8.00000000E+00  8.00000000E+00  7.00000000E+00  8.00000000E+00
Nuclear QMom                               R   N=           5
  0.00000000E+00  0.00000000E+00  0.00000000E+00  2.04400000E+00  0.00000000E+00
Nuclear GFac                               R   N=           5
  2.79284600E+00  0.00000000E+00  0.00000000E+00  4.03761000E-01  0.00000000E+00
MicOpt                                     I   N=           5
          -1          -1          -1          -1          -1
Number of residues                         I                0
Number of secondary structures             I                0
SymInf integers                            I   N=          26
           1           2           1           1           1           1
           1          -1           0           0           0           0
           0           0           0           0           0           0
           0           0           0           0           0           0
           0           0
RotTr to input orientation                 R   N=          12
 -9.83467093E-01  0.00000000E+00  1.81086931E-01  1.81086931E-01  0.00000000E+00
  9.83467093E-01  0.00000000E+00  1.00000000E+00  0.00000000E+00  2.31974655E+00
  0.00000000E+00  7.34864863E-01
Number of contracted shells                I               65
Number of primitive shells                 I              119
Pure/Cartesian d shells                    I                0
Pure/Cartesian f shells                    I                0
Highest angular momentum                   I                3
Largest degree of contraction              I                7
Shell types                                I   N=          65
           0           0           0           0           1           1
           1          -2          -2           0           0           0
           0           0           1           1           1           1
          -2          -2          -2          -3          -3           0
           0           0           0           0           1           1
           1           1          -2          -2          -2          -3
          -3           0           0           0           0           0
           1           1           1           1          -2          -2
          -2          -3          -3           0           0           0
           0           0           1           1           1           1
          -2          -2          -2          -3          -3
Number of primitives per shell             I   N=          65
           3           1           1           1           1           1
           1           1           1           7           6           1
           1           1           3           1           1           1
           1           1           1           1           1           7
           6           1           1           1           3           1
           1           1           1           1           1           1
           1           7           6           1           1           1
           3           1           1           1           1           1
           1           1           1           7           6           1
           1           1           3           1           1           1
           1           1           1           1           1
Shell to atom map                          I   N=          65
           1           1           1           1           1           1
           1           1           1           2           2           2
           2           2           2           2           2           2
           2           2           2           2           2           3
           3           3           3           3           3           3
           3           3           3           3           3           3
           3           4           4           4           4           4
           4           4           4           4           4           4
           4           4           4           5           5           5
           5           5           5           5           5           5
           5           5           5           5           5
Primitive exponents                        R   N=         119
  3.38700000E+01  5.09500000E+00  1.15900000E+00  3.25800000E-01  1.02700000E-01
  2.52600000E-02  1.40700000E+00  3.88000000E-01  1.02000000E-01  1.05700000E+00
  2.47000000E-01  1.53300000E+04  2.29900000E+03  5.22400000E+02  1.47300000E+02
  4.75500000E+01  1.67600000E+01  6.20700000E+00  5.22400000E+02  1.47300000E+02
  4.75500000E+01  1.67600000E+01  6.20700000E+00  6.88200000E-01  1.75200000E+00
  2.38400000E-01  7.37600000E-02  3.44600000E+01  7.74900000E+00  2.28000000E+00
  7.15600000E-01  2.14000000E-01  5.97400000E-02  2.31400000E+00  6.45000000E-01
  2.14000000E-01  1.42800000E+00  5.00000000E-01  1.53300000E+04  2.29900000E+03
  5.22400000E+02  1.47300000E+02  4.75500000E+01  1.67600000E+01  6.20700000E+00
  5.22400000E+02  1.47300000E+02  4.75500000E+01  1.67600000E+01  6.20700000E+00
  6.88200000E-01  1.75200000E+00  2.38400000E-01  7.37600000E-02  3.44600000E+01
  7.74900000E+00  2.28000000E+00  7.15600000E-01  2.14000000E-01  5.97400000E-02
  2.31400000E+00  6.45000000E-01  2.14000000E-01  1.42800000E+00  5.00000000E-01
  1.14200000E+04  1.71200000E+03  3.89300000E+02  1.10000000E+02  3.55700000E+01
  1.25400000E+01  4.64400000E+00  3.89300000E+02  1.10000000E+02  3.55700000E+01
  1.25400000E+01  4.64400000E+00  5.11800000E-01  1.29300000E+00  1.78700000E-01
  5.76000000E-02  2.66300000E+01  5.94800000E+00  1.74200000E+00  5.55000000E-01
  1.72500000E-01  4.91000000E-02  1.65400000E+00  4.69000000E-01  1.51000000E-01
  1.09300000E+00  3.64000000E-01  1.53300000E+04  2.29900000E+03  5.22400000E+02
  1.47300000E+02  4.75500000E+01  1.67600000E+01  6.20700000E+00  5.22400000E+02
  1.47300000E+02  4.75500000E+01  1.67600000E+01  6.20700000E+00  6.88200000E-01
  1.75200000E+00  2.38400000E-01  7.37600000E-02  3.44600000E+01  7.74900000E+00
  2.28000000E+00  7.15600000E-01  2.14000000E-01  5.97400000E-02  2.31400000E+00
  6.45000000E-01  2.14000000E-01  1.42800000E+00  5.00000000E-01
Contraction coefficients                   R   N=         119
  2.54948632E-02  1.90362766E-01  8.52162022E-01  1.00000000E+00  1.00000000E+00
  1.00000000E+00  1.00000000E+00  1.00000000E+00  1.00000000E+00  1.00000000E+00
  1.00000000E+00  5.19808943E-04  4.02025621E-03  2.07128267E-02  8.10105536E-02
  2.35962985E-01  4.42653446E-01  3.57064423E-01 -4.42115008E-05 -1.22591041E-03
 -1.05517725E-02 -6.74452633E-02 -1.71198607E-01  1.07329856E+00  1.00000000E+00
  1.00000000E+00  1.00000000E+00  4.11634896E-02  2.57762836E-01  8.02419274E-01
  1.00000000E+00  1.00000000E+00  1.00000000E+00  1.00000000E+00  1.00000000E+00
  1.00000000E+00  1.00000000E+00  1.00000000E+00  5.19808943E-04  4.02025621E-03
  2.07128267E-02  8.10105536E-02  2.35962985E-01  4.42653446E-01  3.57064423E-01
 -4.42115008E-05 -1.22591041E-03 -1.05517725E-02 -6.74452633E-02 -1.71198607E-01
  1.07329856E+00  1.00000000E+00  1.00000000E+00  1.00000000E+00  4.11634896E-02
  2.57762836E-01  8.02419274E-01  1.00000000E+00  1.00000000E+00  1.00000000E+00
  1.00000000E+00  1.00000000E+00  1.00000000E+00  1.00000000E+00  1.00000000E+00
  5.34563860E-04  4.13435660E-03  2.12335358E-02  8.25006224E-02  2.38138871E-01
  4.42551547E-01  3.53757422E-01 -4.89867350E-05 -1.19527323E-03 -1.03490714E-02
 -6.48680190E-02 -1.71552477E-01  1.07289568E+00  1.00000000E+00  1.00000000E+00
  1.00000000E+00  3.98072123E-02  2.49002660E-01  8.10479727E-01  1.00000000E+00
  1.00000000E+00  1.00000000E+00  1.00000000E+00  1.00000000E+00  1.00000000E+00
  1.00000000E+00  1.00000000E+00  5.19808943E-04  4.02025621E-03  2.07128267E-02
  8.10105536E-02  2.35962985E-01  4.42653446E-01  3.57064423E-01 -4.42115008E-05
 -1.22591041E-03 -1.05517725E-02 -6.74452633E-02 -1.71198607E-01  1.07329856E+00
  1.00000000E+00  1.00000000E+00  1.00000000E+00  4.11634896E-02  2.57762836E-01
  8.02419274E-01  1.00000000E+00  1.00000000E+00  1.00000000E+00  1.00000000E+00
  1.00000000E+00  1.00000000E+00  1.00000000E+00  1.00000000E+00
Coordinates of each shell                  R   N=         195
  2.14831997E+00 -1.14279119E+00  0.00000000E+00  2.14831997E+00 -1.14279119E+00
  0.00000000E+00  2.14831997E+00 -1.14279119E+00  0.00000000E+00  2.14831997E+00
 -1.14279119E+00  0.00000000E+00  2.14831997E+00 -1.14279119E+00  0.00000000E+00
  2.14831997E+00 -1.14279119E+00  0.00000000E+00  2.14831997E+00 -1.14279119E+00
  0.00000000E+00  2.14831997E+00 -1.14279119E+00  0.00000000E+00  2.14831997E+00
 -1.14279119E+00  0.00000000E+00  2.48552050E+00  6.88514992E-01  0.00000000E+00
  2.48552050E+00  6.88514992E-01  0.00000000E+00  2.48552050E+00  6.88514992E-01
  0.00000000E+00  2.48552050E+00  6.88514992E-01  0.00000000E+00  2.48552050E+00
  6.88514992E-01  0.00000000E+00  2.48552050E+00  6.88514992E-01  0.00000000E+00
  2.48552050E+00  6.88514992E-01  0.00000000E+00  2.48552050E+00  6.88514992E-01
  0.00000000E+00  2.48552050E+00  6.88514992E-01  0.00000000E+00  2.48552050E+00
  6.88514992E-01  0.00000000E+00  2.48552050E+00  6.88514992E-01  0.00000000E+00
  2.48552050E+00  6.88514992E-01  0.00000000E+00  2.48552050E+00  6.88514992E-01
  0.00000000E+00  2.48552050E+00  6.88514992E-01  0.00000000E+00  5.88338060E-17
  1.73320014E+00  0.00000000E+00  5.88338060E-17  1.73320014E+00  0.00000000E+00
  5.88338060E-17  1.73320014E+00  0.00000000E+00  5.88338060E-17  1.73320014E+00
  0.00000000E+00  5.88338060E-17  1.73320014E+00  0.00000000E+00  5.88338060E-17
  1.73320014E+00  0.00000000E+00  5.88338060E-17  1.73320014E+00  0.00000000E+00
  5.88338060E-17  1.73320014E+00  0.00000000E+00  5.88338060E-17  1.73320014E+00
  0.00000000E+00  5.88338060E-17  1.73320014E+00  0.00000000E+00  5.88338060E-17
  1.73320014E+00  0.00000000E+00  5.88338060E-17  1.73320014E+00  0.00000000E+00
  5.88338060E-17  1.73320014E+00  0.00000000E+00  5.88338060E-17  1.73320014E+00
  0.00000000E+00 -1.87536406E+00 -8.19215944E-02  0.00000000E+00 -1.87536406E+00
 -8.19215944E-02  0.00000000E+00 -1.87536406E+00 -8.19215944E-02  0.00000000E+00
 -1.87536406E+00 -8.19215944E-02  0.00000000E+00 -1.87536406E+00 -8.19215944E-02
  0.00000000E+00 -1.87536406E+00 -8.19215944E-02  0.00000000E+00 -1.87536406E+00
 -8.19215944E-02  0.00000000E+00 -1.87536406E+00 -8.19215944E-02  0.00000000E+00
 -1.87536406E+00 -8.19215944E-02  0.00000000E+00 -1.87536406E+00 -8.19215944E-02
  0.00000000E+00 -1.87536406E+00 -8.19215944E-02  0.00000000E+00 -1.87536406E+00
 -8.19215944E-02  0.00000000E+00 -1.87536406E+00 -8.19215944E-02  0.00000000E+00
 -1.87536406E+00 -8.19215944E-02  0.00000000E+00 -1.11311694E+00 -2.20718484E+00
  0.00000000E+00 -1.11311694E+00 -2.20718484E+00  0.00000000E+00 -1.11311694E+00
 -2.20718484E+00  0.00000000E+00 -1.11311694E+00 -2.20718484E+00  0.00000000E+00
 -1.11311694E+00 -2.20718484E+00  0.00000000E+00 -1.11311694E+00 -2.20718484E+00
  0.00000000E+00 -1.11311694E+00 -2.20718484E+00  0.00000000E+00 -1.11311694E+00
 -2.20718484E+00  0.00000000E+00 -1.11311694E+00 -2.20718484E+00  0.00000000E+00
 -1.11311694E+00 -2.20718484E+00  0.00000000E+00 -1.11311694E+00 -2.20718484E+00
  0.00000000E+00 -1.11311694E+00 -2.20718484E+00  0.00000000E+00 -1.11311694E+00
 -2.20718484E+00  0.00000000E+00 -1.11311694E+00 -2.20718484E+00  0.00000000E+00
Num ILSW                                   I              100
ILSW                                       I   N=         100
           0           0           0           0           2           0
           0           0           0           0           0          -1
           5           0           0           0           2           0
           0           0           0           0           1           0
           1           0           0           0           0           0
           0           0      100000           0          -1           0
           0           0           0           0           0           0
           0           0           0           1           1           0
           0 -2000000000           1           0           0           0
           0           0           4          52           0           0
           0           0           0           0           0           0
           0           0           0           5           4           1
           0           0           0           0           0           0
           0           0           0           0           0           0
           0           0           0           0           0           0
           0           0           0           0           0           0
           0           0           0           0
Num RLSW                                   I               52
RLSW                                       R   N=          52
  1.00000000E+00  1.00000000E+00  1.00000000E+00  1.00000000E+00  1.00000000E+00
  0.00000000E+00  0.00000000E+00  1.00000000E+00  0.00000000E+00  0.00000000E+00
  0.00000000E+00  0.00000000E+00  1.00000000E+00  0.00000000E+00  0.00000000E+00
  0.00000000E+00  0.00000000E+00  1.00000000E+00  0.00000000E+00  0.00000000E+00
  0.00000000E+00  0.00000000E+00  1.00000000E+00  0.00000000E+00  0.00000000E+00
  0.00000000E+00  0.00000000E+00  1.00000000E+00  0.00000000E+00  0.00000000E+00
  0.00000000E+00  0.00000000E+00  1.00000000E+00  0.00000000E+00  0.00000000E+00
  0.00000000E+00  0.00000000E+00  0.00000000E+00  1.00000000E+00  1.00000000E+00
  0.00000000E+00  1.00000000E+00  0.00000000E+00  0.00000000E+00  0.00000000E+00
  0.00000000E+00  0.00000000E+00  0.00000000E+00  0.00000000E+00  0.00000000E+00
  0.00000000E+00  0.00000000E+00
MxBond                                     I                2
NBond                                      I   N=           5
           1           2           2           2           1
IBond                                      I   N=          10
           2           0           1           3           2           4
           3           5           4           0
RBond                                      R   N=          10
  1.00000000E+00  0.00000000E+00  1.00000000E+00  1.00000000E+00  1.00000000E+00
  1.00000000E+00  1.00000000E+00  2.00000000E+00  2.00000000E+00  0.00000000E+00
Virial Ratio                               R      2.002254234288344E+00
SCF Energy                                 R     -2.795066625893448E+02
MP2 Energy                                 R     -2.804551269347232E+02
Total Energy                               R     -2.804551269347232E+02
Post-SCF wavefunction norm                 R      1.583663741495589E+00
RMS Force                                  R      1.654094248980838E-03
RMS Density                                R      4.358626249327353E-09
NImag                                      I                0
Job Status                                 I                1
Nuclear derivative order                   I                2
External E-field                           R   N=          35
  0.00000000E+00  0.00000000E+00  0.00000000E+00  0.00000000E+00  0.00000000E+00
  0.00000000E+00  0.00000000E+00  0.00000000E+00  0.00000000E+00  0.00000000E+00
  0.00000000E+00  0.00000000E+00  0.00000000E+00  0.00000000E+00  0.00000000E+00
  0.00000000E+00  0.00000000E+00  0.00000000E+00  0.00000000E+00  0.00000000E+00
  0.00000000E+00  0.00000000E+00  0.00000000E+00  0.00000000E+00  0.00000000E+00
  0.00000000E+00  0.00000000E+00  0.00000000E+00  0.00000000E+00  0.00000000E+00
  0.00000000E+00  0.00000000E+00  0.00000000E+00  0.00000000E+00  0.00000000E+00
IOpCl                                      I                0
IROHF                                      I                0
Alpha Orbital Energies                     R   N=         207
 -2.07200360E+01 -2.06862427E+01 -2.06678342E+01 -1.58251862E+01 -1.64296429E+00
 -1.50418618E+00 -1.29363779E+00 -9.60405385E-01 -8.33221354E-01 -7.58296020E-01
 -7.39339316E-01 -6.36876228E-01 -6.18360375E-01 -6.17649191E-01 -5.03599748E-01
 -4.97326488E-01  3.47431517E-02  6.09712575E-02  9.52096273E-02  1.00434788E-01
  1.20045694E-01  1.22593072E-01  1.49234083E-01  1.51211671E-01  1.77691478E-01
  1.80879291E-01  1.89933855E-01  2.11237026E-01  2.16452840E-01  2.42720736E-01
  2.46392241E-01  2.69488858E-01  3.11951320E-01  3.15716723E-01  3.38365232E-01
  3.43423752E-01  3.45770252E-01  3.92390936E-01  4.47825916E-01  4.85947590E-01
  5.04539949E-01  5.18934684E-01  5.47035455E-01  5.61716856E-01  6.00831828E-01
  6.19929431E-01  6.38919709E-01  6.88065174E-01  7.17955281E-01  7.24404034E-01
  7.44288222E-01  7.62531866E-01  7.67378311E-01  7.96062554E-01  8.06511262E-01
  8.41462091E-01  8.43132071E-01  8.50455926E-01  8.85963032E-01  9.07169683E-01
  9.32139782E-01  9.46450739E-01  9.55017901E-01  1.01732272E+00  1.02901403E+00
  1.05782389E+00  1.06442259E+00  1.09358672E+00  1.14202615E+00  1.15620853E+00
  1.16926027E+00  1.22302402E+00  1.22651591E+00  1.24438232E+00  1.34748333E+00
  1.37019562E+00  1.37406116E+00  1.46877421E+00  1.48649754E+00  1.50721143E+00
  1.53911730E+00  1.59605680E+00  1.59731792E+00  1.60757957E+00  1.62885829E+00
  1.69720440E+00  1.73386352E+00  1.80158765E+00  1.83071494E+00  1.88234317E+00
  1.88887078E+00  1.92616286E+00  1.97957438E+00  1.99055208E+00  2.05129976E+00
  2.12283604E+00  2.12725098E+00  2.16223843E+00  2.18531536E+00  2.24472070E+00
  2.25836993E+00  2.29072077E+00  2.34846579E+00  2.36316472E+00  2.38528160E+00
  2.40073075E+00  2.43156867E+00  2.46929406E+00  2.47820032E+00  2.52787031E+00
  2.53546144E+00  2.55187077E+00  2.55731817E+00  2.61518561E+00  2.62868546E+00
  2.67247529E+00  2.67359211E+00  2.75781304E+00  2.81615336E+00  2.82143252E+00
  2.82978361E+00  2.91900596E+00  2.98449742E+00  3.04631403E+00  3.05141414E+00
  3.11283518E+00  3.11374786E+00  3.16964116E+00  3.20407068E+00  3.30543092E+00
  3.33291314E+00  3.36429720E+00  3.47452371E+00  3.67936163E+00  3.86816391E+00
  3.91812598E+00  4.18031303E+00  4.22073100E+00  4.22800784E+00  4.26752340E+00
  4.37147146E+00  4.50274243E+00  4.51815212E+00  4.55699605E+00  4.59088628E+00
  4.69787737E+00  4.80877076E+00  4.89937657E+00  4.91371871E+00  4.94374143E+00
  5.00290844E+00  5.00629064E+00  5.10610070E+00  5.13401498E+00  5.18219747E+00
  5.24819736E+00  5.26261932E+00  5.31865618E+00  5.32717033E+00  5.36049104E+00
  5.54806577E+00  5.64527388E+00  5.70304227E+00  5.88184937E+00  5.99875316E+00
  6.26496408E+00  6.29205252E+00  6.36340216E+00  6.38282246E+00  6.59355331E+00
  6.65464803E+00  6.66381758E+00  6.68882017E+00  6.72746566E+00  6.79972622E+00
  6.80102500E+00  6.85224724E+00  6.96706188E+00  7.00602437E+00  7.06644286E+00
  7.08517391E+00  7.14928295E+00  7.17284911E+00  7.17532614E+00  7.20025164E+00
  7.24511689E+00  7.24543182E+00  7.26930763E+00  7.34723030E+00  7.38680462E+00
  7.42088850E+00  7.44321780E+00  7.46214086E+00  7.56069268E+00  7.65973639E+00
  7.66405351E+00  7.79204539E+00  7.87703205E+00  7.95156953E+00  8.05170160E+00
  8.29388834E+00  8.50476161E+00  8.65231929E+00  1.36206749E+01  1.47423933E+01
  1.50920054E+01  1.57288885E+01
Alpha MO coefficients                      R   N=       42849
  5.61636228E-05 -3.03103460E-05 -1.12684332E-03  1.23345319E-05 -6.07626882E-05
  4.28440010E-05  0.00000000E+00 -1.19826200E-04 -3.13090052E-04  0.00000000E+00
 -1.29002538E-05 -3.71088895E-04  0.00000000E+00  4.11460611E-05  0.00000000E+00
  0.00000000E+00 -2.11623589E-05 -2.86141605E-06  2.31656464E-04  0.00000000E+00
  0.00000000E+00 -2.32437202E-05 -2.05887858E-04  3.02911332E-03 -9.13799152E-05
 -1.03226259E-04  3.62930424E-03  2.53850927E-03  1.01692173E-04 -5.26355800E-05
  0.00000000E+00 -7.27515627E-04  2.70307732E-04  0.00000000E+00 -1.99874012E-03
  1.12555947E-03  0.00000000E+00 -5.39534841E-04  3.78984128E-05  0.00000000E+00
  2.03283702E-05  0.00000000E+00  0.00000000E+00 -8.92571321E-06  4.66577002E-05
 -4.47606749E-04  0.00000000E+00  0.00000000E+00  4.21213929E-04 -6.77025907E-04
 -3.69271225E-04  0.00000000E+00  0.00000000E+00  5.60952287E-04 -7.61278962E-04
  0.00000000E+00  7.43978342E-05 -5.18936858E-05  0.00000000E+00  0.00000000E+00
 -2.80315538E-05  1.10236775E-04  0.00000000E+00  2.04151019E-04 -5.18701333E-05
  0.00000000E+00  0.00000000E+00 -1.78266687E-04  3.05449596E-04  9.76906329E-01
 -9.17047057E-03  4.34048727E-02  4.48917860E-04 -2.22775307E-03  4.47363772E-04
 -2.14719037E-03  0.00000000E+00 -3.19776652E-04  2.25579634E-03  0.00000000E+00
 -2.36652980E-03 -4.62118808E-04  0.00000000E+00 -2.34211913E-04  9.97550135E-05
  0.00000000E+00  8.01257039E-06  0.00000000E+00  0.00000000E+00 -4.12626845E-06
  3.97405105E-05  8.30226942E-04  0.00000000E+00  0.00000000E+00 -4.80237979E-04
 -1.67255547E-04 -1.35955740E-04  0.00000000E+00  0.00000000E+00 -5.49230190E-04
  3.66950421E-04  0.00000000E+00 -6.22640749E-06 -7.89302403E-05  0.00000000E+00
  0.00000000E+00 -9.55128048E-06  4.82347198E-05  0.00000000E+00  9.26047936E-05
 -3.16861957E-07  0.00000000E+00  0.00000000E+00 -3.36780857E-04  3.84113252E-04
  1.04707468E-04  4.59028784E-04 -3.24721877E-04 -8.17700988E-04  3.42002728E-04
 -4.45232173E-05 -9.97018288E-05  0.00000000E+00  7.00999369E-04  1.11084106E-03
  0.00000000E+00 -7.58111417E-04 -6.88050519E-04  0.00000000E+00  1.96857998E-04
  2.11017166E-04  0.00000000E+00 -5.24567173E-05  0.00000000E+00  0.00000000E+00
  1.95299342E-05  9.30673794E-05 -4.18043586E-04  0.00000000E+00  0.00000000E+00
  4.11499210E-05  1.08240036E-03  2.79930318E-05  0.00000000E+00  0.00000000E+00
 -3.13005775E-04  1.74306664E-05  0.00000000E+00 -7.90696859E-05 -1.13451185E-04
  0.00000000E+00  0.00000000E+00 -9.63239782E-05  1.05897228E-04  0.00000000E+00
 -1.23437901E-04  4.74151879E-05  0.00000000E+00  0.00000000E+00  1.69731599E-05
  5.23942435E-04 -6.78598143E-04  4.89493038E-05 -6.87974764E-05  1.63605651E-04
 -1.92981899E-04 -2.84538115E-05 -4.13585494E-05  0.00000000E+00  1.67984874E-04
  2.53276354E-04  0.00000000E+00  5.23199552E-04  3.05693663E-04  0.00000000E+00
 -2.27950848E-04 -6.41006944E-05  0.00000000E+00 -1.34038634E-05  0.00000000E+00
  0.00000000E+00  3.98794691E-06  1.53653195E-05  9.83877342E-08  0.00000000E+00
  0.00000000E+00 -1.67432475E-04  1.09039134E-05 -2.40045628E-05  0.00000000E+00
  0.00000000E+00 -1.64669417E-04 -4.57544405E-05  0.00000000E+00 -5.57216847E-06
 -9.16393747E-06  0.00000000E+00  0.00000000E+00 -2.25312934E-05  9.67251645E-06
  0.00000000E+00  3.98944676E-05  6.13819321E-05  0.00000000E+00  0.00000000E+00
  1.59265326E-04 -1.05488604E-04  4.38787100E-05  1.13982007E-04 -1.61587032E-04
 -2.96708041E-05  1.30538411E-05  1.08968553E-05  0.00000000E+00  2.28495662E-04
  7.19459633E-05  0.00000000E+00  1.23887869E-04  1.38610796E-05  0.00000000E+00
  1.52404477E-05  0.00000000E+00  0.00000000E+00 -1.70623776E-05  1.39828943E-05
  3.44279431E-05  0.00000000E+00  0.00000000E+00 -9.95264718E-05  4.80178230E-05
 -2.58772075E-04  2.79519901E-05 -1.54949526E-05 -5.35411135E-04  1.95293227E-04
  7.16556162E-06  1.39489943E-05  0.00000000E+00 -5.37425146E-07 -4.38462513E-05
  0.00000000E+00  1.79882099E-04  1.72512261E-04  0.00000000E+00 -5.15254263E-05
  4.44907253E-05  0.00000000E+00 -1.50086643E-06  0.00000000E+00  0.00000000E+00
 -8.27020039E-06 -1.09814036E-05  2.14813772E-05  0.00000000E+00  0.00000000E+00
  4.95938902E-05  1.05140946E-04  6.32255072E-05  0.00000000E+00  0.00000000E+00
 -1.53562256E-05 -9.98046142E-05  0.00000000E+00  8.02808632E-06  1.06712057E-05
  0.00000000E+00  0.00000000E+00 -8.53809031E-07 -2.44385077E-05  0.00000000E+00
 -1.55387192E-05 -3.70752488E-05  0.00000000E+00  0.00000000E+00 -5.11968990E-06
 -1.73613889E-05  7.07462567E-04  2.48626609E-05 -1.98073757E-05  2.70411641E-04
 -4.05318045E-04  1.64909885E-05  2.69226243E-05  0.00000000E+00 -6.53807519E-05
 -1.51371987E-04  0.00000000E+00  1.18677741E-04 -1.96385766E-04  0.00000000E+00
 -1.58590149E-04  1.44719685E-04  0.00000000E+00 -4.11801658E-06  0.00000000E+00
  0.00000000E+00 -2.94121569E-05 -9.80245983E-06 -5.05611133E-05  0.00000000E+00
  0.00000000E+00  7.93404522E-05  1.21448449E-04 -6.28676262E-05  0.00000000E+00
  0.00000000E+00  4.07906544E-05  3.01113035E-05  0.00000000E+00  2.98143512E-06
  3.46239666E-06  0.00000000E+00  0.00000000E+00 -7.82779282E-06 -2.03819474E-06
  0.00000000E+00  4.17574715E-06 -2.54884165E-05  0.00000000E+00  0.00000000E+00
  9.36203574E-05 -1.55077199E-04  2.37374542E-04  1.35887151E-03 -1.48161103E-04
 -6.66614588E-04  9.02822693E-04  6.31190181E-05 -7.07800580E-05  0.00000000E+00
  5.70718903E-04 -2.08476019E-03  0.00000000E+00  1.23062005E-04  4.70917885E-04
  0.00000000E+00  1.85848569E-04 -3.07811463E-04  0.00000000E+00 -1.27727560E-04
  0.00000000E+00  0.00000000E+00 -2.04172883E-04 -1.58482749E-04 -4.62134570E-04
  0.00000000E+00  0.00000000E+00 -6.04834727E-04 -9.15912946E-04 -4.16809456E-05
  0.00000000E+00  0.00000000E+00  6.32142526E-05  1.07605126E-04  0.00000000E+00
  8.23972251E-06  3.69073633E-05  0.00000000E+00  0.00000000E+00 -2.43133453E-05
 -3.98325506E-06  0.00000000E+00 -1.34583397E-04  1.58982623E-04  0.00000000E+00
  0.00000000E+00 -3.13572700E-04 -2.94464591E-05  9.76646599E-01 -9.88610247E-03
  4.35751141E-02  3.66613019E-03 -8.98410635E-04 -4.52263312E-04  2.12989277E-03
  0.00000000E+00  5.13126736E-04 -2.50447707E-03  0.00000000E+00 -5.47845549E-05
  7.97381074E-04  0.00000000E+00  1.03038584E-04 -6.53200620E-05  0.00000000E+00
 -1.94754293E-04  0.00000000E+00  0.00000000E+00 -7.38074034E-05 -4.34069643E-05
  4.09565868E-04  0.00000000E+00  0.00000000E+00  8.58639664E-04  4.83054789E-04
 -2.08782748E-04  0.00000000E+00  0.00000000E+00 -1.28995648E-04 -3.71862692E-05
  0.00000000E+00 -4.22674165E-06  7.03410046E-05  0.00000000E+00  0.00000000E+00
 -3.02693802E-05  1.04727043E-05  0.00000000E+00 -9.01936010E-05  9.25003292E-05
  0.00000000E+00  0.00000000E+00 -1.62378349E-04  2.04220278E-04  3.82080885E-04
  2.12149130E-03  1.21910688E-03 -1.88522576E-05  4.95848363E-05  2.70381896E-04
  0.00000000E+00  3.38026658E-04  1.06416631E-03  0.00000000E+00 -1.06056395E-04
  2.49988978E-04  0.00000000E+00 -2.32429910E-05  0.00000000E+00  0.00000000E+00
  3.56991793E-05 -2.30476119E-05 -1.83611390E-04  0.00000000E+00  0.00000000E+00
 -3.67234138E-04  3.42815861E-04  9.76833777E-01 -9.17603103E-03  4.34712597E-02
  1.15591251E-04 -1.87236796E-03 -2.03431416E-03 -8.62480182E-04  0.00000000E+00
  2.06906414E-03  7.91476584E-04  0.00000000E+00 -4.09302323E-04  7.41229772E-04
  0.00000000E+00  2.14115404E-04 -3.16267252E-04  0.00000000E+00  2.89216231E-05
  0.00000000E+00  0.00000000E+00 -7.86994241E-05  5.70753566E-05  7.72944483E-04
  0.00000000E+00  0.00000000E+00 -1.92131237E-04  3.72742550E-04 -2.34484260E-04
  0.00000000E+00  0.00000000E+00  3.60031285E-04 -3.49485889E-05  0.00000000E+00
 -8.00974591E-05  1.42182365E-06  0.00000000E+00  0.00000000E+00  1.70115613E-05