title                                                                   
Freq      RMP2-FC                                                     Aug-CC-pVTZ         
Number of atoms                            I                5
Info1-9                                    I   N=           9
          33          24           0           0           0         100
           6           2           1
Full Title                                 C   N=           1
title       
Route                                      C   N=           4
#p freq mp2/aug-cc-pvtz density=current         
Charge                                     I                0
Multiplicity                               I                1
Number of electrons                        I               32
Number of alpha electrons                  I               16
Number of beta electrons                   I               16
Number of basis functions                  I              207
Number of independent functions            I              207
Number of point charges in /Mol/           I                0
Number of translation vectors              I                0
Atomic numbers                             I   N=           5
           1           8           8           7           8
Nuclear charges                            R   N=           5
  1.00000000E+00  8.00000000E+00  8.00000000E+00  7.00000000E+00  8.00000000E+00
Current cartesian coordinates              R   N=          15
  2.09256630E+00 -1.12669540E+00  0.00000000E+00  2.48528061E+00  6.93513931E-01
  0.00000000E+00  1.36496064E-17  1.73876963E+00  0.00000000E+00 -1.87578070E+00
 -7.59215424E-02  0.00000000E+00 -1.10554329E+00 -2.22501529E+00  0.00000000E+00
Number of symbols in /Mol/                 I                0
Force Field                                I                0
Atom Types                                 C   N=           5
                                                            
Int Atom Types                             I   N=           5
           0           0           0           0           0
MM charges                                 R   N=           5
  0.00000000E+00  0.00000000E+00  0.00000000E+00  0.00000000E+00  0.00000000E+00
Integer atomic weights                     I   N=           5
           1          16          16          14          16
Real atomic weights                        R   N=           5
  1.00782504E+00  1.59949146E+01  1.59949146E+01  1.40030740E+01  1.59949146E+01
Atom fragment info                         I   N=           5
           0           0           0           0           0
Atom residue num                           I   N=           5
           0           0           0           0           0
Nuclear spins                              I   N=           5
           1           0           0           2           0
Nuclear ZEff                               R   N=           5
 -1.00000000E+00 -5.60000000E+00 -5.60000000E+00 -4.55000000E+00 -5.60000000E+00
Nuclear ZNuc                               R   N=           5
  1.00000000E+00  8.00000000E+00  8.00000000E+00  7.00000000E+00  8.00000000E+00
Nuclear QMom                               R   N=           5
  0.00000000E+00  0.00000000E+00  0.00000000E+00  2.04400000E+00  0.00000000E+00
Nuclear GFac                               R   N=           5
  2.79284600E+00  0.00000000E+00  0.00000000E+00  4.03761000E-01  0.00000000E+00
MicOpt                                     I   N=           5
          -1          -1          -1          -1          -1
Number of residues                         I                0
Number of secondary structures             I                0
SymInf integers                            I   N=          26
           1           2           1           1           1           1
           1          -1           0           0           0           0
           0           0           0           0           0           0
           0           0           0           0           0           0
           0           0
RotTr to input orientation                 R   N=          12
 -9.77507745E-01  0.00000000E+00  2.10899524E-01  2.10899524E-01  0.00000000E+00
  9.77507745E-01  0.00000000E+00  1.00000000E+00  0.00000000E+00  2.28311929E+00
  0.00000000E+00  6.60032242E-01
Number of contracted shells                I               65
Number of primitive shells                 I              119
Pure/Cartesian d shells                    I                0
Pure/Cartesian f shells                    I                0
Highest angular momentum                   I                3
Largest degree of contraction              I                7
Shell types                                I   N=          65
           0           0           0           0           1           1
           1          -2          -2           0           0           0
           0           0           1           1           1           1
          -2          -2          -2          -3          -3           0
           0           0           0           0           1           1
           1           1          -2          -2          -2          -3
          -3           0           0           0           0           0
           1           1           1           1          -2          -2
          -2          -3          -3           0           0           0
           0           0           1           1           1           1
          -2          -2          -2          -3          -3
Number of primitives per shell             I   N=          65
           3           1           1           1           1           1
           1           1           1           7           6           1
           1           1           3           1           1           1
           1           1           1           1           1           7
           6           1           1           1           3           1
           1           1           1           1           1           1
           1           7           6           1           1           1
           3           1           1           1           1           1
           1           1           1           7           6           1
           1           1           3           1           1           1
           1           1           1           1           1
Shell to atom map                          I   N=          65
           1           1           1           1           1           1
           1           1           1           2           2           2
           2           2           2           2           2           2
           2           2           2           2           2           3
           3           3           3           3           3           3
           3           3           3           3           3           3
           3           4           4           4           4           4
           4           4           4           4           4           4
           4           4           4           5           5           5
           5           5           5           5           5           5
           5           5           5           5           5
Primitive exponents                        R   N=         119
  3.38700000E+01  5.09500000E+00  1.15900000E+00  3.25800000E-01  1.02700000E-01
  2.52600000E-02  1.40700000E+00  3.88000000E-01  1.02000000E-01  1.05700000E+00
  2.47000000E-01  1.53300000E+04  2.29900000E+03  5.22400000E+02  1.47300000E+02
  4.75500000E+01  1.67600000E+01  6.20700000E+00  5.22400000E+02  1.47300000E+02
  4.75500000E+01  1.67600000E+01  6.20700000E+00  6.88200000E-01  1.75200000E+00
  2.38400000E-01  7.37600000E-02  3.44600000E+01  7.74900000E+00  2.28000000E+00
  7.15600000E-01  2.14000000E-01  5.97400000E-02  2.31400000E+00  6.45000000E-01
  2.14000000E-01  1.42800000E+00  5.00000000E-01  1.53300000E+04  2.29900000E+03
  5.22400000E+02  1.47300000E+02  4.75500000E+01  1.67600000E+01  6.20700000E+00
  5.22400000E+02  1.47300000E+02  4.75500000E+01  1.67600000E+01  6.20700000E+00
  6.88200000E-01  1.75200000E+00  2.38400000E-01  7.37600000E-02  3.44600000E+01
  7.74900000E+00  2.28000000E+00  7.15600000E-01  2.14000000E-01  5.97400000E-02
  2.31400000E+00  6.45000000E-01  2.14000000E-01  1.42800000E+00  5.00000000E-01
  1.14200000E+04  1.71200000E+03  3.89300000E+02  1.10000000E+02  3.55700000E+01
  1.25400000E+01  4.64400000E+00  3.89300000E+02  1.10000000E+02  3.55700000E+01
  1.25400000E+01  4.64400000E+00  5.11800000E-01  1.29300000E+00  1.78700000E-01
  5.76000000E-02  2.66300000E+01  5.94800000E+00  1.74200000E+00  5.55000000E-01
  1.72500000E-01  4.91000000E-02  1.65400000E+00  4.69000000E-01  1.51000000E-01
  1.09300000E+00  3.64000000E-01  1.53300000E+04  2.29900000E+03  5.22400000E+02
  1.47300000E+02  4.75500000E+01  1.67600000E+01  6.20700000E+00  5.22400000E+02
  1.47300000E+02  4.75500000E+01  1.67600000E+01  6.20700000E+00  6.88200000E-01
  1.75200000E+00  2.38400000E-01  7.37600000E-02  3.44600000E+01  7.74900000E+00
  2.28000000E+00  7.15600000E-01  2.14000000E-01  5.97400000E-02  2.31400000E+00
  6.45000000E-01  2.14000000E-01  1.42800000E+00  5.00000000E-01
Contraction coefficients                   R   N=         119
  2.54948632E-02  1.90362766E-01  8.52162022E-01  1.00000000E+00  1.00000000E+00
  1.00000000E+00  1.00000000E+00  1.00000000E+00  1.00000000E+00  1.00000000E+00
  1.00000000E+00  5.19808943E-04  4.02025621E-03  2.07128267E-02  8.10105536E-02
  2.35962985E-01  4.42653446E-01  3.57064423E-01 -4.42115008E-05 -1.22591041E-03
 -1.05517725E-02 -6.74452633E-02 -1.71198607E-01  1.07329856E+00  1.00000000E+00
  1.00000000E+00  1.00000000E+00  4.11634896E-02  2.57762836E-01  8.02419274E-01
  1.00000000E+00  1.00000000E+00  1.00000000E+00  1.00000000E+00  1.00000000E+00
  1.00000000E+00  1.00000000E+00  1.00000000E+00  5.19808943E-04  4.02025621E-03
  2.07128267E-02  8.10105536E-02  2.35962985E-01  4.42653446E-01  3.57064423E-01
 -4.42115008E-05 -1.22591041E-03 -1.05517725E-02 -6.74452633E-02 -1.71198607E-01
  1.07329856E+00  1.00000000E+00  1.00000000E+00  1.00000000E+00  4.11634896E-02
  2.57762836E-01  8.02419274E-01  1.00000000E+00  1.00000000E+00  1.00000000E+00
  1.00000000E+00  1.00000000E+00  1.00000000E+00  1.00000000E+00  1.00000000E+00
  5.34563860E-04  4.13435660E-03  2.12335358E-02  8.25006224E-02  2.38138871E-01
  4.42551547E-01  3.53757422E-01 -4.89867350E-05 -1.19527323E-03 -1.03490714E-02
 -6.48680190E-02 -1.71552477E-01  1.07289568E+00  1.00000000E+00  1.00000000E+00
  1.00000000E+00  3.98072123E-02  2.49002660E-01  8.10479727E-01  1.00000000E+00
  1.00000000E+00  1.00000000E+00  1.00000000E+00  1.00000000E+00  1.00000000E+00
  1.00000000E+00  1.00000000E+00  5.19808943E-04  4.02025621E-03  2.07128267E-02
  8.10105536E-02  2.35962985E-01  4.42653446E-01  3.57064423E-01 -4.42115008E-05
 -1.22591041E-03 -1.05517725E-02 -6.74452633E-02 -1.71198607E-01  1.07329856E+00
  1.00000000E+00  1.00000000E+00  1.00000000E+00  4.11634896E-02  2.57762836E-01
  8.02419274E-01  1.00000000E+00  1.00000000E+00  1.00000000E+00  1.00000000E+00
  1.00000000E+00  1.00000000E+00  1.00000000E+00  1.00000000E+00
Coordinates of each shell                  R   N=         195
  2.09256630E+00 -1.12669540E+00  0.00000000E+00  2.09256630E+00 -1.12669540E+00
  0.00000000E+00  2.09256630E+00 -1.12669540E+00  0.00000000E+00  2.09256630E+00
 -1.12669540E+00  0.00000000E+00  2.09256630E+00 -1.12669540E+00  0.00000000E+00
  2.09256630E+00 -1.12669540E+00  0.00000000E+00  2.09256630E+00 -1.12669540E+00
  0.00000000E+00  2.09256630E+00 -1.12669540E+00  0.00000000E+00  2.09256630E+00
 -1.12669540E+00  0.00000000E+00  2.48528061E+00  6.93513931E-01  0.00000000E+00
  2.48528061E+00  6.93513931E-01  0.00000000E+00  2.48528061E+00  6.93513931E-01
  0.00000000E+00  2.48528061E+00  6.93513931E-01  0.00000000E+00  2.48528061E+00
  6.93513931E-01  0.00000000E+00  2.48528061E+00  6.93513931E-01  0.00000000E+00
  2.48528061E+00  6.93513931E-01  0.00000000E+00  2.48528061E+00  6.93513931E-01
  0.00000000E+00  2.48528061E+00  6.93513931E-01  0.00000000E+00  2.48528061E+00
  6.93513931E-01  0.00000000E+00  2.48528061E+00  6.93513931E-01  0.00000000E+00
  2.48528061E+00  6.93513931E-01  0.00000000E+00  2.48528061E+00  6.93513931E-01
  0.00000000E+00  2.48528061E+00  6.93513931E-01  0.00000000E+00 -1.89327181E-17
  1.73876963E+00  0.00000000E+00 -1.89327181E-17  1.73876963E+00  0.00000000E+00
 -1.89327181E-17  1.73876963E+00  0.00000000E+00 -1.89327181E-17  1.73876963E+00
  0.00000000E+00 -1.89327181E-17  1.73876963E+00  0.00000000E+00 -1.89327181E-17
  1.73876963E+00  0.00000000E+00 -1.89327181E-17  1.73876963E+00  0.00000000E+00
 -1.89327181E-17  1.73876963E+00  0.00000000E+00 -1.89327181E-17  1.73876963E+00
  0.00000000E+00 -1.89327181E-17  1.73876963E+00  0.00000000E+00 -1.89327181E-17
  1.73876963E+00  0.00000000E+00 -1.89327181E-17  1.73876963E+00  0.00000000E+00
 -1.89327181E-17  1.73876963E+00  0.00000000E+00 -1.89327181E-17  1.73876963E+00
  0.00000000E+00 -1.87578070E+00 -7.59215424E-02  0.00000000E+00 -1.87578070E+00
 -7.59215424E-02  0.00000000E+00 -1.87578070E+00 -7.59215424E-02  0.00000000E+00
 -1.87578070E+00 -7.59215424E-02  0.00000000E+00 -1.87578070E+00 -7.59215424E-02
  0.00000000E+00 -1.87578070E+00 -7.59215424E-02  0.00000000E+00 -1.87578070E+00
 -7.59215424E-02  0.00000000E+00 -1.87578070E+00 -7.59215424E-02  0.00000000E+00
 -1.87578070E+00 -7.59215424E-02  0.00000000E+00 -1.87578070E+00 -7.59215424E-02
  0.00000000E+00 -1.87578070E+00 -7.59215424E-02  0.00000000E+00 -1.87578070E+00
 -7.59215424E-02  0.00000000E+00 -1.87578070E+00 -7.59215424E-02  0.00000000E+00
 -1.87578070E+00 -7.59215424E-02  0.00000000E+00 -1.10554329E+00 -2.22501529E+00
  0.00000000E+00 -1.10554329E+00 -2.22501529E+00  0.00000000E+00 -1.10554329E+00
 -2.22501529E+00  0.00000000E+00 -1.10554329E+00 -2.22501529E+00  0.00000000E+00
 -1.10554329E+00 -2.22501529E+00  0.00000000E+00 -1.10554329E+00 -2.22501529E+00
  0.00000000E+00 -1.10554329E+00 -2.22501529E+00  0.00000000E+00 -1.10554329E+00
 -2.22501529E+00  0.00000000E+00 -1.10554329E+00 -2.22501529E+00  0.00000000E+00
 -1.10554329E+00 -2.22501529E+00  0.00000000E+00 -1.10554329E+00 -2.22501529E+00
  0.00000000E+00 -1.10554329E+00 -2.22501529E+00  0.00000000E+00 -1.10554329E+00
 -2.22501529E+00  0.00000000E+00 -1.10554329E+00 -2.22501529E+00  0.00000000E+00
Num ILSW                                   I              100
ILSW                                       I   N=         100
           0           0           0           0           2           0
           0           0           0           0           0          -1
           5           0           0           0           2           0
           0           0           0           0           1           0
           1           0           0           0           0           0
           0           0      100000           0          -1           0
           0           0           0           0           0           0
           0           0           0           1           1           0
           0 -2000000000           1           0           0           0
           0           0           4          52           0           0
           0           0           0           0           0           0
           0           0           0           5           4           1
           0           0           0           0           0           0
           0           0           0           0           0           0
           0           0           0           0           0           0
           0           0           0           0           0           0
           0           0           0           0
Num RLSW                                   I               52
RLSW                                       R   N=          52
  1.00000000E+00  1.00000000E+00  1.00000000E+00  1.00000000E+00  1.00000000E+00
  0.00000000E+00  0.00000000E+00  1.00000000E+00  0.00000000E+00  0.00000000E+00
  0.00000000E+00  0.00000000E+00  1.00000000E+00  0.00000000E+00  0.00000000E+00
  0.00000000E+00  0.00000000E+00  1.00000000E+00  0.00000000E+00  0.00000000E+00
  0.00000000E+00  0.00000000E+00  1.00000000E+00  0.00000000E+00  0.00000000E+00
  0.00000000E+00  0.00000000E+00  1.00000000E+00  0.00000000E+00  0.00000000E+00
  0.00000000E+00  0.00000000E+00  1.00000000E+00  0.00000000E+00  0.00000000E+00
  0.00000000E+00  0.00000000E+00  0.00000000E+00  1.00000000E+00  1.00000000E+00
  0.00000000E+00  1.00000000E+00  0.00000000E+00  0.00000000E+00  0.00000000E+00
  0.00000000E+00  0.00000000E+00  0.00000000E+00  0.00000000E+00  0.00000000E+00
  0.00000000E+00  0.00000000E+00
MxBond                                     I                2
NBond                                      I   N=           5
           1           2           2           2           1
IBond                                      I   N=          10
           2           0           1           3           2           4
           3           5           4           0
RBond                                      R   N=          10
  1.00000000E+00  0.00000000E+00  1.00000000E+00  1.00000000E+00  1.00000000E+00
  1.00000000E+00  1.00000000E+00  2.00000000E+00  2.00000000E+00  0.00000000E+00
Virial Ratio                               R      2.002424931839724E+00
SCF Energy                                 R     -2.795039238576068E+02
MP2 Energy                                 R     -2.804550271715292E+02
Total Energy                               R     -2.804550271715292E+02
Post-SCF wavefunction norm                 R      1.585054680686731E+00
RMS Force                                  R      5.863440410568833E-03
RMS Density                                R      5.259380644266825E-09
NImag                                      I                0
Job Status                                 I                1
Nuclear derivative order                   I                2
External E-field                           R   N=          35
  0.00000000E+00  0.00000000E+00  0.00000000E+00  0.00000000E+00  0.00000000E+00
  0.00000000E+00  0.00000000E+00  0.00000000E+00  0.00000000E+00  0.00000000E+00
  0.00000000E+00  0.00000000E+00  0.00000000E+00  0.00000000E+00  0.00000000E+00
  0.00000000E+00  0.00000000E+00  0.00000000E+00  0.00000000E+00  0.00000000E+00
  0.00000000E+00  0.00000000E+00  0.00000000E+00  0.00000000E+00  0.00000000E+00
  0.00000000E+00  0.00000000E+00  0.00000000E+00  0.00000000E+00  0.00000000E+00
  0.00000000E+00  0.00000000E+00  0.00000000E+00  0.00000000E+00  0.00000000E+00
IOpCl                                      I                0
IROHF                                      I                0
Alpha Orbital Energies                     R   N=         207
 -2.07228188E+01 -2.06865840E+01 -2.06694545E+01 -1.58281742E+01 -1.63729741E+00
 -1.50175461E+00 -1.29507816E+00 -9.62362077E-01 -8.31949360E-01 -7.56179342E-01
 -7.38104817E-01 -6.37269668E-01 -6.18450116E-01 -6.15276117E-01 -5.07055363E-01
 -4.98342472E-01  3.51502216E-02  5.61542773E-02  9.50149944E-02  1.00304513E-01
  1.20018230E-01  1.22473663E-01  1.49324914E-01  1.52008467E-01  1.77142936E-01
  1.80438638E-01  1.89760716E-01  2.11010155E-01  2.16636168E-01  2.41269480E-01
  2.46113025E-01  2.68681280E-01  3.12579212E-01  3.16934263E-01  3.38061731E-01
  3.42221497E-01  3.45940006E-01  3.92042113E-01  4.49188038E-01  4.87773048E-01
  5.04985173E-01  5.17511876E-01  5.44392880E-01  5.61694793E-01  5.93960539E-01
  6.18050777E-01  6.36991780E-01  6.91559673E-01  7.17389215E-01  7.23790679E-01
  7.40848489E-01  7.64440979E-01  7.67421584E-01  7.95346027E-01  8.05474978E-01
  8.38164099E-01  8.42358024E-01  8.51363488E-01  8.83880289E-01  9.07051186E-01
  9.29520877E-01  9.45099176E-01  9.54259941E-01  1.01789106E+00  1.03261507E+00
  1.06334776E+00  1.06585604E+00  1.09489679E+00  1.14400129E+00  1.15648162E+00
  1.16748083E+00  1.22101579E+00  1.22683338E+00  1.24514370E+00  1.35483477E+00
  1.36085661E+00  1.36987983E+00  1.46812448E+00  1.48456609E+00  1.50453996E+00
  1.54294572E+00  1.59579998E+00  1.59686038E+00  1.60392370E+00  1.62763281E+00
  1.69294750E+00  1.74032146E+00  1.79868080E+00  1.82977033E+00  1.88425581E+00
  1.89456773E+00  1.93120291E+00  1.97793417E+00  1.98915801E+00  2.05530733E+00
  2.12093376E+00  2.12973705E+00  2.16492846E+00  2.18910754E+00  2.24320651E+00
  2.26009942E+00  2.29331763E+00  2.35151293E+00  2.36505583E+00  2.38473198E+00
  2.39776811E+00  2.43200302E+00  2.47077110E+00  2.47848791E+00  2.53011200E+00
  2.53669413E+00  2.54610295E+00  2.55476075E+00  2.61135296E+00  2.62960372E+00
  2.66766904E+00  2.66895405E+00  2.75058913E+00  2.80691778E+00  2.81352916E+00
  2.83899160E+00  2.91753086E+00  2.98101040E+00  3.04150871E+00  3.04882445E+00
  3.11387732E+00  3.11959487E+00  3.17184749E+00  3.21297683E+00  3.30563404E+00
  3.33218305E+00  3.35938770E+00  3.47582029E+00  3.66683741E+00  3.86815000E+00
  3.93125274E+00  4.18394445E+00  4.21980810E+00  4.22218629E+00  4.24611479E+00
  4.36855896E+00  4.49473732E+00  4.52816208E+00  4.54369026E+00  4.59757462E+00
  4.68990279E+00  4.80421711E+00  4.89626101E+00  4.91473752E+00  4.93629430E+00
  5.00055212E+00  5.00642312E+00  5.10390176E+00  5.12365426E+00  5.17889101E+00
  5.23850135E+00  5.25658583E+00  5.31453225E+00  5.34198702E+00  5.35746668E+00
  5.55713426E+00  5.62551312E+00  5.69896201E+00  5.89402543E+00  5.98653581E+00
  6.26294712E+00  6.29342337E+00  6.35837460E+00  6.37471338E+00  6.59638769E+00
  6.65734749E+00  6.65769205E+00  6.68782821E+00  6.72086216E+00  6.80166970E+00
  6.80363290E+00  6.84162428E+00  6.96350069E+00  7.02017446E+00  7.06482986E+00
  7.07717830E+00  7.13202709E+00  7.16802365E+00  7.16953361E+00  7.19849172E+00
  7.23012169E+00  7.24506821E+00  7.25939033E+00  7.34474731E+00  7.38433334E+00
  7.42243858E+00  7.43797090E+00  7.45067723E+00  7.53842235E+00  7.66171953E+00
  7.66177750E+00  7.78867870E+00  7.87939246E+00  7.94644858E+00  8.05014372E+00
  8.30587645E+00  8.49905950E+00  8.64645128E+00  1.35886110E+01  1.46588566E+01
  1.50559377E+01  1.54730444E+01
Alpha MO coefficients                      R   N=       42849
  6.48218501E-05 -1.60986785E-05 -1.15261129E-03  1.02162994E-05 -5.15256201E-05
  4.21991861E-05  0.00000000E+00 -9.11242009E-05 -2.90182551E-04  0.00000000E+00
  2.52815184E-06 -3.58887503E-04  0.00000000E+00  4.20289116E-05  0.00000000E+00
  0.00000000E+00 -2.44817788E-05  1.32512295E-05  2.32368245E-04  0.00000000E+00
  0.00000000E+00 -4.03629972E-05 -2.14184130E-04  2.96512827E-03 -9.27681093E-05
 -1.04069729E-04  3.55182380E-03  2.50313906E-03  1.02784501E-04 -5.30954196E-05
  0.00000000E+00 -7.29645970E-04  2.85170920E-04  0.00000000E+00 -1.96872594E-03
  1.11854524E-03  0.00000000E+00 -5.40503348E-04  3.78468823E-05  0.00000000E+00
  2.04599064E-05  0.00000000E+00  0.00000000E+00 -8.86543044E-06  4.40977910E-05
 -4.43126844E-04  0.00000000E+00  0.00000000E+00  4.26905601E-04 -6.62287255E-04
 -3.61441539E-04  0.00000000E+00  0.00000000E+00  5.41756543E-04 -7.49846524E-04
  0.00000000E+00  7.41172360E-05 -5.24492597E-05  0.00000000E+00  0.00000000E+00
 -2.68487131E-05  1.07941908E-04  0.00000000E+00  2.06988837E-04 -5.11837386E-05
  0.00000000E+00  0.00000000E+00 -1.69622141E-04  3.00406262E-04  9.76908164E-01
 -9.17203309E-03  4.34007924E-02  4.57432418E-04 -2.23036467E-03  4.39065463E-04
 -2.15721565E-03  0.00000000E+00 -3.06623477E-04  2.26279415E-03  0.00000000E+00
 -2.30674276E-03 -4.79599217E-04  0.00000000E+00 -2.24263743E-04  1.01246460E-04
  0.00000000E+00  6.57815265E-06  0.00000000E+00  0.00000000E+00 -3.72780426E-06
  3.67206933E-05  8.28056325E-04  0.00000000E+00  0.00000000E+00 -4.75425627E-04
 -1.74516063E-04 -1.38643412E-04  0.00000000E+00  0.00000000E+00 -5.55834987E-04
  3.55228824E-04  0.00000000E+00 -7.02552495E-06 -7.96748101E-05  0.00000000E+00
  0.00000000E+00 -9.13574865E-06  4.84523032E-05  0.00000000E+00  9.23777885E-05
  9.13206406E-07  0.00000000E+00  0.00000000E+00 -3.34608649E-04  3.82134132E-04
  1.07149230E-04  4.73887465E-04 -3.24340144E-04 -7.43773123E-04  3.84744228E-04
 -4.47566475E-05 -1.00262534E-04  0.00000000E+00  7.06309875E-04  1.09794584E-03
  0.00000000E+00 -7.37418456E-04 -6.50216189E-04  0.00000000E+00  1.97297977E-04
  2.06788072E-04  0.00000000E+00 -5.31389105E-05  0.00000000E+00  0.00000000E+00
  1.90379127E-05  9.23468286E-05 -4.18999758E-04  0.00000000E+00  0.00000000E+00
  3.46523453E-05  1.08305509E-03  2.13265682E-05  0.00000000E+00  0.00000000E+00
 -3.18617865E-04  3.44497362E-05  0.00000000E+00 -7.88676208E-05 -1.13622599E-04
  0.00000000E+00  0.00000000E+00 -9.75868366E-05  1.08307389E-04  0.00000000E+00
 -1.25167303E-04  4.36645388E-05  0.00000000E+00  0.00000000E+00  1.06122694E-05
  5.22946181E-04 -6.23097723E-04  3.92788959E-05 -6.68894429E-05  1.75524415E-04
 -2.03898983E-04 -2.96939233E-05 -4.09612127E-05  0.00000000E+00  1.69916848E-04
  2.41788801E-04  0.00000000E+00  5.48224722E-04  2.91189738E-04  0.00000000E+00
 -2.10774386E-04 -6.61196667E-05  0.00000000E+00 -1.23748570E-05  0.00000000E+00
  0.00000000E+00  3.86424003E-06  1.36024616E-05 -3.28131230E-06  0.00000000E+00
  0.00000000E+00 -1.62741766E-04  2.15493460E-05 -1.87275287E-05  0.00000000E+00
  0.00000000E+00 -1.61056428E-04 -2.99441779E-05  0.00000000E+00 -6.83965163E-06
 -9.64900386E-06  0.00000000E+00  0.00000000E+00 -2.29571260E-05  8.55115595E-06
  0.00000000E+00  3.91023751E-05  6.03576365E-05  0.00000000E+00  0.00000000E+00
  1.51533600E-04 -1.05271796E-04  4.09216670E-05  6.48619402E-05 -1.46670366E-04
 -3.52067512E-05  1.75208961E-05  1.13248048E-05  0.00000000E+00  2.41738604E-04
  6.96920809E-05  0.00000000E+00  1.32041104E-04  2.26150951E-05  0.00000000E+00
  1.29602863E-05  0.00000000E+00  0.00000000E+00 -1.35468335E-05  1.58277025E-05
  2.59788993E-05  0.00000000E+00  0.00000000E+00 -1.07789594E-04  6.17506870E-05
 -2.93612569E-04  2.92995752E-05 -1.84311471E-05 -5.69055522E-04  1.74110412E-04
  8.95189031E-06  1.32010095E-05  0.00000000E+00 -8.24368411E-06 -3.75437417E-05
  0.00000000E+00  2.10707159E-04  1.34539989E-04  0.00000000E+00 -4.87134059E-05
  4.57784914E-05  0.00000000E+00 -1.45418660E-06  0.00000000E+00  0.00000000E+00
 -8.63826355E-06 -1.17896126E-05  2.00974559E-05  0.00000000E+00  0.00000000E+00
  5.59215037E-05  1.06590564E-04  6.08207668E-05  0.00000000E+00  0.00000000E+00
 -4.16870626E-05 -8.79775057E-05  0.00000000E+00  8.27450714E-06  9.76950162E-06
  0.00000000E+00  0.00000000E+00 -1.59410603E-06 -2.47065062E-05  0.00000000E+00
 -1.43195193E-05 -3.45914439E-05  0.00000000E+00  0.00000000E+00 -4.75701211E-06
 -1.64095994E-05  6.50298412E-04  2.52511595E-05 -2.10104006E-05  2.31862153E-04
 -4.68706925E-04  1.47575674E-05  2.79980179E-05  0.00000000E+00 -5.74650309E-05
 -1.54279232E-04  0.00000000E+00  2.33169745E-04 -2.11640118E-04  0.00000000E+00
 -1.46968075E-04  1.53970335E-04  0.00000000E+00 -4.23815767E-06  0.00000000E+00
  0.00000000E+00 -2.59890158E-05 -1.04374197E-05 -4.80258525E-05  0.00000000E+00
  0.00000000E+00  5.56747122E-05  1.20565942E-04 -5.43946390E-05  0.00000000E+00
  0.00000000E+00  9.12999579E-06  8.54812584E-06  0.00000000E+00  2.63665278E-06
  3.94853019E-06  0.00000000E+00  0.00000000E+00 -8.13571564E-06  3.46503466E-08
  0.00000000E+00  1.51501859E-06 -2.63641125E-05  0.00000000E+00  0.00000000E+00
  1.05416562E-04 -1.40197558E-04  2.32113866E-04  1.31779091E-03 -1.97041004E-04
 -3.89395996E-04  1.02163587E-03  5.32449810E-05 -4.29222219E-05  0.00000000E+00
  5.66708363E-04 -2.08853178E-03  0.00000000E+00  1.77986950E-04  4.41636250E-04
  0.00000000E+00  2.02222645E-04 -3.19149919E-04  0.00000000E+00 -1.27538056E-04
  0.00000000E+00  0.00000000E+00 -2.00474630E-04 -1.57785429E-04 -4.94645554E-04
  0.00000000E+00  0.00000000E+00 -6.78364851E-04 -9.32983837E-04 -6.73902174E-05
  0.00000000E+00  0.00000000E+00  1.91005104E-05  1.09592142E-04  0.00000000E+00
  2.88170760E-06  5.47344650E-05  0.00000000E+00  0.00000000E+00 -4.74942401E-05
  1.05804729E-05  0.00000000E+00 -1.39311539E-04  1.59226816E-04  0.00000000E+00
  0.00000000E+00 -3.47338271E-04 -3.71053516E-05  9.76668033E-01 -9.88792338E-03
  4.35419628E-02  3.51338591E-03 -9.74699542E-04 -4.40341245E-04  2.11968808E-03
  0.00000000E+00  5.23194355E-04 -2.53963551E-03  0.00000000E+00 -3.48788909E-05
  7.72881719E-04  0.00000000E+00  1.11533913E-04 -7.40936444E-05  0.00000000E+00
 -1.84613077E-04  0.00000000E+00  0.00000000E+00 -6.40955450E-05 -3.55832338E-05
  4.13893172E-04  0.00000000E+00  0.00000000E+00  8.70926281E-04  4.96290245E-04
 -2.15615225E-04  0.00000000E+00  0.00000000E+00 -1.46570841E-04 -3.49120803E-05
  0.00000000E+00 -6.89687129E-06  7.62176012E-05  0.00000000E+00  0.00000000E+00
 -3.59060512E-05  1.38387774E-05  0.00000000E+00 -8.74982627E-05  8.29360092E-05
  0.00000000E+00  0.00000000E+00 -1.64842464E-04  2.03481525E-04  3.74873392E-04
  1.98353893E-03  1.35528061E-03 -1.72420940E-05  5.03850931E-05  2.67238385E-04
  0.00000000E+00  3.87697522E-04  1.02440923E-03  0.00000000E+00 -1.24248381E-04
  2.28937490E-04  0.00000000E+00 -2.32328817E-05  0.00000000E+00  0.00000000E+00
  3.28598182E-05 -2.87263363E-05 -2.16589701E-04  0.00000000E+00  0.00000000E+00
 -3.50507959E-04  4.08786992E-04  9.76834765E-01 -9.18777312E-03  4.34652560E-02
  1.35545335E-04 -1.88415155E-03 -2.04589455E-03 -8.29150767E-04  0.00000000E+00
  2.08290589E-03  7.64390133E-04  0.00000000E+00 -3.97640260E-04  6.42649827E-04
  0.00000000E+00  2.19598145E-04 -2.98848181E-04  0.00000000E+00  3.08214345E-05
  0.00000000E+00  0.00000000E+00 -7.48594056E-05  6.37294358E-05  7.65668164E-04
  0.00000000E+00  0.00000000E+00 -2.10600315E-04  3.57191830E-04 -2.37842670E-04
  0.00000000E+00  0.00000000E+00  3.32870510E-04 -8.41578503E-07  0.00000000E+00
 -8.05458179E-05  2.14398187E-06  0.00000000E+00  0.00000000E+00  1.60027403E-05