title                                                                   
Freq      RMP2-FC                                                     Aug-CC-pVTZ         
Number of atoms                            I                5
Info1-9                                    I   N=           9
          33          24           0           0           0         100
           6           2           1
Full Title                                 C   N=           1
title       
Route                                      C   N=           4
#p freq mp2/aug-cc-pvtz density=current         
Charge                                     I                0
Multiplicity                               I                1
Number of electrons                        I               32
Number of alpha electrons                  I               16
Number of beta electrons                   I               16
Number of basis functions                  I              207
Number of independent functions            I              207
Number of point charges in /Mol/           I                0
Number of translation vectors              I                0
Atomic numbers                             I   N=           5
           1           8           8           7           8
Nuclear charges                            R   N=           5
  1.00000000E+00  8.00000000E+00  8.00000000E+00  7.00000000E+00  8.00000000E+00
Current cartesian coordinates              R   N=          15
  2.11231707E+00 -1.11460192E+00  0.00000000E+00  2.49244412E+00  7.08277661E-01
  0.00000000E+00  3.58055202E-17  1.73633480E+00  0.00000000E+00 -1.86319616E+00
 -9.12749356E-02  0.00000000E+00 -1.12618712E+00 -2.22542165E+00  0.00000000E+00
Number of symbols in /Mol/                 I                0
Force Field                                I                0
Atom Types                                 C   N=           5
                                                            
Int Atom Types                             I   N=           5
           0           0           0           0           0
MM charges                                 R   N=           5
  0.00000000E+00  0.00000000E+00  0.00000000E+00  0.00000000E+00  0.00000000E+00
Integer atomic weights                     I   N=           5
           1          16          16          14          16
Real atomic weights                        R   N=           5
  1.00782504E+00  1.59949146E+01  1.59949146E+01  1.40030740E+01  1.59949146E+01
Atom fragment info                         I   N=           5
           0           0           0           0           0
Atom residue num                           I   N=           5
           0           0           0           0           0
Nuclear spins                              I   N=           5
           1           0           0           2           0
Nuclear ZEff                               R   N=           5
 -1.00000000E+00 -5.60000000E+00 -5.60000000E+00 -4.55000000E+00 -5.60000000E+00
Nuclear ZNuc                               R   N=           5
  1.00000000E+00  8.00000000E+00  8.00000000E+00  7.00000000E+00  8.00000000E+00
Nuclear QMom                               R   N=           5
  0.00000000E+00  0.00000000E+00  0.00000000E+00  2.04400000E+00  0.00000000E+00
Nuclear GFac                               R   N=           5
  2.79284600E+00  0.00000000E+00  0.00000000E+00  4.03761000E-01  0.00000000E+00
MicOpt                                     I   N=           5
          -1          -1          -1          -1          -1
Number of residues                         I                0
Number of secondary structures             I                0
SymInf integers                            I   N=          26
           1           2           1           1           1           1
           1          -1           0           0           0           0
           0           0           0           0           0           0
           0           0           0           0           0           0
           0           0
RotTr to input orientation                 R   N=          12
 -9.78941749E-01  0.00000000E+00  2.04139785E-01  2.04139785E-01  0.00000000E+00
  9.78941749E-01  0.00000000E+00  1.00000000E+00  0.00000000E+00  2.29536996E+00
  0.00000000E+00  6.59922399E-01
Number of contracted shells                I               65
Number of primitive shells                 I              119
Pure/Cartesian d shells                    I                0
Pure/Cartesian f shells                    I                0
Highest angular momentum                   I                3
Largest degree of contraction              I                7
Shell types                                I   N=          65
           0           0           0           0           1           1
           1          -2          -2           0           0           0
           0           0           1           1           1           1
          -2          -2          -2          -3          -3           0
           0           0           0           0           1           1
           1           1          -2          -2          -2          -3
          -3           0           0           0           0           0
           1           1           1           1          -2          -2
          -2          -3          -3           0           0           0
           0           0           1           1           1           1
          -2          -2          -2          -3          -3
Number of primitives per shell             I   N=          65
           3           1           1           1           1           1
           1           1           1           7           6           1
           1           1           3           1           1           1
           1           1           1           1           1           7
           6           1           1           1           3           1
           1           1           1           1           1           1
           1           7           6           1           1           1
           3           1           1           1           1           1
           1           1           1           7           6           1
           1           1           3           1           1           1
           1           1           1           1           1
Shell to atom map                          I   N=          65
           1           1           1           1           1           1
           1           1           1           2           2           2
           2           2           2           2           2           2
           2           2           2           2           2           3
           3           3           3           3           3           3
           3           3           3           3           3           3
           3           4           4           4           4           4
           4           4           4           4           4           4
           4           4           4           5           5           5
           5           5           5           5           5           5
           5           5           5           5           5
Primitive exponents                        R   N=         119
  3.38700000E+01  5.09500000E+00  1.15900000E+00  3.25800000E-01  1.02700000E-01
  2.52600000E-02  1.40700000E+00  3.88000000E-01  1.02000000E-01  1.05700000E+00
  2.47000000E-01  1.53300000E+04  2.29900000E+03  5.22400000E+02  1.47300000E+02
  4.75500000E+01  1.67600000E+01  6.20700000E+00  5.22400000E+02  1.47300000E+02
  4.75500000E+01  1.67600000E+01  6.20700000E+00  6.88200000E-01  1.75200000E+00
  2.38400000E-01  7.37600000E-02  3.44600000E+01  7.74900000E+00  2.28000000E+00
  7.15600000E-01  2.14000000E-01  5.97400000E-02  2.31400000E+00  6.45000000E-01
  2.14000000E-01  1.42800000E+00  5.00000000E-01  1.53300000E+04  2.29900000E+03
  5.22400000E+02  1.47300000E+02  4.75500000E+01  1.67600000E+01  6.20700000E+00
  5.22400000E+02  1.47300000E+02  4.75500000E+01  1.67600000E+01  6.20700000E+00
  6.88200000E-01  1.75200000E+00  2.38400000E-01  7.37600000E-02  3.44600000E+01
  7.74900000E+00  2.28000000E+00  7.15600000E-01  2.14000000E-01  5.97400000E-02
  2.31400000E+00  6.45000000E-01  2.14000000E-01  1.42800000E+00  5.00000000E-01
  1.14200000E+04  1.71200000E+03  3.89300000E+02  1.10000000E+02  3.55700000E+01
  1.25400000E+01  4.64400000E+00  3.89300000E+02  1.10000000E+02  3.55700000E+01
  1.25400000E+01  4.64400000E+00  5.11800000E-01  1.29300000E+00  1.78700000E-01
  5.76000000E-02  2.66300000E+01  5.94800000E+00  1.74200000E+00  5.55000000E-01
  1.72500000E-01  4.91000000E-02  1.65400000E+00  4.69000000E-01  1.51000000E-01
  1.09300000E+00  3.64000000E-01  1.53300000E+04  2.29900000E+03  5.22400000E+02
  1.47300000E+02  4.75500000E+01  1.67600000E+01  6.20700000E+00  5.22400000E+02
  1.47300000E+02  4.75500000E+01  1.67600000E+01  6.20700000E+00  6.88200000E-01
  1.75200000E+00  2.38400000E-01  7.37600000E-02  3.44600000E+01  7.74900000E+00
  2.28000000E+00  7.15600000E-01  2.14000000E-01  5.97400000E-02  2.31400000E+00
  6.45000000E-01  2.14000000E-01  1.42800000E+00  5.00000000E-01
Contraction coefficients                   R   N=         119
  2.54948632E-02  1.90362766E-01  8.52162022E-01  1.00000000E+00  1.00000000E+00
  1.00000000E+00  1.00000000E+00  1.00000000E+00  1.00000000E+00  1.00000000E+00
  1.00000000E+00  5.19808943E-04  4.02025621E-03  2.07128267E-02  8.10105536E-02
  2.35962985E-01  4.42653446E-01  3.57064423E-01 -4.42115008E-05 -1.22591041E-03
 -1.05517725E-02 -6.74452633E-02 -1.71198607E-01  1.07329856E+00  1.00000000E+00
  1.00000000E+00  1.00000000E+00  4.11634896E-02  2.57762836E-01  8.02419274E-01
  1.00000000E+00  1.00000000E+00  1.00000000E+00  1.00000000E+00  1.00000000E+00
  1.00000000E+00  1.00000000E+00  1.00000000E+00  5.19808943E-04  4.02025621E-03
  2.07128267E-02  8.10105536E-02  2.35962985E-01  4.42653446E-01  3.57064423E-01
 -4.42115008E-05 -1.22591041E-03 -1.05517725E-02 -6.74452633E-02 -1.71198607E-01
  1.07329856E+00  1.00000000E+00  1.00000000E+00  1.00000000E+00  4.11634896E-02
  2.57762836E-01  8.02419274E-01  1.00000000E+00  1.00000000E+00  1.00000000E+00
  1.00000000E+00  1.00000000E+00  1.00000000E+00  1.00000000E+00  1.00000000E+00
  5.34563860E-04  4.13435660E-03  2.12335358E-02  8.25006224E-02  2.38138871E-01
  4.42551547E-01  3.53757422E-01 -4.89867350E-05 -1.19527323E-03 -1.03490714E-02
 -6.48680190E-02 -1.71552477E-01  1.07289568E+00  1.00000000E+00  1.00000000E+00
  1.00000000E+00  3.98072123E-02  2.49002660E-01  8.10479727E-01  1.00000000E+00
  1.00000000E+00  1.00000000E+00  1.00000000E+00  1.00000000E+00  1.00000000E+00
  1.00000000E+00  1.00000000E+00  5.19808943E-04  4.02025621E-03  2.07128267E-02
  8.10105536E-02  2.35962985E-01  4.42653446E-01  3.57064423E-01 -4.42115008E-05
 -1.22591041E-03 -1.05517725E-02 -6.74452633E-02 -1.71198607E-01  1.07329856E+00
  1.00000000E+00  1.00000000E+00  1.00000000E+00  4.11634896E-02  2.57762836E-01
  8.02419274E-01  1.00000000E+00  1.00000000E+00  1.00000000E+00  1.00000000E+00
  1.00000000E+00  1.00000000E+00  1.00000000E+00  1.00000000E+00
Coordinates of each shell                  R   N=         195
  2.11231707E+00 -1.11460192E+00  0.00000000E+00  2.11231707E+00 -1.11460192E+00
  0.00000000E+00  2.11231707E+00 -1.11460192E+00  0.00000000E+00  2.11231707E+00
 -1.11460192E+00  0.00000000E+00  2.11231707E+00 -1.11460192E+00  0.00000000E+00
  2.11231707E+00 -1.11460192E+00  0.00000000E+00  2.11231707E+00 -1.11460192E+00
  0.00000000E+00  2.11231707E+00 -1.11460192E+00  0.00000000E+00  2.11231707E+00
 -1.11460192E+00  0.00000000E+00  2.49244412E+00  7.08277661E-01  0.00000000E+00
  2.49244412E+00  7.08277661E-01  0.00000000E+00  2.49244412E+00  7.08277661E-01
  0.00000000E+00  2.49244412E+00  7.08277661E-01  0.00000000E+00  2.49244412E+00
  7.08277661E-01  0.00000000E+00  2.49244412E+00  7.08277661E-01  0.00000000E+00
  2.49244412E+00  7.08277661E-01  0.00000000E+00  2.49244412E+00  7.08277661E-01
  0.00000000E+00  2.49244412E+00  7.08277661E-01  0.00000000E+00  2.49244412E+00
  7.08277661E-01  0.00000000E+00  2.49244412E+00  7.08277661E-01  0.00000000E+00
  2.49244412E+00  7.08277661E-01  0.00000000E+00  2.49244412E+00  7.08277661E-01
  0.00000000E+00  2.49244412E+00  7.08277661E-01  0.00000000E+00 -8.47438529E-17
  1.73633480E+00  0.00000000E+00 -8.47438529E-17  1.73633480E+00  0.00000000E+00
 -8.47438529E-17  1.73633480E+00  0.00000000E+00 -8.47438529E-17  1.73633480E+00
  0.00000000E+00 -8.47438529E-17  1.73633480E+00  0.00000000E+00 -8.47438529E-17
  1.73633480E+00  0.00000000E+00 -8.47438529E-17  1.73633480E+00  0.00000000E+00
 -8.47438529E-17  1.73633480E+00  0.00000000E+00 -8.47438529E-17  1.73633480E+00
  0.00000000E+00 -8.47438529E-17  1.73633480E+00  0.00000000E+00 -8.47438529E-17
  1.73633480E+00  0.00000000E+00 -8.47438529E-17  1.73633480E+00  0.00000000E+00
 -8.47438529E-17  1.73633480E+00  0.00000000E+00 -8.47438529E-17  1.73633480E+00
  0.00000000E+00 -1.86319616E+00 -9.12749356E-02  0.00000000E+00 -1.86319616E+00
 -9.12749356E-02  0.00000000E+00 -1.86319616E+00 -9.12749356E-02  0.00000000E+00
 -1.86319616E+00 -9.12749356E-02  0.00000000E+00 -1.86319616E+00 -9.12749356E-02
  0.00000000E+00 -1.86319616E+00 -9.12749356E-02  0.00000000E+00 -1.86319616E+00
 -9.12749356E-02  0.00000000E+00 -1.86319616E+00 -9.12749356E-02  0.00000000E+00
 -1.86319616E+00 -9.12749356E-02  0.00000000E+00 -1.86319616E+00 -9.12749356E-02
  0.00000000E+00 -1.86319616E+00 -9.12749356E-02  0.00000000E+00 -1.86319616E+00
 -9.12749356E-02  0.00000000E+00 -1.86319616E+00 -9.12749356E-02  0.00000000E+00
 -1.86319616E+00 -9.12749356E-02  0.00000000E+00 -1.12618712E+00 -2.22542165E+00
  0.00000000E+00 -1.12618712E+00 -2.22542165E+00  0.00000000E+00 -1.12618712E+00
 -2.22542165E+00  0.00000000E+00 -1.12618712E+00 -2.22542165E+00  0.00000000E+00
 -1.12618712E+00 -2.22542165E+00  0.00000000E+00 -1.12618712E+00 -2.22542165E+00
  0.00000000E+00 -1.12618712E+00 -2.22542165E+00  0.00000000E+00 -1.12618712E+00
 -2.22542165E+00  0.00000000E+00 -1.12618712E+00 -2.22542165E+00  0.00000000E+00
 -1.12618712E+00 -2.22542165E+00  0.00000000E+00 -1.12618712E+00 -2.22542165E+00
  0.00000000E+00 -1.12618712E+00 -2.22542165E+00  0.00000000E+00 -1.12618712E+00
 -2.22542165E+00  0.00000000E+00 -1.12618712E+00 -2.22542165E+00  0.00000000E+00
Num ILSW                                   I              100
ILSW                                       I   N=         100
           0           0           0           0           2           0
           0           0           0           0           0          -1
           5           0           0           0           2           0
           0           0           0           0           1           0
           1           0           0           0           0           0
           0           0      100000           0          -1           0
           0           0           0           0           0           0
           0           0           0           1           1           0
           0 -2000000000           1           0           0           0
           0           0           4          52           0           0
           0           0           0           0           0           0
           0           0           0           5           4           1
           0           0           0           0           0           0
           0           0           0           0           0           0
           0           0           0           0           0           0
           0           0           0           0           0           0
           0           0           0           0
Num RLSW                                   I               52
RLSW                                       R   N=          52
  1.00000000E+00  1.00000000E+00  1.00000000E+00  1.00000000E+00  1.00000000E+00
  0.00000000E+00  0.00000000E+00  1.00000000E+00  0.00000000E+00  0.00000000E+00
  0.00000000E+00  0.00000000E+00  1.00000000E+00  0.00000000E+00  0.00000000E+00
  0.00000000E+00  0.00000000E+00  1.00000000E+00  0.00000000E+00  0.00000000E+00
  0.00000000E+00  0.00000000E+00  1.00000000E+00  0.00000000E+00  0.00000000E+00
  0.00000000E+00  0.00000000E+00  1.00000000E+00  0.00000000E+00  0.00000000E+00
  0.00000000E+00  0.00000000E+00  1.00000000E+00  0.00000000E+00  0.00000000E+00
  0.00000000E+00  0.00000000E+00  0.00000000E+00  1.00000000E+00  1.00000000E+00
  0.00000000E+00  1.00000000E+00  0.00000000E+00  0.00000000E+00  0.00000000E+00
  0.00000000E+00  0.00000000E+00  0.00000000E+00  0.00000000E+00  0.00000000E+00
  0.00000000E+00  0.00000000E+00
MxBond                                     I                2
NBond                                      I   N=           5
           1           2           2           2           1
IBond                                      I   N=          10
           2           0           1           3           2           4
           3           5           4           0
RBond                                      R   N=          10
  1.00000000E+00  0.00000000E+00  1.00000000E+00  1.00000000E+00  1.00000000E+00
  1.00000000E+00  1.00000000E+00  2.00000000E+00  2.00000000E+00  0.00000000E+00
Virial Ratio                               R      2.002256732113154E+00
SCF Energy                                 R     -2.795063490008554E+02
MP2 Energy                                 R     -2.804551257254286E+02
Total Energy                               R     -2.804551257254286E+02
Post-SCF wavefunction norm                 R      1.583797022070915E+00
RMS Force                                  R      2.378796789444687E-03
RMS Density                                R      4.314673544972448E-09
NImag                                      I                0
Job Status                                 I                1
Nuclear derivative order                   I                2
External E-field                           R   N=          35
  0.00000000E+00  0.00000000E+00  0.00000000E+00  0.00000000E+00  0.00000000E+00
  0.00000000E+00  0.00000000E+00  0.00000000E+00  0.00000000E+00  0.00000000E+00
  0.00000000E+00  0.00000000E+00  0.00000000E+00  0.00000000E+00  0.00000000E+00
  0.00000000E+00  0.00000000E+00  0.00000000E+00  0.00000000E+00  0.00000000E+00
  0.00000000E+00  0.00000000E+00  0.00000000E+00  0.00000000E+00  0.00000000E+00
  0.00000000E+00  0.00000000E+00  0.00000000E+00  0.00000000E+00  0.00000000E+00
  0.00000000E+00  0.00000000E+00  0.00000000E+00  0.00000000E+00  0.00000000E+00
IOpCl                                      I                0
IROHF                                      I                0
Alpha Orbital Energies                     R   N=         207
 -2.07208882E+01 -2.06877719E+01 -2.06689574E+01 -1.58253381E+01 -1.64297772E+00
 -1.50661390E+00 -1.29423968E+00 -9.60689035E-01 -8.33341612E-01 -7.58709489E-01
 -7.39799413E-01 -6.38849258E-01 -6.19715075E-01 -6.19071307E-01 -5.02822179E-01
 -4.98100351E-01  3.49726324E-02  6.08561164E-02  9.51072875E-02  1.00540922E-01
  1.19743102E-01  1.22673559E-01  1.48970964E-01  1.51869378E-01  1.77688358E-01
  1.80366580E-01  1.89571212E-01  2.11100332E-01  2.16734214E-01  2.42599833E-01
  2.46353650E-01  2.68316824E-01  3.11422080E-01  3.15591442E-01  3.38111981E-01
  3.42906904E-01  3.46220758E-01  3.92640566E-01  4.47118400E-01  4.88578124E-01
  5.04548255E-01  5.18969616E-01  5.44137764E-01  5.62160862E-01  5.99256453E-01
  6.20802346E-01  6.39535986E-01  6.89259070E-01  7.17355118E-01  7.23846932E-01
  7.39590071E-01  7.64903958E-01  7.67558309E-01  7.95657348E-01  8.04830449E-01
  8.40191597E-01  8.43155859E-01  8.50950640E-01  8.84793533E-01  9.06804590E-01
  9.27603799E-01  9.48789069E-01  9.54608328E-01  1.01793691E+00  1.03170971E+00
  1.05582094E+00  1.06514450E+00  1.09320483E+00  1.14255522E+00  1.15572534E+00
  1.17178425E+00  1.22070216E+00  1.22670515E+00  1.24614805E+00  1.35089506E+00
  1.36391867E+00  1.37051984E+00  1.46913511E+00  1.48380727E+00  1.50682250E+00
  1.54122324E+00  1.59114043E+00  1.59649413E+00  1.60518931E+00  1.62837015E+00
  1.69574261E+00  1.74021783E+00  1.80149597E+00  1.82839714E+00  1.88736770E+00
  1.89654956E+00  1.92714865E+00  1.98017403E+00  1.99097842E+00  2.04937084E+00
  2.12120589E+00  2.13014157E+00  2.16426033E+00  2.18609477E+00  2.24204126E+00
  2.25965040E+00  2.29464587E+00  2.35192786E+00  2.36212901E+00  2.38637211E+00
  2.40195625E+00  2.43366941E+00  2.47024371E+00  2.47864530E+00  2.52667757E+00
  2.53758375E+00  2.54588219E+00  2.55682860E+00  2.61234591E+00  2.62766140E+00
  2.67028454E+00  2.67089257E+00  2.75605854E+00  2.80863172E+00  2.81122190E+00
  2.84242493E+00  2.91704168E+00  2.97711752E+00  3.04863400E+00  3.05403099E+00
  3.11557905E+00  3.11774840E+00  3.17215074E+00  3.21279363E+00  3.30610191E+00
  3.33449608E+00  3.36024085E+00  3.48150196E+00  3.67727010E+00  3.86884016E+00
  3.92501036E+00  4.18064685E+00  4.21703696E+00  4.21878928E+00  4.26586596E+00
  4.36556968E+00  4.50124337E+00  4.51203162E+00  4.55911921E+00  4.60013529E+00
  4.69186346E+00  4.80833690E+00  4.90363061E+00  4.91252516E+00  4.94355926E+00
  4.99571869E+00  5.00474059E+00  5.10821706E+00  5.13461977E+00  5.17674420E+00
  5.24806301E+00  5.25536309E+00  5.31605960E+00  5.33894908E+00  5.35313547E+00
  5.54281873E+00  5.64295586E+00  5.70172902E+00  5.88451366E+00  6.00176631E+00
  6.26409409E+00  6.29600419E+00  6.35931178E+00  6.37628529E+00  6.59869906E+00
  6.64940376E+00  6.65812842E+00  6.68461782E+00  6.72352760E+00  6.80570803E+00
  6.80672031E+00  6.83962462E+00  6.96968689E+00  7.01902142E+00  7.06615704E+00
  7.08041658E+00  7.14091678E+00  7.16415508E+00  7.17535339E+00  7.20268244E+00
  7.24457177E+00  7.24461897E+00  7.26970477E+00  7.34817362E+00  7.39579583E+00
  7.42314159E+00  7.44257274E+00  7.46180601E+00  7.55972106E+00  7.65403345E+00
  7.66363257E+00  7.79437247E+00  7.88230834E+00  7.95278754E+00  8.05546813E+00
  8.30451074E+00  8.50256619E+00  8.65248820E+00  1.36115715E+01  1.47620781E+01
  1.50997983E+01  1.57353244E+01
Alpha MO coefficients                      R   N=       42849
  6.56140886E-05 -5.17778700E-05 -1.11348747E-03  9.73369016E-06 -5.21339374E-05
  4.22425853E-05  0.00000000E+00 -8.24728223E-05 -3.01724957E-04  0.00000000E+00
  3.25619024E-06 -3.46538238E-04  0.00000000E+00  4.33427843E-05  0.00000000E+00
  0.00000000E+00 -2.51270454E-05  1.28222409E-05  2.25296777E-04  0.00000000E+00
  0.00000000E+00 -3.69414792E-05 -2.04382430E-04  3.04284505E-03 -9.55196072E-05
 -1.01682962E-04  3.58543617E-03  2.48279572E-03  1.03943676E-04 -5.22956920E-05
  0.00000000E+00 -7.36529818E-04  2.78552054E-04  0.00000000E+00 -2.00940748E-03
  1.08899114E-03  0.00000000E+00 -5.37880667E-04  3.90985959E-05  0.00000000E+00
  2.05803209E-05  0.00000000E+00  0.00000000E+00 -9.33050342E-06  4.41133160E-05
 -4.45605174E-04  0.00000000E+00  0.00000000E+00  4.35628001E-04 -6.56906061E-04
 -3.66170504E-04  0.00000000E+00  0.00000000E+00  5.54355656E-04 -7.32383190E-04
  0.00000000E+00  7.49441471E-05 -5.17131038E-05  0.00000000E+00  0.00000000E+00
 -2.90144612E-05  1.07379781E-04  0.00000000E+00  2.07502524E-04 -5.07848581E-05
  0.00000000E+00  0.00000000E+00 -1.75387055E-04  2.98685038E-04  9.76906774E-01
 -9.17114838E-03  4.34031054E-02  5.12573320E-04 -2.21231954E-03  4.67397410E-04
 -2.14493267E-03  0.00000000E+00 -3.37372547E-04  2.25099846E-03  0.00000000E+00
 -2.34143270E-03 -4.89503071E-04  0.00000000E+00 -2.25331426E-04  9.75082453E-05
  0.00000000E+00  7.75992599E-06  0.00000000E+00  0.00000000E+00 -4.38351890E-06
  3.76211348E-05  8.28130509E-04  0.00000000E+00  0.00000000E+00 -4.72945379E-04
 -1.77577085E-04 -1.32776567E-04  0.00000000E+00  0.00000000E+00 -5.47950692E-04
  3.55831930E-04  0.00000000E+00 -6.15048518E-06 -7.87448075E-05  0.00000000E+00
  0.00000000E+00 -9.51706113E-06  4.86230268E-05  0.00000000E+00  9.36155601E-05
 -1.03477520E-06  0.00000000E+00  0.00000000E+00 -3.45412674E-04  3.74996161E-04
  1.04299533E-04  4.58235118E-04 -3.22827463E-04 -8.21599205E-04  3.61454058E-04
 -4.24295599E-05 -1.00657605E-04  0.00000000E+00  6.92357426E-04  1.11751236E-03
  0.00000000E+00 -8.12493600E-04 -7.38003452E-04  0.00000000E+00  1.89617097E-04
  2.08469576E-04  0.00000000E+00 -5.23373846E-05  0.00000000E+00  0.00000000E+00
  1.99619076E-05  9.25487280E-05 -4.15079175E-04  0.00000000E+00  0.00000000E+00
  2.15308545E-05  1.08920469E-03  2.76754929E-05  0.00000000E+00  0.00000000E+00
 -3.41362620E-04  2.28074748E-05  0.00000000E+00 -7.76479497E-05 -1.14907362E-04
  0.00000000E+00  0.00000000E+00 -9.75307821E-05  1.05218481E-04  0.00000000E+00
 -1.19950558E-04  5.03369133E-05  0.00000000E+00  0.00000000E+00  1.17601838E-05
  5.29152542E-04 -6.85763486E-04  2.66396513E-05 -7.22955331E-05  1.62076989E-04
 -1.75838398E-04 -3.03070660E-05 -4.31540176E-05  0.00000000E+00  1.76030551E-04
  2.50175481E-04  0.00000000E+00  5.84160326E-04  3.41424123E-04  0.00000000E+00
 -2.05075066E-04 -6.31410707E-05  0.00000000E+00 -1.18436428E-05  0.00000000E+00
  0.00000000E+00  4.76909850E-06  1.25900100E-05 -9.06421055E-06  0.00000000E+00
  0.00000000E+00 -1.72335789E-04  2.94710198E-05 -3.39078702E-05  0.00000000E+00
  0.00000000E+00 -1.74795433E-04 -1.14621881E-05  0.00000000E+00 -6.51237433E-06
 -1.09278052E-05  0.00000000E+00  0.00000000E+00 -2.28640413E-05  8.15760095E-06
  0.00000000E+00  4.03981550E-05  5.78359664E-05  0.00000000E+00  0.00000000E+00
  1.46210954E-04 -1.05418312E-04  4.20205355E-05  6.32240194E-05 -1.36466912E-04
 -3.04432828E-05  1.31562907E-05  6.38870479E-06  0.00000000E+00  2.51594188E-04
  8.06143726E-05  0.00000000E+00  1.35902442E-04  3.24787713E-05  0.00000000E+00
  1.60664216E-05  0.00000000E+00  0.00000000E+00 -1.67864225E-05  1.29204798E-05
  2.65534063E-05  0.00000000E+00  0.00000000E+00 -1.11017784E-04  5.45631336E-05
 -2.49968859E-04  1.71082217E-05 -1.54444310E-05 -5.69731945E-04  1.61354512E-04
  7.57251124E-06  1.37739232E-05  0.00000000E+00  1.54298221E-06 -3.81783648E-05
  0.00000000E+00  1.88997211E-04  1.18899283E-04  0.00000000E+00 -4.92484142E-05
  4.57826538E-05  0.00000000E+00 -4.98380471E-07  0.00000000E+00  0.00000000E+00
 -8.77955293E-06 -1.30213779E-05  1.66785982E-05  0.00000000E+00  0.00000000E+00
  5.05053788E-05  1.10522389E-04  5.68995287E-05  0.00000000E+00  0.00000000E+00
 -2.75695339E-05 -7.38081864E-05  0.00000000E+00  7.96845519E-06  1.06427795E-05
  0.00000000E+00  0.00000000E+00 -1.40756650E-06 -2.27319397E-05  0.00000000E+00
 -1.20041274E-05 -3.18214574E-05  0.00000000E+00  0.00000000E+00 -3.77713352E-06
 -2.24470313E-05  7.10343480E-04  1.95254899E-05 -2.30582567E-05  3.08829624E-04
 -3.80793414E-04  1.75089804E-05  3.01012086E-05  0.00000000E+00 -6.93652975E-05
 -1.62508746E-04  0.00000000E+00  1.82717179E-04 -2.25612711E-04  0.00000000E+00
 -1.53461145E-04  1.42845072E-04  0.00000000E+00 -3.75406975E-06  0.00000000E+00
  0.00000000E+00 -2.73626197E-05 -1.10127113E-05 -5.58973384E-05  0.00000000E+00
  0.00000000E+00  6.47584972E-05  1.31095327E-04 -6.84994661E-05  0.00000000E+00
  0.00000000E+00  3.27022890E-05  2.25317035E-05  0.00000000E+00  3.92569044E-06
  5.49430180E-06  0.00000000E+00  0.00000000E+00 -6.09511584E-06 -7.94287424E-07
  0.00000000E+00  2.97952495E-06 -2.56215094E-05  0.00000000E+00  0.00000000E+00
  1.04507445E-04 -1.47675358E-04  2.37671547E-04  1.36377270E-03 -1.45190446E-04
 -6.73265644E-04  9.05337333E-04  6.38146418E-05 -6.99233532E-05  0.00000000E+00
  5.47021545E-04 -2.10632849E-03  0.00000000E+00  1.15473774E-04  5.21904321E-04
  0.00000000E+00  1.79132550E-04 -3.12942774E-04  0.00000000E+00 -1.28316282E-04
  0.00000000E+00  0.00000000E+00 -2.06605355E-04 -1.53726902E-04 -4.58193112E-04
  0.00000000E+00  0.00000000E+00 -6.33694543E-04 -9.17367289E-04 -4.16838782E-05
  0.00000000E+00  0.00000000E+00  5.29221599E-05  1.19019847E-04  0.00000000E+00
  9.46130016E-06  3.85119952E-05  0.00000000E+00  0.00000000E+00 -2.48834252E-05
 -3.53791999E-06  0.00000000E+00 -1.31904488E-04  1.55441824E-04  0.00000000E+00
  0.00000000E+00 -3.24636211E-04 -3.21296295E-05  9.76648938E-01 -9.88973811E-03
  4.35705044E-02  3.68685537E-03 -8.97000915E-04 -4.14429824E-04  2.14276124E-03
  0.00000000E+00  4.71841730E-04 -2.52234885E-03  0.00000000E+00 -5.24163798E-05
  8.01383333E-04  0.00000000E+00  1.07938467E-04 -6.56475462E-05  0.00000000E+00
 -1.93170567E-04  0.00000000E+00  0.00000000E+00 -7.55623456E-05 -4.36071420E-05
  4.10190564E-04  0.00000000E+00  0.00000000E+00  8.79641159E-04  4.60749252E-04
 -2.04823727E-04  0.00000000E+00  0.00000000E+00 -1.29317377E-04 -3.40162410E-05
  0.00000000E+00 -3.79466972E-06  7.05873482E-05  0.00000000E+00  0.00000000E+00
 -2.97197589E-05  1.15749642E-05  0.00000000E+00 -8.82715337E-05  9.33559890E-05
  0.00000000E+00  0.00000000E+00 -1.57765410E-04  2.15579227E-04  3.79065455E-04
  1.97857175E-03  1.33505153E-03 -2.16209510E-05  4.81260540E-05  2.68906870E-04
  0.00000000E+00  3.98053419E-04  1.03434857E-03  0.00000000E+00 -1.13740835E-04
  2.42041708E-04  0.00000000E+00 -2.27173112E-05  0.00000000E+00  0.00000000E+00
  3.13923983E-05 -2.76982316E-05 -2.14232849E-04  0.00000000E+00  0.00000000E+00
 -3.49856561E-04  3.98529564E-04  9.76835067E-01 -9.18657142E-03  4.34640007E-02
  1.58106769E-04 -1.91204901E-03 -2.04006181E-03 -8.50533808E-04  0.00000000E+00
  2.07495758E-03  7.85479439E-04  0.00000000E+00 -4.23622531E-04  6.54774742E-04
  0.00000000E+00  2.26569437E-04 -2.97042524E-04  0.00000000E+00  3.12330456E-05
  0.00000000E+00  0.00000000E+00 -7.40833454E-05  6.17312201E-05  7.65566633E-04
  0.00000000E+00  0.00000000E+00 -2.09821281E-04  3.51601219E-04 -2.35814209E-04
  0.00000000E+00  0.00000000E+00  3.42719618E-04  4.32027498E-06  0.00000000E+00
 -8.02496048E-05  1.63908739E-06  0.00000000E+00  0.00000000E+00  1.68259304E-05