title                                                                   
Freq      RMP2-FC                                                     Aug-CC-pVTZ         
Number of atoms                            I                5
Info1-9                                    I   N=           9
          33          24           0           0           0         100
           6           2           1
Full Title                                 C   N=           1
title       
Route                                      C   N=           4
#p freq mp2/aug-cc-pvtz density=current         
Charge                                     I                0
Multiplicity                               I                1
Number of electrons                        I               32
Number of alpha electrons                  I               16
Number of beta electrons                   I               16
Number of basis functions                  I              207
Number of independent functions            I              207
Number of point charges in /Mol/           I                0
Number of translation vectors              I                0
Atomic numbers                             I   N=           5
           1           8           8           7           8
Nuclear charges                            R   N=           5
  1.00000000E+00  8.00000000E+00  8.00000000E+00  7.00000000E+00  8.00000000E+00
Current cartesian coordinates              R   N=          15
  2.13651748E+00 -1.14004895E+00  0.00000000E+00  2.48575490E+00  6.88999918E-01
  0.00000000E+00  1.09868206E-16  1.73312719E+00  0.00000000E+00 -1.87495663E+00
 -8.24154018E-02  0.00000000E+00 -1.11223253E+00 -2.20750752E+00  0.00000000E+00
Number of symbols in /Mol/                 I                0
Force Field                                I                0
Atom Types                                 C   N=           5
                                                            
Int Atom Types                             I   N=           5
           0           0           0           0           0
MM charges                                 R   N=           5
  0.00000000E+00  0.00000000E+00  0.00000000E+00  0.00000000E+00  0.00000000E+00
Integer atomic weights                     I   N=           5
           1          16          16          14          16
Real atomic weights                        R   N=           5
  1.00782504E+00  1.59949146E+01  1.59949146E+01  1.40030740E+01  1.59949146E+01
Atom fragment info                         I   N=           5
           0           0           0           0           0
Atom residue num                           I   N=           5
           0           0           0           0           0
Nuclear spins                              I   N=           5
           1           0           0           2           0
Nuclear ZEff                               R   N=           5
 -1.00000000E+00 -5.60000000E+00 -5.60000000E+00 -4.55000000E+00 -5.60000000E+00
Nuclear ZNuc                               R   N=           5
  1.00000000E+00  8.00000000E+00  8.00000000E+00  7.00000000E+00  8.00000000E+00
Nuclear QMom                               R   N=           5
  0.00000000E+00  0.00000000E+00  0.00000000E+00  2.04400000E+00  0.00000000E+00
Nuclear GFac                               R   N=           5
  2.79284600E+00  0.00000000E+00  0.00000000E+00  4.03761000E-01  0.00000000E+00
MicOpt                                     I   N=           5
          -1          -1          -1          -1          -1
Number of residues                         I                0
Number of secondary structures             I                0
SymInf integers                            I   N=          26
           1           2           1           1           1           1
           1          -1           0           0           0           0
           0           0           0           0           0           0
           0           0           0           0           0           0
           0           0
RotTr to input orientation                 R   N=          12
 -9.82254845E-01  0.00000000E+00  1.87551111E-01  1.87551111E-01  0.00000000E+00
  9.82254845E-01  0.00000000E+00  1.00000000E+00  0.00000000E+00  2.31242210E+00
  0.00000000E+00  7.19112378E-01
Number of contracted shells                I               65
Number of primitive shells                 I              119
Pure/Cartesian d shells                    I                0
Pure/Cartesian f shells                    I                0
Highest angular momentum                   I                3
Largest degree of contraction              I                7
Shell types                                I   N=          65
           0           0           0           0           1           1
           1          -2          -2           0           0           0
           0           0           1           1           1           1
          -2          -2          -2          -3          -3           0
           0           0           0           0           1           1
           1           1          -2          -2          -2          -3
          -3           0           0           0           0           0
           1           1           1           1          -2          -2
          -2          -3          -3           0           0           0
           0           0           1           1           1           1
          -2          -2          -2          -3          -3
Number of primitives per shell             I   N=          65
           3           1           1           1           1           1
           1           1           1           7           6           1
           1           1           3           1           1           1
           1           1           1           1           1           7
           6           1           1           1           3           1
           1           1           1           1           1           1
           1           7           6           1           1           1
           3           1           1           1           1           1
           1           1           1           7           6           1
           1           1           3           1           1           1
           1           1           1           1           1
Shell to atom map                          I   N=          65
           1           1           1           1           1           1
           1           1           1           2           2           2
           2           2           2           2           2           2
           2           2           2           2           2           3
           3           3           3           3           3           3
           3           3           3           3           3           3
           3           4           4           4           4           4
           4           4           4           4           4           4
           4           4           4           5           5           5
           5           5           5           5           5           5
           5           5           5           5           5
Primitive exponents                        R   N=         119
  3.38700000E+01  5.09500000E+00  1.15900000E+00  3.25800000E-01  1.02700000E-01
  2.52600000E-02  1.40700000E+00  3.88000000E-01  1.02000000E-01  1.05700000E+00
  2.47000000E-01  1.53300000E+04  2.29900000E+03  5.22400000E+02  1.47300000E+02
  4.75500000E+01  1.67600000E+01  6.20700000E+00  5.22400000E+02  1.47300000E+02
  4.75500000E+01  1.67600000E+01  6.20700000E+00  6.88200000E-01  1.75200000E+00
  2.38400000E-01  7.37600000E-02  3.44600000E+01  7.74900000E+00  2.28000000E+00
  7.15600000E-01  2.14000000E-01  5.97400000E-02  2.31400000E+00  6.45000000E-01
  2.14000000E-01  1.42800000E+00  5.00000000E-01  1.53300000E+04  2.29900000E+03
  5.22400000E+02  1.47300000E+02  4.75500000E+01  1.67600000E+01  6.20700000E+00
  5.22400000E+02  1.47300000E+02  4.75500000E+01  1.67600000E+01  6.20700000E+00
  6.88200000E-01  1.75200000E+00  2.38400000E-01  7.37600000E-02  3.44600000E+01
  7.74900000E+00  2.28000000E+00  7.15600000E-01  2.14000000E-01  5.97400000E-02
  2.31400000E+00  6.45000000E-01  2.14000000E-01  1.42800000E+00  5.00000000E-01
  1.14200000E+04  1.71200000E+03  3.89300000E+02  1.10000000E+02  3.55700000E+01
  1.25400000E+01  4.64400000E+00  3.89300000E+02  1.10000000E+02  3.55700000E+01
  1.25400000E+01  4.64400000E+00  5.11800000E-01  1.29300000E+00  1.78700000E-01
  5.76000000E-02  2.66300000E+01  5.94800000E+00  1.74200000E+00  5.55000000E-01
  1.72500000E-01  4.91000000E-02  1.65400000E+00  4.69000000E-01  1.51000000E-01
  1.09300000E+00  3.64000000E-01  1.53300000E+04  2.29900000E+03  5.22400000E+02
  1.47300000E+02  4.75500000E+01  1.67600000E+01  6.20700000E+00  5.22400000E+02
  1.47300000E+02  4.75500000E+01  1.67600000E+01  6.20700000E+00  6.88200000E-01
  1.75200000E+00  2.38400000E-01  7.37600000E-02  3.44600000E+01  7.74900000E+00
  2.28000000E+00  7.15600000E-01  2.14000000E-01  5.97400000E-02  2.31400000E+00
  6.45000000E-01  2.14000000E-01  1.42800000E+00  5.00000000E-01
Contraction coefficients                   R   N=         119
  2.54948632E-02  1.90362766E-01  8.52162022E-01  1.00000000E+00  1.00000000E+00
  1.00000000E+00  1.00000000E+00  1.00000000E+00  1.00000000E+00  1.00000000E+00
  1.00000000E+00  5.19808943E-04  4.02025621E-03  2.07128267E-02  8.10105536E-02
  2.35962985E-01  4.42653446E-01  3.57064423E-01 -4.42115008E-05 -1.22591041E-03
 -1.05517725E-02 -6.74452633E-02 -1.71198607E-01  1.07329856E+00  1.00000000E+00
  1.00000000E+00  1.00000000E+00  4.11634896E-02  2.57762836E-01  8.02419274E-01
  1.00000000E+00  1.00000000E+00  1.00000000E+00  1.00000000E+00  1.00000000E+00
  1.00000000E+00  1.00000000E+00  1.00000000E+00  5.19808943E-04  4.02025621E-03
  2.07128267E-02  8.10105536E-02  2.35962985E-01  4.42653446E-01  3.57064423E-01
 -4.42115008E-05 -1.22591041E-03 -1.05517725E-02 -6.74452633E-02 -1.71198607E-01
  1.07329856E+00  1.00000000E+00  1.00000000E+00  1.00000000E+00  4.11634896E-02
  2.57762836E-01  8.02419274E-01  1.00000000E+00  1.00000000E+00  1.00000000E+00
  1.00000000E+00  1.00000000E+00  1.00000000E+00  1.00000000E+00  1.00000000E+00
  5.34563860E-04  4.13435660E-03  2.12335358E-02  8.25006224E-02  2.38138871E-01
  4.42551547E-01  3.53757422E-01 -4.89867350E-05 -1.19527323E-03 -1.03490714E-02
 -6.48680190E-02 -1.71552477E-01  1.07289568E+00  1.00000000E+00  1.00000000E+00
  1.00000000E+00  3.98072123E-02  2.49002660E-01  8.10479727E-01  1.00000000E+00
  1.00000000E+00  1.00000000E+00  1.00000000E+00  1.00000000E+00  1.00000000E+00
  1.00000000E+00  1.00000000E+00  5.19808943E-04  4.02025621E-03  2.07128267E-02
  8.10105536E-02  2.35962985E-01  4.42653446E-01  3.57064423E-01 -4.42115008E-05
 -1.22591041E-03 -1.05517725E-02 -6.74452633E-02 -1.71198607E-01  1.07329856E+00
  1.00000000E+00  1.00000000E+00  1.00000000E+00  4.11634896E-02  2.57762836E-01
  8.02419274E-01  1.00000000E+00  1.00000000E+00  1.00000000E+00  1.00000000E+00
  1.00000000E+00  1.00000000E+00  1.00000000E+00  1.00000000E+00
Coordinates of each shell                  R   N=         195
  2.13651748E+00 -1.14004895E+00  0.00000000E+00  2.13651748E+00 -1.14004895E+00
  0.00000000E+00  2.13651748E+00 -1.14004895E+00  0.00000000E+00  2.13651748E+00
 -1.14004895E+00  0.00000000E+00  2.13651748E+00 -1.14004895E+00  0.00000000E+00
  2.13651748E+00 -1.14004895E+00  0.00000000E+00  2.13651748E+00 -1.14004895E+00
  0.00000000E+00  2.13651748E+00 -1.14004895E+00  0.00000000E+00  2.13651748E+00
 -1.14004895E+00  0.00000000E+00  2.48575490E+00  6.88999918E-01  0.00000000E+00
  2.48575490E+00  6.88999918E-01  0.00000000E+00  2.48575490E+00  6.88999918E-01
  0.00000000E+00  2.48575490E+00  6.88999918E-01  0.00000000E+00  2.48575490E+00
  6.88999918E-01  0.00000000E+00  2.48575490E+00  6.88999918E-01  0.00000000E+00
  2.48575490E+00  6.88999918E-01  0.00000000E+00  2.48575490E+00  6.88999918E-01
  0.00000000E+00  2.48575490E+00  6.88999918E-01  0.00000000E+00  2.48575490E+00
  6.88999918E-01  0.00000000E+00  2.48575490E+00  6.88999918E-01  0.00000000E+00
  2.48575490E+00  6.88999918E-01  0.00000000E+00  2.48575490E+00  6.88999918E-01
  0.00000000E+00  2.48575490E+00  6.88999918E-01  0.00000000E+00 -9.76053797E-18
  1.73312719E+00  0.00000000E+00 -9.76053797E-18  1.73312719E+00  0.00000000E+00
 -9.76053797E-18  1.73312719E+00  0.00000000E+00 -9.76053797E-18  1.73312719E+00
  0.00000000E+00 -9.76053797E-18  1.73312719E+00  0.00000000E+00 -9.76053797E-18
  1.73312719E+00  0.00000000E+00 -9.76053797E-18  1.73312719E+00  0.00000000E+00
 -9.76053797E-18  1.73312719E+00  0.00000000E+00 -9.76053797E-18  1.73312719E+00
  0.00000000E+00 -9.76053797E-18  1.73312719E+00  0.00000000E+00 -9.76053797E-18
  1.73312719E+00  0.00000000E+00 -9.76053797E-18  1.73312719E+00  0.00000000E+00
 -9.76053797E-18  1.73312719E+00  0.00000000E+00 -9.76053797E-18  1.73312719E+00
  0.00000000E+00 -1.87495663E+00 -8.24154018E-02  0.00000000E+00 -1.87495663E+00
 -8.24154018E-02  0.00000000E+00 -1.87495663E+00 -8.24154018E-02  0.00000000E+00
 -1.87495663E+00 -8.24154018E-02  0.00000000E+00 -1.87495663E+00 -8.24154018E-02
  0.00000000E+00 -1.87495663E+00 -8.24154018E-02  0.00000000E+00 -1.87495663E+00
 -8.24154018E-02  0.00000000E+00 -1.87495663E+00 -8.24154018E-02  0.00000000E+00
 -1.87495663E+00 -8.24154018E-02  0.00000000E+00 -1.87495663E+00 -8.24154018E-02
  0.00000000E+00 -1.87495663E+00 -8.24154018E-02  0.00000000E+00 -1.87495663E+00
 -8.24154018E-02  0.00000000E+00 -1.87495663E+00 -8.24154018E-02  0.00000000E+00
 -1.87495663E+00 -8.24154018E-02  0.00000000E+00 -1.11223253E+00 -2.20750752E+00
  0.00000000E+00 -1.11223253E+00 -2.20750752E+00  0.00000000E+00 -1.11223253E+00
 -2.20750752E+00  0.00000000E+00 -1.11223253E+00 -2.20750752E+00  0.00000000E+00
 -1.11223253E+00 -2.20750752E+00  0.00000000E+00 -1.11223253E+00 -2.20750752E+00
  0.00000000E+00 -1.11223253E+00 -2.20750752E+00  0.00000000E+00 -1.11223253E+00
 -2.20750752E+00  0.00000000E+00 -1.11223253E+00 -2.20750752E+00  0.00000000E+00
 -1.11223253E+00 -2.20750752E+00  0.00000000E+00 -1.11223253E+00 -2.20750752E+00
  0.00000000E+00 -1.11223253E+00 -2.20750752E+00  0.00000000E+00 -1.11223253E+00
 -2.20750752E+00  0.00000000E+00 -1.11223253E+00 -2.20750752E+00  0.00000000E+00
Num ILSW                                   I              100
ILSW                                       I   N=         100
           0           0           0           0           2           0
           0           0           0           0           0          -1
           5           0           0           0           2           0
           0           0           0           0           1           0
           1           0           0           0           0           0
           0           0      100000           0          -1           0
           0           0           0           0           0           0
           0           0           0           1           1           0
           0 -2000000000           1           0           0           0
           0           0           4          52           0           0
           0           0           0           0           0           0
           0           0           0           5           4           1
           0           0           0           0           0           0
           0           0           0           0           0           0
           0           0           0           0           0           0
           0           0           0           0           0           0
           0           0           0           0
Num RLSW                                   I               52
RLSW                                       R   N=          52
  1.00000000E+00  1.00000000E+00  1.00000000E+00  1.00000000E+00  1.00000000E+00
  0.00000000E+00  0.00000000E+00  1.00000000E+00  0.00000000E+00  0.00000000E+00
  0.00000000E+00  0.00000000E+00  1.00000000E+00  0.00000000E+00  0.00000000E+00
  0.00000000E+00  0.00000000E+00  1.00000000E+00  0.00000000E+00  0.00000000E+00
  0.00000000E+00  0.00000000E+00  1.00000000E+00  0.00000000E+00  0.00000000E+00
  0.00000000E+00  0.00000000E+00  1.00000000E+00  0.00000000E+00  0.00000000E+00
  0.00000000E+00  0.00000000E+00  1.00000000E+00  0.00000000E+00  0.00000000E+00
  0.00000000E+00  0.00000000E+00  0.00000000E+00  1.00000000E+00  1.00000000E+00
  0.00000000E+00  1.00000000E+00  0.00000000E+00  0.00000000E+00  0.00000000E+00
  0.00000000E+00  0.00000000E+00  0.00000000E+00  0.00000000E+00  0.00000000E+00
  0.00000000E+00  0.00000000E+00
MxBond                                     I                2
NBond                                      I   N=           5
           1           2           2           2           1
IBond                                      I   N=          10
           2           0           1           3           2           4
           3           5           4           0
RBond                                      R   N=          10
  1.00000000E+00  0.00000000E+00  1.00000000E+00  1.00000000E+00  1.00000000E+00
  1.00000000E+00  1.00000000E+00  2.00000000E+00  2.00000000E+00  0.00000000E+00
Virial Ratio                               R      2.002248481649128E+00
SCF Energy                                 R     -2.795066319160959E+02
MP2 Energy                                 R     -2.804551717288255E+02
Total Energy                               R     -2.804551717288255E+02
Post-SCF wavefunction norm                 R      1.583678333415864E+00
RMS Force                                  R      1.295978780510058E-03
RMS Density                                R      4.373531542082909E-09
NImag                                      I                0
Job Status                                 I                1
Nuclear derivative order                   I                2
External E-field                           R   N=          35
  0.00000000E+00  0.00000000E+00  0.00000000E+00  0.00000000E+00  0.00000000E+00
  0.00000000E+00  0.00000000E+00  0.00000000E+00  0.00000000E+00  0.00000000E+00
  0.00000000E+00  0.00000000E+00  0.00000000E+00  0.00000000E+00  0.00000000E+00
  0.00000000E+00  0.00000000E+00  0.00000000E+00  0.00000000E+00  0.00000000E+00
  0.00000000E+00  0.00000000E+00  0.00000000E+00  0.00000000E+00  0.00000000E+00
  0.00000000E+00  0.00000000E+00  0.00000000E+00  0.00000000E+00  0.00000000E+00
  0.00000000E+00  0.00000000E+00  0.00000000E+00  0.00000000E+00  0.00000000E+00
IOpCl                                      I                0
IROHF                                      I                0
Alpha Orbital Energies                     R   N=         207
 -2.07199795E+01 -2.06864677E+01 -2.06679442E+01 -1.58253729E+01 -1.64325756E+00
 -1.50440230E+00 -1.29367086E+00 -9.60391009E-01 -8.33553882E-01 -7.58433228E-01
 -7.39479140E-01 -6.36971956E-01 -6.18474257E-01 -6.17814617E-01 -5.03846724E-01
 -4.97369935E-01  3.48169184E-02  6.08113535E-02  9.51898520E-02  1.00424720E-01
  1.19972502E-01  1.22595680E-01  1.49268920E-01  1.51388457E-01  1.77654331E-01
  1.80759810E-01  1.89899204E-01  2.11183358E-01  2.16509640E-01  2.42686161E-01
  2.46383324E-01  2.69385710E-01  3.12110980E-01  3.15951462E-01  3.38301484E-01
  3.43553050E-01  3.45958527E-01  3.92440076E-01  4.48101050E-01  4.86561640E-01
  5.04663543E-01  5.18813499E-01  5.46583504E-01  5.61587883E-01  6.00453857E-01
  6.19979069E-01  6.38869118E-01  6.88402408E-01  7.17752698E-01  7.24375090E-01
  7.44054026E-01  7.62800539E-01  7.67357753E-01  7.95972034E-01  8.06514492E-01
  8.41125939E-01  8.43134963E-01  8.50722729E-01  8.85774112E-01  9.07329534E-01
  9.31840761E-01  9.46770978E-01  9.54819222E-01  1.01755036E+00  1.02971837E+00
  1.05898493E+00  1.06479456E+00  1.09396529E+00  1.14258737E+00  1.15624749E+00
  1.16932799E+00  1.22295839E+00  1.22669004E+00  1.24463600E+00  1.34882456E+00
  1.36851993E+00  1.37323679E+00  1.46869821E+00  1.48619756E+00  1.50666741E+00
  1.53971669E+00  1.59618497E+00  1.59733026E+00  1.60716566E+00  1.62882204E+00
  1.69687427E+00  1.73537510E+00  1.80145717E+00  1.83050644E+00  1.88549394E+00
  1.88873645E+00  1.92680948E+00  1.97948950E+00  1.99042352E+00  2.05144117E+00
  2.12308001E+00  2.12793334E+00  2.16299302E+00  2.18583584E+00  2.24448171E+00
  2.25865232E+00  2.29155187E+00  2.34930434E+00  2.36404859E+00  2.38541893E+00
  2.40108453E+00  2.43203989E+00  2.46931662E+00  2.47848126E+00  2.52822686E+00
  2.53608044E+00  2.55133712E+00  2.55757431E+00  2.61537938E+00  2.62892041E+00
  2.67288772E+00  2.67344220E+00  2.75710793E+00  2.81469566E+00  2.82059683E+00
  2.83216004E+00  2.91908152E+00  2.98476040E+00  3.04656638E+00  3.05135665E+00
  3.11398757E+00  3.11413410E+00  3.17051871E+00  3.20618605E+00  3.30606991E+00
  3.33274864E+00  3.36357982E+00  3.47510385E+00  3.67911591E+00  3.86846593E+00
  3.92101437E+00  4.18126457E+00  4.22137161E+00  4.22737111E+00  4.26771037E+00
  4.37108291E+00  4.50212503E+00  4.52112424E+00  4.55678167E+00  4.59233437E+00
  4.69699346E+00  4.80905745E+00  4.89919901E+00  4.91378216E+00  4.94327156E+00
  5.00177201E+00  5.00612919E+00  5.10634494E+00  5.13377482E+00  5.18169134E+00
  5.24864556E+00  5.26169254E+00  5.31854281E+00  5.33174803E+00  5.35924302E+00
  5.54790981E+00  5.64519356E+00  5.70363410E+00  5.88354790E+00  5.99853333E+00
  6.26490735E+00  6.29296627E+00  6.36313851E+00  6.38129847E+00  6.59465529E+00
  6.65582915E+00  6.66291399E+00  6.68897794E+00  6.72730097E+00  6.79931511E+00
  6.80182276E+00  6.85201114E+00  6.96728266E+00  7.00929716E+00  7.06639739E+00
  7.08398764E+00  7.14693774E+00  7.17357366E+00  7.17525280E+00  7.20102278E+00
  7.24527986E+00  7.24582708E+00  7.26978193E+00  7.34764949E+00  7.38847007E+00
  7.42257533E+00  7.44301088E+00  7.46238591E+00  7.56037060E+00  7.66147421E+00
  7.66392761E+00  7.79265769E+00  7.87855700E+00  7.95204370E+00  8.05470583E+00
  8.29675344E+00  8.50385782E+00  8.65232696E+00  1.36198651E+01  1.47465380E+01
  1.50952427E+01  1.57368859E+01
Alpha MO coefficients                      R   N=       42849
  5.81976970E-05 -2.85602341E-05 -1.12636728E-03  1.24258762E-05 -5.87799419E-05
  4.27691213E-05  0.00000000E+00 -1.13139487E-04 -3.07828348E-04  0.00000000E+00
 -1.02196959E-05 -3.66963978E-04  0.00000000E+00  4.14972562E-05  0.00000000E+00
  0.00000000E+00 -2.21338426E-05  5.49862506E-07  2.31270857E-04  0.00000000E+00
  0.00000000E+00 -2.70135447E-05 -2.07149006E-04  3.03925451E-03 -9.21798441E-05
 -1.02340789E-04  3.61127633E-03  2.52766615E-03  1.01914234E-04 -5.27674695E-05
  0.00000000E+00 -7.28065126E-04  2.73581120E-04  0.00000000E+00 -1.99396881E-03
  1.12240816E-03  0.00000000E+00 -5.39553037E-04  3.78706540E-05  0.00000000E+00
  2.03558840E-05  0.00000000E+00  0.00000000E+00 -8.91975398E-06  4.61034037E-05
 -4.46673372E-04  0.00000000E+00  0.00000000E+00  4.22708413E-04 -6.73593358E-04
 -3.68104890E-04  0.00000000E+00  0.00000000E+00  5.57116287E-04 -7.57404926E-04
  0.00000000E+00  7.43304255E-05 -5.20156050E-05  0.00000000E+00  0.00000000E+00
 -2.78858854E-05  1.09785757E-04  0.00000000E+00  2.04956014E-04 -5.16017743E-05
  0.00000000E+00  0.00000000E+00 -1.76407030E-04  3.04344913E-04  9.76905787E-01
 -9.17113434E-03  4.34053371E-02  4.59528737E-04 -2.22418317E-03  4.47828175E-04
 -2.14735463E-03  0.00000000E+00 -3.19817089E-04  2.25528890E-03  0.00000000E+00
 -2.35588129E-03 -4.67253253E-04  0.00000000E+00 -2.31922475E-04  9.93228179E-05
  0.00000000E+00  7.81031910E-06  0.00000000E+00  0.00000000E+00 -4.30096896E-06
  3.93170354E-05  8.29528213E-04  0.00000000E+00  0.00000000E+00 -4.79021794E-04
 -1.68181555E-04 -1.36558321E-04  0.00000000E+00  0.00000000E+00 -5.49711210E-04
  3.64150453E-04  0.00000000E+00 -6.27154162E-06 -7.90163678E-05  0.00000000E+00
  0.00000000E+00 -9.43302977E-06  4.82057806E-05  0.00000000E+00  9.25351963E-05
 -8.80930749E-08  0.00000000E+00  0.00000000E+00 -3.36807297E-04  3.83232324E-04
  1.04656579E-04  4.58848642E-04 -3.24464805E-04 -8.20136266E-04  3.44052244E-04
 -4.44582861E-05 -9.97713331E-05  0.00000000E+00  7.00374775E-04  1.11094639E-03
  0.00000000E+00 -7.59987259E-04 -6.81718097E-04  0.00000000E+00  1.96388555E-04
  2.11269956E-04  0.00000000E+00 -5.24714005E-05  0.00000000E+00  0.00000000E+00
  1.94527909E-05  9.31051953E-05 -4.17539748E-04  0.00000000E+00  0.00000000E+00
  4.10669472E-05  1.08204896E-03  2.78422713E-05  0.00000000E+00  0.00000000E+00
 -3.13956462E-04  1.96959636E-05  0.00000000E+00 -7.89778097E-05 -1.13482238E-04
  0.00000000E+00  0.00000000E+00 -9.63636735E-05  1.05951489E-04  0.00000000E+00
 -1.23611497E-04  4.72977946E-05  0.00000000E+00  0.00000000E+00  1.66111822E-05
  5.23229383E-04 -6.84638879E-04  4.81424181E-05 -6.91139342E-05  1.74686918E-04
 -1.89472844E-04 -2.85556405E-05 -4.13851528E-05  0.00000000E+00  1.68116843E-04
  2.53377262E-04  0.00000000E+00  5.25569497E-04  3.09801772E-04  0.00000000E+00
 -2.25833891E-04 -6.36945250E-05  0.00000000E+00 -1.33014395E-05  0.00000000E+00
  0.00000000E+00  3.82832613E-06  1.53356604E-05 -4.05372922E-07  0.00000000E+00
  0.00000000E+00 -1.66675490E-04  1.07351096E-05 -2.36782639E-05  0.00000000E+00
  0.00000000E+00 -1.65639096E-04 -4.48871170E-05  0.00000000E+00 -5.62817845E-06
 -9.14434752E-06  0.00000000E+00  0.00000000E+00 -2.23221139E-05  9.61836082E-06
  0.00000000E+00  3.98866659E-05  6.12788942E-05  0.00000000E+00  0.00000000E+00
  1.58902783E-04 -1.05073672E-04  4.30841735E-05  1.02599230E-04 -1.51947825E-04
 -2.97174235E-05  1.43816680E-05  1.09589451E-05  0.00000000E+00  2.30978902E-04
  6.92131975E-05  0.00000000E+00  1.24187478E-04  1.58992112E-05  0.00000000E+00
  1.48461137E-05  0.00000000E+00  0.00000000E+00 -1.60198542E-05  1.45268829E-05
  3.17107243E-05  0.00000000E+00  0.00000000E+00 -9.87074585E-05  5.14142855E-05
 -2.59042358E-04  2.76630653E-05 -1.54512383E-05 -5.38831236E-04  1.87494749E-04
  7.21272653E-06  1.38917121E-05  0.00000000E+00 -5.21380095E-07 -4.35370459E-05
  0.00000000E+00  1.80974068E-04  1.63543422E-04  0.00000000E+00 -5.03676942E-05
  4.54959428E-05  0.00000000E+00 -1.49313547E-06  0.00000000E+00  0.00000000E+00
 -8.29488541E-06 -1.11326846E-05  2.14383927E-05  0.00000000E+00  0.00000000E+00
  4.96484821E-05  1.05923280E-04  6.29613731E-05  0.00000000E+00  0.00000000E+00
 -1.85381000E-05 -9.51269894E-05  0.00000000E+00  7.95994618E-06  1.05865089E-05
  0.00000000E+00  0.00000000E+00 -8.95582771E-07 -2.45346091E-05  0.00000000E+00
 -1.51790277E-05 -3.68630157E-05  0.00000000E+00  0.00000000E+00 -4.56200953E-06
 -1.78119018E-05  7.13295348E-04  2.43915521E-05 -1.96307943E-05  2.77125495E-04
 -4.02727598E-04  1.65024631E-05  2.69975224E-05  0.00000000E+00 -6.55650692E-05
 -1.51860157E-04  0.00000000E+00  1.26296606E-04 -1.98541876E-04  0.00000000E+00
 -1.58183741E-04  1.44209877E-04  0.00000000E+00 -4.10301386E-06  0.00000000E+00
  0.00000000E+00 -2.94409176E-05 -9.81700903E-06 -5.07779511E-05  0.00000000E+00
  0.00000000E+00  7.94704022E-05  1.21593641E-04 -6.32953412E-05  0.00000000E+00
  0.00000000E+00  4.07920006E-05  2.94713950E-05  0.00000000E+00  2.98529062E-06
  3.43317662E-06  0.00000000E+00  0.00000000E+00 -7.83481850E-06 -2.09903056E-06
  0.00000000E+00  4.10012158E-06 -2.53907901E-05  0.00000000E+00  0.00000000E+00
  9.41390779E-05 -1.55006980E-04  2.37317939E-04  1.35865040E-03 -1.47902121E-04
 -6.73597812E-04  9.03173384E-04  6.31407001E-05 -7.08425273E-05  0.00000000E+00
  5.70958261E-04 -2.08437636E-03  0.00000000E+00  1.19935347E-04  4.77343351E-04
  0.00000000E+00  1.85787626E-04 -3.07639738E-04  0.00000000E+00 -1.27751226E-04
  0.00000000E+00  0.00000000E+00 -2.04136895E-04 -1.58467012E-04 -4.61648982E-04
  0.00000000E+00  0.00000000E+00 -6.04263080E-04 -9.17046221E-04 -4.16883662E-05
  0.00000000E+00  0.00000000E+00  6.22509238E-05  1.09788165E-04  0.00000000E+00
  8.27654392E-06  3.68996893E-05  0.00000000E+00  0.00000000E+00 -2.43499926E-05
 -4.03735073E-06  0.00000000E+00 -1.34728570E-04  1.58784510E-04  0.00000000E+00
  0.00000000E+00 -3.13978886E-04 -3.05388461E-05  9.76646439E-01 -9.88623651E-03
  4.35752015E-02  3.67219163E-03 -8.97289508E-04 -4.51252748E-04  2.13028809E-03
  0.00000000E+00  5.12940792E-04 -2.50480681E-03  0.00000000E+00 -5.82414298E-05
  8.02097449E-04  0.00000000E+00  1.03496033E-04 -6.51037067E-05  0.00000000E+00
 -1.94550940E-04  0.00000000E+00  0.00000000E+00 -7.39535067E-05 -4.34276915E-05
  4.09387963E-04  0.00000000E+00  0.00000000E+00  8.58836878E-04  4.83155471E-04
 -2.08221895E-04  0.00000000E+00  0.00000000E+00 -1.31565823E-04 -3.70047441E-05
  0.00000000E+00 -4.34270541E-06  7.03477864E-05  0.00000000E+00  0.00000000E+00
 -2.99832074E-05  1.04827869E-05  0.00000000E+00 -8.99927579E-05  9.22869152E-05
  0.00000000E+00  0.00000000E+00 -1.63167711E-04  2.04524083E-04  3.80416999E-04
  2.09372374E-03  1.25471596E-03 -1.87904712E-05  4.99447244E-05  2.69969155E-04
  0.00000000E+00  3.47897543E-04  1.05595739E-03  0.00000000E+00 -1.10589272E-04
  2.47360254E-04  0.00000000E+00 -2.33970525E-05  0.00000000E+00  0.00000000E+00
  3.51034505E-05 -2.43320343E-05 -1.90977711E-04  0.00000000E+00  0.00000000E+00
 -3.62867762E-04  3.57091070E-04  9.76833967E-01 -9.17836752E-03  4.34698957E-02
  1.20330265E-04 -1.88141578E-03 -2.03657878E-03 -8.56353152E-04  0.00000000E+00
  2.07206562E-03  7.86983079E-04  0.00000000E+00 -4.08016739E-04  7.20432903E-04
  0.00000000E+00  2.16497828E-04 -3.12260271E-04  0.00000000E+00  2.93333068E-05
  0.00000000E+00  0.00000000E+00 -7.77794735E-05  5.84973437E-05  7.71393675E-04
  0.00000000E+00  0.00000000E+00 -1.95748585E-04  3.68108482E-04 -2.35224413E-04
  0.00000000E+00  0.00000000E+00  3.54406444E-04 -2.67267003E-05  0.00000000E+00
 -8.02280672E-05  1.45833530E-06  0.00000000E+00  0.00000000E+00  1.67702511E-05