 Entering Gaussian System, Link 0=g16
 Input=hoono_r2_1p433757.gjf
 Output=hoono_r2_1p433757.log
 Initial command:
 /sw/contrib/gaussian/g16/B01/g16/l1.exe "/scr/Gau-59840.inp" -scrdir="/scr/"
 Entering Link 1 = /sw/contrib/gaussian/g16/B01/g16/l1.exe PID=     59841.
  
 Copyright (c) 1988-2017, Gaussian, Inc.  All Rights Reserved.
  
 This is part of the Gaussian(R) 16 program.  It is based on
 the Gaussian(R) 09 system (copyright 2009, Gaussian, Inc.),
 the Gaussian(R) 03 system (copyright 2003, Gaussian, Inc.),
 the Gaussian(R) 98 system (copyright 1998, Gaussian, Inc.),
 the Gaussian(R) 94 system (copyright 1995, Gaussian, Inc.),
 the Gaussian 92(TM) system (copyright 1992, Gaussian, Inc.),
 the Gaussian 90(TM) system (copyright 1990, Gaussian, Inc.),
 the Gaussian 88(TM) system (copyright 1988, Gaussian, Inc.),
 the Gaussian 86(TM) system (copyright 1986, Carnegie Mellon
 University), and the Gaussian 82(TM) system (copyright 1983,
 Carnegie Mellon University). Gaussian is a federally registered
 trademark of Gaussian, Inc.
  
 This software contains proprietary and confidential information,
 including trade secrets, belonging to Gaussian, Inc.
  
 This software is provided under written license and may be
 used, copied, transmitted, or stored only in accord with that
 written license.
  
 The following legend is applicable only to US Government
 contracts under FAR:
  
                    RESTRICTED RIGHTS LEGEND
  
 Use, reproduction and disclosure by the US Government is
 subject to restrictions as set forth in subparagraphs (a)
 and (c) of the Commercial Computer Software - Restricted
 Rights clause in FAR 52.227-19.
  
 Gaussian, Inc.
 340 Quinnipiac St., Bldg. 40, Wallingford CT 06492
  
  
 ---------------------------------------------------------------
 Warning -- This program may not be used in any manner that
 competes with the business of Gaussian, Inc. or will provide
 assistance to any competitor of Gaussian, Inc.  The licensee
 of this program is prohibited from giving any competitor of
 Gaussian, Inc. access to this program.  By using this program,
 the user acknowledges that Gaussian, Inc. is engaged in the
 business of creating and licensing software in the field of
 computational chemistry and represents and warrants to the
 licensee that it is not a competitor of Gaussian, Inc. and that
 it will not use this program in any manner prohibited above.
 ---------------------------------------------------------------
  

 Cite this work as:
 Gaussian 16, Revision B.01,
 M. J. Frisch, G. W. Trucks, H. B. Schlegel, G. E. Scuseria, 
 M. A. Robb, J. R. Cheeseman, G. Scalmani, V. Barone, 
 G. A. Petersson, H. Nakatsuji, X. Li, M. Caricato, A. V. Marenich, 
 J. Bloino, B. G. Janesko, R. Gomperts, B. Mennucci, H. P. Hratchian, 
 J. V. Ortiz, A. F. Izmaylov, J. L. Sonnenberg, D. Williams-Young, 
 F. Ding, F. Lipparini, F. Egidi, J. Goings, B. Peng, A. Petrone, 
 T. Henderson, D. Ranasinghe, V. G. Zakrzewski, J. Gao, N. Rega, 
 G. Zheng, W. Liang, M. Hada, M. Ehara, K. Toyota, R. Fukuda, 
 J. Hasegawa, M. Ishida, T. Nakajima, Y. Honda, O. Kitao, H. Nakai, 
 T. Vreven, K. Throssell, J. A. Montgomery, Jr., J. E. Peralta, 
 F. Ogliaro, M. J. Bearpark, J. J. Heyd, E. N. Brothers, K. N. Kudin, 
 V. N. Staroverov, T. A. Keith, R. Kobayashi, J. Normand, 
 K. Raghavachari, A. P. Rendell, J. C. Burant, S. S. Iyengar, 
 J. Tomasi, M. Cossi, J. M. Millam, M. Klene, C. Adamo, R. Cammi, 
 J. W. Ochterski, R. L. Martin, K. Morokuma, O. Farkas, 
 J. B. Foresman, and D. J. Fox, Gaussian, Inc., Wallingford CT, 2016.
 
 ******************************************
 Gaussian 16:  ES64L-G16RevB.01 20-Dec-2017
                 6-Mar-2022 
 ******************************************
 %nproc=28
 Will use up to   28 processors via shared memory.
 %mem=120GB
 %chk=hoono_r2_1p433757.chk
 ---------------------------------------
 #p freq mp2/aug-cc-pvtz density=current
 ---------------------------------------
 1/10=4,30=1,38=1/1,3;
 2/12=2,17=6,18=5,40=1/2;
 3/5=16,6=1,7=10,11=9,25=1,30=1,71=2,140=1/1,2,3;
 4//1;
 5/5=2,38=5,98=1/2;
 8/6=3,8=1,10=1,19=11,30=-1/1;
 9/15=3,16=-3/6;
 11/6=1,8=1,15=11,17=12,24=-1,27=1,28=-2,29=300,32=6,42=3/1,2,10;
 10/6=2,21=1/2;
 8/6=4,8=1,10=1,19=11,30=-1/11,4;
 10/5=1,20=4/2;
 11/12=2,14=11,16=1,17=2,28=-2,42=3,76=2/2,10,12;
 6/7=2,8=2,9=2,10=2,22=-1/1;
 7/8=1,10=1,12=2,25=1,44=2/1,2,3,16;
 1/10=4,30=1/3;
 99//99;
 Leave Link    1 at Sun Mar  6 18:52:22 2022, MaxMem= 16106127360 cpu:               1.9 elap:               0.1
 (Enter /sw/contrib/gaussian/g16/B01/g16/l101.exe)
 -----
 title
 -----
 Symbolic Z-matrix:
 Charge =  0 Multiplicity = 1
 H
 O                    1    r1
 O                    2    r2       1    a1
 N                    3    r3       2    a2       1    d1       0
 O                    4    r4       3    a3       2    d2       0
       Variables:
  r1                    0.98538                  
  r2                    1.43376                  
  r3                    1.38111                  
  r4                    1.19479                  
  a1                  100.63551                  
  a2                  113.13777                  
  a3                  114.33392                  
  d1                    0.                       
  d2                    0.                       
 
 ITRead=  0  0  0  0  0
 MicOpt= -1 -1 -1 -1 -1
 NAtoms=      5 NQM=        5 NQMF=       0 NMMI=      0 NMMIF=      0
                NMic=       0 NMicF=      0.
                    Isotopes and Nuclear Properties:
 (Nuclear quadrupole moments (NQMom) in fm**2, nuclear magnetic moments (NMagM)
  in nuclear magnetons)

  Atom         1           2           3           4           5
 IAtWgt=           1          16          16          14          16
 AtmWgt=   1.0078250  15.9949146  15.9949146  14.0030740  15.9949146
 NucSpn=           1           0           0           2           0
 AtZEff=  -0.0000000  -0.0000000  -0.0000000  -0.0000000  -0.0000000
 NQMom=    0.0000000   0.0000000   0.0000000   2.0440000   0.0000000
 NMagM=    2.7928460   0.0000000   0.0000000   0.4037610   0.0000000
 AtZNuc=   1.0000000   8.0000000   8.0000000   7.0000000   8.0000000
 Leave Link  101 at Sun Mar  6 18:52:22 2022, MaxMem= 16106127360 cpu:               2.5 elap:               0.1
 (Enter /sw/contrib/gaussian/g16/B01/g16/l103.exe)

 GradGradGradGradGradGradGradGradGradGradGradGradGradGradGradGradGradGrad
 Berny optimization.
 Initialization pass.
                       ----------------------------
                       !    Initial Parameters    !
                       ! (Angstroms and Degrees)  !
 ----------------------                            ----------------------
 !      Name          Value   Derivative information (Atomic Units)     !
 ------------------------------------------------------------------------
 !       r1          0.9854   calculate D2E/DX2 analytically            !
 !       r2          1.4338   calculate D2E/DX2 analytically            !
 !       r3          1.3811   calculate D2E/DX2 analytically            !
 !       r4          1.1948   calculate D2E/DX2 analytically            !
 !       a1        100.6355   calculate D2E/DX2 analytically            !
 !       a2        113.1378   calculate D2E/DX2 analytically            !
 !       a3        114.3339   calculate D2E/DX2 analytically            !
 !       d1          0.0      calculate D2E/DX2 analytically            !
 !       d2          0.0      calculate D2E/DX2 analytically            !
 ------------------------------------------------------------------------
 Trust Radius=3.00D-01 FncErr=1.00D-07 GrdErr=1.00D-07 EigMax=2.50D+02 EigMin=1.00D-04
 Number of steps in this run=      2 maximum allowed number of steps=      2.
 GradGradGradGradGradGradGradGradGradGradGradGradGradGradGradGradGradGrad

 Leave Link  103 at Sun Mar  6 18:52:23 2022, MaxMem= 16106127360 cpu:               0.9 elap:               0.1
 (Enter /sw/contrib/gaussian/g16/B01/g16/l202.exe)
                          Input orientation:                          
 ---------------------------------------------------------------------
 Center     Atomic      Atomic             Coordinates (Angstroms)
 Number     Number       Type             X           Y           Z
 ---------------------------------------------------------------------
      1          1           0        0.000000    0.000000    0.000000
      2          8           0        0.000000    0.000000    0.985377
      3          8           0        1.409127    0.000000    1.249992
      4          7           0        2.176896    0.000000    0.101954
      5          8           0        1.545651    0.000000   -0.912467
 ---------------------------------------------------------------------
                    Distance matrix (angstroms):
                    1          2          3          4          5
     1  H    0.000000
     2  O    0.985377   0.000000
     3  O    1.883645   1.433757   0.000000
     4  N    2.179282   2.349321   1.381108   0.000000
     5  O    1.794891   2.447621   2.166763   1.194788   0.000000
 Stoichiometry    HNO3
 Framework group  CS[SG(HNO3)]
 Deg. of freedom     7
 Full point group                 CS      NOp   2
 Largest Abelian subgroup         CS      NOp   2
 Largest concise Abelian subgroup C1      NOp   1
                         Standard orientation:                         
 ---------------------------------------------------------------------
 Center     Atomic      Atomic             Coordinates (Angstroms)
 Number     Number       Type             X           Y           Z
 ---------------------------------------------------------------------
      1          1           0        1.112653   -0.602154    0.000000
      2          8           0        1.321202    0.360900    0.000000
      3          8           0       -0.000000    0.917754    0.000000
      4          7           0       -0.993351   -0.041784    0.000000
      5          8           0       -0.591102   -1.166824    0.000000
 ---------------------------------------------------------------------
 Rotational constants (GHZ):          21.2469295           8.0880194           5.8580493
 Leave Link  202 at Sun Mar  6 18:52:23 2022, MaxMem= 16106127360 cpu:               0.3 elap:               0.0
 (Enter /sw/contrib/gaussian/g16/B01/g16/l301.exe)
 Standard basis: Aug-CC-pVTZ (5D, 7F)
 Ernie: Thresh=  0.10000D-02 Tol=  0.10000D-05 Strict=F.
 Ernie:  12 primitive shells out of 131 were deleted.
 There are   166 symmetry adapted cartesian basis functions of A'  symmetry.
 There are    79 symmetry adapted cartesian basis functions of A"  symmetry.
 There are   136 symmetry adapted basis functions of A'  symmetry.
 There are    71 symmetry adapted basis functions of A"  symmetry.
   207 basis functions,   315 primitive gaussians,   245 cartesian basis functions
    16 alpha electrons       16 beta electrons
       nuclear repulsion energy       122.5637794527 Hartrees.
 IExCor=    0 DFT=F Ex=HF Corr=None ExCW=0 ScaHFX=  1.000000
 ScaDFX=  1.000000  1.000000  1.000000  1.000000 ScalE2=  1.000000  1.000000
 IRadAn=      5 IRanWt=     -1 IRanGd=            0 ICorTp=0 IEmpDi=  4
 NAtoms=    5 NActive=    5 NUniq=    5 SFac= 1.00D+00 NAtFMM=   60 NAOKFM=F Big=F
 Integral buffers will be    131072 words long.
 Raffenetti 1 integral format.
 Two-electron integral symmetry is turned on.
 Leave Link  301 at Sun Mar  6 18:52:23 2022, MaxMem= 16106127360 cpu:               1.5 elap:               0.1
 (Enter /sw/contrib/gaussian/g16/B01/g16/l302.exe)
 NPDir=0 NMtPBC=     1 NCelOv=     1 NCel=       1 NClECP=     1 NCelD=      1
         NCelK=      1 NCelE2=     1 NClLst=     1 CellRange=     0.0.
 One-electron integrals computed using PRISM.
 One-electron integral symmetry used in STVInt
 NBasis=   207 RedAO= T EigKep=  1.31D-04  NBF=   136    71
 NBsUse=   207 1.00D-06 EigRej= -1.00D+00 NBFU=   136    71
 Leave Link  302 at Sun Mar  6 18:52:23 2022, MaxMem= 16106127360 cpu:               3.8 elap:               0.2
 (Enter /sw/contrib/gaussian/g16/B01/g16/l303.exe)
 DipDrv:  MaxL=1.
 Leave Link  303 at Sun Mar  6 18:52:23 2022, MaxMem= 16106127360 cpu:               1.4 elap:               0.1
 (Enter /sw/contrib/gaussian/g16/B01/g16/l401.exe)
 ExpMin= 2.53D-02 ExpMax= 1.53D+04 ExpMxC= 5.22D+02 IAcc=3 IRadAn=         5 AccDes= 0.00D+00
 Harris functional with IExCor=  205 and IRadAn=       5 diagonalized for initial guess.
 HarFok:  IExCor=  205 AccDes= 0.00D+00 IRadAn=         5 IDoV= 1 UseB2=F ITyADJ=14
 ICtDFT=  3500011 ScaDFX=  1.000000  1.000000  1.000000  1.000000
 FoFCou: FMM=F IPFlag=           0 FMFlag=      100000 FMFlg1=           0
         NFxFlg=           0 DoJE=T BraDBF=F KetDBF=T FulRan=T
         wScrn=  0.000000 ICntrl=       500 IOpCl=  0 I1Cent=   200000004 NGrid=           0
         NMat0=    1 NMatS0=      1 NMatT0=    0 NMatD0=    1 NMtDS0=    0 NMtDT0=    0
 Petite list used in FoFCou.
 Harris En= -279.644778041651    
 JPrj=0 DoOrth=F DoCkMO=F.
 Initial guess orbital symmetries:
       Occupied  (A') (A') (A') (A') (A') (A') (A') (A') (A') (A')
                 (A") (A') (A") (A') (A") (A')
       Virtual   (A") (A') (A') (A') (A') (A") (A') (A') (A') (A')
                 (A") (A') (A") (A') (A') (A") (A') (A') (A") (A')
                 (A') (A') (A') (A') (A") (A') (A') (A') (A") (A')
                 (A') (A") (A") (A') (A') (A") (A') (A") (A') (A")
                 (A') (A") (A') (A") (A') (A') (A') (A") (A') (A')
                 (A') (A") (A') (A") (A') (A") (A') (A') (A') (A")
                 (A') (A') (A") (A') (A') (A') (A") (A") (A') (A')
                 (A") (A') (A") (A") (A') (A') (A") (A') (A') (A')
                 (A") (A') (A') (A") (A') (A") (A") (A') (A') (A')
                 (A') (A") (A') (A") (A') (A') (A") (A') (A") (A')
                 (A") (A') (A') (A") (A") (A') (A') (A') (A") (A')
                 (A") (A') (A') (A') (A") (A') (A') (A') (A") (A')
                 (A") (A') (A') (A") (A") (A") (A") (A') (A') (A')
                 (A') (A') (A') (A") (A') (A") (A') (A") (A') (A')
                 (A") (A") (A') (A') (A') (A") (A') (A') (A') (A')
                 (A") (A') (A') (A") (A') (A") (A") (A') (A') (A")
                 (A') (A") (A") (A') (A") (A') (A') (A") (A") (A')
                 (A") (A") (A") (A') (A') (A") (A') (A') (A') (A")
                 (A') (A') (A') (A') (A') (A') (A') (A') (A') (A')
                 (A')
 The electronic state of the initial guess is 1-A'.
 Leave Link  401 at Sun Mar  6 18:52:23 2022, MaxMem= 16106127360 cpu:               6.2 elap:               0.3
 (Enter /sw/contrib/gaussian/g16/B01/g16/l502.exe)
 Keep R1 ints in memory in symmetry-blocked form, NReq=348887737.
 FoFCou: FMM=F IPFlag=           0 FMFlag=           0 FMFlg1=           0
         NFxFlg=           0 DoJE=F BraDBF=F KetDBF=F FulRan=T
         wScrn=  0.000000 ICntrl=       600 IOpCl=  0 I1Cent=           0 NGrid=           0
         NMat0=    1 NMatS0=  21528 NMatT0=    0 NMatD0=    1 NMtDS0=    0 NMtDT0=    0
 Petite list used in FoFCou.
 Closed shell SCF:
 Using DIIS extrapolation, IDIIS=  1040.
 NGot= 16106127360 LenX= 15988850015 LenY= 15988789549
 Requested convergence on RMS density matrix=1.00D-08 within 128 cycles.
 Requested convergence on MAX density matrix=1.00D-06.
 Requested convergence on             energy=1.00D-06.
 No special actions if energy rises.

 Cycle   1  Pass 1  IDiag  1:
 E= -279.363043344712    
 DIIS: error= 2.75D-02 at cycle   1 NSaved=   1.
 NSaved= 1 IEnMin= 1 EnMin= -279.363043344712     IErMin= 1 ErrMin= 2.75D-02
 ErrMax= 2.75D-02  0.00D+00 EMaxC= 1.00D-01 BMatC= 4.51D-01 BMatP= 4.51D-01
 IDIUse=3 WtCom= 7.25D-01 WtEn= 2.75D-01
 Coeff-Com:  0.100D+01
 Coeff-En:   0.100D+01
 Coeff:      0.100D+01
 Gap=     0.498 Goal=   None    Shift=    0.000
 GapD=    0.498 DampG=2.000 DampE=0.500 DampFc=1.0000 IDamp=-1.
 RMSDP=1.68D-03 MaxDP=8.78D-02              OVMax= 1.24D-01

 Cycle   2  Pass 1  IDiag  1:
 E= -279.444803416844     Delta-E=       -0.081760072132 Rises=F Damp=F
 DIIS: error= 1.95D-02 at cycle   2 NSaved=   2.
 NSaved= 2 IEnMin= 2 EnMin= -279.444803416844     IErMin= 2 ErrMin= 1.95D-02
 ErrMax= 1.95D-02  0.00D+00 EMaxC= 1.00D-01 BMatC= 8.74D-02 BMatP= 4.51D-01
 IDIUse=3 WtCom= 8.05D-01 WtEn= 1.95D-01
 Coeff-Com:  0.221D+00 0.779D+00
 Coeff-En:   0.855D-01 0.914D+00
 Coeff:      0.195D+00 0.805D+00
 Gap=     0.564 Goal=   None    Shift=    0.000
 RMSDP=9.71D-04 MaxDP=3.67D-02 DE=-8.18D-02 OVMax= 9.13D-02

 Cycle   3  Pass 1  IDiag  1:
 E= -279.483490209356     Delta-E=       -0.038686792512 Rises=F Damp=F
 DIIS: error= 1.12D-02 at cycle   3 NSaved=   3.
 NSaved= 3 IEnMin= 3 EnMin= -279.483490209356     IErMin= 3 ErrMin= 1.12D-02
 ErrMax= 1.12D-02  0.00D+00 EMaxC= 1.00D-01 BMatC= 3.10D-02 BMatP= 8.74D-02
 IDIUse=3 WtCom= 8.88D-01 WtEn= 1.12D-01
 Coeff-Com: -0.349D-01 0.363D+00 0.672D+00
 Coeff-En:   0.000D+00 0.215D+00 0.785D+00
 Coeff:     -0.310D-01 0.346D+00 0.685D+00
 Gap=     0.543 Goal=   None    Shift=    0.000
 RMSDP=4.11D-04 MaxDP=1.57D-02 DE=-3.87D-02 OVMax= 3.91D-02

 Cycle   4  Pass 1  IDiag  1:
 E= -279.504701696375     Delta-E=       -0.021211487019 Rises=F Damp=F
 DIIS: error= 1.63D-03 at cycle   4 NSaved=   4.
 NSaved= 4 IEnMin= 4 EnMin= -279.504701696375     IErMin= 4 ErrMin= 1.63D-03
 ErrMax= 1.63D-03  0.00D+00 EMaxC= 1.00D-01 BMatC= 6.11D-04 BMatP= 3.10D-02
 IDIUse=3 WtCom= 9.84D-01 WtEn= 1.63D-02
 Coeff-Com: -0.121D-01 0.473D-01 0.156D+00 0.809D+00
 Coeff-En:   0.000D+00 0.000D+00 0.000D+00 0.100D+01
 Coeff:     -0.119D-01 0.465D-01 0.154D+00 0.812D+00
 Gap=     0.529 Goal=   None    Shift=    0.000
 RMSDP=9.90D-05 MaxDP=2.34D-03 DE=-2.12D-02 OVMax= 1.18D-02

 Cycle   5  Pass 1  IDiag  1:
 E= -279.505518713008     Delta-E=       -0.000817016633 Rises=F Damp=F
 DIIS: error= 1.09D-03 at cycle   5 NSaved=   5.
 NSaved= 5 IEnMin= 5 EnMin= -279.505518713008     IErMin= 5 ErrMin= 1.09D-03
 ErrMax= 1.09D-03  0.00D+00 EMaxC= 1.00D-01 BMatC= 1.03D-04 BMatP= 6.11D-04
 IDIUse=3 WtCom= 9.89D-01 WtEn= 1.09D-02
 Coeff-Com:  0.542D-02-0.660D-01-0.111D+00 0.600D-01 0.111D+01
 Coeff-En:   0.000D+00 0.000D+00 0.000D+00 0.000D+00 0.100D+01
 Coeff:      0.536D-02-0.652D-01-0.110D+00 0.594D-01 0.111D+01
 Gap=     0.533 Goal=   None    Shift=    0.000
 RMSDP=7.98D-05 MaxDP=2.11D-03 DE=-8.17D-04 OVMax= 1.28D-02

 Cycle   6  Pass 1  IDiag  1:
 E= -279.505881680150     Delta-E=       -0.000362967143 Rises=F Damp=F
 DIIS: error= 3.26D-04 at cycle   6 NSaved=   6.
 NSaved= 6 IEnMin= 6 EnMin= -279.505881680150     IErMin= 6 ErrMin= 3.26D-04
 ErrMax= 3.26D-04  0.00D+00 EMaxC= 1.00D-01 BMatC= 2.39D-05 BMatP= 1.03D-04
 IDIUse=3 WtCom= 9.97D-01 WtEn= 3.26D-03
 Coeff-Com:  0.187D-02-0.694D-02-0.176D-01-0.180D+00 0.979D-02 0.119D+01
 Coeff-En:   0.000D+00 0.000D+00 0.000D+00 0.000D+00 0.000D+00 0.100D+01
 Coeff:      0.186D-02-0.692D-02-0.176D-01-0.179D+00 0.975D-02 0.119D+01
 Gap=     0.533 Goal=   None    Shift=    0.000
 RMSDP=4.63D-05 MaxDP=1.07D-03 DE=-3.63D-04 OVMax= 6.02D-03

 Cycle   7  Pass 1  IDiag  1:
 E= -279.505966703886     Delta-E=       -0.000085023736 Rises=F Damp=F
 DIIS: error= 1.29D-04 at cycle   7 NSaved=   7.
 NSaved= 7 IEnMin= 7 EnMin= -279.505966703886     IErMin= 7 ErrMin= 1.29D-04
 ErrMax= 1.29D-04  0.00D+00 EMaxC= 1.00D-01 BMatC= 3.58D-06 BMatP= 2.39D-05
 IDIUse=3 WtCom= 9.99D-01 WtEn= 1.29D-03
 Coeff-Com: -0.108D-02 0.113D-01 0.248D-01 0.148D-01-0.181D+00-0.140D+00
 Coeff-Com:  0.127D+01
 Coeff-En:   0.000D+00 0.000D+00 0.000D+00 0.000D+00 0.000D+00 0.000D+00
 Coeff-En:   0.100D+01
 Coeff:     -0.107D-02 0.113D-01 0.248D-01 0.148D-01-0.181D+00-0.140D+00
 Coeff:      0.127D+01
 Gap=     0.534 Goal=   None    Shift=    0.000
 RMSDP=1.74D-05 MaxDP=5.02D-04 DE=-8.50D-05 OVMax= 2.29D-03

 Cycle   8  Pass 1  IDiag  1:
 E= -279.505978595576     Delta-E=       -0.000011891689 Rises=F Damp=F
 DIIS: error= 4.74D-05 at cycle   8 NSaved=   8.
 NSaved= 8 IEnMin= 8 EnMin= -279.505978595576     IErMin= 8 ErrMin= 4.74D-05
 ErrMax= 4.74D-05  0.00D+00 EMaxC= 1.00D-01 BMatC= 6.08D-07 BMatP= 3.58D-06
 IDIUse=1 WtCom= 1.00D+00 WtEn= 0.00D+00
 Coeff-Com: -0.563D-03 0.410D-02 0.977D-02 0.248D-01-0.575D-01-0.194D+00
 Coeff-Com:  0.355D+00 0.858D+00
 Coeff:     -0.563D-03 0.410D-02 0.977D-02 0.248D-01-0.575D-01-0.194D+00
 Coeff:      0.355D+00 0.858D+00
 Gap=     0.534 Goal=   None    Shift=    0.000
 RMSDP=5.49D-06 MaxDP=1.54D-04 DE=-1.19D-05 OVMax= 6.55D-04

 Cycle   9  Pass 1  IDiag  1:
 E= -279.505979991152     Delta-E=       -0.000001395576 Rises=F Damp=F
 DIIS: error= 2.45D-05 at cycle   9 NSaved=   9.
 NSaved= 9 IEnMin= 9 EnMin= -279.505979991152     IErMin= 9 ErrMin= 2.45D-05
 ErrMax= 2.45D-05  0.00D+00 EMaxC= 1.00D-01 BMatC= 1.15D-07 BMatP= 6.08D-07
 IDIUse=1 WtCom= 1.00D+00 WtEn= 0.00D+00
 Coeff-Com:  0.240D-03-0.253D-02-0.529D-02-0.536D-02 0.464D-01 0.485D-01
 Coeff-Com: -0.336D+00 0.250D-01 0.123D+01
 Coeff:      0.240D-03-0.253D-02-0.529D-02-0.536D-02 0.464D-01 0.485D-01
 Coeff:     -0.336D+00 0.250D-01 0.123D+01
 Gap=     0.534 Goal=   None    Shift=    0.000
 RMSDP=2.45D-06 MaxDP=6.58D-05 DE=-1.40D-06 OVMax= 2.56D-04

 Cycle  10  Pass 1  IDiag  1:
 E= -279.505980252250     Delta-E=       -0.000000261098 Rises=F Damp=F
 DIIS: error= 5.70D-06 at cycle  10 NSaved=  10.
 NSaved=10 IEnMin=10 EnMin= -279.505980252250     IErMin=10 ErrMin= 5.70D-06
 ErrMax= 5.70D-06  0.00D+00 EMaxC= 1.00D-01 BMatC= 8.21D-09 BMatP= 1.15D-07
 IDIUse=1 WtCom= 1.00D+00 WtEn= 0.00D+00
 Coeff-Com: -0.390D-04 0.498D-03 0.121D-02-0.185D-02-0.110D-01 0.527D-02
 Coeff-Com:  0.730D-01-0.505D-01-0.444D+00 0.143D+01
 Coeff:     -0.390D-04 0.498D-03 0.121D-02-0.185D-02-0.110D-01 0.527D-02
 Coeff:      0.730D-01-0.505D-01-0.444D+00 0.143D+01
 Gap=     0.534 Goal=   None    Shift=    0.000
 RMSDP=7.03D-07 MaxDP=2.53D-05 DE=-2.61D-07 OVMax= 7.51D-05

 Cycle  11  Pass 1  IDiag  1:
 E= -279.505980277080     Delta-E=       -0.000000024830 Rises=F Damp=F
 DIIS: error= 2.19D-06 at cycle  11 NSaved=  11.
 NSaved=11 IEnMin=11 EnMin= -279.505980277080     IErMin=11 ErrMin= 2.19D-06
 ErrMax= 2.19D-06  0.00D+00 EMaxC= 1.00D-01 BMatC= 8.35D-10 BMatP= 8.21D-09
 IDIUse=1 WtCom= 1.00D+00 WtEn= 0.00D+00
 Coeff-Com: -0.159D-04 0.160D-03 0.334D-03 0.870D-03-0.207D-02-0.711D-02
 Coeff-Com:  0.182D-01 0.197D-01-0.472D-01-0.327D+00 0.134D+01
 Coeff:     -0.159D-04 0.160D-03 0.334D-03 0.870D-03-0.207D-02-0.711D-02
 Coeff:      0.182D-01 0.197D-01-0.472D-01-0.327D+00 0.134D+01
 Gap=     0.534 Goal=   None    Shift=    0.000
 RMSDP=2.43D-07 MaxDP=9.00D-06 DE=-2.48D-08 OVMax= 2.84D-05

 Cycle  12  Pass 1  IDiag  1:
 E= -279.505980280080     Delta-E=       -0.000000003000 Rises=F Damp=F
 DIIS: error= 7.29D-07 at cycle  12 NSaved=  12.
 NSaved=12 IEnMin=12 EnMin= -279.505980280080     IErMin=12 ErrMin= 7.29D-07
 ErrMax= 7.29D-07  0.00D+00 EMaxC= 1.00D-01 BMatC= 8.84D-11 BMatP= 8.35D-10
 IDIUse=1 WtCom= 1.00D+00 WtEn= 0.00D+00
 Coeff-Com:  0.250D-05-0.442D-04-0.965D-04 0.146D-03 0.113D-02-0.825D-03
 Coeff-Com: -0.721D-02 0.648D-02 0.416D-01-0.119D+00-0.168D+00 0.125D+01
 Coeff:      0.250D-05-0.442D-04-0.965D-04 0.146D-03 0.113D-02-0.825D-03
 Coeff:     -0.721D-02 0.648D-02 0.416D-01-0.119D+00-0.168D+00 0.125D+01
 Gap=     0.534 Goal=   None    Shift=    0.000
 RMSDP=8.49D-08 MaxDP=2.76D-06 DE=-3.00D-09 OVMax= 9.84D-06

 Cycle  13  Pass 1  IDiag  1:
 E= -279.505980280388     Delta-E=       -0.000000000309 Rises=F Damp=F
 DIIS: error= 1.60D-07 at cycle  13 NSaved=  13.
 NSaved=13 IEnMin=13 EnMin= -279.505980280388     IErMin=13 ErrMin= 1.60D-07
 ErrMax= 1.60D-07  0.00D+00 EMaxC= 1.00D-01 BMatC= 7.57D-12 BMatP= 8.84D-11
 IDIUse=1 WtCom= 1.00D+00 WtEn= 0.00D+00
 Coeff-Com:  0.130D-05-0.122D-04-0.176D-04-0.122D-03 0.435D-04 0.943D-03
 Coeff-Com: -0.105D-02-0.258D-02-0.219D-02 0.563D-01-0.133D+00-0.151D+00
 Coeff-Com:  0.123D+01
 Coeff:      0.130D-05-0.122D-04-0.176D-04-0.122D-03 0.435D-04 0.943D-03
 Coeff:     -0.105D-02-0.258D-02-0.219D-02 0.563D-01-0.133D+00-0.151D+00
 Coeff:      0.123D+01
 Gap=     0.534 Goal=   None    Shift=    0.000
 RMSDP=2.31D-08 MaxDP=6.82D-07 DE=-3.09D-10 OVMax= 2.08D-06

 Cycle  14  Pass 1  IDiag  1:
 E= -279.505980280411     Delta-E=       -0.000000000023 Rises=F Damp=F
 DIIS: error= 4.13D-08 at cycle  14 NSaved=  14.
 NSaved=14 IEnMin=14 EnMin= -279.505980280411     IErMin=14 ErrMin= 4.13D-08
 ErrMax= 4.13D-08  0.00D+00 EMaxC= 1.00D-01 BMatC= 5.16D-13 BMatP= 7.57D-12
 IDIUse=1 WtCom= 1.00D+00 WtEn= 0.00D+00
 Coeff-Com: -0.304D-06 0.452D-05 0.900D-05-0.388D-05-0.114D-03 0.596D-04
 Coeff-Com:  0.649D-03-0.298D-03-0.365D-02 0.803D-02 0.173D-01-0.889D-01
 Coeff-Com: -0.326D-01 0.110D+01
 Coeff:     -0.304D-06 0.452D-05 0.900D-05-0.388D-05-0.114D-03 0.596D-04
 Coeff:      0.649D-03-0.298D-03-0.365D-02 0.803D-02 0.173D-01-0.889D-01
 Coeff:     -0.326D-01 0.110D+01
 Gap=     0.534 Goal=   None    Shift=    0.000
 RMSDP=4.55D-09 MaxDP=1.17D-07 DE=-2.27D-11 OVMax= 4.74D-07

 SCF Done:  E(RHF) =  -279.505980280     A.U. after   14 cycles
            NFock= 14  Conv=0.46D-08     -V/T= 2.0023
 KE= 2.788725676377D+02 PE=-9.059925972581D+02 EE= 2.250502698873D+02
 Leave Link  502 at Sun Mar  6 18:52:26 2022, MaxMem= 16106127360 cpu:              49.4 elap:               3.2
 (Enter /sw/contrib/gaussian/g16/B01/g16/l801.exe)
 ExpMin= 2.53D-02 ExpMax= 1.53D+04 ExpMxC= 5.22D+02 IAcc=3 IRadAn=         5 AccDes= 0.00D+00
 HarFok:  IExCor=  205 AccDes= 0.00D+00 IRadAn=         5 IDoV=-2 UseB2=F ITyADJ=14
 ICtDFT= 12500011 ScaDFX=  1.000000  1.000000  1.000000  1.000000
 Largest valence mixing into a core orbital is  2.07D-04
 Largest core mixing into a valence orbital is  3.12D-05
 Range of M.O.s used for correlation:     5   207
 NBasis=   207 NAE=    16 NBE=    16 NFC=     4 NFV=     0
 NROrb=    203 NOA=    12 NOB=    12 NVA=   191 NVB=   191

 **** Warning!!: The largest alpha MO coefficient is  0.16601282D+02

 Leave Link  801 at Sun Mar  6 18:52:27 2022, MaxMem= 16106127360 cpu:               2.7 elap:               0.1
 (Enter /sw/contrib/gaussian/g16/B01/g16/l906.exe)
 Frozen-core derivative calculation, NFC=   4 NFV=   0.
 FulOut=F Deriv=T AODrv=T NAtomX=     5
   MMem=           0  MDisk=          12 MDiskD=          12
  W3Min=      811440 MinDsk=     2425030 NBas6D=         245
 NBas2D=       30762    NTT=       30135    LW2=     7400000
    MDV= 16105571560 MDiskM=      328644 NBas2p=       30759
 Disk-based method using ON**2 memory for 12 occupieds at a time.
 Permanent disk used for amplitudes=    11516536 words.
 Estimated scratch disk usage=   321863743 words.
 IMap=   1   2   3   4   5   6   7   8   9  10  11  12  13  14  15  16
 Actual    scratch disk usage=   310892607 words.
 JobTyp=1 Pass  1:  I=   5 to  16 NPSUse= 28 ParTrn=T ParDer=T DoDerP=T.
 (rs|ai) integrals will be sorted in core.
 Spin components of T(2) and E(2):
     alpha-alpha T2 =       0.3485135105D-01 E2=     -0.1245651862D+00
     alpha-beta  T2 =       0.1849537623D+00 E2=     -0.7001088043D+00
     beta-beta   T2 =       0.3485135105D-01 E2=     -0.1245651862D+00
 The integrals were generated   1 times.
 ANorm=    0.1120114487D+01
 E2 =    -0.9492391767D+00 EUMP2 =    -0.28045521945714D+03
 Leave Link  906 at Sun Mar  6 18:54:02 2022, MaxMem= 16106127360 cpu:            2651.9 elap:              95.0
 (Enter /sw/contrib/gaussian/g16/B01/g16/l1101.exe)
 Using compressed Sx but separate Hx and Fx, NAtomX=     5.
 Will process      6 centers per pass.
 Leave Link 1101 at Sun Mar  6 18:54:02 2022, MaxMem= 16106127360 cpu:               4.9 elap:               0.2
 (Enter /sw/contrib/gaussian/g16/B01/g16/l1102.exe)
 Leave Link 1102 at Sun Mar  6 18:54:02 2022, MaxMem= 16106127360 cpu:               0.9 elap:               0.1
 (Enter /sw/contrib/gaussian/g16/B01/g16/l1110.exe)
 Forming Gx(P) for the SCF density, NAtomX=     5.
 Integral derivatives from FoFJK, PRISM(SPDF).
 Do as many integral derivatives as possible in FoFJK.
 G2DrvN: MDV=   16106126844.
 G2DrvN: will do     6 centers at a time, making    1 passes.
 Calling FoFCou, ICntrl=  3107 FMM=F I1Cent=   0 AccDes= 0.00D+00.
 FoFJK:  IHMeth= 1 ICntrl=    3107 DoSepK=F KAlg= 0 I1Cent=           0 FoldK=F
 IRaf=         0 NMat=       1 IRICut=       1 DoRegI=T DoRafI=F ISym2E= 1 IDoP0=0 IntGTp=1.
 FoFCou: FMM=F IPFlag=           0 FMFlag=      100000 FMFlg1=           0
         NFxFlg=           0 DoJE=F BraDBF=F KetDBF=F FulRan=T
         wScrn=  0.000000 ICntrl=      3107 IOpCl=  0 I1Cent=           0 NGrid=           0
         NMat0=    1 NMatS0=      1 NMatT0=    0 NMatD0=    1 NMtDS0=    0 NMtDT0=    0
 Petite list used in FoFCou.
 End of G2Drv F.D. properties file   721 does not exist.
 End of G2Drv F.D. properties file   722 does not exist.
 End of G2Drv F.D. properties file   788 does not exist.
 Leave Link 1110 at Sun Mar  6 18:54:05 2022, MaxMem= 16106127360 cpu:              80.1 elap:               2.9
 (Enter /sw/contrib/gaussian/g16/B01/g16/l1002.exe)
 Minotr:  Closed shell wavefunction.
          IDoAtm=11111
          Frozen-core window.
          Direct CPHF calculation.
          Differentiating once with respect to electric field.
                with respect to dipole field.
          Differentiating once with respect to nuclear coordinates.
          Requested convergence is 1.0D-08 RMS, and 1.0D-07 maximum.
          Secondary convergence is 1.0D-12 RMS, and 1.0D-12 maximum.
          NewPWx=T KeepS1=T KeepF1=T KeepIn=T MapXYZ=F SortEE=F KeepMc=T.
 Keep R1 ints in memory in symmetry-blocked form, NReq=348888983.
 FoFCou: FMM=F IPFlag=           0 FMFlag=           0 FMFlg1=           0
         NFxFlg=           0 DoJE=F BraDBF=F KetDBF=F FulRan=T
         wScrn=  0.000000 ICntrl=       600 IOpCl=  0 I1Cent=           0 NGrid=           0
         NMat0=    1 NMatS0=  21528 NMatT0=    0 NMatD0=    1 NMtDS0=    0 NMtDT0=    0
 Petite list used in FoFCou.
          MDV=   16106127360 using IRadAn=       1.
          Solving linear equations simultaneously, MaxMat=       0.
          There are    18 degrees of freedom in the 1st order CPHF.  IDoFFX=6 NUNeed=    18.
     15 vectors produced by pass  0 Test12= 1.70D-14 5.56D-09 XBig12= 7.92D+00 1.23D+00.
 AX will form    15 AO Fock derivatives at one time.
     15 vectors produced by pass  1 Test12= 1.70D-14 5.56D-09 XBig12= 1.35D+00 2.32D-01.
     15 vectors produced by pass  2 Test12= 1.70D-14 5.56D-09 XBig12= 6.76D-02 5.72D-02.
     15 vectors produced by pass  3 Test12= 1.70D-14 5.56D-09 XBig12= 1.94D-03 1.07D-02.
     15 vectors produced by pass  4 Test12= 1.70D-14 5.56D-09 XBig12= 4.32D-05 1.22D-03.
     15 vectors produced by pass  5 Test12= 1.70D-14 5.56D-09 XBig12= 5.95D-07 1.19D-04.
     15 vectors produced by pass  6 Test12= 1.70D-14 5.56D-09 XBig12= 4.59D-09 1.18D-05.
     14 vectors produced by pass  7 Test12= 1.70D-14 5.56D-09 XBig12= 3.47D-11 7.78D-07.
      3 vectors produced by pass  8 Test12= 1.70D-14 5.56D-09 XBig12= 2.39D-13 6.14D-08.
      1 vectors produced by pass  9 Test12= 1.70D-14 5.56D-09 XBig12= 1.62D-15 6.87D-09.
 InvSVY:  IOpt=1 It=  1 EMax= 6.66D-16
 Solved reduced A of dimension   123 with    15 vectors.
 FullF1:  Do perturbations      1 to      18.
 Saving first derivative matrices.
 End of Minotr F.D. properties file   721 does not exist.
 End of Minotr F.D. properties file   722 does not exist.
 End of Minotr F.D. properties file   788 does not exist.
 Leave Link 1002 at Sun Mar  6 18:54:08 2022, MaxMem= 16106127360 cpu:              74.7 elap:               2.8
 (Enter /sw/contrib/gaussian/g16/B01/g16/l811.exe)
 MDV= 16106127360.
 Form MO integral derivatives with frozen-active canonical formalism.
 MOERI=1 MOERIx=1 NAtoms=     5 NAtomX=     5.
 Discarding MO integrals.
 MO basis two electron integral derivatives will not be stored on disk.
 IAlg= 3 DoFC=T DoPWx=T Debug=F.
 Frozen-core window:  NFC=   4 NFV=   0.
 Reordered first order wavefunction length =     18678272
 In DefCFB: NBatch=  1 ICI= 16 ICA=191 LFMax= 96
            Large arrays: LIAPS=   619940160 LIARS=   288257200 words.
 In StABat: MaxSiz= 55 MinSiz= 25 NAtomB=  5
 DoIAMN: NPSUse= 28.
 Leave Link  811 at Sun Mar  6 18:55:35 2022, MaxMem= 16106127360 cpu:            2446.1 elap:              87.6
 (Enter /sw/contrib/gaussian/g16/B01/g16/l804.exe)
 Frozen-core window:  NFC=   4 NFV=   0.
 Closed-shell transformation, MDV= 16106127360 ITran=4 ISComp=1.
 Semi-Direct transformation.
 ModeAB=           2 MOrb=            16 LenV=   16104919939
 LASXX=     67341636 LTotXX=    67341636 LenRXX=    67341636
 LTotAB=    68301760 MaxLAS=    99807120 LenRXY=    99807120
 NonZer=   134683272 LenScr=   202817536 LnRSAI=           0
 LnScr1=           0 LExtra=           0 Total=    369966292
 MaxDsk=          -1 SrtSym=           F ITran=            4
 DoSDTr:  NPSUse= 28
 JobTyp=0 Pass  1:  I=   1 to  16.
 (rs|ai) integrals will be sorted in core.
 Complete sort for first half transformation.
 First half transformation complete.
 Begin second half transformation for I=  10.
 Begin second half transformation for I=  10.
 Complete sort for second half transformation.
 Second half transformation complete.
 Spin components of T(2) and E(2):
     alpha-alpha T2 =       0.3485135105D-01 E2=     -0.1245651862D+00
     alpha-beta  T2 =       0.1849537623D+00 E2=     -0.7001088043D+00
     beta-beta   T2 =       0.3485135105D-01 E2=     -0.1245651862D+00
 ANorm=    0.1584081099D+01
 E2 =    -0.9492391767D+00 EUMP2 =    -0.28045521945714D+03
 Leave Link  804 at Sun Mar  6 18:55:52 2022, MaxMem= 16106127360 cpu:             465.4 elap:              16.7
 (Enter /sw/contrib/gaussian/g16/B01/g16/l1002.exe)
 Minotr:  Closed shell wavefunction.
          Computing MP2/KS-MP2 derivatives.
          Using Z-Vector for PSCF gradient.
          Skipping F1 and S1 gradient terms here.
          IDoAtm=11111
          Frozen-core window.
          Using MO integrals in the linear equations.
          Forming densities via direct SCF.
          Differentiating once with respect to electric field.
                with respect to dipole field.
          Differentiating once with respect to nuclear coordinates.
          Using symmetry in CPHF.
          Requested convergence is 1.0D-10 RMS, and 1.0D-09 maximum.
          NewPWx=F KeepS1=T KeepF1=T KeepIn=T MapXYZ=F SortEE=F KeepMc=T.
          MDV=   16106127360 using IRadAn=       5.
          Solving linear equations separately, MaxMat=       0.
          There are     1 degrees of freedom in the 1st order CPHF.  IDoFFX=0 NUNeed=     1.
 FoFJK:  IHMeth= 1 ICntrl=       0 DoSepK=F KAlg= 0 I1Cent=           0 FoldK=F
 IRaf=         0 NMat=       1 IRICut=       1 DoRegI=T DoRafI=F ISym2E= 0 IDoP0=0 IntGTp=1.
 FoFCou: FMM=F IPFlag=           0 FMFlag=      100000 FMFlg1=           0
         NFxFlg=           0 DoJE=F BraDBF=F KetDBF=F FulRan=T
         wScrn=  0.000000 ICntrl=         0 IOpCl=  0 I1Cent=           0 NGrid=           0
         NMat0=    1 NMatS0=      1 NMatT0=    0 NMatD0=    1 NMtDS0=    0 NMtDT0=    0
 Symmetry not used in FoFCou.
 LinEq1:  Iter=  0 NonCon=     1 RMS=6.60D-03 Max=1.69D-01 NDo=     1
 LinEq1:  Iter=  1 NonCon=     1 RMS=2.00D-03 Max=3.07D-02 NDo=     1
 LinEq1:  Iter=  2 NonCon=     1 RMS=8.86D-04 Max=1.45D-02 NDo=     1
 LinEq1:  Iter=  3 NonCon=     1 RMS=3.79D-04 Max=8.07D-03 NDo=     1
 LinEq1:  Iter=  4 NonCon=     1 RMS=1.37D-04 Max=1.66D-03 NDo=     1
 LinEq1:  Iter=  5 NonCon=     1 RMS=7.63D-05 Max=1.37D-03 NDo=     1
 LinEq1:  Iter=  6 NonCon=     1 RMS=2.43D-05 Max=2.91D-04 NDo=     1
 LinEq1:  Iter=  7 NonCon=     1 RMS=8.23D-06 Max=1.10D-04 NDo=     1
 LinEq1:  Iter=  8 NonCon=     1 RMS=4.01D-06 Max=6.34D-05 NDo=     1
 LinEq1:  Iter=  9 NonCon=     1 RMS=1.04D-06 Max=1.16D-05 NDo=     1
 LinEq1:  Iter= 10 NonCon=     1 RMS=2.33D-07 Max=2.84D-06 NDo=     1
 LinEq1:  Iter= 11 NonCon=     1 RMS=5.04D-08 Max=8.01D-07 NDo=     1
 LinEq1:  Iter= 12 NonCon=     1 RMS=1.19D-08 Max=1.68D-07 NDo=     1
 LinEq1:  Iter= 13 NonCon=     1 RMS=2.10D-09 Max=2.26D-08 NDo=     1
 LinEq1:  Iter= 14 NonCon=     1 RMS=4.32D-10 Max=5.64D-09 NDo=     1
 LinEq1:  Iter= 15 NonCon=     0 RMS=8.86D-11 Max=8.49D-10 NDo=     1
 Linear equations converged to 1.000D-10 1.000D-09 after    15 iterations.
 End of Minotr F.D. properties file   721 does not exist.
 End of Minotr F.D. properties file   722 does not exist.
 End of Minotr F.D. properties file   788 does not exist.
 Leave Link 1002 at Sun Mar  6 18:55:55 2022, MaxMem= 16106127360 cpu:              73.3 elap:               2.7
 (Enter /sw/contrib/gaussian/g16/B01/g16/l1102.exe)
 Use density number 2.
 Symmetrizing basis deriv contribution to polar:
 IMax=3 JMax=2 DiffMx= 0.00D+00
 Leave Link 1102 at Sun Mar  6 18:55:55 2022, MaxMem= 16106127360 cpu:               0.7 elap:               0.1
 (Enter /sw/contrib/gaussian/g16/B01/g16/l1110.exe)
 Forming Gx(P) for generalized density number  2 NAtomX=     5.
 Integral derivatives from FoFJK, PRISM(SPDF).
 Do as many integral derivatives as possible in FoFJK.
 G2DrvN: MDV=   16106126844.
 G2DrvN: will do     6 centers at a time, making    1 passes.
 Calling FoFCou, ICntrl=  3107 FMM=F I1Cent=   0 AccDes= 0.00D+00.
 FoFJK:  IHMeth= 1 ICntrl=    3107 DoSepK=F KAlg= 0 I1Cent=           0 FoldK=F
 IRaf=         0 NMat=       1 IRICut=       1 DoRegI=T DoRafI=F ISym2E= 1 IDoP0=0 IntGTp=1.
 FoFCou: FMM=F IPFlag=           0 FMFlag=      100000 FMFlg1=           0
         NFxFlg=           0 DoJE=F BraDBF=F KetDBF=F FulRan=T
         wScrn=  0.000000 ICntrl=      3107 IOpCl=  0 I1Cent=           0 NGrid=           0
         NMat0=    1 NMatS0=      1 NMatT0=    0 NMatD0=    1 NMtDS0=    0 NMtDT0=    0
 Petite list used in FoFCou.
 End of G2Drv F.D. properties file   721 does not exist.
 End of G2Drv F.D. properties file   722 does not exist.
 End of G2Drv F.D. properties file   788 does not exist.
 Leave Link 1110 at Sun Mar  6 18:55:58 2022, MaxMem= 16106127360 cpu:              80.9 elap:               2.9
 (Enter /sw/contrib/gaussian/g16/B01/g16/l1112.exe)
 MP22nd: MDV=   16106127360
 This link is doing NAtomX=     5 total of    18 degrees of freedom.
 Using ON3 I/O method in MakUI.
 Frozen-core window:  NFC=   4 NFV=   0.
 Using Ix for Sx.
 Use MO integrals over full window.
 Using OV2 memory method for fx*t*t/D, MaxI=    16 DoOO2=F NP=  28.
 R2 and R3 integrals will be kept in memory, NReq=   915591705.
 FoFCou: FMM=F IPFlag=           0 FMFlag=           0 FMFlg1=           0
         NFxFlg=           0 DoJE=F BraDBF=F KetDBF=F FulRan=T
         wScrn=  0.000000 ICntrl=       600 IOpCl=  0 I1Cent=           0 NGrid=           0
         NMat0=    1 NMatS0=      1 NMatT0=    0 NMatD0=    1 NMtDS0=    0 NMtDT0=    0
 Symmetry not used in FoFCou.
 DD1Dir will call FoFMem   1 times, MxPair=       272
 NAB=   136 NAA=     0 NBB=     0.
 Symmetry is being used.
 FoFJK:  IHMeth= 1 ICntrl=       0 DoSepK=F KAlg= 0 I1Cent=           0 FoldK=F
 IRaf=         0 NMat=      18 IRICut=      45 DoRegI=T DoRafI=T ISym2E= 2 IDoP0=3 IntGTp=3.
 Discarding MO integrals.
 Leave Link 1112 at Sun Mar  6 18:56:30 2022, MaxMem= 16106127360 cpu:             888.9 elap:              32.1
 (Enter /sw/contrib/gaussian/g16/B01/g16/l601.exe)
 Copying SCF densities to generalized density rwf, IOpCl= 0 IROHF=0.

 **********************************************************************

            Population analysis using the MP2 Density.

 **********************************************************************

 Orbital symmetries:
       Occupied  (A') (A') (A') (A') (A') (A') (A') (A') (A') (A')
                 (A") (A') (A") (A') (A') (A")
       Virtual   (A') (A") (A') (A') (A") (A') (A') (A') (A") (A')
                 (A") (A') (A') (A') (A") (A') (A') (A") (A') (A')
                 (A') (A') (A') (A') (A") (A') (A') (A") (A') (A')
                 (A') (A") (A") (A') (A') (A') (A") (A') (A") (A')
                 (A") (A") (A') (A') (A") (A') (A') (A") (A') (A')
                 (A') (A") (A') (A') (A") (A') (A") (A') (A") (A')
                 (A') (A') (A") (A') (A') (A') (A") (A") (A') (A')
                 (A") (A') (A") (A") (A') (A') (A") (A') (A') (A')
                 (A") (A') (A') (A") (A') (A") (A") (A') (A') (A')
                 (A') (A') (A") (A") (A') (A') (A") (A") (A') (A")
                 (A') (A') (A") (A') (A") (A') (A') (A') (A") (A")
                 (A') (A') (A') (A') (A") (A') (A') (A') (A") (A')
                 (A") (A") (A') (A') (A") (A") (A') (A") (A') (A')
                 (A') (A') (A") (A') (A') (A") (A") (A') (A') (A')
                 (A") (A") (A') (A') (A') (A") (A') (A') (A') (A")
                 (A') (A') (A') (A") (A") (A') (A") (A') (A') (A")
                 (A') (A") (A') (A") (A") (A') (A") (A') (A") (A')
                 (A") (A") (A") (A') (A') (A") (A') (A') (A") (A')
                 (A') (A') (A') (A') (A') (A') (A') (A') (A') (A')
                 (A')
 The electronic state is 1-A'.
 Alpha  occ. eigenvalues --  -20.71976 -20.68715 -20.66895 -15.82612  -1.64319
 Alpha  occ. eigenvalues --   -1.50278  -1.29467  -0.95997  -0.83344  -0.75843
 Alpha  occ. eigenvalues --   -0.73900  -0.63837  -0.61767  -0.61710  -0.50445
 Alpha  occ. eigenvalues --   -0.49869
 Alpha virt. eigenvalues --    0.03499   0.06029   0.09510   0.10029   0.11977
 Alpha virt. eigenvalues --    0.12245   0.14899   0.15147   0.17755   0.18044
 Alpha virt. eigenvalues --    0.18982   0.21097   0.21664   0.23923   0.24634
 Alpha virt. eigenvalues --    0.26912   0.31224   0.31660   0.33790   0.34362
 Alpha virt. eigenvalues --    0.34626   0.39271   0.44880   0.48820   0.50496
 Alpha virt. eigenvalues --    0.51835   0.54527   0.56113   0.59907   0.62002
 Alpha virt. eigenvalues --    0.63859   0.68937   0.71711   0.72442   0.74249
 Alpha virt. eigenvalues --    0.76339   0.76656   0.79618   0.80640   0.84018
 Alpha virt. eigenvalues --    0.84305   0.85177   0.88503   0.90714   0.92982
 Alpha virt. eigenvalues --    0.94770   0.95446   1.01806   1.03157   1.06185
 Alpha virt. eigenvalues --    1.06602   1.09442   1.14369   1.15586   1.16958
 Alpha virt. eigenvalues --    1.22212   1.22726   1.24555   1.35230   1.36162
 Alpha virt. eigenvalues --    1.37155   1.46883   1.48566   1.50504   1.54176
 Alpha virt. eigenvalues --    1.59622   1.59719   1.60553   1.62828   1.69541
 Alpha virt. eigenvalues --    1.73973   1.80095   1.82977   1.88818   1.89383
 Alpha virt. eigenvalues --    1.92868   1.97809   1.98954   2.05182   2.12341
 Alpha virt. eigenvalues --    2.13002   2.16469   2.18755   2.24364   2.25655
 Alpha virt. eigenvalues --    2.29313   2.35068   2.36592   2.38623   2.40255
 Alpha virt. eigenvalues --    2.43010   2.46876   2.47811   2.52925   2.53790
 Alpha virt. eigenvalues --    2.54836   2.55825   2.61541   2.62788   2.67086
 Alpha virt. eigenvalues --    2.67230   2.75141   2.80781   2.81662   2.83859
 Alpha virt. eigenvalues --    2.91690   2.98481   3.04533   3.04935   3.11489
 Alpha virt. eigenvalues --    3.11637   3.17106   3.20888   3.30603   3.33017
 Alpha virt. eigenvalues --    3.36089   3.47103   3.67839   3.86865   3.92810
 Alpha virt. eigenvalues --    4.18257   4.22142   4.22398   4.26665   4.36891
 Alpha virt. eigenvalues --    4.49328   4.52485   4.55423   4.59706   4.69492
 Alpha virt. eigenvalues --    4.80876   4.89782   4.91359   4.94012   4.99923
 Alpha virt. eigenvalues --    5.00573   5.10685   5.13176   5.17991   5.25023
 Alpha virt. eigenvalues --    5.25851   5.31717   5.34297   5.35452   5.54818
 Alpha virt. eigenvalues --    5.64477   5.70424   5.87807   5.99499   6.27676
 Alpha virt. eigenvalues --    6.29468   6.35629   6.38018   6.60029   6.65860
 Alpha virt. eigenvalues --    6.66420   6.69005   6.72736   6.79767   6.80237
 Alpha virt. eigenvalues --    6.85259   6.96707   7.01555   7.06187   7.07632
 Alpha virt. eigenvalues --    7.13568   7.17130   7.17268   7.19749   7.24201
 Alpha virt. eigenvalues --    7.24430   7.27014   7.34698   7.39007   7.42315
 Alpha virt. eigenvalues --    7.44214   7.45926   7.55843   7.65855   7.66356
 Alpha virt. eigenvalues --    7.78893   7.87590   7.94951   8.05980   8.29500
 Alpha virt. eigenvalues --    8.49618   8.64513  13.59251  14.75045  15.09756
 Alpha virt. eigenvalues --   15.75592
          Condensed to atoms (all electrons):
               1          2          3          4          5
     1  H    0.577641   0.124589   0.024192   0.000020  -0.005517
     2  O    0.124589   8.380497  -0.221081  -0.000079  -0.008919
     3  O    0.024192  -0.221081   8.364526  -0.169469  -0.034090
     4  N    0.000020  -0.000079  -0.169469   7.132496  -0.118323
     5  O   -0.005517  -0.008919  -0.034090  -0.118323   8.362194
 Mulliken charges:
               1
     1  H    0.279074
     2  O   -0.275007
     3  O    0.035922
     4  N    0.155356
     5  O   -0.195344
 Sum of Mulliken charges =  -0.00000
 Mulliken charges with hydrogens summed into heavy atoms:
               1
     2  O    0.004066
     3  O    0.035922
     4  N    0.155356
     5  O   -0.195344
 APT charges:
               1
     1  H    0.271428
     2  O   -0.304196
     3  O   -0.307974
     4  N    0.642383
     5  O   -0.301639
 Sum of APT charges =  -0.00000
 APT charges with hydrogens summed into heavy atoms:
               1
     2  O   -0.032769
     3  O   -0.307974
     4  N    0.642383
     5  O   -0.301639
 Electronic spatial extent (au):  <R**2>=            207.6984
 Charge=             -0.0000 electrons
 Dipole moment (field-independent basis, Debye):
    X=              0.0397    Y=             -1.1031    Z=              0.0000  Tot=              1.1038
 Quadrupole moment (field-independent basis, Debye-Ang):
   XX=            -23.3789   YY=            -22.9303   ZZ=            -21.9427
   XY=             -1.9898   XZ=              0.0000   YZ=              0.0000
 Traceless Quadrupole moment (field-independent basis, Debye-Ang):
   XX=             -0.6282   YY=             -0.1797   ZZ=              0.8079
   XY=             -1.9898   XZ=              0.0000   YZ=              0.0000
 Octapole moment (field-independent basis, Debye-Ang**2):
  XXX=              2.5353  YYY=              0.2341  ZZZ=              0.0000  XYY=              2.3788
  XXY=             -2.8309  XXZ=              0.0000  XZZ=             -0.6036  YZZ=             -0.7146
  YYZ=              0.0000  XYZ=              0.0000
 Hexadecapole moment (field-independent basis, Debye-Ang**3):
 XXXX=           -127.8299 YYYY=            -94.5886 ZZZZ=            -18.0599 XXXY=            -21.5593
 XXXZ=              0.0000 YYYX=            -19.7969 YYYZ=              0.0000 ZZZX=              0.0000
 ZZZY=              0.0000 XXYY=            -35.7189 XXZZ=            -24.4834 YYZZ=            -18.5549
 XXYZ=              0.0000 YYXZ=              0.0000 ZZXY=             -5.9048
 N-N= 1.225637794527D+02 E-N=-9.066839810248D+02  KE= 2.801920344786D+02
 Symmetry A'   KE= 2.663436897663D+02
 Symmetry A"   KE= 1.384834471230D+01
  Exact polarizability:  31.043   4.104  29.853   0.000   0.000  17.639
 Approx polarizability:  24.708   0.466  27.688  -0.000  -0.000  15.525
 No NMR shielding tensors so no spin-rotation constants.
 Leave Link  601 at Sun Mar  6 18:56:30 2022, MaxMem= 16106127360 cpu:               3.6 elap:               0.2
 (Enter /sw/contrib/gaussian/g16/B01/g16/l701.exe)
 ... and contract with generalized density number  2.
 Compute integral second derivatives.
 Leave Link  701 at Sun Mar  6 18:56:30 2022, MaxMem= 16106127360 cpu:               5.1 elap:               0.2
 (Enter /sw/contrib/gaussian/g16/B01/g16/l702.exe)
 L702 exits ... SP integral derivatives will be done elsewhere.
 Leave Link  702 at Sun Mar  6 18:56:30 2022, MaxMem= 16106127360 cpu:               0.6 elap:               0.0
 (Enter /sw/contrib/gaussian/g16/B01/g16/l703.exe)
 Integral derivatives from FoFJK, PRISM(SPDF).
 Compute integral second derivatives, UseDBF=F ICtDFT=           0.
 Calling FoFJK, ICntrl=  10100127 FMM=F ISym2X=1 I1Cent= 0 IOpClX= 0 NMat=1 NMatS=1 NMatT=0.
 FoFJK:  IHMeth= 1 ICntrl=10100127 DoSepK=F KAlg= 0 I1Cent=           0 FoldK=F
 IRaf=         0 NMat=       1 IRICut=       1 DoRegI=T DoRafI=F ISym2E= 1 IDoP0=0 IntGTp=1.
 FoFCou: FMM=F IPFlag=           0 FMFlag=      100000 FMFlg1=         800
         NFxFlg=           0 DoJE=F BraDBF=F KetDBF=F FulRan=T
         wScrn=  0.000000 ICntrl=  10100127 IOpCl=  0 I1Cent=           0 NGrid=           0
         NMat0=    1 NMatS0=      1 NMatT0=    0 NMatD0=    1 NMtDS0=    0 NMtDT0=    0
 Petite list used in FoFCou.
 Leave Link  703 at Sun Mar  6 18:56:47 2022, MaxMem= 16106127360 cpu:             451.1 elap:              16.2
 (Enter /sw/contrib/gaussian/g16/B01/g16/l716.exe)
 Dipole        = 1.56011652D-02-4.33996898D-01 0.00000000D+00
 Polarizability= 3.10429721D+01 4.10417346D+00 2.98533046D+01
                 0.00000000D+00 0.00000000D+00 1.76390320D+01
 Full mass-weighted force constant matrix:
 Low frequencies ---   -0.0008   -0.0007    0.0010    9.3800   29.8468   51.0700
 Low frequencies ---  353.4828  396.0581  522.8494
 Diagonal vibrational polarizability:
        7.2327675       9.9831735      16.0959514
 Harmonic frequencies (cm**-1), IR intensities (KM/Mole), Raman scattering
 activities (A**4/AMU), depolarization ratios for plane and unpolarized
 incident light, reduced masses (AMU), force constants (mDyne/A),
 and normal coordinates:
                      1                      2                      3
                     A"                     A'                     A"
 Frequencies --    353.4826               396.0510               522.8403
 Red. masses --      1.5512                 7.0708                 2.9304
 Frc consts  --      0.1142                 0.6535                 0.4720
 IR Inten    --     63.1279                 7.6805                25.3919
  Atom  AN      X      Y      Z        X      Y      Z        X      Y      Z
     1   1    -0.00  -0.00   0.98    -0.73  -0.25  -0.00     0.00   0.00   0.93
     2   8    -0.00  -0.00  -0.11    -0.33  -0.31   0.00     0.00   0.00   0.05
     3   8    -0.00   0.00   0.12    -0.06   0.08  -0.00     0.00  -0.00  -0.18
     4   7     0.00   0.00  -0.11     0.06   0.09   0.00    -0.00  -0.00   0.27
     5   8     0.00   0.00   0.03     0.39   0.16  -0.00    -0.00  -0.00  -0.17
                      4                      5                      6
                     A'                     A'                     A'
 Frequencies --    709.3751               824.0620               963.0415
 Red. masses --     13.3146                12.7565                 9.4859
 Frc consts  --      3.9476                 5.1039                 5.1835
 IR Inten    --    214.6259                31.5460                13.1259
  Atom  AN      X      Y      Z        X      Y      Z        X      Y      Z
     1   1    -0.36   0.01  -0.00     0.41  -0.16   0.00    -0.64   0.00   0.00
     2   8    -0.02  -0.07   0.00     0.55  -0.22  -0.00     0.17  -0.16   0.00
     3   8     0.38   0.58  -0.00    -0.41   0.02   0.00    -0.33   0.41  -0.00
     4   7    -0.41  -0.46  -0.00    -0.42  -0.06   0.00     0.39   0.04   0.00
     5   8     0.01  -0.10   0.00     0.20   0.27  -0.00    -0.14  -0.29  -0.00
                      7                      8                      9
                     A'                     A'                     A'
 Frequencies --   1427.3900              1568.7903              3490.5040
 Red. masses --      1.2892                 6.8547                 1.0639
 Frc consts  --      1.5476                 9.9395                 7.6369
 IR Inten    --     80.2896               149.5490                42.3555
  Atom  AN      X      Y      Z        X      Y      Z        X      Y      Z
     1   1     0.97  -0.21   0.00    -0.74   0.17  -0.00     0.16   0.99  -0.00
     2   8    -0.07  -0.05   0.00     0.02   0.02  -0.00    -0.01  -0.06   0.00
     3   8    -0.03   0.06  -0.00    -0.04  -0.06   0.00     0.00  -0.00  -0.00
     4   7     0.06  -0.05   0.00     0.26  -0.42  -0.00    -0.00   0.00  -0.00
     5   8    -0.02   0.04  -0.00    -0.16   0.39   0.00     0.00  -0.00   0.00

 -------------------
 - Thermochemistry -
 -------------------
 Temperature   298.150 Kelvin.  Pressure   1.00000 Atm.
 Atom     1 has atomic number  1 and mass   1.00783
 Atom     2 has atomic number  8 and mass  15.99491
 Atom     3 has atomic number  8 and mass  15.99491
 Atom     4 has atomic number  7 and mass  14.00307
 Atom     5 has atomic number  8 and mass  15.99491
 Molecular mass:    62.99564 amu.
 Principal axes and moments of inertia in atomic units:
                           1         2         3
     Eigenvalues --    84.94127 223.13760 308.07887
           X            0.80002  -0.59997   0.00000
           Y            0.59997   0.80002   0.00000
           Z            0.00000   0.00000   1.00000
 This molecule is an asymmetric top.
 Rotational symmetry number  1.
 Rotational temperatures (Kelvin)      1.01969     0.38816     0.28114
 Rotational constants (GHZ):          21.24693     8.08802     5.85805
 Zero-point vibrational energy      61341.7 (Joules/Mol)
                                   14.66103 (Kcal/Mol)
 Warning -- explicit consideration of   3 degrees of freedom as
           vibrations may cause significant error
 Vibrational temperatures:    508.58   569.83   752.25  1020.63  1185.64
          (Kelvin)           1385.60  2053.70  2257.14  5022.06
 
 Zero-point correction=                           0.023364 (Hartree/Particle)
 Thermal correction to Energy=                    0.027308
 Thermal correction to Enthalpy=                  0.028252
 Thermal correction to Gibbs Free Energy=        -0.002618
 Sum of electronic and zero-point Energies=           -280.431856
 Sum of electronic and thermal Energies=              -280.427911
 Sum of electronic and thermal Enthalpies=            -280.426967
 Sum of electronic and thermal Free Energies=         -280.457837
 
                     E (Thermal)             CV                S
                      KCal/Mol        Cal/Mol-Kelvin    Cal/Mol-Kelvin
 Total                   17.136             12.206             64.972
 Electronic               0.000              0.000              0.000
 Translational            0.889              2.981             38.341
 Rotational               0.889              2.981             23.283
 Vibrational             15.359              6.244              3.348
 Vibration     1          0.730              1.568              1.151
 Vibration     2          0.763              1.479              0.977
 Vibration     3          0.878              1.199              0.603
                       Q            Log10(Q)             Ln(Q)
 Total Bot       0.160020D+02          1.204174          2.772714
 Total V=0       0.892856D+12         11.950781         27.517691
 Vib (Bot)       0.297668D-10        -10.526268        -24.237627
 Vib (Bot)    1  0.520764D+00         -0.283359         -0.652459
 Vib (Bot)    2  0.451330D+00         -0.345506         -0.795556
 Vib (Bot)    3  0.307920D+00         -0.511563         -1.177916
 Vib (V=0)       0.166088D+01          0.220340          0.507350
 Vib (V=0)    1  0.122194D+01          0.087049          0.200438
 Vib (V=0)    2  0.117357D+01          0.069510          0.160052
 Vib (V=0)    3  0.108721D+01          0.036313          0.083614
 Electronic      0.100000D+01          0.000000          0.000000
 Translational   0.196526D+08          7.293420         16.793719
 Rotational      0.273541D+05          4.437022         10.216621
 
                                                                title
                                                             IR Spectrum
 
     3                                                                     1     1                                                   
     4                                                                     5     4               9     8   7     5    3 3            
     9                                                                     6     2               6     2   0     2    9 5            
     1                                                                     9     7               3     4   9     3    6 3            
 
     X                                                                     X     X               X     X   X     X    X X            
     X                                                                     X     X                     X   X     X      X            
     X                                                                     X     X                     X   X            X            
     X                                                                     X     X                         X            X            
                                                                           X     X                         X            X            
                                                                           X     X                         X            X            
                                                                           X     X                         X                         
                                                                           X                               X                         
                                                                           X                               X                         
                                                                           X                               X                         
                                                                           X                               X                         
                                                                           X                               X                         
                                                                           X                               X                         
                                                                           X                               X                         
                                                                                                           X                         
                                                                                                           X                         
                                                                                                           X                         
                                                                                                           X                         
                                                                                                           X                         
                                                                                                           X                         
 
 ***** Axes restored to original set *****
 -------------------------------------------------------------------
 Center     Atomic                   Forces (Hartrees/Bohr)
 Number     Number              X              Y              Z
 -------------------------------------------------------------------
      1        1           0.000420008   -0.000000000    0.000262267
      2        8           0.002706986   -0.000000000    0.000606434
      3        8          -0.002594141   -0.000000000   -0.001075117
      4        7          -0.000843360   -0.000000000    0.000398047
      5        8           0.000310507   -0.000000000   -0.000191631
 -------------------------------------------------------------------
 Cartesian Forces:  Max     0.002706986 RMS     0.001059214
 -----------------------------------------------------------------------------------------------
                       Internal Coordinate Forces (Hartree/Bohr or radian)
  Cent   Atom   N1       Length/X         N2         Alpha/Y        N3         Beta/Z          J
 -----------------------------------------------------------------------------------------------
      1  H 
      2  O        1  -0.000262(     1)
      3  O        2  -0.003234(     2)      1  -0.000782(     5)
      4  N        3  -0.000468(     3)      2  -0.000033(     6)      1   0.000000(     8)     0
      5  O        4  -0.000001(     4)      3   0.000824(     7)      2   0.000000(     9)     0
 -----------------------------------------------------------------------------------------------
 Internal  Forces:  Max     0.003233604 RMS     0.001156409
 Force constants in Cartesian coordinates: 
                1             2             3             4             5 
      1  0.712798D-01
      2  0.000000D+00  0.608995D-02
      3  0.234904D-01  0.000000D+00  0.437452D+00
      4 -0.519208D-01  0.000000D+00 -0.487969D-02  0.271328D+00
      5  0.000000D+00 -0.232161D-02  0.000000D+00  0.000000D+00  0.129752D-01
      6  0.318913D-01  0.000000D+00 -0.421536D+00 -0.137879D-01  0.000000D+00
      7 -0.244273D-01  0.000000D+00 -0.151562D-01 -0.161468D+00  0.000000D+00
      8  0.000000D+00 -0.432129D-02  0.000000D+00  0.000000D+00 -0.197274D-01
      9 -0.434298D-01  0.000000D+00 -0.193894D-01  0.116457D-01  0.000000D+00
     10 -0.531300D-02  0.000000D+00  0.616070D-02 -0.831607D-01  0.000000D+00
     11  0.000000D+00  0.794050D-02  0.000000D+00  0.000000D+00  0.195504D-01
     12 -0.188506D-01  0.000000D+00  0.116911D-01  0.112323D-01  0.000000D+00
     13  0.103813D-01  0.000000D+00 -0.961518D-02  0.252221D-01  0.000000D+00
     14  0.000000D+00 -0.738756D-02  0.000000D+00  0.000000D+00 -0.104766D-01
     15  0.689878D-02  0.000000D+00 -0.821809D-02 -0.421045D-02  0.000000D+00
                6             7             8             9            10 
      6  0.522586D+00
      7 -0.885315D-01  0.292955D+00
      8  0.000000D+00  0.000000D+00  0.417658D-01
      9 -0.961277D-01  0.795004D-01  0.000000D+00  0.315365D+00
     10  0.400316D-01 -0.143499D+00  0.000000D+00 -0.356468D-01  0.552335D+00
     11  0.000000D+00  0.000000D+00 -0.476778D-01  0.000000D+00  0.000000D+00
     12 -0.993618D-02  0.146120D-01  0.000000D+00 -0.251764D-01  0.244055D+00
     13  0.303965D-01  0.364393D-01  0.000000D+00 -0.120695D-01 -0.320363D+00
     14  0.000000D+00  0.000000D+00  0.299608D-01  0.000000D+00  0.000000D+00
     15  0.501371D-02  0.957533D-02  0.000000D+00 -0.174672D+00 -0.254600D+00
               11            12            13            14            15 
     11  0.577097D-01
     12  0.000000D+00  0.448336D+00
     13  0.000000D+00 -0.251048D+00  0.248320D+00
     14 -0.375227D-01  0.000000D+00  0.000000D+00  0.254261D-01
     15  0.000000D+00 -0.424915D+00  0.242336D+00  0.000000D+00  0.602791D+00
 Force constants in internal coordinates: 
                1             2             3             4             5 
      1  0.437452D+00
      2  0.212285D-01  0.247936D+00
      3  0.480729D-02  0.177648D-01  0.206311D+00
      4 -0.120575D-01  0.222548D-01  0.148659D+00  0.721258D+00
      5  0.441612D-01  0.544620D-01 -0.237459D-01  0.211198D-01  0.246665D+00
      6  0.110844D-01  0.213478D-01  0.912518D-01  0.967525D-02 -0.991825D-02
      7  0.862889D-02 -0.719845D-01  0.121619D+00  0.116949D+00 -0.217337D-01
      8  0.000000D+00  0.000000D+00  0.000000D+00  0.000000D+00  0.000000D+00
      9  0.000000D+00  0.000000D+00  0.000000D+00  0.000000D+00  0.000000D+00
                6             7             8             9 
      6  0.516058D+00
      7  0.620013D-01  0.661961D+00
      8  0.000000D+00  0.000000D+00  0.200670D-01
      9  0.000000D+00  0.000000D+00  0.278140D-01  0.107297D+00
 Leave Link  716 at Sun Mar  6 18:56:47 2022, MaxMem= 16106127360 cpu:               1.0 elap:               0.1
 (Enter /sw/contrib/gaussian/g16/B01/g16/l103.exe)

 GradGradGradGradGradGradGradGradGradGradGradGradGradGradGradGradGradGrad
 Berny optimization.
 Search for a local minimum.
 Step number   1 out of a maximum of    2
 All quantities printed in internal units (Hartrees-Bohrs-Radians)
 Second derivative matrix not updated -- analytic derivatives used.
 The second derivative matrix:
                          r1        r2        r3        r4        a1
           r1           0.43745
           r2           0.02123   0.24794
           r3           0.00481   0.01776   0.20631
           r4          -0.01206   0.02225   0.14866   0.72126
           a1           0.04416   0.05446  -0.02375   0.02112   0.24667
           a2           0.01108   0.02135   0.09125   0.00968  -0.00992
           a3           0.00863  -0.07198   0.12162   0.11695  -0.02173
           d1           0.00000   0.00000   0.00000   0.00000   0.00000
           d2           0.00000   0.00000   0.00000   0.00000   0.00000
                          a2        a3        d1        d2
           a2           0.51606
           a3           0.06200   0.66196
           d1           0.00000   0.00000   0.02007
           d2           0.00000   0.00000   0.02781   0.10730
 ITU=  0
     Eigenvalues ---    0.01195   0.11541   0.12271   0.19867   0.26916
     Eigenvalues ---    0.44918   0.50967   0.60590   0.88235
 Angle between quadratic step and forces=  19.02 degrees.
 Linear search not attempted -- first point.
 Variable       Old X    -DE/DX   Delta X   Delta X   Delta X     New X
                                 (Linear)    (Quad)   (Total)
    r1        1.86209  -0.00026   0.00000   0.00011   0.00011   1.86221
    r2        2.70941  -0.00323   0.00000  -0.01291  -0.01291   2.69650
    r3        2.60992  -0.00047   0.00000  -0.00221  -0.00221   2.60770
    r4        2.25782  -0.00000   0.00000   0.00086   0.00086   2.25868
    a1        1.75642  -0.00078   0.00000  -0.00059  -0.00059   1.75583
    a2        1.97463  -0.00003   0.00000   0.00083   0.00083   1.97546
    a3        1.99550   0.00082   0.00000  -0.00000  -0.00000   1.99550
    d1        0.00000   0.00000   0.00000   0.00000   0.00000   0.00000
    d2        0.00000   0.00000   0.00000   0.00000   0.00000   0.00000
         Item               Value     Threshold  Converged?
 Maximum Force            0.003234     0.000450     NO 
 RMS     Force            0.001156     0.000300     NO 
 Maximum Displacement     0.012913     0.001800     NO 
 RMS     Displacement     0.004390     0.001200     NO 
 Predicted change in Energy=-2.159697D-05
                       ----------------------------
                       ! Non-Optimized Parameters !
                       ! (Angstroms and Degrees)  !
 ----------------------                            ----------------------
 !      Name          Value   Derivative information (Atomic Units)     !
 ------------------------------------------------------------------------
 !       r1          0.9854   -DE/DX =   -0.0003                        !
 !       r2          1.4269   -DE/DX =   -0.0032                        !
 !       r3          1.3799   -DE/DX =   -0.0005                        !
 !       r4          1.1952   -DE/DX =    0.0                           !
 !       a1        100.6014   -DE/DX =   -0.0008                        !
 !       a2        113.1855   -DE/DX =    0.0                           !
 !       a3        114.3337   -DE/DX =    0.0008                        !
 !       d1          0.0      -DE/DX =    0.0                           !
 !       d2          0.0      -DE/DX =    0.0                           !
 ------------------------------------------------------------------------
 GradGradGradGradGradGradGradGradGradGradGradGradGradGradGradGradGradGrad

 Leave Link  103 at Sun Mar  6 18:56:47 2022, MaxMem= 16106127360 cpu:               0.5 elap:               0.0
 (Enter /sw/contrib/gaussian/g16/B01/g16/l9999.exe)

 ----------------------------------------------------------------------

 Electric dipole moment (input orientation):
 (Debye = 10**-18 statcoulomb cm , SI units = C m)
                  (au)            (Debye)         (10**-30 SI)
   Tot        0.434277D+00      0.110382D+01      0.368196D+01
   x         -0.107100D+00     -0.272222D+00     -0.908035D+00
   y          0.000000D+00      0.000000D+00      0.000000D+00
   z         -0.420864D+00     -0.106973D+01     -0.356823D+01

 Dipole polarizability, Alpha (input orientation).
 (esu units = cm**3 , SI units = C**2 m**2 J**-1)
 Alpha(0;0):
               (au)            (10**-24 esu)      (10**-40 SI)
   iso        0.261784D+02      0.387924D+01      0.431624D+01
   aniso      0.146856D+02      0.217618D+01      0.242133D+01
   xx         0.292918D+02      0.434060D+01      0.482956D+01
   yx         0.000000D+00      0.000000D+00      0.000000D+00
   yy         0.176390D+02      0.261383D+01      0.290828D+01
   zx        -0.398258D+01     -0.590157D+00     -0.656639D+00
   zy         0.000000D+00      0.000000D+00      0.000000D+00
   zz         0.316045D+02      0.468330D+01      0.521088D+01

 ----------------------------------------------------------------------

 Dipole orientation:
     1         -0.00000000          0.00000000          0.00000000
     8         -0.45922443          0.00000000         -1.80457736
     8          1.99807059         -0.00000000         -2.94589075
     7          3.93916068         -0.00000000         -1.20123419
     8          3.25588602          0.00000000          0.95071848

 Electric dipole moment (dipole orientation):
 (Debye = 10**-18 statcoulomb cm , SI units = C m)
                  (au)            (Debye)         (10**-30 SI)
   Tot        0.434277D+00      0.110382D+01      0.368196D+01
   x          0.000000D+00      0.000000D+00      0.000000D+00
   y          0.000000D+00      0.000000D+00      0.000000D+00
   z          0.434277D+00      0.110382D+01      0.368196D+01

 Dipole polarizability, Alpha (dipole orientation).
 (esu units = cm**3 , SI units = C**2 m**2 J**-1)
 Alpha(0;0):
               (au)            (10**-24 esu)      (10**-40 SI)
   iso        0.261784D+02      0.387924D+01      0.431624D+01
   aniso      0.146856D+02      0.217618D+01      0.242133D+01
   xx         0.313361D+02      0.464353D+01      0.516663D+01
   yx         0.000000D+00      0.000000D+00      0.000000D+00
   yy         0.176390D+02      0.261383D+01      0.290828D+01
   zx         0.405087D+01      0.600277D+00      0.667898D+00
   zy         0.000000D+00      0.000000D+00      0.000000D+00
   zz         0.295602D+02      0.438036D+01      0.487381D+01

 ----------------------------------------------------------------------
 1\1\GINC-N2398\Freq\RMP2-FC\Aug-CC-pVTZ\H1N1O3\CGAVINH\06-Mar-2022\1\\
 #p freq mp2/aug-cc-pvtz density=current\\title\\0,1\H\O,1,r1\O,2,r2,1,
 a1\N,3,r3,2,a2,1,d1,0\O,4,r4,3,a3,2,d2,0\\r1=0.98537664\r2=1.4337573\r
 3=1.38110764\r4=1.19478846\a1=100.6355057\a2=113.13777052\a3=114.33392
 022\d1=0.\d2=0.\\Version=ES64L-G16RevB.01\State=1-A'\HF=-279.5059803\M
 P2=-280.4552195\RMSD=4.553e-09\RMSF=1.059e-03\ZeroPoint=0.0233638\Ther
 mal=0.0273083\Dipole=-0.1071004,0.,-0.4208637\DipoleDeriv=0.3168333,0.
 ,0.0376133,0.,0.2983962,0.,-0.022203,0.,0.1990537,-0.5292503,0.,0.2745
 728,0.,-0.2553086,0.,-0.1052411,0.,-0.1280305,0.0040353,0.,0.343174,0.
 ,-0.0110835,0.,0.4383405,0.,-0.9168751,0.1995229,0.,-0.1412621,0.,0.01
 3323,0.,-0.6631919,0.,1.7143018,0.0088588,0.,-0.514098,0.,-0.0453272,0
 .,0.3522955,0.,-0.8684499\Polar=29.2917943,0.,17.639032,-3.982579,0.,3
 1.6044824\Quadrupole=0.1598765,0.6006565,-0.760533,0.,1.4158416,0.\PG=
 CS [SG(H1N1O3)]\NImag=0\\0.07127979,0.,0.00608995,0.02349039,0.,0.4374
 5211,-0.05192079,0.,-0.00487969,0.27132763,0.,-0.00232161,0.,0.,0.0129
 7519,0.03189127,0.,-0.42153576,-0.01378787,0.,0.52258596,-0.02442726,0
 .,-0.01515622,-0.16146825,0.,-0.08853152,0.29295485,0.,-0.00432129,0.,
 0.,-0.01972739,0.,0.,0.04176576,-0.04342985,0.,-0.01938935,0.01164570,
 0.,-0.09612773,0.07950043,0.,0.31536522,-0.00531300,0.,0.00616070,-0.0
 8316067,0.,0.04003158,-0.14349868,0.,-0.03564676,0.55233536,0.,0.00794
 050,0.,0.,0.01955037,0.,0.,-0.04767785,0.,0.,0.05770971,-0.01885060,0.
 ,0.01169110,0.01123231,0.,-0.00993618,0.01461198,0.,-0.02517636,0.2440
 5458,0.,0.44833624,0.01038126,0.,-0.00961518,0.02522208,0.,0.03039653,
 0.03643933,0.,-0.01206952,-0.32036301,0.,-0.25104826,0.24832033,0.,-0.
 00738756,0.,0.,-0.01047657,0.,0.,0.02996077,0.,0.,-0.03752274,0.,0.,0.
 02542610,0.00689878,0.,-0.00821809,-0.00421045,0.,0.00501371,0.0095753
 3,0.,-0.17467178,-0.25460010,0.,-0.42491480,0.24233643,0.,0.60279097\\
 -0.00042001,0.,-0.00026227,-0.00270699,0.,-0.00060643,0.00259414,0.,0.
 00107512,0.00084336,0.,-0.00039805,-0.00031051,0.,0.00019163\\\@


 SCIENCE AND PEACE WILL TRIUMPH OVER IGNORANCE AND WAR

                          -- PASTEUR
 Job cpu time:       0 days  2 hours  1 minutes 41.9 seconds.
 Elapsed time:       0 days  0 hours  4 minutes 24.1 seconds.
 File lengths (MBytes):  RWF=   7239 Int=      0 D2E=      0 Chk=      8 Scr=      1
 Normal termination of Gaussian 16 at Sun Mar  6 18:56:48 2022.
