 Entering Gaussian System, Link 0=g16
 Input=hoono_d1_168p3907.gjf
 Output=hoono_d1_168p3907.log
 Initial command:
 /sw/contrib/gaussian/g16/B01/g16/l1.exe "/scr/Gau-5679.inp" -scrdir="/scr/"
 Entering Link 1 = /sw/contrib/gaussian/g16/B01/g16/l1.exe PID=      5680.
  
 Copyright (c) 1988-2017, Gaussian, Inc.  All Rights Reserved.
  
 This is part of the Gaussian(R) 16 program.  It is based on
 the Gaussian(R) 09 system (copyright 2009, Gaussian, Inc.),
 the Gaussian(R) 03 system (copyright 2003, Gaussian, Inc.),
 the Gaussian(R) 98 system (copyright 1998, Gaussian, Inc.),
 the Gaussian(R) 94 system (copyright 1995, Gaussian, Inc.),
 the Gaussian 92(TM) system (copyright 1992, Gaussian, Inc.),
 the Gaussian 90(TM) system (copyright 1990, Gaussian, Inc.),
 the Gaussian 88(TM) system (copyright 1988, Gaussian, Inc.),
 the Gaussian 86(TM) system (copyright 1986, Carnegie Mellon
 University), and the Gaussian 82(TM) system (copyright 1983,
 Carnegie Mellon University). Gaussian is a federally registered
 trademark of Gaussian, Inc.
  
 This software contains proprietary and confidential information,
 including trade secrets, belonging to Gaussian, Inc.
  
 This software is provided under written license and may be
 used, copied, transmitted, or stored only in accord with that
 written license.
  
 The following legend is applicable only to US Government
 contracts under FAR:
  
                    RESTRICTED RIGHTS LEGEND
  
 Use, reproduction and disclosure by the US Government is
 subject to restrictions as set forth in subparagraphs (a)
 and (c) of the Commercial Computer Software - Restricted
 Rights clause in FAR 52.227-19.
  
 Gaussian, Inc.
 340 Quinnipiac St., Bldg. 40, Wallingford CT 06492
  
  
 ---------------------------------------------------------------
 Warning -- This program may not be used in any manner that
 competes with the business of Gaussian, Inc. or will provide
 assistance to any competitor of Gaussian, Inc.  The licensee
 of this program is prohibited from giving any competitor of
 Gaussian, Inc. access to this program.  By using this program,
 the user acknowledges that Gaussian, Inc. is engaged in the
 business of creating and licensing software in the field of
 computational chemistry and represents and warrants to the
 licensee that it is not a competitor of Gaussian, Inc. and that
 it will not use this program in any manner prohibited above.
 ---------------------------------------------------------------
  

 Cite this work as:
 Gaussian 16, Revision B.01,
 M. J. Frisch, G. W. Trucks, H. B. Schlegel, G. E. Scuseria, 
 M. A. Robb, J. R. Cheeseman, G. Scalmani, V. Barone, 
 G. A. Petersson, H. Nakatsuji, X. Li, M. Caricato, A. V. Marenich, 
 J. Bloino, B. G. Janesko, R. Gomperts, B. Mennucci, H. P. Hratchian, 
 J. V. Ortiz, A. F. Izmaylov, J. L. Sonnenberg, D. Williams-Young, 
 F. Ding, F. Lipparini, F. Egidi, J. Goings, B. Peng, A. Petrone, 
 T. Henderson, D. Ranasinghe, V. G. Zakrzewski, J. Gao, N. Rega, 
 G. Zheng, W. Liang, M. Hada, M. Ehara, K. Toyota, R. Fukuda, 
 J. Hasegawa, M. Ishida, T. Nakajima, Y. Honda, O. Kitao, H. Nakai, 
 T. Vreven, K. Throssell, J. A. Montgomery, Jr., J. E. Peralta, 
 F. Ogliaro, M. J. Bearpark, J. J. Heyd, E. N. Brothers, K. N. Kudin, 
 V. N. Staroverov, T. A. Keith, R. Kobayashi, J. Normand, 
 K. Raghavachari, A. P. Rendell, J. C. Burant, S. S. Iyengar, 
 J. Tomasi, M. Cossi, J. M. Millam, M. Klene, C. Adamo, R. Cammi, 
 J. W. Ochterski, R. L. Martin, K. Morokuma, O. Farkas, 
 J. B. Foresman, and D. J. Fox, Gaussian, Inc., Wallingford CT, 2016.
 
 ******************************************
 Gaussian 16:  ES64L-G16RevB.01 20-Dec-2017
                21-Feb-2022 
 ******************************************
 %nproc=28
 Will use up to   28 processors via shared memory.
 %mem=120GB
 %chk=hoono_d1_168p3907.chk
 ---------------------------------------
 #p freq mp2/aug-cc-pvtz density=current
 ---------------------------------------
 1/10=4,30=1,38=1/1,3;
 2/12=2,17=6,18=5,40=1/2;
 3/5=16,6=1,7=10,11=9,25=1,30=1,71=2,140=1/1,2,3;
 4//1;
 5/5=2,38=5,98=1/2;
 8/6=3,8=1,10=1,19=11,30=-1/1;
 9/15=3,16=-3/6;
 11/6=1,8=1,15=11,17=12,24=-1,27=1,28=-2,29=300,32=6,42=3/1,2,10;
 10/6=2,21=1/2;
 8/6=4,8=1,10=1,19=11,30=-1/11,4;
 10/5=1,20=4/2;
 11/12=2,14=11,16=1,17=2,28=-2,42=3,76=2/2,10,12;
 6/7=2,8=2,9=2,10=2,22=-1/1;
 7/8=1,10=1,12=2,25=1,44=2/1,2,3,16;
 1/10=4,30=1/3;
 99//99;
 Leave Link    1 at Mon Feb 21 21:04:50 2022, MaxMem= 16106127360 cpu:               2.0 elap:               0.1
 (Enter /sw/contrib/gaussian/g16/B01/g16/l101.exe)
 -----
 title
 -----
 Symbolic Z-matrix:
 Charge =  0 Multiplicity = 1
 H
 O                    1    r1
 O                    2    r2       1    a1
 N                    3    r3       2    a2       1    d1       0
 O                    4    r4       3    a3       2    d2       0
       Variables:
  r1                    0.96898                  
  r2                    1.45492                  
  r3                    1.45878                  
  r4                    1.17073                  
  a1                   97.59495                  
  a2                  102.29752                  
  a3                  109.06955                  
  d1                  168.39073                  
  d2                  180.                       
 
 ITRead=  0  0  0  0  0
 MicOpt= -1 -1 -1 -1 -1
 NAtoms=      5 NQM=        5 NQMF=       0 NMMI=      0 NMMIF=      0
                NMic=       0 NMicF=      0.
                    Isotopes and Nuclear Properties:
 (Nuclear quadrupole moments (NQMom) in fm**2, nuclear magnetic moments (NMagM)
  in nuclear magnetons)

  Atom         1           2           3           4           5
 IAtWgt=           1          16          16          14          16
 AtmWgt=   1.0078250  15.9949146  15.9949146  14.0030740  15.9949146
 NucSpn=           1           0           0           2           0
 AtZEff=  -0.0000000  -0.0000000  -0.0000000  -0.0000000  -0.0000000
 NQMom=    0.0000000   0.0000000   0.0000000   2.0440000   0.0000000
 NMagM=    2.7928460   0.0000000   0.0000000   0.4037610   0.0000000
 AtZNuc=   1.0000000   8.0000000   8.0000000   7.0000000   8.0000000
 Leave Link  101 at Mon Feb 21 21:04:50 2022, MaxMem= 16106127360 cpu:               2.9 elap:               0.1
 (Enter /sw/contrib/gaussian/g16/B01/g16/l103.exe)

 GradGradGradGradGradGradGradGradGradGradGradGradGradGradGradGradGradGrad
 Berny optimization.
 Initialization pass.
                       ----------------------------
                       !    Initial Parameters    !
                       ! (Angstroms and Degrees)  !
 ----------------------                            ----------------------
 !      Name          Value   Derivative information (Atomic Units)     !
 ------------------------------------------------------------------------
 !       r1          0.969    calculate D2E/DX2 analytically            !
 !       r2          1.4549   calculate D2E/DX2 analytically            !
 !       r3          1.4588   calculate D2E/DX2 analytically            !
 !       r4          1.1707   calculate D2E/DX2 analytically            !
 !       a1         97.5949   calculate D2E/DX2 analytically            !
 !       a2        102.2975   calculate D2E/DX2 analytically            !
 !       a3        109.0696   calculate D2E/DX2 analytically            !
 !       d1        168.3907   calculate D2E/DX2 analytically            !
 !       d2        180.0      calculate D2E/DX2 analytically            !
 ------------------------------------------------------------------------
 Trust Radius=3.00D-01 FncErr=1.00D-07 GrdErr=1.00D-07 EigMax=2.50D+02 EigMin=1.00D-04
 Number of steps in this run=      2 maximum allowed number of steps=      2.
 GradGradGradGradGradGradGradGradGradGradGradGradGradGradGradGradGradGrad

 Leave Link  103 at Mon Feb 21 21:04:50 2022, MaxMem= 16106127360 cpu:               0.5 elap:               0.0
 (Enter /sw/contrib/gaussian/g16/B01/g16/l202.exe)
                          Input orientation:                          
 ---------------------------------------------------------------------
 Center     Atomic      Atomic             Coordinates (Angstroms)
 Number     Number       Type             X           Y           Z
 ---------------------------------------------------------------------
      1          1           0        0.000000    0.000000    0.000000
      2          8           0        0.000000    0.000000    0.968976
      3          8           0        1.442156    0.000000    1.161271
      4          7           0        1.565605    0.286825    2.586242
      5          8           0        2.700094    0.314605    2.873937
 ---------------------------------------------------------------------
                    Distance matrix (angstroms):
                    1          2          3          4          5
     1  H    0.000000
     2  O    0.968976   0.000000
     3  O    1.851584   1.454919   0.000000
     4  N    3.036780   2.269127   1.458784   0.000000
     5  O    3.955882   3.319392   2.148165   1.170729   0.000000
 Stoichiometry    HNO3
 Framework group  C1[X(HNO3)]
 Deg. of freedom     9
 Full point group                 C1      NOp   1
 Largest Abelian subgroup         C1      NOp   1
 Largest concise Abelian subgroup C1      NOp   1
                         Standard orientation:                         
 ---------------------------------------------------------------------
 Center     Atomic      Atomic             Coordinates (Angstroms)
 Number     Number       Type             X           Y           Z
 ---------------------------------------------------------------------
      1          1           0       -2.239196    0.423789    0.161559
      2          8           0       -1.599330   -0.282327   -0.014184
      3          8           0       -0.400183    0.541576   -0.018780
      4          7           0        0.662964   -0.456965    0.007368
      5          8           0        1.699319    0.087622    0.006323
 ---------------------------------------------------------------------
 Rotational constants (GHZ):          54.8355407           5.0118270           4.5949806
 Leave Link  202 at Mon Feb 21 21:04:50 2022, MaxMem= 16106127360 cpu:               0.3 elap:               0.0
 (Enter /sw/contrib/gaussian/g16/B01/g16/l301.exe)
 Standard basis: Aug-CC-pVTZ (5D, 7F)
 Ernie: Thresh=  0.10000D-02 Tol=  0.10000D-05 Strict=F.
 Ernie:  12 primitive shells out of 131 were deleted.
 There are   245 symmetry adapted cartesian basis functions of A   symmetry.
 There are   207 symmetry adapted basis functions of A   symmetry.
   207 basis functions,   315 primitive gaussians,   245 cartesian basis functions
    16 alpha electrons       16 beta electrons
       nuclear repulsion energy       116.8777935090 Hartrees.
 IExCor=    0 DFT=F Ex=HF Corr=None ExCW=0 ScaHFX=  1.000000
 ScaDFX=  1.000000  1.000000  1.000000  1.000000 ScalE2=  1.000000  1.000000
 IRadAn=      5 IRanWt=     -1 IRanGd=            0 ICorTp=0 IEmpDi=  4
 NAtoms=    5 NActive=    5 NUniq=    5 SFac= 1.00D+00 NAtFMM=   60 NAOKFM=F Big=F
 Integral buffers will be    131072 words long.
 Raffenetti 1 integral format.
 Two-electron integral symmetry is turned on.
 Leave Link  301 at Mon Feb 21 21:04:50 2022, MaxMem= 16106127360 cpu:               1.4 elap:               0.1
 (Enter /sw/contrib/gaussian/g16/B01/g16/l302.exe)
 NPDir=0 NMtPBC=     1 NCelOv=     1 NCel=       1 NClECP=     1 NCelD=      1
         NCelK=      1 NCelE2=     1 NClLst=     1 CellRange=     0.0.
 One-electron integrals computed using PRISM.
 One-electron integral symmetry used in STVInt
 NBasis=   207 RedAO= T EigKep=  1.83D-04  NBF=   207
 NBsUse=   207 1.00D-06 EigRej= -1.00D+00 NBFU=   207
 Leave Link  302 at Mon Feb 21 21:04:50 2022, MaxMem= 16106127360 cpu:               6.1 elap:               0.3
 (Enter /sw/contrib/gaussian/g16/B01/g16/l303.exe)
 DipDrv:  MaxL=1.
 Leave Link  303 at Mon Feb 21 21:04:51 2022, MaxMem= 16106127360 cpu:               3.9 elap:               0.2
 (Enter /sw/contrib/gaussian/g16/B01/g16/l401.exe)
 ExpMin= 2.53D-02 ExpMax= 1.53D+04 ExpMxC= 5.22D+02 IAcc=3 IRadAn=         5 AccDes= 0.00D+00
 Harris functional with IExCor=  205 and IRadAn=       5 diagonalized for initial guess.
 HarFok:  IExCor=  205 AccDes= 0.00D+00 IRadAn=         5 IDoV= 1 UseB2=F ITyADJ=14
 ICtDFT=  3500011 ScaDFX=  1.000000  1.000000  1.000000  1.000000
 FoFCou: FMM=F IPFlag=           0 FMFlag=      100000 FMFlg1=           0
         NFxFlg=           0 DoJE=T BraDBF=F KetDBF=T FulRan=T
         wScrn=  0.000000 ICntrl=       500 IOpCl=  0 I1Cent=   200000004 NGrid=           0
         NMat0=    1 NMatS0=      1 NMatT0=    0 NMatD0=    1 NMtDS0=    0 NMtDT0=    0
 Petite list used in FoFCou.
 Harris En= -279.628771361778    
 JPrj=0 DoOrth=F DoCkMO=F.
 Leave Link  401 at Mon Feb 21 21:04:51 2022, MaxMem= 16106127360 cpu:               8.3 elap:               0.3
 (Enter /sw/contrib/gaussian/g16/B01/g16/l502.exe)
 Keep R1 ints in memory in canonical form, NReq=245616937.
 FoFCou: FMM=F IPFlag=           0 FMFlag=           0 FMFlg1=           0
         NFxFlg=           0 DoJE=F BraDBF=F KetDBF=F FulRan=T
         wScrn=  0.000000 ICntrl=       600 IOpCl=  0 I1Cent=           0 NGrid=           0
         NMat0=    1 NMatS0=  21528 NMatT0=    0 NMatD0=    1 NMtDS0=    0 NMtDT0=    0
 Symmetry not used in FoFCou.
 Two-electron integral symmetry not used.
 Closed shell SCF:
 Using DIIS extrapolation, IDIIS=  1040.
 NGot= 16106127360 LenX= 15874260251 LenY= 15874199785
 Requested convergence on RMS density matrix=1.00D-08 within 128 cycles.
 Requested convergence on MAX density matrix=1.00D-06.
 Requested convergence on             energy=1.00D-06.
 No special actions if energy rises.

 Cycle   1  Pass 1  IDiag  1:
 E= -279.370630752711    
 DIIS: error= 2.30D-02 at cycle   1 NSaved=   1.
 NSaved= 1 IEnMin= 1 EnMin= -279.370630752711     IErMin= 1 ErrMin= 2.30D-02
 ErrMax= 2.30D-02  0.00D+00 EMaxC= 1.00D-01 BMatC= 4.38D-01 BMatP= 4.38D-01
 IDIUse=3 WtCom= 7.70D-01 WtEn= 2.30D-01
 Coeff-Com:  0.100D+01
 Coeff-En:   0.100D+01
 Coeff:      0.100D+01
 Gap=     0.518 Goal=   None    Shift=    0.000
 GapD=    0.518 DampG=2.000 DampE=0.500 DampFc=1.0000 IDamp=-1.
 RMSDP=1.62D-03 MaxDP=9.91D-02              OVMax= 1.12D-01

 Cycle   2  Pass 1  IDiag  1:
 E= -279.452556475420     Delta-E=       -0.081925722709 Rises=F Damp=F
 DIIS: error= 1.70D-02 at cycle   2 NSaved=   2.
 NSaved= 2 IEnMin= 2 EnMin= -279.452556475420     IErMin= 2 ErrMin= 1.70D-02
 ErrMax= 1.70D-02  0.00D+00 EMaxC= 1.00D-01 BMatC= 7.18D-02 BMatP= 4.38D-01
 IDIUse=3 WtCom= 8.30D-01 WtEn= 1.70D-01
 Coeff-Com:  0.195D+00 0.805D+00
 Coeff-En:   0.000D+00 0.100D+01
 Coeff:      0.162D+00 0.838D+00
 Gap=     0.531 Goal=   None    Shift=    0.000
 RMSDP=8.99D-04 MaxDP=3.73D-02 DE=-8.19D-02 OVMax= 6.66D-02

 Cycle   3  Pass 1  IDiag  1:
 E= -279.481834870609     Delta-E=       -0.029278395190 Rises=F Damp=F
 DIIS: error= 9.79D-03 at cycle   3 NSaved=   3.
 NSaved= 3 IEnMin= 3 EnMin= -279.481834870609     IErMin= 3 ErrMin= 9.79D-03
 ErrMax= 9.79D-03  0.00D+00 EMaxC= 1.00D-01 BMatC= 2.85D-02 BMatP= 7.18D-02
 IDIUse=3 WtCom= 9.02D-01 WtEn= 9.79D-02
 Coeff-Com: -0.330D-01 0.377D+00 0.656D+00
 Coeff-En:   0.000D+00 0.238D+00 0.762D+00
 Coeff:     -0.298D-01 0.363D+00 0.666D+00
 Gap=     0.509 Goal=   None    Shift=    0.000
 RMSDP=3.74D-04 MaxDP=1.54D-02 DE=-2.93D-02 OVMax= 3.77D-02

 Cycle   4  Pass 1  IDiag  1:
 E= -279.500737830813     Delta-E=       -0.018902960204 Rises=F Damp=F
 DIIS: error= 1.23D-03 at cycle   4 NSaved=   4.
 NSaved= 4 IEnMin= 4 EnMin= -279.500737830813     IErMin= 4 ErrMin= 1.23D-03
 ErrMax= 1.23D-03  0.00D+00 EMaxC= 1.00D-01 BMatC= 4.86D-04 BMatP= 2.85D-02
 IDIUse=3 WtCom= 9.88D-01 WtEn= 1.23D-02
 Coeff-Com: -0.117D-01 0.576D-01 0.158D+00 0.796D+00
 Coeff-En:   0.000D+00 0.000D+00 0.000D+00 0.100D+01
 Coeff:     -0.115D-01 0.569D-01 0.156D+00 0.799D+00
 Gap=     0.501 Goal=   None    Shift=    0.000
 RMSDP=8.99D-05 MaxDP=2.18D-03 DE=-1.89D-02 OVMax= 1.08D-02

 Cycle   5  Pass 1  IDiag  1:
 E= -279.501406961469     Delta-E=       -0.000669130655 Rises=F Damp=F
 DIIS: error= 6.97D-04 at cycle   5 NSaved=   5.
 NSaved= 5 IEnMin= 5 EnMin= -279.501406961469     IErMin= 5 ErrMin= 6.97D-04
 ErrMax= 6.97D-04  0.00D+00 EMaxC= 1.00D-01 BMatC= 8.68D-05 BMatP= 4.86D-04
 IDIUse=3 WtCom= 9.93D-01 WtEn= 6.97D-03
 Coeff-Com:  0.612D-02-0.721D-01-0.118D+00 0.202D-01 0.116D+01
 Coeff-En:   0.000D+00 0.000D+00 0.000D+00 0.000D+00 0.100D+01
 Coeff:      0.608D-02-0.716D-01-0.117D+00 0.200D-01 0.116D+01
 Gap=     0.501 Goal=   None    Shift=    0.000
 RMSDP=7.60D-05 MaxDP=2.09D-03 DE=-6.69D-04 OVMax= 1.09D-02

 Cycle   6  Pass 1  IDiag  1:
 E= -279.501720326289     Delta-E=       -0.000313364821 Rises=F Damp=F
 DIIS: error= 2.81D-04 at cycle   6 NSaved=   6.
 NSaved= 6 IEnMin= 6 EnMin= -279.501720326289     IErMin= 6 ErrMin= 2.81D-04
 ErrMax= 2.81D-04  0.00D+00 EMaxC= 1.00D-01 BMatC= 1.66D-05 BMatP= 8.68D-05
 IDIUse=3 WtCom= 9.97D-01 WtEn= 2.81D-03
 Coeff-Com:  0.596D-03 0.152D-02 0.458D-02-0.130D+00-0.230D+00 0.135D+01
 Coeff-En:   0.000D+00 0.000D+00 0.000D+00 0.000D+00 0.000D+00 0.100D+01
 Coeff:      0.595D-03 0.151D-02 0.457D-02-0.129D+00-0.229D+00 0.135D+01
 Gap=     0.501 Goal=   None    Shift=    0.000
 RMSDP=4.51D-05 MaxDP=1.05D-03 DE=-3.13D-04 OVMax= 5.51D-03

 Cycle   7  Pass 1  IDiag  1:
 E= -279.501792522066     Delta-E=       -0.000072195777 Rises=F Damp=F
 DIIS: error= 9.78D-05 at cycle   7 NSaved=   7.
 NSaved= 7 IEnMin= 7 EnMin= -279.501792522066     IErMin= 7 ErrMin= 9.78D-05
 ErrMax= 9.78D-05  0.00D+00 EMaxC= 1.00D-01 BMatC= 4.49D-06 BMatP= 1.66D-05
 IDIUse=1 WtCom= 1.00D+00 WtEn= 0.00D+00
 Coeff-Com: -0.935D-03 0.135D-01 0.265D-01-0.242D-01-0.287D+00 0.390D+00
 Coeff-Com:  0.882D+00
 Coeff:     -0.935D-03 0.135D-01 0.265D-01-0.242D-01-0.287D+00 0.390D+00
 Coeff:      0.882D+00
 Gap=     0.501 Goal=   None    Shift=    0.000
 RMSDP=1.32D-05 MaxDP=3.77D-04 DE=-7.22D-05 OVMax= 1.54D-03

 Cycle   8  Pass 1  IDiag  1:
 E= -279.501801379961     Delta-E=       -0.000008857895 Rises=F Damp=F
 DIIS: error= 4.74D-05 at cycle   8 NSaved=   8.
 NSaved= 8 IEnMin= 8 EnMin= -279.501801379961     IErMin= 8 ErrMin= 4.74D-05
 ErrMax= 4.74D-05  0.00D+00 EMaxC= 1.00D-01 BMatC= 6.05D-07 BMatP= 4.49D-06
 IDIUse=1 WtCom= 1.00D+00 WtEn= 0.00D+00
 Coeff-Com: -0.449D-03 0.345D-02 0.761D-02 0.274D-01-0.411D-01-0.197D+00
 Coeff-Com:  0.172D+00 0.103D+01
 Coeff:     -0.449D-03 0.345D-02 0.761D-02 0.274D-01-0.411D-01-0.197D+00
 Coeff:      0.172D+00 0.103D+01
 Gap=     0.501 Goal=   None    Shift=    0.000
 RMSDP=6.89D-06 MaxDP=2.02D-04 DE=-8.86D-06 OVMax= 7.46D-04

 Cycle   9  Pass 1  IDiag  1:
 E= -279.501803150334     Delta-E=       -0.000001770373 Rises=F Damp=F
 DIIS: error= 1.55D-05 at cycle   9 NSaved=   9.
 NSaved= 9 IEnMin= 9 EnMin= -279.501803150334     IErMin= 9 ErrMin= 1.55D-05
 ErrMax= 1.55D-05  0.00D+00 EMaxC= 1.00D-01 BMatC= 6.91D-08 BMatP= 6.05D-07
 IDIUse=1 WtCom= 1.00D+00 WtEn= 0.00D+00
 Coeff-Com:  0.123D-03-0.172D-02-0.308D-02-0.204D-02 0.342D-01-0.408D-04
 Coeff-Com: -0.167D+00-0.102D+00 0.124D+01
 Coeff:      0.123D-03-0.172D-02-0.308D-02-0.204D-02 0.342D-01-0.408D-04
 Coeff:     -0.167D+00-0.102D+00 0.124D+01
 Gap=     0.501 Goal=   None    Shift=    0.000
 RMSDP=1.94D-06 MaxDP=5.16D-05 DE=-1.77D-06 OVMax= 1.71D-04

 Cycle  10  Pass 1  IDiag  1:
 E= -279.501803310656     Delta-E=       -0.000000160322 Rises=F Damp=F
 DIIS: error= 3.93D-06 at cycle  10 NSaved=  10.
 NSaved=10 IEnMin=10 EnMin= -279.501803310656     IErMin=10 ErrMin= 3.93D-06
 ErrMax= 3.93D-06  0.00D+00 EMaxC= 1.00D-01 BMatC= 5.56D-09 BMatP= 6.91D-08
 IDIUse=1 WtCom= 1.00D+00 WtEn= 0.00D+00
 Coeff-Com:  0.310D-04-0.243D-03-0.324D-03-0.270D-02 0.165D-02 0.196D-01
 Coeff-Com: -0.130D-01-0.744D-01-0.809D-01 0.115D+01
 Coeff:      0.310D-04-0.243D-03-0.324D-03-0.270D-02 0.165D-02 0.196D-01
 Coeff:     -0.130D-01-0.744D-01-0.809D-01 0.115D+01
 Gap=     0.501 Goal=   None    Shift=    0.000
 RMSDP=5.09D-07 MaxDP=2.10D-05 DE=-1.60D-07 OVMax= 4.06D-05

 Cycle  11  Pass 1  IDiag  1:
 E= -279.501803323384     Delta-E=       -0.000000012728 Rises=F Damp=F
 DIIS: error= 1.77D-06 at cycle  11 NSaved=  11.
 NSaved=11 IEnMin=11 EnMin= -279.501803323384     IErMin=11 ErrMin= 1.77D-06
 ErrMax= 1.77D-06  0.00D+00 EMaxC= 1.00D-01 BMatC= 6.75D-10 BMatP= 5.56D-09
 IDIUse=1 WtCom= 1.00D+00 WtEn= 0.00D+00
 Coeff-Com: -0.215D-04 0.246D-03 0.491D-03 0.542D-03-0.431D-02-0.365D-02
 Coeff-Com:  0.213D-01 0.313D-01-0.139D+00-0.182D+00 0.128D+01
 Coeff:     -0.215D-04 0.246D-03 0.491D-03 0.542D-03-0.431D-02-0.365D-02
 Coeff:      0.213D-01 0.313D-01-0.139D+00-0.182D+00 0.128D+01
 Gap=     0.501 Goal=   None    Shift=    0.000
 RMSDP=1.84D-07 MaxDP=6.51D-06 DE=-1.27D-08 OVMax= 1.67D-05

 Cycle  12  Pass 1  IDiag  1:
 E= -279.501803325307     Delta-E=       -0.000000001923 Rises=F Damp=F
 DIIS: error= 5.43D-07 at cycle  12 NSaved=  12.
 NSaved=12 IEnMin=12 EnMin= -279.501803325307     IErMin=12 ErrMin= 5.43D-07
 ErrMax= 5.43D-07  0.00D+00 EMaxC= 1.00D-01 BMatC= 7.87D-11 BMatP= 6.75D-10
 IDIUse=1 WtCom= 1.00D+00 WtEn= 0.00D+00
 Coeff-Com:  0.140D-05-0.311D-04-0.680D-04 0.184D-03 0.113D-02-0.232D-02
 Coeff-Com: -0.433D-02 0.535D-02 0.435D-01-0.115D+00-0.294D+00 0.137D+01
 Coeff:      0.140D-05-0.311D-04-0.680D-04 0.184D-03 0.113D-02-0.232D-02
 Coeff:     -0.433D-02 0.535D-02 0.435D-01-0.115D+00-0.294D+00 0.137D+01
 Gap=     0.501 Goal=   None    Shift=    0.000
 RMSDP=7.99D-08 MaxDP=2.83D-06 DE=-1.92D-09 OVMax= 8.53D-06

 Cycle  13  Pass 1  IDiag  1:
 E= -279.501803325592     Delta-E=       -0.000000000285 Rises=F Damp=F
 DIIS: error= 1.70D-07 at cycle  13 NSaved=  13.
 NSaved=13 IEnMin=13 EnMin= -279.501803325592     IErMin=13 ErrMin= 1.70D-07
 ErrMax= 1.70D-07  0.00D+00 EMaxC= 1.00D-01 BMatC= 6.78D-12 BMatP= 7.87D-11
 IDIUse=1 WtCom= 1.00D+00 WtEn= 0.00D+00
 Coeff-Com:  0.140D-05-0.146D-04-0.234D-04-0.104D-03 0.100D-03 0.923D-03
 Coeff-Com: -0.793D-03-0.387D-02-0.653D-03 0.495D-01-0.312D-01-0.397D+00
 Coeff-Com:  0.138D+01
 Coeff:      0.140D-05-0.146D-04-0.234D-04-0.104D-03 0.100D-03 0.923D-03
 Coeff:     -0.793D-03-0.387D-02-0.653D-03 0.495D-01-0.312D-01-0.397D+00
 Coeff:      0.138D+01
 Gap=     0.501 Goal=   None    Shift=    0.000
 RMSDP=2.83D-08 MaxDP=6.12D-07 DE=-2.85D-10 OVMax= 4.08D-06

 Cycle  14  Pass 1  IDiag  1:
 E= -279.501803325624     Delta-E=       -0.000000000033 Rises=F Damp=F
 DIIS: error= 1.06D-07 at cycle  14 NSaved=  14.
 NSaved=14 IEnMin=14 EnMin= -279.501803325624     IErMin=14 ErrMin= 1.06D-07
 ErrMax= 1.06D-07  0.00D+00 EMaxC= 1.00D-01 BMatC= 1.35D-12 BMatP= 6.78D-12
 IDIUse=1 WtCom= 1.00D+00 WtEn= 0.00D+00
 Coeff-Com: -0.568D-06 0.794D-05 0.136D-04 0.236D-04-0.159D-03-0.714D-04
 Coeff-Com:  0.658D-03 0.916D-03-0.412D-02-0.542D-02 0.357D-01 0.162D-01
 Coeff-Com: -0.527D+00 0.148D+01
 Coeff:     -0.568D-06 0.794D-05 0.136D-04 0.236D-04-0.159D-03-0.714D-04
 Coeff:      0.658D-03 0.916D-03-0.412D-02-0.542D-02 0.357D-01 0.162D-01
 Coeff:     -0.527D+00 0.148D+01
 Gap=     0.501 Goal=   None    Shift=    0.000
 RMSDP=1.41D-08 MaxDP=4.02D-07 DE=-3.27D-11 OVMax= 2.50D-06

 Cycle  15  Pass 1  IDiag  1:
 E= -279.501803325634     Delta-E=       -0.000000000009 Rises=F Damp=F
 DIIS: error= 6.68D-08 at cycle  15 NSaved=  15.
 NSaved=15 IEnMin=15 EnMin= -279.501803325634     IErMin=15 ErrMin= 6.68D-08
 ErrMax= 6.68D-08  0.00D+00 EMaxC= 1.00D-01 BMatC= 4.44D-13 BMatP= 1.35D-12
 IDIUse=1 WtCom= 1.00D+00 WtEn= 0.00D+00
 Coeff-Com:  0.914D-07-0.219D-05-0.543D-05 0.937D-05 0.105D-03-0.192D-03
 Coeff-Com: -0.299D-03 0.200D-03 0.356D-02-0.853D-02-0.206D-01 0.991D-01
 Coeff-Com:  0.293D-01-0.123D+01 0.213D+01
 Coeff:      0.914D-07-0.219D-05-0.543D-05 0.937D-05 0.105D-03-0.192D-03
 Coeff:     -0.299D-03 0.200D-03 0.356D-02-0.853D-02-0.206D-01 0.991D-01
 Coeff:      0.293D-01-0.123D+01 0.213D+01
 Gap=     0.501 Goal=   None    Shift=    0.000
 RMSDP=1.37D-08 MaxDP=4.06D-07 DE=-9.32D-12 OVMax= 2.51D-06

 Cycle  16  Pass 1  IDiag  1:
 E= -279.501803325638     Delta-E=       -0.000000000004 Rises=F Damp=F
 DIIS: error= 2.21D-08 at cycle  16 NSaved=  16.
 NSaved=16 IEnMin=16 EnMin= -279.501803325638     IErMin=16 ErrMin= 2.21D-08
 ErrMax= 2.21D-08  0.00D+00 EMaxC= 1.00D-01 BMatC= 5.52D-14 BMatP= 4.44D-13
 IDIUse=1 WtCom= 1.00D+00 WtEn= 0.00D+00
 Coeff-Com:  0.583D-07-0.714D-06-0.213D-06-0.932D-05-0.818D-05 0.812D-04
 Coeff-Com: -0.492D-06-0.267D-03-0.512D-03 0.402D-02 0.575D-03-0.424D-01
 Coeff-Com:  0.116D+00 0.106D+00-0.756D+00 0.157D+01
 Coeff:      0.583D-07-0.714D-06-0.213D-06-0.932D-05-0.818D-05 0.812D-04
 Coeff:     -0.492D-06-0.267D-03-0.512D-03 0.402D-02 0.575D-03-0.424D-01
 Coeff:      0.116D+00 0.106D+00-0.756D+00 0.157D+01
 Gap=     0.501 Goal=   None    Shift=    0.000
 RMSDP=5.09D-09 MaxDP=1.51D-07 DE=-4.26D-12 OVMax= 9.47D-07

 SCF Done:  E(RHF) =  -279.501803326     A.U. after   16 cycles
            NFock= 16  Conv=0.51D-08     -V/T= 2.0024
 KE= 2.788455552590D+02 PE=-8.950817033167D+02 EE= 2.198565512230D+02
 Leave Link  502 at Mon Feb 21 21:04:58 2022, MaxMem= 16106127360 cpu:              42.2 elap:               7.6
 (Enter /sw/contrib/gaussian/g16/B01/g16/l801.exe)
 ExpMin= 2.53D-02 ExpMax= 1.53D+04 ExpMxC= 5.22D+02 IAcc=3 IRadAn=         5 AccDes= 0.00D+00
 HarFok:  IExCor=  205 AccDes= 0.00D+00 IRadAn=         5 IDoV=-2 UseB2=F ITyADJ=14
 ICtDFT= 12500011 ScaDFX=  1.000000  1.000000  1.000000  1.000000
 Largest valence mixing into a core orbital is  2.08D-04
 Largest core mixing into a valence orbital is  3.63D-05
 Range of M.O.s used for correlation:     5   207
 NBasis=   207 NAE=    16 NBE=    16 NFC=     4 NFV=     0
 NROrb=    203 NOA=    12 NOB=    12 NVA=   191 NVB=   191

 **** Warning!!: The largest alpha MO coefficient is  0.17979174D+02

 Leave Link  801 at Mon Feb 21 21:04:59 2022, MaxMem= 16106127360 cpu:               3.6 elap:               0.2
 (Enter /sw/contrib/gaussian/g16/B01/g16/l906.exe)
 Frozen-core derivative calculation, NFC=   4 NFV=   0.
 FulOut=F Deriv=T AODrv=T NAtomX=     5
   MMem=           0  MDisk=          12 MDiskD=          12
  W3Min=      811440 MinDsk=     2425030 NBas6D=         245
 NBas2D=       30762    NTT=       30135    LW2=     7400000
    MDV= 16105638402 MDiskM=      328645 NBas2p=       30702
 Disk-based method using ON**2 memory for 12 occupieds at a time.
 Permanent disk used for amplitudes=    11516536 words.
 Estimated scratch disk usage=   321251614 words.
 IMap=   1   2   3   4   5   6   7   8   9  10  11  12  13  14  15  16
 Actual    scratch disk usage=   310331678 words.
 JobTyp=1 Pass  1:  I=   5 to  16 NPSUse= 28 ParTrn=T ParDer=T DoDerP=T.
 (rs|ai) integrals will be sorted in core.
 Spin components of T(2) and E(2):
     alpha-alpha T2 =       0.3402730227D-01 E2=     -0.1224116203D+00
     alpha-beta  T2 =       0.1868585064D+00 E2=     -0.7002648667D+00
     beta-beta   T2 =       0.3402730227D-01 E2=     -0.1224116203D+00
 The integrals were generated   1 times.
 ANorm=    0.1120229044D+01
 E2 =    -0.9450881073D+00 EUMP2 =    -0.28044689143291D+03
 Leave Link  906 at Mon Feb 21 21:06:37 2022, MaxMem= 16106127360 cpu:            2735.5 elap:              97.9
 (Enter /sw/contrib/gaussian/g16/B01/g16/l1101.exe)
 Using compressed Sx but separate Hx and Fx, NAtomX=     5.
 Will process      6 centers per pass.
 Leave Link 1101 at Mon Feb 21 21:06:37 2022, MaxMem= 16106127360 cpu:               5.2 elap:               0.2
 (Enter /sw/contrib/gaussian/g16/B01/g16/l1102.exe)
 Leave Link 1102 at Mon Feb 21 21:06:37 2022, MaxMem= 16106127360 cpu:               0.7 elap:               0.0
 (Enter /sw/contrib/gaussian/g16/B01/g16/l1110.exe)
 Forming Gx(P) for the SCF density, NAtomX=     5.
 Integral derivatives from FoFJK, PRISM(SPDF).
 Do as many integral derivatives as possible in FoFJK.
 G2DrvN: MDV=   16106126844.
 G2DrvN: will do     6 centers at a time, making    1 passes.
 Calling FoFCou, ICntrl=  3107 FMM=F I1Cent=   0 AccDes= 0.00D+00.
 FoFJK:  IHMeth= 1 ICntrl=    3107 DoSepK=F KAlg= 0 I1Cent=           0 FoldK=F
 IRaf=         0 NMat=       1 IRICut=       1 DoRegI=T DoRafI=F ISym2E= 0 IDoP0=0 IntGTp=1.
 FoFCou: FMM=F IPFlag=           0 FMFlag=      100000 FMFlg1=           0
         NFxFlg=           0 DoJE=F BraDBF=F KetDBF=F FulRan=T
         wScrn=  0.000000 ICntrl=      3107 IOpCl=  0 I1Cent=           0 NGrid=           0
         NMat0=    1 NMatS0=      1 NMatT0=    0 NMatD0=    1 NMtDS0=    0 NMtDT0=    0
 Symmetry not used in FoFCou.
 End of G2Drv F.D. properties file   721 does not exist.
 End of G2Drv F.D. properties file   722 does not exist.
 End of G2Drv F.D. properties file   788 does not exist.
 Leave Link 1110 at Mon Feb 21 21:06:40 2022, MaxMem= 16106127360 cpu:              83.9 elap:               3.0
 (Enter /sw/contrib/gaussian/g16/B01/g16/l1002.exe)
 Minotr:  Closed shell wavefunction.
          IDoAtm=11111
          Frozen-core window.
          Direct CPHF calculation.
          Differentiating once with respect to electric field.
                with respect to dipole field.
          Differentiating once with respect to nuclear coordinates.
          Requested convergence is 1.0D-08 RMS, and 1.0D-07 maximum.
          Secondary convergence is 1.0D-12 RMS, and 1.0D-12 maximum.
          NewPWx=T KeepS1=T KeepF1=T KeepIn=T MapXYZ=F SortEE=F KeepMc=T.
 Keep R1 ints in memory in canonical form, NReq=245618178.
 FoFCou: FMM=F IPFlag=           0 FMFlag=           0 FMFlg1=           0
         NFxFlg=           0 DoJE=F BraDBF=F KetDBF=F FulRan=T
         wScrn=  0.000000 ICntrl=       600 IOpCl=  0 I1Cent=           0 NGrid=           0
         NMat0=    1 NMatS0=  21528 NMatT0=    0 NMatD0=    1 NMtDS0=    0 NMtDT0=    0
 Symmetry not used in FoFCou.
 Two-electron integral symmetry not used.
          MDV=   16106127360 using IRadAn=       1.
          Solving linear equations simultaneously, MaxMat=       0.
          There are    18 degrees of freedom in the 1st order CPHF.  IDoFFX=6 NUNeed=    18.
     15 vectors produced by pass  0 Test12= 1.70D-14 5.56D-09 XBig12= 9.50D+00 1.08D+00.
 AX will form    15 AO Fock derivatives at one time.
     15 vectors produced by pass  1 Test12= 1.70D-14 5.56D-09 XBig12= 1.17D+00 2.18D-01.
     15 vectors produced by pass  2 Test12= 1.70D-14 5.56D-09 XBig12= 1.25D-01 9.18D-02.
     15 vectors produced by pass  3 Test12= 1.70D-14 5.56D-09 XBig12= 4.11D-03 9.11D-03.
     15 vectors produced by pass  4 Test12= 1.70D-14 5.56D-09 XBig12= 7.51D-05 1.56D-03.
     15 vectors produced by pass  5 Test12= 1.70D-14 5.56D-09 XBig12= 1.04D-06 1.62D-04.
     15 vectors produced by pass  6 Test12= 1.70D-14 5.56D-09 XBig12= 1.02D-08 1.28D-05.
     12 vectors produced by pass  7 Test12= 1.70D-14 5.56D-09 XBig12= 8.22D-11 1.14D-06.
      3 vectors produced by pass  8 Test12= 1.70D-14 5.56D-09 XBig12= 7.28D-13 1.20D-07.
      2 vectors produced by pass  9 Test12= 1.70D-14 5.56D-09 XBig12= 4.92D-15 9.81D-09.
 InvSVY:  IOpt=1 It=  1 EMax= 8.88D-16
 Solved reduced A of dimension   122 with    15 vectors.
 FullF1:  Do perturbations      1 to      18.
 Saving first derivative matrices.
 End of Minotr F.D. properties file   721 does not exist.
 End of Minotr F.D. properties file   722 does not exist.
 End of Minotr F.D. properties file   788 does not exist.
 Leave Link 1002 at Mon Feb 21 21:06:44 2022, MaxMem= 16106127360 cpu:             100.0 elap:               3.6
 (Enter /sw/contrib/gaussian/g16/B01/g16/l811.exe)
 MDV= 16106127360.
 Form MO integral derivatives with frozen-active canonical formalism.
 MOERI=1 MOERIx=1 NAtoms=     5 NAtomX=     5.
 Discarding MO integrals.
 MO basis two electron integral derivatives will not be stored on disk.
 IAlg= 3 DoFC=T DoPWx=T Debug=F.
 Frozen-core window:  NFC=   4 NFV=   0.
 Reordered first order wavefunction length =     18678272
 In DefCFB: NBatch=  1 ICI= 16 ICA=191 LFMax= 96
            Large arrays: LIAPS=   619940160 LIARS=   288257200 words.
 In StABat: MaxSiz= 55 MinSiz= 25 NAtomB=  5
 DoIAMN: NPSUse= 28.
 Leave Link  811 at Mon Feb 21 21:08:16 2022, MaxMem= 16106127360 cpu:            2585.9 elap:              92.5
 (Enter /sw/contrib/gaussian/g16/B01/g16/l804.exe)
 Frozen-core window:  NFC=   4 NFV=   0.
 Closed-shell transformation, MDV= 16106127360 ITran=4 ISComp=1.
 Semi-Direct transformation.
 ModeAB=           2 MOrb=            16 LenV=   16104925821
 LASXX=     67341636 LTotXX=    67341636 LenRXX=    67341636
 LTotAB=    68301760 MaxLAS=    99807120 LenRXY=    99807120
 NonZer=   134683272 LenScr=   202817536 LnRSAI=           0
 LnScr1=           0 LExtra=           0 Total=    369966292
 MaxDsk=          -1 SrtSym=           F ITran=            4
 DoSDTr:  NPSUse= 28
 JobTyp=0 Pass  1:  I=   1 to  16.
 (rs|ai) integrals will be sorted in core.
 Complete sort for first half transformation.
 First half transformation complete.
 Begin second half transformation for I=  10.
 Begin second half transformation for I=  10.
 Complete sort for second half transformation.
 Second half transformation complete.
 SymMOI:  orbitals are not symmetric.
 Spin components of T(2) and E(2):
     alpha-alpha T2 =       0.3402730227D-01 E2=     -0.1224116203D+00
     alpha-beta  T2 =       0.1868585064D+00 E2=     -0.7002648667D+00
     beta-beta   T2 =       0.3402730227D-01 E2=     -0.1224116203D+00
 ANorm=    0.1584243107D+01
 E2 =    -0.9450881073D+00 EUMP2 =    -0.28044689143291D+03
 Leave Link  804 at Mon Feb 21 21:08:29 2022, MaxMem= 16106127360 cpu:             373.8 elap:              13.4
 (Enter /sw/contrib/gaussian/g16/B01/g16/l1002.exe)
 Minotr:  Closed shell wavefunction.
          Computing MP2/KS-MP2 derivatives.
          Using Z-Vector for PSCF gradient.
          Skipping F1 and S1 gradient terms here.
          IDoAtm=11111
          Frozen-core window.
          Using MO integrals in the linear equations.
          Forming densities via direct SCF.
          Differentiating once with respect to electric field.
                with respect to dipole field.
          Differentiating once with respect to nuclear coordinates.
          Requested convergence is 1.0D-10 RMS, and 1.0D-09 maximum.
          NewPWx=F KeepS1=T KeepF1=T KeepIn=T MapXYZ=F SortEE=F KeepMc=T.
          MDV=   16106127360 using IRadAn=       5.
          Solving linear equations separately, MaxMat=       0.
          There are     1 degrees of freedom in the 1st order CPHF.  IDoFFX=0 NUNeed=     1.
 FoFJK:  IHMeth= 1 ICntrl=       0 DoSepK=F KAlg= 0 I1Cent=           0 FoldK=F
 IRaf=         0 NMat=       1 IRICut=       1 DoRegI=T DoRafI=F ISym2E= 0 IDoP0=0 IntGTp=1.
 FoFCou: FMM=F IPFlag=           0 FMFlag=      100000 FMFlg1=           0
         NFxFlg=           0 DoJE=F BraDBF=F KetDBF=F FulRan=T
         wScrn=  0.000000 ICntrl=         0 IOpCl=  0 I1Cent=           0 NGrid=           0
         NMat0=    1 NMatS0=      1 NMatT0=    0 NMatD0=    1 NMtDS0=    0 NMtDT0=    0
 Symmetry not used in FoFCou.
 LinEq1:  Iter=  0 NonCon=     1 RMS=5.95D-03 Max=1.29D-01 NDo=     1
 LinEq1:  Iter=  1 NonCon=     1 RMS=1.90D-03 Max=3.74D-02 NDo=     1
 LinEq1:  Iter=  2 NonCon=     1 RMS=8.67D-04 Max=1.23D-02 NDo=     1
 LinEq1:  Iter=  3 NonCon=     1 RMS=3.86D-04 Max=7.62D-03 NDo=     1
 LinEq1:  Iter=  4 NonCon=     1 RMS=1.19D-04 Max=1.68D-03 NDo=     1
 LinEq1:  Iter=  5 NonCon=     1 RMS=4.56D-05 Max=7.06D-04 NDo=     1
 LinEq1:  Iter=  6 NonCon=     1 RMS=2.04D-05 Max=2.36D-04 NDo=     1
 LinEq1:  Iter=  7 NonCon=     1 RMS=8.25D-06 Max=1.57D-04 NDo=     1
 LinEq1:  Iter=  8 NonCon=     1 RMS=3.63D-06 Max=5.18D-05 NDo=     1
 LinEq1:  Iter=  9 NonCon=     1 RMS=1.08D-06 Max=2.35D-05 NDo=     1
 LinEq1:  Iter= 10 NonCon=     1 RMS=2.83D-07 Max=8.03D-06 NDo=     1
 LinEq1:  Iter= 11 NonCon=     1 RMS=7.97D-08 Max=1.78D-06 NDo=     1
 LinEq1:  Iter= 12 NonCon=     1 RMS=2.02D-08 Max=2.14D-07 NDo=     1
 LinEq1:  Iter= 13 NonCon=     1 RMS=3.88D-09 Max=4.11D-08 NDo=     1
 LinEq1:  Iter= 14 NonCon=     1 RMS=6.30D-10 Max=9.97D-09 NDo=     1
 LinEq1:  Iter= 15 NonCon=     1 RMS=1.39D-10 Max=2.27D-09 NDo=     1
 LinEq1:  Iter= 16 NonCon=     0 RMS=3.62D-11 Max=4.86D-10 NDo=     1
 Linear equations converged to 1.000D-10 1.000D-09 after    16 iterations.
 End of Minotr F.D. properties file   721 does not exist.
 End of Minotr F.D. properties file   722 does not exist.
 End of Minotr F.D. properties file   788 does not exist.
 Leave Link 1002 at Mon Feb 21 21:08:32 2022, MaxMem= 16106127360 cpu:              67.1 elap:               2.5
 (Enter /sw/contrib/gaussian/g16/B01/g16/l1102.exe)
 Use density number 2.
 Symmetrizing basis deriv contribution to polar:
 IMax=3 JMax=2 DiffMx= 0.00D+00
 Leave Link 1102 at Mon Feb 21 21:08:32 2022, MaxMem= 16106127360 cpu:               0.7 elap:               0.1
 (Enter /sw/contrib/gaussian/g16/B01/g16/l1110.exe)
 Forming Gx(P) for generalized density number  2 NAtomX=     5.
 Integral derivatives from FoFJK, PRISM(SPDF).
 Do as many integral derivatives as possible in FoFJK.
 G2DrvN: MDV=   16106126844.
 G2DrvN: will do     6 centers at a time, making    1 passes.
 Calling FoFCou, ICntrl=  3107 FMM=F I1Cent=   0 AccDes= 0.00D+00.
 FoFJK:  IHMeth= 1 ICntrl=    3107 DoSepK=F KAlg= 0 I1Cent=           0 FoldK=F
 IRaf=         0 NMat=       1 IRICut=       1 DoRegI=T DoRafI=F ISym2E= 0 IDoP0=0 IntGTp=1.
 FoFCou: FMM=F IPFlag=           0 FMFlag=      100000 FMFlg1=           0
         NFxFlg=           0 DoJE=F BraDBF=F KetDBF=F FulRan=T
         wScrn=  0.000000 ICntrl=      3107 IOpCl=  0 I1Cent=           0 NGrid=           0
         NMat0=    1 NMatS0=      1 NMatT0=    0 NMatD0=    1 NMtDS0=    0 NMtDT0=    0
 Symmetry not used in FoFCou.
 End of G2Drv F.D. properties file   721 does not exist.
 End of G2Drv F.D. properties file   722 does not exist.
 End of G2Drv F.D. properties file   788 does not exist.
 Leave Link 1110 at Mon Feb 21 21:08:35 2022, MaxMem= 16106127360 cpu:              83.6 elap:               3.0
 (Enter /sw/contrib/gaussian/g16/B01/g16/l1112.exe)
 MP22nd: MDV=   16106127360
 This link is doing NAtomX=     5 total of    18 degrees of freedom.
 Using ON3 I/O method in MakUI.
 Frozen-core window:  NFC=   4 NFV=   0.
 Using Ix for Sx.
 Use MO integrals over full window.
 Using OV2 memory method for fx*t*t/D, MaxI=    16 DoOO2=F NP=  28.
 R2 and R3 integrals will be kept in memory, NReq=   915591705.
 FoFCou: FMM=F IPFlag=           0 FMFlag=           0 FMFlg1=           0
         NFxFlg=           0 DoJE=F BraDBF=F KetDBF=F FulRan=T
         wScrn=  0.000000 ICntrl=       600 IOpCl=  0 I1Cent=           0 NGrid=           0
         NMat0=    1 NMatS0=      1 NMatT0=    0 NMatD0=    1 NMtDS0=    0 NMtDT0=    0
 Symmetry not used in FoFCou.
 DD1Dir will call FoFMem   1 times, MxPair=       272
 NAB=   136 NAA=     0 NBB=     0.
 Symmetry is being used.
 FoFJK:  IHMeth= 1 ICntrl=       0 DoSepK=F KAlg= 0 I1Cent=           0 FoldK=F
 IRaf=         0 NMat=      18 IRICut=      45 DoRegI=T DoRafI=T ISym2E= 2 IDoP0=3 IntGTp=3.
 Discarding MO integrals.
 Leave Link 1112 at Mon Feb 21 21:09:12 2022, MaxMem= 16106127360 cpu:            1031.1 elap:              37.2
 (Enter /sw/contrib/gaussian/g16/B01/g16/l601.exe)
 Copying SCF densities to generalized density rwf, IOpCl= 0 IROHF=0.

 **********************************************************************

            Population analysis using the MP2 Density.

 **********************************************************************

 Orbital symmetries:
       Occupied  (A) (A) (A) (A) (A) (A) (A) (A) (A) (A) (A) (A)
                 (A) (A) (A) (A)
       Virtual   (A) (A) (A) (A) (A) (A) (A) (A) (A) (A) (A) (A)
                 (A) (A) (A) (A) (A) (A) (A) (A) (A) (A) (A) (A)
                 (A) (A) (A) (A) (A) (A) (A) (A) (A) (A) (A) (A)
                 (A) (A) (A) (A) (A) (A) (A) (A) (A) (A) (A) (A)
                 (A) (A) (A) (A) (A) (A) (A) (A) (A) (A) (A) (A)
                 (A) (A) (A) (A) (A) (A) (A) (A) (A) (A) (A) (A)
                 (A) (A) (A) (A) (A) (A) (A) (A) (A) (A) (A) (A)
                 (A) (A) (A) (A) (A) (A) (A) (A) (A) (A) (A) (A)
                 (A) (A) (A) (A) (A) (A) (A) (A) (A) (A) (A) (A)
                 (A) (A) (A) (A) (A) (A) (A) (A) (A) (A) (A) (A)
                 (A) (A) (A) (A) (A) (A) (A) (A) (A) (A) (A) (A)
                 (A) (A) (A) (A) (A) (A) (A) (A) (A) (A) (A) (A)
                 (A) (A) (A) (A) (A) (A) (A) (A) (A) (A) (A) (A)
                 (A) (A) (A) (A) (A) (A) (A) (A) (A) (A) (A) (A)
                 (A) (A) (A) (A) (A) (A) (A) (A) (A) (A) (A) (A)
                 (A) (A) (A) (A) (A) (A) (A) (A) (A) (A) (A)
 The electronic state is 1-A.
 Alpha  occ. eigenvalues --  -20.69104 -20.68426 -20.66013 -15.81271  -1.62403
 Alpha  occ. eigenvalues --   -1.49583  -1.25444  -0.94809  -0.77252  -0.75947
 Alpha  occ. eigenvalues --   -0.71285  -0.67881  -0.61990  -0.58883  -0.48691
 Alpha  occ. eigenvalues --   -0.47172
 Alpha virt. eigenvalues --    0.02958   0.07165   0.08593   0.10175   0.13242
 Alpha virt. eigenvalues --    0.13500   0.14390   0.15445   0.17812   0.19410
 Alpha virt. eigenvalues --    0.19925   0.20662   0.22080   0.23536   0.23726
 Alpha virt. eigenvalues --    0.26696   0.29237   0.30005   0.31192   0.34349
 Alpha virt. eigenvalues --    0.35392   0.38755   0.41668   0.42913   0.52716
 Alpha virt. eigenvalues --    0.53105   0.55860   0.58097   0.62597   0.63812
 Alpha virt. eigenvalues --    0.67357   0.68358   0.70685   0.71315   0.71915
 Alpha virt. eigenvalues --    0.73247   0.74801   0.78562   0.79395   0.81059
 Alpha virt. eigenvalues --    0.81428   0.83419   0.86764   0.90836   0.91568
 Alpha virt. eigenvalues --    0.93371   0.95530   0.97119   0.98847   1.01537
 Alpha virt. eigenvalues --    1.05433   1.05927   1.08389   1.11351   1.12871
 Alpha virt. eigenvalues --    1.19914   1.21879   1.23424   1.33671   1.35090
 Alpha virt. eigenvalues --    1.38897   1.45564   1.49273   1.50821   1.53700
 Alpha virt. eigenvalues --    1.56728   1.58092   1.60303   1.66382   1.66693
 Alpha virt. eigenvalues --    1.70618   1.78876   1.82947   1.83721   1.88121
 Alpha virt. eigenvalues --    1.90474   1.95620   1.98220   2.02735   2.07756
 Alpha virt. eigenvalues --    2.11499   2.12728   2.15600   2.22112   2.25757
 Alpha virt. eigenvalues --    2.27218   2.28693   2.31206   2.34349   2.38785
 Alpha virt. eigenvalues --    2.40391   2.44869   2.45367   2.46685   2.47793
 Alpha virt. eigenvalues --    2.50702   2.58942   2.59860   2.61853   2.62660
 Alpha virt. eigenvalues --    2.63811   2.66539   2.75012   2.82906   2.84647
 Alpha virt. eigenvalues --    2.88768   2.90042   2.91700   2.96014   3.02060
 Alpha virt. eigenvalues --    3.07648   3.11958   3.20453   3.22937   3.31590
 Alpha virt. eigenvalues --    3.34066   3.51333   3.64815   3.83729   3.84900
 Alpha virt. eigenvalues --    4.13521   4.16476   4.20338   4.25406   4.33969
 Alpha virt. eigenvalues --    4.39378   4.47610   4.52453   4.65055   4.71109
 Alpha virt. eigenvalues --    4.80403   4.82239   4.82619   4.89702   5.02258
 Alpha virt. eigenvalues --    5.07216   5.10103   5.14590   5.18342   5.25047
 Alpha virt. eigenvalues --    5.27156   5.30379   5.33031   5.35162   5.59933
 Alpha virt. eigenvalues --    5.67359   5.76094   5.83256   5.95439   6.16964
 Alpha virt. eigenvalues --    6.31197   6.34193   6.39228   6.49432   6.50509
 Alpha virt. eigenvalues --    6.62257   6.65431   6.70622   6.74712   6.76978
 Alpha virt. eigenvalues --    6.83521   6.89833   7.01126   7.05426   7.05794
 Alpha virt. eigenvalues --    7.09451   7.12732   7.14598   7.18966   7.22490
 Alpha virt. eigenvalues --    7.23810   7.30375   7.32222   7.35693   7.39150
 Alpha virt. eigenvalues --    7.42828   7.48628   7.60630   7.61816   7.63340
 Alpha virt. eigenvalues --    7.67508   7.78476   7.88389   8.09146   8.31122
 Alpha virt. eigenvalues --    8.39917   8.54094  13.38455  14.40060  15.16057
 Alpha virt. eigenvalues --   16.15017
          Condensed to atoms (all electrons):
               1          2          3          4          5
     1  H    0.590370   0.128460   0.020174   0.011511  -0.000595
     2  O    0.128460   8.320282  -0.172304  -0.089805   0.015069
     3  O    0.020174  -0.172304   8.467066  -0.129227  -0.038685
     4  N    0.011511  -0.089805  -0.129227   6.969936  -0.054425
     5  O   -0.000595   0.015069  -0.038685  -0.054425   8.272000
 Mulliken charges:
               1
     1  H    0.250080
     2  O   -0.201702
     3  O   -0.147024
     4  N    0.292010
     5  O   -0.193364
 Sum of Mulliken charges =  -0.00000
 Mulliken charges with hydrogens summed into heavy atoms:
               1
     2  O    0.048378
     3  O   -0.147024
     4  N    0.292010
     5  O   -0.193364
 APT charges:
               1
     1  H    0.297912
     2  O   -0.287039
     3  O   -0.493870
     4  N    0.874984
     5  O   -0.391987
 Sum of APT charges =  -0.00000
 APT charges with hydrogens summed into heavy atoms:
               1
     2  O    0.010873
     3  O   -0.493870
     4  N    0.874984
     5  O   -0.391987
 Electronic spatial extent (au):  <R**2>=            252.8341
 Charge=              0.0000 electrons
 Dipole moment (field-independent basis, Debye):
    X=             -1.2024    Y=              0.7704    Z=              0.3065  Tot=              1.4605
 Quadrupole moment (field-independent basis, Debye-Ang):
   XX=            -18.0879   YY=            -23.1219   ZZ=            -21.9358
   XY=             -2.7234   XZ=             -0.8068   YZ=              0.2457
 Traceless Quadrupole moment (field-independent basis, Debye-Ang):
   XX=              2.9606   YY=             -2.0734   ZZ=             -0.8872
   XY=             -2.7234   XZ=             -0.8068   YZ=              0.2457
 Octapole moment (field-independent basis, Debye-Ang**2):
  XXX=            -17.8550  YYY=              1.7492  ZZZ=              0.1042  XYY=             -1.0285
  XXY=              6.0107  XXZ=              1.9293  XZZ=              1.6163  YZZ=              0.2707
  YYZ=              0.0393  XYZ=             -0.4192
 Hexadecapole moment (field-independent basis, Debye-Ang**3):
 XXXX=           -191.0937 YYYY=            -41.0869 ZZZZ=            -18.2922 XXXY=            -11.6256
 XXXZ=             -4.8838 YYYX=             -0.9557 YYYZ=              0.2258 ZZZX=             -0.3081
 ZZZY=              0.1657 XXYY=            -42.5780 XXZZ=            -41.3010 YYZZ=             -9.8652
 XXYZ=              0.9934 YYXZ=             -0.2108 ZZXY=             -0.5206
 N-N= 1.168777935090D+02 E-N=-8.958659420603D+02  KE= 2.801978928253D+02
  Exact polarizability:  41.690  -0.952  22.506  -0.159   0.031  17.967
 Approx polarizability:  31.926   1.155  20.551  -0.138   0.115  15.575
 No NMR shielding tensors so no spin-rotation constants.
 Leave Link  601 at Mon Feb 21 21:09:13 2022, MaxMem= 16106127360 cpu:               4.3 elap:               0.2
 (Enter /sw/contrib/gaussian/g16/B01/g16/l701.exe)
 ... and contract with generalized density number  2.
 Compute integral second derivatives.
 Leave Link  701 at Mon Feb 21 21:09:13 2022, MaxMem= 16106127360 cpu:               5.8 elap:               0.2
 (Enter /sw/contrib/gaussian/g16/B01/g16/l702.exe)
 L702 exits ... SP integral derivatives will be done elsewhere.
 Leave Link  702 at Mon Feb 21 21:09:13 2022, MaxMem= 16106127360 cpu:               0.6 elap:               0.0
 (Enter /sw/contrib/gaussian/g16/B01/g16/l703.exe)
 Integral derivatives from FoFJK, PRISM(SPDF).
 Compute integral second derivatives, UseDBF=F ICtDFT=           0.
 Calling FoFJK, ICntrl=  10100127 FMM=F ISym2X=0 I1Cent= 0 IOpClX= 0 NMat=1 NMatS=1 NMatT=0.
 FoFJK:  IHMeth= 1 ICntrl=10100127 DoSepK=F KAlg= 0 I1Cent=           0 FoldK=F
 IRaf=         0 NMat=       1 IRICut=       1 DoRegI=T DoRafI=F ISym2E= 0 IDoP0=0 IntGTp=1.
 FoFCou: FMM=F IPFlag=           0 FMFlag=      100000 FMFlg1=         800
         NFxFlg=           0 DoJE=F BraDBF=F KetDBF=F FulRan=T
         wScrn=  0.000000 ICntrl=  10100127 IOpCl=  0 I1Cent=           0 NGrid=           0
         NMat0=    1 NMatS0=      1 NMatT0=    0 NMatD0=    1 NMtDS0=    0 NMtDT0=    0
 Symmetry not used in FoFCou.
 Leave Link  703 at Mon Feb 21 21:09:28 2022, MaxMem= 16106127360 cpu:             434.1 elap:              15.6
 (Enter /sw/contrib/gaussian/g16/B01/g16/l716.exe)
 Dipole        =-4.73053457D-01 3.03099050D-01 1.20597884D-01
 Polarizability= 4.16896479D+01-9.52493513D-01 2.25058135D+01
                -1.59385616D-01 3.05096144D-02 1.79670939D+01
 Full mass-weighted force constant matrix:
 Low frequencies --- -258.2572  -10.4077   -0.0011   -0.0005    0.0015    2.7010
 Low frequencies ---   20.5672  228.1063  343.1946
 ******    1 imaginary frequencies (negative Signs) ****** 
 Diagonal vibrational polarizability:
       35.2746910       5.7200283      48.7371483
 Harmonic frequencies (cm**-1), IR intensities (KM/Mole), Raman scattering
 activities (A**4/AMU), depolarization ratios for plane and unpolarized
 incident light, reduced masses (AMU), force constants (mDyne/A),
 and normal coordinates:
                      1                      2                      3
                      A                      A                      A
 Frequencies --   -258.2534               228.0888               343.1911
 Red. masses --      1.1416                10.6231                 8.6512
 Frc consts  --      0.0449                 0.3256                 0.6003
 IR Inten    --    125.6530                 0.8650                 4.9448
  Atom  AN      X      Y      Z        X      Y      Z        X      Y      Z
     1   1     0.10  -0.15   0.98    -0.10  -0.04  -0.56    -0.16  -0.67   0.06
     2   8    -0.01   0.02  -0.06     0.01  -0.01  -0.31     0.30  -0.25   0.01
     3   8    -0.01  -0.00  -0.04    -0.00   0.01   0.33    -0.14   0.43  -0.02
     4   7     0.01  -0.00   0.06    -0.01   0.01   0.53    -0.19   0.18  -0.00
     5   8     0.00   0.00  -0.01     0.00  -0.01  -0.44     0.02  -0.30   0.01
                      4                      5                      6
                      A                      A                      A
 Frequencies --    452.9726               786.0813               966.1140
 Red. masses --     12.1535                12.9525                15.3307
 Frc consts  --      1.4693                 4.7156                 8.4308
 IR Inten    --    196.1796               169.4108                24.1737
  Atom  AN      X      Y      Z        X      Y      Z        X      Y      Z
     1   1    -0.45  -0.07  -0.11     0.17   0.33   0.10    -0.14  -0.08   0.09
     2   8    -0.38  -0.03   0.01    -0.39  -0.18  -0.01    -0.40  -0.33  -0.00
     3   8    -0.40   0.24  -0.00     0.21  -0.18   0.01     0.59   0.46  -0.01
     4   7     0.52  -0.12   0.00    -0.26   0.58  -0.01     0.05  -0.27   0.01
     5   8     0.35  -0.11   0.00     0.39  -0.17   0.00    -0.23   0.11  -0.01
                      7                      8                      9
                      A                      A                      A
 Frequencies --   1371.8478              1677.2344              3778.0837
 Red. masses --      1.1315                13.2667                 1.0676
 Frc consts  --      1.2546                21.9888                 8.9783
 IR Inten    --    149.9744               141.1556                81.5927
  Atom  AN      X      Y      Z        X      Y      Z        X      Y      Z
     1   1     0.77   0.63   0.03     0.27   0.20   0.01    -0.66   0.72   0.18
     2   8     0.01  -0.06  -0.01     0.03  -0.03  -0.00     0.04  -0.04  -0.01
     3   8    -0.05   0.03   0.01    -0.09   0.12  -0.00    -0.00  -0.00  -0.00
     4   7     0.02   0.00   0.00    -0.54  -0.46   0.00     0.00  -0.00   0.00
     5   8    -0.03  -0.01  -0.00     0.52   0.30  -0.00    -0.00  -0.00  -0.00

 -------------------
 - Thermochemistry -
 -------------------
 Temperature   298.150 Kelvin.  Pressure   1.00000 Atm.
 Atom     1 has atomic number  1 and mass   1.00783
 Atom     2 has atomic number  8 and mass  15.99491
 Atom     3 has atomic number  8 and mass  15.99491
 Atom     4 has atomic number  7 and mass  14.00307
 Atom     5 has atomic number  8 and mass  15.99491
 Molecular mass:    62.99564 amu.
 Principal axes and moments of inertia in atomic units:
                           1         2         3
     Eigenvalues --    32.91189 360.09647 392.76362
           X            0.99994  -0.01038  -0.00369
           Y            0.01041   0.99991   0.00792
           Z            0.00361  -0.00796   0.99996
 This molecule is an asymmetric top.
 Rotational symmetry number  1.
 Rotational temperatures (Kelvin)      2.63169     0.24053     0.22052
 Rotational constants (GHZ):          54.83554     5.01183     4.59498
    1 imaginary frequencies ignored.
 Zero-point vibrational energy      57442.4 (Joules/Mol)
                                   13.72905 (Kcal/Mol)
 Warning -- explicit consideration of   3 degrees of freedom as
           vibrations may cause significant error
 Vibrational temperatures:    328.17   493.78   651.73  1131.00  1390.02
          (Kelvin)           1973.78  2413.17  5435.82
 
 Zero-point correction=                           0.021879 (Hartree/Particle)
 Thermal correction to Energy=                    0.025995
 Thermal correction to Enthalpy=                  0.026939
 Thermal correction to Gibbs Free Energy=        -0.004244
 Sum of electronic and zero-point Energies=           -280.425013
 Sum of electronic and thermal Energies=              -280.420897
 Sum of electronic and thermal Enthalpies=            -280.419953
 Sum of electronic and thermal Free Energies=         -280.451135
 
                     E (Thermal)             CV                S
                      KCal/Mol        Cal/Mol-Kelvin    Cal/Mol-Kelvin
 Total                   16.312             11.949             65.629
 Electronic               0.000              0.000              0.000
 Translational            0.889              2.981             38.341
 Rotational               0.889              2.981             23.058
 Vibrational             14.534              5.988              4.230
 Vibration     1          0.651              1.798              1.894
 Vibration     2          0.722              1.589              1.197
 Vibration     3          0.812              1.354              0.787
                       Q            Log10(Q)             Ln(Q)
 Total Bot       0.895103D+02          1.951873          4.494354
 Total V=0       0.103595D+13         12.015341         27.666345
 Vib (Bot)       0.186490D-09         -9.729344        -22.402641
 Vib (Bot)    1  0.864235D+00         -0.063368         -0.145911
 Vib (Bot)    2  0.539959D+00         -0.267639         -0.616262
 Vib (Bot)    3  0.377667D+00         -0.422891         -0.973743
 Vib (V=0)       0.215836D+01          0.334124          0.769349
 Vib (V=0)    1  0.149845D+01          0.175642          0.404431
 Vib (V=0)    2  0.123590D+01          0.091985          0.211803
 Vib (V=0)    3  0.112660D+01          0.051771          0.119207
 Electronic      0.100000D+01          0.000000          0.000000
 Translational   0.196526D+08          7.293420         16.793719
 Rotational      0.244229D+05          4.387797         10.103276
 
                                                                title
                                                             IR Spectrum
 
     3                                                                      1         1                                              
     7                                                                      6         3             9     7          4   3   2       
     7                                                                      7         7             6     8          5   4   2       
     8                                                                      7         2             6     6          3   3   8       
 
     X                                                                      X         X             X     X          X   X   X       
     X                                                                      X         X             X     X          X               
     X                                                                      X         X                   X          X               
     X                                                                      X         X                   X          X               
     X                                                                      X         X                   X          X               
     X                                                                      X         X                   X          X               
     X                                                                      X         X                   X          X               
     X                                                                      X         X                   X          X               
                                                                            X         X                   X          X               
                                                                            X         X                   X          X               
                                                                            X         X                   X          X               
                                                                            X         X                   X          X               
                                                                            X         X                   X          X               
                                                                            X         X                   X          X               
                                                                                      X                   X          X               
                                                                                                          X          X               
                                                                                                          X          X               
                                                                                                                     X               
                                                                                                                     X               
                                                                                                                     X               
 
 ***** Axes restored to original set *****
 -------------------------------------------------------------------
 Center     Atomic                   Forces (Hartrees/Bohr)
 Number     Number              X              Y              Z
 -------------------------------------------------------------------
      1        1          -0.000097190    0.000836870    0.000004917
      2        8           0.000636689   -0.001109214   -0.000136918
      3        8          -0.000755542   -0.000351367    0.000046712
      4        7          -0.000205679    0.000972814   -0.000107499
      5        8           0.000421722   -0.000349103    0.000192788
 -------------------------------------------------------------------
 Cartesian Forces:  Max     0.001109214 RMS     0.000541473
 -----------------------------------------------------------------------------------------------
                       Internal Coordinate Forces (Hartree/Bohr or radian)
  Cent   Atom   N1       Length/X         N2         Alpha/Y        N3         Beta/Z          J
 -----------------------------------------------------------------------------------------------
      1  H 
      2  O        1  -0.000005(     1)
      3  O        2  -0.000517(     2)      1   0.000178(     5)
      4  N        3   0.000224(     3)      2   0.000480(     6)      1  -0.001519(     8)     0
      5  O        4   0.000448(     4)      3   0.000021(     7)      2  -0.000772(     9)     0
 -----------------------------------------------------------------------------------------------
 Internal  Forces:  Max     0.001518903 RMS     0.000639789
 Force constants in Cartesian coordinates: 
                1             2             3             4             5 
      1  0.647296D-01
      2  0.946768D-03 -0.210165D-02
      3  0.513512D-02 -0.470569D-03  0.512170D+00
      4 -0.356176D-01 -0.258763D-02 -0.160036D-01  0.271794D+00
      5 -0.382837D-03  0.288916D-02  0.735926D-03  0.588988D-02  0.362310D-02
      6  0.483474D-01  0.183235D-02 -0.508605D+00  0.333059D-01  0.535565D-02
      7 -0.188198D-01  0.299969D-02  0.123159D-01 -0.218836D+00  0.376685D-02
      8 -0.139776D-02  0.975733D-03  0.358809D-03 -0.232086D-02 -0.802277D-02
      9 -0.529523D-01 -0.116269D-03 -0.316337D-03 -0.192930D-01 -0.513257D-02
     10 -0.902419D-02 -0.107916D-02 -0.477311D-02 -0.177185D-01 -0.898950D-02
     11  0.245047D-02 -0.265113D-02 -0.744913D-03 -0.393889D-03 -0.395485D-02
     12  0.489279D-02 -0.803836D-03 -0.466094D-02  0.115705D-01  0.352021D-02
     13 -0.126799D-02 -0.279676D-03  0.332568D-02  0.378637D-03 -0.284398D-03
     14 -0.161663D-02  0.887884D-03  0.120748D-03 -0.587506D-03  0.546537D-02
     15 -0.542296D-02 -0.441670D-03  0.141227D-02 -0.957988D-02 -0.447922D-02
                6             7             8             9            10 
      6  0.593762D+00
      7 -0.219100D-01  0.340439D+00
      8 -0.826677D-02 -0.616456D-02  0.981775D-02
      9 -0.775226D-01  0.368531D-01  0.265836D-01  0.176018D+00
     10 -0.515501D-01 -0.772532D-01  0.369461D-01  0.170636D+00  0.827959D+00
     11  0.736399D-02  0.175057D-01  0.369739D-02 -0.226202D-01 -0.260209D-01
     12  0.158326D-01  0.611663D-01 -0.180306D-01 -0.778970D-01 -0.143788D-01
     13 -0.819328D-02 -0.255296D-01 -0.270629D-01 -0.135244D+00 -0.723963D+00
     14 -0.628522D-02 -0.181077D-01 -0.646810D-02  0.128545D-02 -0.856512D-03
     15 -0.234673D-01 -0.884253D-01 -0.645060D-03 -0.202824D-01 -0.999345D-01
               11            12            13            14            15 
     11  0.163145D-01
     12  0.347033D-01  0.180205D+00
     13  0.645859D-02 -0.632508D-01  0.750382D+00
     14 -0.134059D-01 -0.193891D-01  0.211684D-01  0.135207D-01
     15 -0.187022D-01 -0.113479D+00  0.203363D+00  0.242681D-01  0.155817D+00
 Force constants in internal coordinates: 
                1             2             3             4             5 
      1  0.512170D+00
      2 -0.103019D-01  0.280751D+00
      3  0.341859D-02  0.301025D-02  0.117427D+00
      4 -0.357265D-02  0.591966D-02  0.152795D+00  0.812174D+00
      5  0.930566D-02  0.657830D-01  0.224325D-02  0.476035D-02  0.217027D+00
      6  0.441642D-02  0.595816D-01  0.412311D-01  0.220556D-01  0.308317D-01
      7 -0.121130D-02  0.378246D-01  0.318496D-01  0.847075D-01  0.208897D-01
      8 -0.246157D-04 -0.262537D-02  0.304622D-02  0.650748D-03  0.294458D-02
      9  0.156768D-03 -0.118992D-02  0.102424D-04  0.776204D-04  0.205089D-02
                6             7             8             9 
      6  0.284773D+00
      7  0.959427D-01  0.482515D+00
      8  0.521528D-02  0.694653D-03 -0.695528D-02
      9  0.507900D-04 -0.463149D-03 -0.360637D-02  0.409500D-01
 Leave Link  716 at Mon Feb 21 21:09:29 2022, MaxMem= 16106127360 cpu:               4.8 elap:               0.2
 (Enter /sw/contrib/gaussian/g16/B01/g16/l103.exe)

 GradGradGradGradGradGradGradGradGradGradGradGradGradGradGradGradGradGrad
 Berny optimization.
 Search for a local minimum.
 Step number   1 out of a maximum of    2
 All quantities printed in internal units (Hartrees-Bohrs-Radians)
 Second derivative matrix not updated -- analytic derivatives used.
 The second derivative matrix:
                          r1        r2        r3        r4        a1
           r1           0.51217
           r2          -0.01030   0.28075
           r3           0.00342   0.00301   0.11743
           r4          -0.00357   0.00592   0.15279   0.81217
           a1           0.00931   0.06578   0.00224   0.00476   0.21703
           a2           0.00442   0.05958   0.04123   0.02206   0.03083
           a3          -0.00121   0.03782   0.03185   0.08471   0.02089
           d1          -0.00002  -0.00263   0.00305   0.00065   0.00294
           d2           0.00016  -0.00119   0.00001   0.00008   0.00205
                          a2        a3        d1        d2
           a2           0.28477
           a3           0.09594   0.48252
           d1           0.00522   0.00069  -0.00696
           d2           0.00005  -0.00046  -0.00361   0.04095
 ITU=  0
     Eigenvalues ---   -0.00748   0.04119   0.07864   0.17501   0.22671
     Eigenvalues ---    0.32549   0.51280   0.51747   0.87101
 Eigenvalue     1 is  -7.48D-03 should be greater than     0.000000 Eigenvector:
                          d1        d2        r3        a2        r2
   1                    0.99644   0.07534  -0.02416  -0.01711   0.01656
                          a1        r4        a3        r1
   1                   -0.01636   0.00391   0.00233   0.00098
 Angle between quadratic step and forces=  30.63 degrees.
 Linear search not attempted -- first point.
 Variable       Old X    -DE/DX   Delta X   Delta X   Delta X     New X
                                 (Linear)    (Quad)   (Total)
    r1        1.83110  -0.00000   0.00000  -0.00030  -0.00030   1.83080
    r2        2.74940  -0.00052   0.00000  -0.00604  -0.00604   2.74336
    r3        2.75670   0.00022   0.00000   0.00551   0.00551   2.76221
    r4        2.21236   0.00045   0.00000  -0.00035  -0.00035   2.21201
    a1        1.70335   0.00018   0.00000   0.00482   0.00482   1.70818
    a2        1.78543   0.00048   0.00000   0.00562   0.00562   1.79105
    a3        1.90362   0.00002   0.00000  -0.00082  -0.00082   1.90280
    d1        2.93897  -0.00152   0.00000  -0.21118  -0.21118   2.72779
    d2        3.14159  -0.00077   0.00000  -0.03201  -0.03201   3.10958
         Item               Value     Threshold  Converged?
 Maximum Force            0.001519     0.000450     NO 
 RMS     Force            0.000640     0.000300     NO 
 Maximum Displacement     0.211183     0.001800     NO 
 RMS     Displacement     0.071294     0.001200     NO 
 Predicted change in Energy=-5.167435D-04
                       ----------------------------
                       ! Non-Optimized Parameters !
                       ! (Angstroms and Degrees)  !
 ----------------------                            ----------------------
 !      Name          Value   Derivative information (Atomic Units)     !
 ------------------------------------------------------------------------
 !       r1          0.9688   -DE/DX =    0.0                           !
 !       r2          1.4517   -DE/DX =   -0.0005                        !
 !       r3          1.4617   -DE/DX =    0.0002                        !
 !       r4          1.1705   -DE/DX =    0.0004                        !
 !       a1         97.8713   -DE/DX =    0.0002                        !
 !       a2        102.6195   -DE/DX =    0.0005                        !
 !       a3        109.0224   -DE/DX =    0.0                           !
 !       d1        156.2909   -DE/DX =   -0.0015                        !
 !       d2        178.1657   -DE/DX =   -0.0008                        !
 ------------------------------------------------------------------------
 GradGradGradGradGradGradGradGradGradGradGradGradGradGradGradGradGradGrad

 Leave Link  103 at Mon Feb 21 21:09:29 2022, MaxMem= 16106127360 cpu:               0.5 elap:               0.0
 (Enter /sw/contrib/gaussian/g16/B01/g16/l9999.exe)

 ----------------------------------------------------------------------

 Electric dipole moment (input orientation):
 (Debye = 10**-18 statcoulomb cm , SI units = C m)
                  (au)            (Debye)         (10**-30 SI)
   Tot        0.574624D+00      0.146055D+01      0.487186D+01
   x         -0.146546D+00     -0.372482D+00     -0.124247D+01
   y          0.233839D-01      0.594359D-01      0.198257D+00
   z         -0.555131D+00     -0.141100D+01     -0.470659D+01

 Dipole polarizability, Alpha (input orientation).
 (esu units = cm**3 , SI units = C**2 m**2 J**-1)
 Alpha(0;0):
               (au)            (10**-24 esu)      (10**-40 SI)
   iso        0.273875D+02      0.405841D+01      0.451559D+01
   aniso      0.218744D+02      0.324145D+01      0.360660D+01
   xx         0.321561D+02      0.476504D+01      0.530182D+01
   yx         0.135817D+01      0.201260D+00      0.223932D+00
   yy         0.183216D+02      0.271498D+01      0.302082D+01
   zx         0.954602D+01      0.141457D+01      0.157393D+01
   zy         0.219700D+01      0.325563D+00      0.362237D+00
   zz         0.316849D+02      0.469521D+01      0.522413D+01

 ----------------------------------------------------------------------

 Dipole orientation:
     1          0.00000000          0.00000000          0.00000000
     8         -0.46698299         -0.07451523         -1.76898158
     8          2.07546746         -0.10368870         -2.81506458
     7          1.61715432         -0.75606520         -5.45395864
     8          3.55173337         -0.84196019         -6.52379460

 Electric dipole moment (dipole orientation):
 (Debye = 10**-18 statcoulomb cm , SI units = C m)
                  (au)            (Debye)         (10**-30 SI)
   Tot        0.574624D+00      0.146055D+01      0.487186D+01
   x          0.000000D+00      0.000000D+00      0.000000D+00
   y          0.000000D+00      0.000000D+00      0.000000D+00
   z          0.574624D+00      0.146055D+01      0.487186D+01

 Dipole polarizability, Alpha (dipole orientation).
 (esu units = cm**3 , SI units = C**2 m**2 J**-1)
 Alpha(0;0):
               (au)            (10**-24 esu)      (10**-40 SI)
   iso        0.273875D+02      0.405841D+01      0.451559D+01
   aniso      0.218744D+02      0.324145D+01      0.360660D+01
   xx         0.274251D+02      0.406398D+01      0.452178D+01
   yx        -0.104751D+01     -0.155224D+00     -0.172710D+00
   yy         0.185412D+02      0.274752D+01      0.305703D+01
   zx        -0.839770D+01     -0.124441D+01     -0.138459D+01
   zy         0.315457D+01      0.467460D+00      0.520119D+00
   zz         0.361963D+02      0.536374D+01      0.596796D+01

 ----------------------------------------------------------------------
 1\1\GINC-N2127\Freq\RMP2-FC\Aug-CC-pVTZ\H1N1O3\CGAVINH\21-Feb-2022\1\\
 #p freq mp2/aug-cc-pvtz density=current\\title\\0,1\H\O,1,r1\O,2,r2,1,
 a1\N,3,r3,2,a2,1,d1,0\O,4,r4,3,a3,2,d2,0\\r1=0.96897556\r2=1.45491931\
 r3=1.45878406\r4=1.17072885\a1=97.59494903\a2=102.29752444\a3=109.0695
 5123\d1=168.39073422\d2=180.\\Version=ES64L-G16RevB.01\State=1-A\HF=-2
 79.5018033\MP2=-280.4468914\RMSD=5.092e-09\RMSF=5.415e-04\ZeroPoint=0.
 0218786\Thermal=0.0259946\Dipole=-0.1465457,0.0233839,-0.5551306\Dipol
 eDeriv=0.2656117,-0.0017578,0.0479809,-0.0019908,0.3541838,-0.0018831,
 0.0814378,0.0087108,0.2739415,-0.327442,-0.0178437,-0.2048672,0.013307
 6,-0.3126155,0.0051852,-0.1126494,-0.0140766,-0.2210608,-0.0482202,0.0
 172639,0.1437541,-0.1641213,-0.1304257,-0.2465998,-0.7362134,-0.213420
 4,-1.302963,0.8987072,0.1554266,0.89608,0.1574423,0.1171986,0.2838759,
 0.909818,0.2804764,1.6090456,-0.7886568,-0.1530889,-0.8829479,-0.00463
 79,-0.0283411,-0.0405782,-0.142393,-0.0616902,-0.3589633\Polar=32.1560
 951,1.3581679,18.3215841,9.5460158,2.1970048,31.684876\Quadrupole=-1.4
 986181,-0.7616016,2.2602197,0.0731408,2.0848277,-0.044155\PG=C01 [X(H1
 N1O3)]\NImag=1\\0.06472961,0.00094677,-0.00210165,0.00513512,-0.000470
 57,0.51216956,-0.03561765,-0.00258763,-0.01600357,0.27179394,-0.000382
 84,0.00288916,0.00073593,0.00588988,0.00362310,0.04834739,0.00183235,-
 0.50860454,0.03330595,0.00535565,0.59376182,-0.01881978,0.00299969,0.0
 1231588,-0.21883644,0.00376685,-0.02190997,0.34043899,-0.00139776,0.00
 097573,0.00035881,-0.00232086,-0.00802277,-0.00826677,-0.00616456,0.00
 981775,-0.05295234,-0.00011627,-0.00031634,-0.01929295,-0.00513257,-0.
 07752263,0.03685309,0.02658358,0.17601833,-0.00902419,-0.00107916,-0.0
 0477311,-0.01771849,-0.00898950,-0.05155009,-0.07725316,0.03694606,0.1
 7063642,0.82795916,0.00245047,-0.00265113,-0.00074491,-0.00039389,-0.0
 0395485,0.00736399,0.01750572,0.00369739,-0.02262020,-0.02602088,0.016
 31445,0.00489279,-0.00080384,-0.00466094,0.01157046,0.00352021,0.01583
 264,0.06116633,-0.01803056,-0.07789698,-0.01437875,0.03470330,0.180204
 65,-0.00126799,-0.00027968,0.00332568,0.00037864,-0.00028440,-0.008193
 28,-0.02552961,-0.02706287,-0.13524421,-0.72396332,0.00645859,-0.06325
 083,0.75038228,-0.00161663,0.00088788,0.00012075,-0.00058751,0.0054653
 7,-0.00628522,-0.01810770,-0.00646810,0.00128545,-0.00085651,-0.013405
 85,-0.01938911,0.02116836,0.01352070,-0.00542296,-0.00044167,0.0014122
 7,-0.00957988,-0.00447922,-0.02346728,-0.08842533,-0.00064506,-0.02028
 238,-0.09993448,-0.01870218,-0.11347936,0.20336265,0.02426813,0.155816
 76\\0.00009719,-0.00083687,-0.00000492,-0.00063669,0.00110921,0.000136
 92,0.00075554,0.00035137,-0.00004671,0.00020568,-0.00097281,0.00010750
 ,-0.00042172,0.00034910,-0.00019279\\\@


 TO DETECT ERRORS, THE PROGRAMMER MUST HAVE A CONNIVING MIND,
 ONE THAT DELIGHTS IN UNCOVERING FLAWS WHERE BEAUTY AND
 PERFECTION WERE ONCE THOUGHT TO LIE.

             -- THE PSYCHOLOGY OF COMPUTER PROGRAMMING
                GERALD M. WEINBERG
 Job cpu time:       0 days  2 hours  6 minutes 30.1 seconds.
 Elapsed time:       0 days  0 hours  4 minutes 38.8 seconds.
 File lengths (MBytes):  RWF=   7239 Int=      0 D2E=      0 Chk=      8 Scr=      1
 Normal termination of Gaussian 16 at Mon Feb 21 21:09:30 2022.
