title                                                                   
Freq      RMP2-FC                                                     Aug-CC-pVTZ         
Number of atoms                            I                5
Info1-9                                    I   N=           9
          33          24           0           0           0         100
           6           2           1
Full Title                                 C   N=           1
title       
Route                                      C   N=           4
#p freq mp2/aug-cc-pvtz density=current         
Charge                                     I                0
Multiplicity                               I                1
Number of electrons                        I               32
Number of alpha electrons                  I               16
Number of beta electrons                   I               16
Number of basis functions                  I              207
Number of independent functions            I              207
Number of point charges in /Mol/           I                0
Number of translation vectors              I                0
Atomic numbers                             I   N=           5
           1           8           8           7           8
Nuclear charges                            R   N=           5
  1.00000000E+00  8.00000000E+00  8.00000000E+00  7.00000000E+00  8.00000000E+00
Current cartesian coordinates              R   N=          15
  1.03290587E+00 -2.14664734E+00  1.95005537E-01  2.41259841E+00 -9.15126727E-01
 -2.22317421E-02  1.02525544E+00  1.39650895E+00  6.03837385E-03 -1.56031614E+00
  1.04087636E+00  7.57774572E-03 -2.20169046E+00 -1.12381812E+00 -1.48128513E-02
Number of symbols in /Mol/                 I                0
Force Field                                I                0
Atom Types                                 C   N=           5
                                                            
Int Atom Types                             I   N=           5
           0           0           0           0           0
MM charges                                 R   N=           5
  0.00000000E+00  0.00000000E+00  0.00000000E+00  0.00000000E+00  0.00000000E+00
Integer atomic weights                     I   N=           5
           1          16          16          14          16
Real atomic weights                        R   N=           5
  1.00782504E+00  1.59949146E+01  1.59949146E+01  1.40030740E+01  1.59949146E+01
Atom fragment info                         I   N=           5
           0           0           0           0           0
Atom residue num                           I   N=           5
           0           0           0           0           0
Nuclear spins                              I   N=           5
           1           0           0           2           0
Nuclear ZEff                               R   N=           5
 -1.00000000E+00 -5.60000000E+00 -5.60000000E+00 -4.55000000E+00 -5.60000000E+00
Nuclear ZNuc                               R   N=           5
  1.00000000E+00  8.00000000E+00  8.00000000E+00  7.00000000E+00  8.00000000E+00
Nuclear QMom                               R   N=           5
  0.00000000E+00  0.00000000E+00  0.00000000E+00  2.04400000E+00  0.00000000E+00
Nuclear GFac                               R   N=           5
  2.79284600E+00  0.00000000E+00  0.00000000E+00  4.03761000E-01  0.00000000E+00
MicOpt                                     I   N=           5
          -1          -1          -1          -1          -1
Number of residues                         I                0
Number of secondary structures             I                0
SymInf integers                            I   N=          26
           1           1           1           1           1           0
           0           0           0           0           0           0
           0           0           0           0           0           0
           0           0           0           0           0           0
           0           0
RotTr to input orientation                 R   N=          12
 -6.62698076E-01  1.08829543E-01  7.40936833E-01  7.48177812E-01  5.31753060E-02
  6.61364006E-01  3.25763999E-02  9.92637153E-01 -1.16663023E-01  2.28422606E+00
 -1.91831786E-01  6.77147211E-01
Number of contracted shells                I               65
Number of primitive shells                 I              119
Pure/Cartesian d shells                    I                0
Pure/Cartesian f shells                    I                0
Highest angular momentum                   I                3
Largest degree of contraction              I                7
Shell types                                I   N=          65
           0           0           0           0           1           1
           1          -2          -2           0           0           0
           0           0           1           1           1           1
          -2          -2          -2          -3          -3           0
           0           0           0           0           1           1
           1           1          -2          -2          -2          -3
          -3           0           0           0           0           0
           1           1           1           1          -2          -2
          -2          -3          -3           0           0           0
           0           0           1           1           1           1
          -2          -2          -2          -3          -3
Number of primitives per shell             I   N=          65
           3           1           1           1           1           1
           1           1           1           7           6           1
           1           1           3           1           1           1
           1           1           1           1           1           7
           6           1           1           1           3           1
           1           1           1           1           1           1
           1           7           6           1           1           1
           3           1           1           1           1           1
           1           1           1           7           6           1
           1           1           3           1           1           1
           1           1           1           1           1
Shell to atom map                          I   N=          65
           1           1           1           1           1           1
           1           1           1           2           2           2
           2           2           2           2           2           2
           2           2           2           2           2           3
           3           3           3           3           3           3
           3           3           3           3           3           3
           3           4           4           4           4           4
           4           4           4           4           4           4
           4           4           4           5           5           5
           5           5           5           5           5           5
           5           5           5           5           5
Primitive exponents                        R   N=         119
  3.38700000E+01  5.09500000E+00  1.15900000E+00  3.25800000E-01  1.02700000E-01
  2.52600000E-02  1.40700000E+00  3.88000000E-01  1.02000000E-01  1.05700000E+00
  2.47000000E-01  1.53300000E+04  2.29900000E+03  5.22400000E+02  1.47300000E+02
  4.75500000E+01  1.67600000E+01  6.20700000E+00  5.22400000E+02  1.47300000E+02
  4.75500000E+01  1.67600000E+01  6.20700000E+00  6.88200000E-01  1.75200000E+00
  2.38400000E-01  7.37600000E-02  3.44600000E+01  7.74900000E+00  2.28000000E+00
  7.15600000E-01  2.14000000E-01  5.97400000E-02  2.31400000E+00  6.45000000E-01
  2.14000000E-01  1.42800000E+00  5.00000000E-01  1.53300000E+04  2.29900000E+03
  5.22400000E+02  1.47300000E+02  4.75500000E+01  1.67600000E+01  6.20700000E+00
  5.22400000E+02  1.47300000E+02  4.75500000E+01  1.67600000E+01  6.20700000E+00
  6.88200000E-01  1.75200000E+00  2.38400000E-01  7.37600000E-02  3.44600000E+01
  7.74900000E+00  2.28000000E+00  7.15600000E-01  2.14000000E-01  5.97400000E-02
  2.31400000E+00  6.45000000E-01  2.14000000E-01  1.42800000E+00  5.00000000E-01
  1.14200000E+04  1.71200000E+03  3.89300000E+02  1.10000000E+02  3.55700000E+01
  1.25400000E+01  4.64400000E+00  3.89300000E+02  1.10000000E+02  3.55700000E+01
  1.25400000E+01  4.64400000E+00  5.11800000E-01  1.29300000E+00  1.78700000E-01
  5.76000000E-02  2.66300000E+01  5.94800000E+00  1.74200000E+00  5.55000000E-01
  1.72500000E-01  4.91000000E-02  1.65400000E+00  4.69000000E-01  1.51000000E-01
  1.09300000E+00  3.64000000E-01  1.53300000E+04  2.29900000E+03  5.22400000E+02
  1.47300000E+02  4.75500000E+01  1.67600000E+01  6.20700000E+00  5.22400000E+02
  1.47300000E+02  4.75500000E+01  1.67600000E+01  6.20700000E+00  6.88200000E-01
  1.75200000E+00  2.38400000E-01  7.37600000E-02  3.44600000E+01  7.74900000E+00
  2.28000000E+00  7.15600000E-01  2.14000000E-01  5.97400000E-02  2.31400000E+00
  6.45000000E-01  2.14000000E-01  1.42800000E+00  5.00000000E-01
Contraction coefficients                   R   N=         119
  2.54948632E-02  1.90362766E-01  8.52162022E-01  1.00000000E+00  1.00000000E+00
  1.00000000E+00  1.00000000E+00  1.00000000E+00  1.00000000E+00  1.00000000E+00
  1.00000000E+00  5.19808943E-04  4.02025621E-03  2.07128267E-02  8.10105536E-02
  2.35962985E-01  4.42653446E-01  3.57064423E-01 -4.42115008E-05 -1.22591041E-03
 -1.05517725E-02 -6.74452633E-02 -1.71198607E-01  1.07329856E+00  1.00000000E+00
  1.00000000E+00  1.00000000E+00  4.11634896E-02  2.57762836E-01  8.02419274E-01
  1.00000000E+00  1.00000000E+00  1.00000000E+00  1.00000000E+00  1.00000000E+00
  1.00000000E+00  1.00000000E+00  1.00000000E+00  5.19808943E-04  4.02025621E-03
  2.07128267E-02  8.10105536E-02  2.35962985E-01  4.42653446E-01  3.57064423E-01
 -4.42115008E-05 -1.22591041E-03 -1.05517725E-02 -6.74452633E-02 -1.71198607E-01
  1.07329856E+00  1.00000000E+00  1.00000000E+00  1.00000000E+00  4.11634896E-02
  2.57762836E-01  8.02419274E-01  1.00000000E+00  1.00000000E+00  1.00000000E+00
  1.00000000E+00  1.00000000E+00  1.00000000E+00  1.00000000E+00  1.00000000E+00
  5.34563860E-04  4.13435660E-03  2.12335358E-02  8.25006224E-02  2.38138871E-01
  4.42551547E-01  3.53757422E-01 -4.89867350E-05 -1.19527323E-03 -1.03490714E-02
 -6.48680190E-02 -1.71552477E-01  1.07289568E+00  1.00000000E+00  1.00000000E+00
  1.00000000E+00  3.98072123E-02  2.49002660E-01  8.10479727E-01  1.00000000E+00
  1.00000000E+00  1.00000000E+00  1.00000000E+00  1.00000000E+00  1.00000000E+00
  1.00000000E+00  1.00000000E+00  5.19808943E-04  4.02025621E-03  2.07128267E-02
  8.10105536E-02  2.35962985E-01  4.42653446E-01  3.57064423E-01 -4.42115008E-05
 -1.22591041E-03 -1.05517725E-02 -6.74452633E-02 -1.71198607E-01  1.07329856E+00
  1.00000000E+00  1.00000000E+00  1.00000000E+00  4.11634896E-02  2.57762836E-01
  8.02419274E-01  1.00000000E+00  1.00000000E+00  1.00000000E+00  1.00000000E+00
  1.00000000E+00  1.00000000E+00  1.00000000E+00  1.00000000E+00
Coordinates of each shell                  R   N=         195
  1.03290587E+00 -2.14664734E+00  1.95005537E-01  1.03290587E+00 -2.14664734E+00
  1.95005537E-01  1.03290587E+00 -2.14664734E+00  1.95005537E-01  1.03290587E+00
 -2.14664734E+00  1.95005537E-01  1.03290587E+00 -2.14664734E+00  1.95005537E-01
  1.03290587E+00 -2.14664734E+00  1.95005537E-01  1.03290587E+00 -2.14664734E+00
  1.95005537E-01  1.03290587E+00 -2.14664734E+00  1.95005537E-01  1.03290587E+00
 -2.14664734E+00  1.95005537E-01  2.41259841E+00 -9.15126727E-01 -2.22317421E-02
  2.41259841E+00 -9.15126727E-01 -2.22317421E-02  2.41259841E+00 -9.15126727E-01
 -2.22317421E-02  2.41259841E+00 -9.15126727E-01 -2.22317421E-02  2.41259841E+00
 -9.15126727E-01 -2.22317421E-02  2.41259841E+00 -9.15126727E-01 -2.22317421E-02
  2.41259841E+00 -9.15126727E-01 -2.22317421E-02  2.41259841E+00 -9.15126727E-01
 -2.22317421E-02  2.41259841E+00 -9.15126727E-01 -2.22317421E-02  2.41259841E+00
 -9.15126727E-01 -2.22317421E-02  2.41259841E+00 -9.15126727E-01 -2.22317421E-02
  2.41259841E+00 -9.15126727E-01 -2.22317421E-02  2.41259841E+00 -9.15126727E-01
 -2.22317421E-02  2.41259841E+00 -9.15126727E-01 -2.22317421E-02  1.02525544E+00
  1.39650895E+00  6.03837385E-03  1.02525544E+00  1.39650895E+00  6.03837385E-03
  1.02525544E+00  1.39650895E+00  6.03837385E-03  1.02525544E+00  1.39650895E+00
  6.03837385E-03  1.02525544E+00  1.39650895E+00  6.03837385E-03  1.02525544E+00
  1.39650895E+00  6.03837385E-03  1.02525544E+00  1.39650895E+00  6.03837385E-03
  1.02525544E+00  1.39650895E+00  6.03837385E-03  1.02525544E+00  1.39650895E+00
  6.03837385E-03  1.02525544E+00  1.39650895E+00  6.03837385E-03  1.02525544E+00
  1.39650895E+00  6.03837385E-03  1.02525544E+00  1.39650895E+00  6.03837385E-03
  1.02525544E+00  1.39650895E+00  6.03837385E-03  1.02525544E+00  1.39650895E+00
  6.03837385E-03 -1.56031614E+00  1.04087636E+00  7.57774572E-03 -1.56031614E+00
  1.04087636E+00  7.57774572E-03 -1.56031614E+00  1.04087636E+00  7.57774572E-03
 -1.56031614E+00  1.04087636E+00  7.57774572E-03 -1.56031614E+00  1.04087636E+00
  7.57774572E-03 -1.56031614E+00  1.04087636E+00  7.57774572E-03 -1.56031614E+00
  1.04087636E+00  7.57774572E-03 -1.56031614E+00  1.04087636E+00  7.57774572E-03
 -1.56031614E+00  1.04087636E+00  7.57774572E-03 -1.56031614E+00  1.04087636E+00
  7.57774572E-03 -1.56031614E+00  1.04087636E+00  7.57774572E-03 -1.56031614E+00
  1.04087636E+00  7.57774572E-03 -1.56031614E+00  1.04087636E+00  7.57774572E-03
 -1.56031614E+00  1.04087636E+00  7.57774572E-03 -2.20169046E+00 -1.12381812E+00
 -1.48128513E-02 -2.20169046E+00 -1.12381812E+00 -1.48128513E-02 -2.20169046E+00
 -1.12381812E+00 -1.48128513E-02 -2.20169046E+00 -1.12381812E+00 -1.48128513E-02
 -2.20169046E+00 -1.12381812E+00 -1.48128513E-02 -2.20169046E+00 -1.12381812E+00
 -1.48128513E-02 -2.20169046E+00 -1.12381812E+00 -1.48128513E-02 -2.20169046E+00
 -1.12381812E+00 -1.48128513E-02 -2.20169046E+00 -1.12381812E+00 -1.48128513E-02
 -2.20169046E+00 -1.12381812E+00 -1.48128513E-02 -2.20169046E+00 -1.12381812E+00
 -1.48128513E-02 -2.20169046E+00 -1.12381812E+00 -1.48128513E-02 -2.20169046E+00
 -1.12381812E+00 -1.48128513E-02 -2.20169046E+00 -1.12381812E+00 -1.48128513E-02
Num ILSW                                   I              100
ILSW                                       I   N=         100
           0           0           0           0           2           0
           0           0           0           0           0          -1
           5           0           0           0           2           0
           0           0           0           0           1           0
           1           0           0           0           0           0
           0           0      100000           0          -1           0
           0           0           0           0           0           0
           0           0           0           1           1           0
           0 -2000000000           1           0           0           0
           0           0           4          52           0           0
           0           0           0           0           0           0
           0           0           0           5           4           1
           0           0           0           0           0           0
           0           0           0           0           0           0
           0           0           0           0           0           0
           0           0           0           0           0           0
           0           0           0           0
Num RLSW                                   I               52
RLSW                                       R   N=          52
  1.00000000E+00  1.00000000E+00  1.00000000E+00  1.00000000E+00  1.00000000E+00
  0.00000000E+00  0.00000000E+00  1.00000000E+00  0.00000000E+00  0.00000000E+00
  0.00000000E+00  0.00000000E+00  1.00000000E+00  0.00000000E+00  0.00000000E+00
  0.00000000E+00  0.00000000E+00  1.00000000E+00  0.00000000E+00  0.00000000E+00
  0.00000000E+00  0.00000000E+00  1.00000000E+00  0.00000000E+00  0.00000000E+00
  0.00000000E+00  0.00000000E+00  1.00000000E+00  0.00000000E+00  0.00000000E+00
  0.00000000E+00  0.00000000E+00  1.00000000E+00  0.00000000E+00  0.00000000E+00
  0.00000000E+00  0.00000000E+00  0.00000000E+00  1.00000000E+00  1.00000000E+00
  0.00000000E+00  1.00000000E+00  0.00000000E+00  0.00000000E+00  0.00000000E+00
  0.00000000E+00  0.00000000E+00  0.00000000E+00  0.00000000E+00  0.00000000E+00
  0.00000000E+00  0.00000000E+00
MxBond                                     I                2
NBond                                      I   N=           5
           1           2           2           2           1
IBond                                      I   N=          10
           2           0           1           3           2           4
           3           5           4           0
RBond                                      R   N=          10
  1.00000000E+00  0.00000000E+00  1.00000000E+00  1.00000000E+00  1.00000000E+00
  1.00000000E+00  1.00000000E+00  2.00000000E+00  2.00000000E+00  0.00000000E+00
Virial Ratio                               R      2.002229251067768E+00
SCF Energy                                 R     -2.795063480554881E+02
MP2 Energy                                 R     -2.804550840246605E+02
Total Energy                               R     -2.804550840246605E+02
Post-SCF wavefunction norm                 R      1.583715949049917E+00
RMS Force                                  R      7.922679607451856E-04
RMS Density                                R      6.861968365717997E-09
NImag                                      I                0
Job Status                                 I                1
Nuclear derivative order                   I                2
External E-field                           R   N=          35
  0.00000000E+00  0.00000000E+00  0.00000000E+00  0.00000000E+00  0.00000000E+00
  0.00000000E+00  0.00000000E+00  0.00000000E+00  0.00000000E+00  0.00000000E+00
  0.00000000E+00  0.00000000E+00  0.00000000E+00  0.00000000E+00  0.00000000E+00
  0.00000000E+00  0.00000000E+00  0.00000000E+00  0.00000000E+00  0.00000000E+00
  0.00000000E+00  0.00000000E+00  0.00000000E+00  0.00000000E+00  0.00000000E+00
  0.00000000E+00  0.00000000E+00  0.00000000E+00  0.00000000E+00  0.00000000E+00
  0.00000000E+00  0.00000000E+00  0.00000000E+00  0.00000000E+00  0.00000000E+00
IOpCl                                      I                0
IROHF                                      I                0
Alpha Orbital Energies                     R   N=         207
 -2.07196760E+01 -2.06868933E+01 -2.06685274E+01 -1.58257018E+01 -1.64394808E+00
 -1.50508307E+00 -1.29370030E+00 -9.60169220E-01 -8.33967290E-01 -7.58708488E-01
 -7.40105722E-01 -6.38343376E-01 -6.19260813E-01 -6.16491570E-01 -5.04471661E-01
 -4.97622304E-01  3.49628586E-02  6.04881846E-02  9.51179370E-02  1.00412609E-01
  1.19037204E-01  1.22652217E-01  1.49910878E-01  1.51871089E-01  1.76702602E-01
  1.81169381E-01  1.89098620E-01  2.11882220E-01  2.16914156E-01  2.42283445E-01
  2.46234618E-01  2.68918560E-01  3.02933054E-01  3.26065857E-01  3.38363721E-01
  3.43955679E-01  3.47198467E-01  3.92688751E-01  4.43808472E-01  4.86136753E-01
  5.09083875E-01  5.18574047E-01  5.44572018E-01  5.61667033E-01  5.98663353E-01
  6.20451442E-01  6.37626260E-01  6.89879481E-01  7.12293416E-01  7.28332649E-01
  7.43297027E-01  7.60561088E-01  7.71006650E-01  7.91523068E-01  8.06179125E-01
  8.40283152E-01  8.44616004E-01  8.53911372E-01  8.88811400E-01  9.06981193E-01
  9.28765736E-01  9.52960731E-01  9.54065911E-01  1.01733045E+00  1.03477746E+00
  1.05710496E+00  1.06443654E+00  1.09670008E+00  1.14031188E+00  1.15553918E+00
  1.17166254E+00  1.21504388E+00  1.23343675E+00  1.24677252E+00  1.34764801E+00
  1.36090525E+00  1.36937633E+00  1.46085586E+00  1.49717754E+00  1.50720272E+00
  1.53612707E+00  1.57924645E+00  1.60142258E+00  1.61789537E+00  1.63020389E+00
  1.69459989E+00  1.73798354E+00  1.80249252E+00  1.82908570E+00  1.89020848E+00
  1.89403391E+00  1.92929428E+00  1.97591431E+00  1.99482803E+00  2.05049597E+00
  2.12268306E+00  2.12846242E+00  2.16926228E+00  2.19014917E+00  2.24140536E+00
  2.26223722E+00  2.29836965E+00  2.35037884E+00  2.36479810E+00  2.38863363E+00
  2.40054221E+00  2.43148495E+00  2.46529632E+00  2.48228921E+00  2.52713035E+00
  2.53323252E+00  2.54917290E+00  2.56551818E+00  2.61585324E+00  2.63046957E+00
  2.66215726E+00  2.67371738E+00  2.75361731E+00  2.80865930E+00  2.82023118E+00
  2.84622880E+00  2.91817393E+00  2.98280066E+00  3.04308579E+00  3.05191127E+00
  3.11124050E+00  3.12333563E+00  3.16809618E+00  3.21034422E+00  3.30311662E+00
  3.33608574E+00  3.36026760E+00  3.47537690E+00  3.67827138E+00  3.86204600E+00
  3.93050416E+00  4.16407443E+00  4.22039663E+00  4.24195939E+00  4.27849705E+00
  4.37458401E+00  4.49964417E+00  4.51981887E+00  4.55462352E+00  4.60573202E+00
  4.69402542E+00  4.80974576E+00  4.89519792E+00  4.91959324E+00  4.94468993E+00
  4.99548822E+00  5.00767484E+00  5.10531844E+00  5.13153379E+00  5.18364556E+00
  5.24964364E+00  5.26029939E+00  5.31540604E+00  5.34239315E+00  5.35699108E+00
  5.54783000E+00  5.64461117E+00  5.70455102E+00  5.88900631E+00  5.99640086E+00
  6.26828445E+00  6.29664222E+00  6.35794900E+00  6.37606837E+00  6.60091452E+00
  6.65224875E+00  6.66935161E+00  6.69221860E+00  6.72559300E+00  6.78029650E+00
  6.81231965E+00  6.85706086E+00  6.96565827E+00  7.01615389E+00  7.06896373E+00
  7.08564572E+00  7.13985913E+00  7.16848947E+00  7.18019332E+00  7.20239428E+00
  7.24520246E+00  7.24906724E+00  7.27482686E+00  7.34916336E+00  7.39411307E+00
  7.42573530E+00  7.44382019E+00  7.46091372E+00  7.56044768E+00  7.66002099E+00
  7.66490766E+00  7.79764848E+00  7.88416269E+00  7.95128591E+00  8.05085162E+00
  8.30556496E+00  8.49581345E+00  8.65022347E+00  1.36186117E+01  1.47640808E+01
  1.50866461E+01  1.57529139E+01
Alpha MO coefficients                      R   N=       42849
  6.50361512E-05 -7.56592521E-05 -1.03550175E-03  1.17693394E-05 -1.63420722E-05
  6.38956481E-05  5.52577298E-06 -2.41336824E-04 -2.00067506E-04 -1.47590221E-05
 -2.05770212E-04 -2.66187411E-04 -2.52623303E-05  4.40074100E-05  8.14125090E-06
 -5.81971689E-06  6.06235527E-06  2.74345845E-05  2.18827955E-04  4.42701669E-05
 -2.07069317E-05 -1.91477487E-04 -2.44987629E-05  3.09276714E-03 -9.87906616E-05
 -9.84662466E-05  3.54565316E-03  2.44214239E-03  5.11732226E-05 -1.03799235E-04
 -3.20217548E-06 -4.18719443E-04  6.62065433E-04  2.48341369E-05 -9.75188605E-04
  2.06222081E-03  9.99411467E-05 -4.02920665E-04  3.48891374E-04  3.49264892E-05
  2.01137841E-05  2.13623947E-06  9.16569498E-07  3.90304173E-05  2.17037674E-05
 -4.41715912E-04 -1.93921750E-05  4.58404432E-06 -5.00876309E-04 -6.05556879E-04
 -3.67126610E-04 -1.86630240E-05  1.09000183E-05 -5.21099265E-04 -7.35324595E-04
  4.91868767E-07  2.88596155E-05 -8.57723133E-05 -2.45176035E-06 -2.28223254E-06
  1.11677441E-04 -8.92097410E-06 -1.75926508E-05  1.37439525E-04 -1.64406075E-04
 -3.04701045E-06 -1.26355980E-05  3.36200671E-04  6.17784016E-05  9.76903635E-01
 -9.17339548E-03  4.34075068E-02  4.84953202E-04 -2.20151747E-03 -9.07892271E-04
 -1.99750540E-03 -1.49527579E-05  1.07575560E-03  2.00597250E-03  1.12365256E-05
 -2.13659095E-03  9.90100941E-04  3.36366132E-05 -1.19080907E-04  2.05861947E-04
  1.69238285E-06  7.12662281E-06  3.26403316E-07 -6.24115386E-07  3.46906917E-05
  1.62518566E-05  8.27779509E-04  4.22762391E-06 -9.09525548E-06 -3.05681850E-04
  4.01210069E-04 -1.39814400E-04 -8.85266613E-06 -6.55076395E-06  1.79604349E-04
  6.22370133E-04  7.44803509E-08 -5.21294567E-05 -6.00629797E-05 -4.50632641E-07
 -6.06003881E-07  4.85743249E-05 -7.10394164E-06 -5.73136543E-06  7.49059658E-05
 -5.44329485E-05 -1.41849548E-06 -3.01286413E-06  4.67474213E-04  1.95293996E-04
  1.04509700E-04  4.58413892E-04 -3.23430819E-04 -8.18335836E-04  3.81027833E-04
 -9.47154358E-05 -5.45695804E-05  9.95518344E-07  1.21894090E-03  4.81842828E-04
 -2.12423875E-06 -1.01229920E-03 -8.27666984E-05 -8.33093333E-06  2.86005304E-04
  5.34738963E-05  3.69290925E-07 -5.24124393E-05  4.74320661E-07 -4.48205031E-07
  9.44588338E-05  9.11940570E-06 -4.16156805E-04 -7.58914254E-06 -2.61522846E-06
  1.04526469E-03  2.88305912E-04  2.40406702E-05 -6.64965875E-06 -4.29198745E-06
 -6.37024330E-05  3.13672903E-04  5.20668737E-07 -1.30668341E-04 -4.53328113E-05
 -1.13878810E-06  1.53124834E-06  1.31837010E-04  5.67799200E-05  3.09557275E-06
 -7.25193302E-05  1.11957348E-04 -4.48896679E-06 -4.23690116E-06  4.90796390E-04
 -1.83204538E-04 -7.00146369E-04  4.87476546E-05 -6.99659706E-05  1.80159056E-04
 -2.11295949E-04 -4.74368686E-05 -1.61483223E-05  1.22424654E-06  2.84875320E-04
  1.03228008E-04 -6.91576127E-06  6.09274801E-04 -4.76440477E-05  4.27771114E-05
 -2.17172914E-04  7.23461531E-05  4.48838625E-06 -1.32286051E-05 -1.08840834E-06
  3.88987215E-07  1.56850050E-05  9.31733835E-07 -1.06958811E-06  4.09608818E-06
 -7.72161434E-07 -3.98458801E-05  1.62228944E-04 -1.57201378E-05  4.03772188E-05
 -1.35841633E-05 -8.85410246E-05  1.59621278E-04  3.31558974E-06 -1.08870821E-05
 -3.38209984E-06 -3.03486751E-06  2.32851306E-06  1.52774317E-05  1.69553197E-05
 -1.15603217E-05  7.09688495E-05  2.37889637E-05  1.08473344E-05 -6.65053410E-06
 -1.48001126E-04 -1.12369239E-04  4.06679087E-05  7.92826844E-05 -1.70675081E-04
 -3.18937275E-05  1.97076305E-05 -1.54345584E-06 -9.94884191E-07  2.24690664E-04
 -7.83071464E-05 -5.72773040E-06  1.03153654E-04 -5.85961591E-05  1.30454580E-05
  1.39442895E-05 -5.79501319E-06  3.13818738E-06  8.13579439E-06  1.84696603E-05
  2.98683360E-05  2.44125129E-06  2.06211035E-06  1.49681666E-05  1.12313059E-04
 -2.64887794E-04  2.63926982E-05 -1.56497543E-05 -5.54545074E-04  1.89459109E-04
  1.37885462E-05  6.91892761E-06  1.22935341E-06 -2.36111435E-05 -3.43345586E-05
 -9.11482049E-06  2.52405126E-04 -1.73151120E-05 -1.77431244E-05 -1.44735833E-05
  5.98166108E-05 -3.93765527E-06 -1.27044855E-06  8.10722609E-07 -1.09845415E-06
 -1.28480177E-05  4.57105666E-06  2.05663895E-05 -2.75434975E-08  7.14643805E-06
  1.13285939E-04 -1.60611173E-05  6.06985937E-05 -1.66255117E-06  9.84903334E-06
 -1.00367663E-04  2.08295860E-06  2.01132866E-06  1.25071422E-05  3.46438722E-06
 -1.77790537E-06 -3.99995889E-07 -2.30185765E-05  8.86256973E-06 -4.88695284E-06
 -3.32889824E-05 -1.86385104E-05  1.01059505E-05 -5.13400788E-06 -1.27708780E-05
  1.22385539E-05  7.28597546E-04  2.25482910E-05 -1.85537884E-05  2.83995649E-04
 -4.03340218E-04  2.94345786E-05  1.17579682E-05  6.51150224E-07 -1.44338255E-04
 -8.18126945E-05 -3.11338635E-06  1.57050455E-05 -2.60217294E-04  1.29049165E-05
 -3.71919089E-05  2.08539604E-04  7.31002061E-06 -4.02813478E-06  8.33724983E-07
 -2.52957544E-07 -1.81395898E-05  2.50773288E-05 -5.07386313E-05 -4.00997533E-06
  2.43878374E-06  1.40169184E-04 -3.84964375E-05 -6.34417399E-05 -1.03192214E-05
 -3.30993713E-06  2.92929526E-05 -3.36437199E-05  1.06132999E-06  4.67824450E-06
  8.22323517E-07  3.17896257E-07 -1.57988020E-07  4.51818920E-07  8.18808107E-06
 -3.70423845E-06 -1.31815982E-05 -2.21644495E-05  3.34344141E-06  4.29293186E-06
 -1.75647819E-04 -4.07937994E-05  2.37452451E-04  1.35962970E-03 -1.47790757E-04
 -6.34086648E-04  9.15300773E-04  9.01615115E-06 -9.46012654E-05 -2.38619653E-07
 -7.71552931E-04 -2.01891241E-03 -2.27021263E-05  3.99553341E-04  3.16442280E-04
 -1.77656241E-05 -3.05772172E-05 -3.57846631E-04 -3.58316313E-06 -1.27625967E-04
  2.01668806E-06  4.20263271E-06 -2.12393935E-04  1.47018899E-04 -4.62956365E-04
 -3.79813422E-06  1.81013411E-05 -1.05777846E-03  3.03136399E-04 -4.43263125E-05
 -7.78102992E-06  1.47022619E-06  1.27465540E-04 -2.61789766E-05  7.72984579E-07
  2.86730234E-05  2.48842750E-05  5.82673739E-07  9.81676859E-07  4.36083722E-06
  2.47269588E-05  6.61717214E-06 -1.56465898E-05  2.07623791E-04  3.22852773E-06
 -2.04770576E-06  7.01678521E-05  3.08883023E-04  9.76646180E-01 -9.88683142E-03
  4.35755352E-02  3.66890149E-03 -9.01395181E-04  8.97768940E-04  1.98498472E-03
  3.02153230E-05 -1.06943118E-03 -2.32476643E-03 -3.31769186E-05  4.26341567E-04
  6.78373799E-04  3.33408993E-05  4.49894904E-05 -1.14687378E-04 -9.13762830E-07
 -1.94347457E-04 -1.42917609E-06  5.21333810E-06 -6.37083469E-05  5.76481356E-05
  4.09603360E-04 -6.12882426E-06 -1.79612706E-05  7.19618351E-04 -6.74503617E-04
 -2.06256294E-04  1.81322184E-05  8.04208587E-06 -7.23152475E-05  1.14834554E-04
  3.41827586E-06  3.78382910E-05  5.94073838E-05 -7.87619820E-07 -6.68454196E-07
  1.95303019E-05  2.46424786E-05 -4.43397810E-06 -1.72133936E-05  1.27226448E-04
  1.28954069E-05 -5.70309908E-06  2.47027848E-04  9.01194437E-05  3.76831934E-04
  1.97506643E-03  1.32282947E-03 -1.46598449E-05  2.00244587E-04  1.86374322E-04
 -2.66603413E-05  8.98875613E-04  5.89405542E-04 -1.44548758E-04  5.12223944E-05
  2.47301032E-04 -5.28372189E-05 -2.28636713E-05  3.77442133E-06 -1.14419270E-06
 -1.71311902E-05 -3.96068110E-05 -2.06744241E-04 -5.22822004E-05 -5.67073859E-05
  2.80428663E-04  4.41828431E-04  9.76835305E-01 -9.18431657E-03  4.34643836E-02
  1.52594508E-04 -1.88622490E-03 -2.13252436E-03  5.40106786E-04  2.01884706E-04
  2.12613995E-03 -6.16468835E-04 -1.84906352E-04  3.19607991E-05  7.40664337E-04
 -7.90975878E-05 -1.16429611E-06 -3.64165181E-04  1.48244080E-06  3.13847247E-05
 -1.31981050E-06 -3.21516681E-06  3.79111552E-05  8.99089622E-05  7.53064031E-04
  8.74738616E-05  6.52637011E-05  2.76216658E-04  3.09552848E-04 -2.40507368E-04
 -1.38225108E-06  3.48064223E-05  1.14637789E-04 -3.14677012E-04  6.46456192E-06
 -6.31717155E-05  4.89701901E-05 -4.39347420E-06 -3.71628170E-07 -4.61844765E-05