 Entering Gaussian System, Link 0=g16
 Input=hoono_a2_114p2090.gjf
 Output=hoono_a2_114p2090.log
 Initial command:
 /sw/contrib/gaussian/g16/B01/g16/l1.exe "/scr/Gau-6885.inp" -scrdir="/scr/"
 Entering Link 1 = /sw/contrib/gaussian/g16/B01/g16/l1.exe PID=      6886.
  
 Copyright (c) 1988-2017, Gaussian, Inc.  All Rights Reserved.
  
 This is part of the Gaussian(R) 16 program.  It is based on
 the Gaussian(R) 09 system (copyright 2009, Gaussian, Inc.),
 the Gaussian(R) 03 system (copyright 2003, Gaussian, Inc.),
 the Gaussian(R) 98 system (copyright 1998, Gaussian, Inc.),
 the Gaussian(R) 94 system (copyright 1995, Gaussian, Inc.),
 the Gaussian 92(TM) system (copyright 1992, Gaussian, Inc.),
 the Gaussian 90(TM) system (copyright 1990, Gaussian, Inc.),
 the Gaussian 88(TM) system (copyright 1988, Gaussian, Inc.),
 the Gaussian 86(TM) system (copyright 1986, Carnegie Mellon
 University), and the Gaussian 82(TM) system (copyright 1983,
 Carnegie Mellon University). Gaussian is a federally registered
 trademark of Gaussian, Inc.
  
 This software contains proprietary and confidential information,
 including trade secrets, belonging to Gaussian, Inc.
  
 This software is provided under written license and may be
 used, copied, transmitted, or stored only in accord with that
 written license.
  
 The following legend is applicable only to US Government
 contracts under FAR:
  
                    RESTRICTED RIGHTS LEGEND
  
 Use, reproduction and disclosure by the US Government is
 subject to restrictions as set forth in subparagraphs (a)
 and (c) of the Commercial Computer Software - Restricted
 Rights clause in FAR 52.227-19.
  
 Gaussian, Inc.
 340 Quinnipiac St., Bldg. 40, Wallingford CT 06492
  
  
 ---------------------------------------------------------------
 Warning -- This program may not be used in any manner that
 competes with the business of Gaussian, Inc. or will provide
 assistance to any competitor of Gaussian, Inc.  The licensee
 of this program is prohibited from giving any competitor of
 Gaussian, Inc. access to this program.  By using this program,
 the user acknowledges that Gaussian, Inc. is engaged in the
 business of creating and licensing software in the field of
 computational chemistry and represents and warrants to the
 licensee that it is not a competitor of Gaussian, Inc. and that
 it will not use this program in any manner prohibited above.
 ---------------------------------------------------------------
  

 Cite this work as:
 Gaussian 16, Revision B.01,
 M. J. Frisch, G. W. Trucks, H. B. Schlegel, G. E. Scuseria, 
 M. A. Robb, J. R. Cheeseman, G. Scalmani, V. Barone, 
 G. A. Petersson, H. Nakatsuji, X. Li, M. Caricato, A. V. Marenich, 
 J. Bloino, B. G. Janesko, R. Gomperts, B. Mennucci, H. P. Hratchian, 
 J. V. Ortiz, A. F. Izmaylov, J. L. Sonnenberg, D. Williams-Young, 
 F. Ding, F. Lipparini, F. Egidi, J. Goings, B. Peng, A. Petrone, 
 T. Henderson, D. Ranasinghe, V. G. Zakrzewski, J. Gao, N. Rega, 
 G. Zheng, W. Liang, M. Hada, M. Ehara, K. Toyota, R. Fukuda, 
 J. Hasegawa, M. Ishida, T. Nakajima, Y. Honda, O. Kitao, H. Nakai, 
 T. Vreven, K. Throssell, J. A. Montgomery, Jr., J. E. Peralta, 
 F. Ogliaro, M. J. Bearpark, J. J. Heyd, E. N. Brothers, K. N. Kudin, 
 V. N. Staroverov, T. A. Keith, R. Kobayashi, J. Normand, 
 K. Raghavachari, A. P. Rendell, J. C. Burant, S. S. Iyengar, 
 J. Tomasi, M. Cossi, J. M. Millam, M. Klene, C. Adamo, R. Cammi, 
 J. W. Ochterski, R. L. Martin, K. Morokuma, O. Farkas, 
 J. B. Foresman, and D. J. Fox, Gaussian, Inc., Wallingford CT, 2016.
 
 ******************************************
 Gaussian 16:  ES64L-G16RevB.01 20-Dec-2017
                 6-Mar-2022 
 ******************************************
 %nproc=28
 Will use up to   28 processors via shared memory.
 %mem=120GB
 %chk=hoono_a2_114p2090.chk
 ---------------------------------------
 #p freq mp2/aug-cc-pvtz density=current
 ---------------------------------------
 1/10=4,30=1,38=1/1,3;
 2/12=2,17=6,18=5,40=1/2;
 3/5=16,6=1,7=10,11=9,25=1,30=1,71=2,140=1/1,2,3;
 4//1;
 5/5=2,38=5,98=1/2;
 8/6=3,8=1,10=1,19=11,30=-1/1;
 9/15=3,16=-3/6;
 11/6=1,8=1,15=11,17=12,24=-1,27=1,28=-2,29=300,32=6,42=3/1,2,10;
 10/6=2,21=1/2;
 8/6=4,8=1,10=1,19=11,30=-1/11,4;
 10/5=1,20=4/2;
 11/12=2,14=11,16=1,17=2,28=-2,42=3,76=2/2,10,12;
 6/7=2,8=2,9=2,10=2,22=-1/1;
 7/8=1,10=1,12=2,25=1,44=2/1,2,3,16;
 1/10=4,30=1/3;
 99//99;
 Leave Link    1 at Sun Mar  6 19:29:50 2022, MaxMem= 16106127360 cpu:               2.1 elap:               0.1
 (Enter /sw/contrib/gaussian/g16/B01/g16/l101.exe)
 -----
 title
 -----
 Symbolic Z-matrix:
 Charge =  0 Multiplicity = 1
 H
 O                    1    r1
 O                    2    r2       1    a1
 N                    3    r3       2    a2       1    d1       0
 O                    4    r4       3    a3       2    d2       0
       Variables:
  r1                    0.98538                  
  r2                    1.42674                  
  r3                    1.38111                  
  r4                    1.19479                  
  a1                  100.63551                  
  a2                  114.20909                  
  a3                  114.33392                  
  d1                    0.                       
  d2                    0.                       
 
 ITRead=  0  0  0  0  0
 MicOpt= -1 -1 -1 -1 -1
 NAtoms=      5 NQM=        5 NQMF=       0 NMMI=      0 NMMIF=      0
                NMic=       0 NMicF=      0.
                    Isotopes and Nuclear Properties:
 (Nuclear quadrupole moments (NQMom) in fm**2, nuclear magnetic moments (NMagM)
  in nuclear magnetons)

  Atom         1           2           3           4           5
 IAtWgt=           1          16          16          14          16
 AtmWgt=   1.0078250  15.9949146  15.9949146  14.0030740  15.9949146
 NucSpn=           1           0           0           2           0
 AtZEff=  -0.0000000  -0.0000000  -0.0000000  -0.0000000  -0.0000000
 NQMom=    0.0000000   0.0000000   0.0000000   2.0440000   0.0000000
 NMagM=    2.7928460   0.0000000   0.0000000   0.4037610   0.0000000
 AtZNuc=   1.0000000   8.0000000   8.0000000   7.0000000   8.0000000
 Leave Link  101 at Sun Mar  6 19:29:51 2022, MaxMem= 16106127360 cpu:               2.5 elap:               0.1
 (Enter /sw/contrib/gaussian/g16/B01/g16/l103.exe)

 GradGradGradGradGradGradGradGradGradGradGradGradGradGradGradGradGradGrad
 Berny optimization.
 Initialization pass.
                       ----------------------------
                       !    Initial Parameters    !
                       ! (Angstroms and Degrees)  !
 ----------------------                            ----------------------
 !      Name          Value   Derivative information (Atomic Units)     !
 ------------------------------------------------------------------------
 !       r1          0.9854   calculate D2E/DX2 analytically            !
 !       r2          1.4267   calculate D2E/DX2 analytically            !
 !       r3          1.3811   calculate D2E/DX2 analytically            !
 !       r4          1.1948   calculate D2E/DX2 analytically            !
 !       a1        100.6355   calculate D2E/DX2 analytically            !
 !       a2        114.2091   calculate D2E/DX2 analytically            !
 !       a3        114.3339   calculate D2E/DX2 analytically            !
 !       d1          0.0      calculate D2E/DX2 analytically            !
 !       d2          0.0      calculate D2E/DX2 analytically            !
 ------------------------------------------------------------------------
 Trust Radius=3.00D-01 FncErr=1.00D-07 GrdErr=1.00D-07 EigMax=2.50D+02 EigMin=1.00D-04
 Number of steps in this run=      2 maximum allowed number of steps=      2.
 GradGradGradGradGradGradGradGradGradGradGradGradGradGradGradGradGradGrad

 Leave Link  103 at Sun Mar  6 19:29:51 2022, MaxMem= 16106127360 cpu:               0.4 elap:               0.0
 (Enter /sw/contrib/gaussian/g16/B01/g16/l202.exe)
                          Input orientation:                          
 ---------------------------------------------------------------------
 Center     Atomic      Atomic             Coordinates (Angstroms)
 Number     Number       Type             X           Y           Z
 ---------------------------------------------------------------------
      1          1           0        0.000000    0.000000    0.000000
      2          8           0        0.000000    0.000000    0.985377
      3          8           0        1.402227    0.000000    1.248696
      4          7           0        2.191326    0.000000    0.115214
      5          8           0        1.579159    0.000000   -0.910832
 ---------------------------------------------------------------------
                    Distance matrix (angstroms):
                    1          2          3          4          5
     1  H    0.000000
     2  O    0.985377   0.000000
     3  O    1.877627   1.426737   0.000000
     4  N    2.194353   2.357773   1.381108   0.000000
     5  O    1.823008   2.467661   2.166763   1.194788   0.000000
 Stoichiometry    HNO3
 Framework group  CS[SG(HNO3)]
 Deg. of freedom     7
 Full point group                 CS      NOp   2
 Largest Abelian subgroup         CS      NOp   2
 Largest concise Abelian subgroup C1      NOp   1
                         Standard orientation:                         
 ---------------------------------------------------------------------
 Center     Atomic      Atomic             Coordinates (Angstroms)
 Number     Number       Type             X           Y           Z
 ---------------------------------------------------------------------
      1          1           0        1.131736   -0.588054    0.000000
      2          8           0        1.323934    0.378397    0.000000
      3          8           0       -0.000000    0.910164    0.000000
      4          7           0       -0.995029   -0.047633    0.000000
      5          8           0       -0.594750   -1.173375    0.000000
 ---------------------------------------------------------------------
 Rotational constants (GHZ):          21.5549974           7.9813773           5.8246338
 Leave Link  202 at Sun Mar  6 19:29:51 2022, MaxMem= 16106127360 cpu:               0.7 elap:               0.1
 (Enter /sw/contrib/gaussian/g16/B01/g16/l301.exe)
 Standard basis: Aug-CC-pVTZ (5D, 7F)
 Ernie: Thresh=  0.10000D-02 Tol=  0.10000D-05 Strict=F.
 Ernie:  12 primitive shells out of 131 were deleted.
 There are   166 symmetry adapted cartesian basis functions of A'  symmetry.
 There are    79 symmetry adapted cartesian basis functions of A"  symmetry.
 There are   136 symmetry adapted basis functions of A'  symmetry.
 There are    71 symmetry adapted basis functions of A"  symmetry.
   207 basis functions,   315 primitive gaussians,   245 cartesian basis functions
    16 alpha electrons       16 beta electrons
       nuclear repulsion energy       122.4815809553 Hartrees.
 IExCor=    0 DFT=F Ex=HF Corr=None ExCW=0 ScaHFX=  1.000000
 ScaDFX=  1.000000  1.000000  1.000000  1.000000 ScalE2=  1.000000  1.000000
 IRadAn=      5 IRanWt=     -1 IRanGd=            0 ICorTp=0 IEmpDi=  4
 NAtoms=    5 NActive=    5 NUniq=    5 SFac= 1.00D+00 NAtFMM=   60 NAOKFM=F Big=F
 Integral buffers will be    131072 words long.
 Raffenetti 1 integral format.
 Two-electron integral symmetry is turned on.
 Leave Link  301 at Sun Mar  6 19:29:51 2022, MaxMem= 16106127360 cpu:               1.6 elap:               0.1
 (Enter /sw/contrib/gaussian/g16/B01/g16/l302.exe)
 NPDir=0 NMtPBC=     1 NCelOv=     1 NCel=       1 NClECP=     1 NCelD=      1
         NCelK=      1 NCelE2=     1 NClLst=     1 CellRange=     0.0.
 One-electron integrals computed using PRISM.
 One-electron integral symmetry used in STVInt
 NBasis=   207 RedAO= T EigKep=  1.31D-04  NBF=   136    71
 NBsUse=   207 1.00D-06 EigRej= -1.00D+00 NBFU=   136    71
 Leave Link  302 at Sun Mar  6 19:29:51 2022, MaxMem= 16106127360 cpu:               5.9 elap:               0.3
 (Enter /sw/contrib/gaussian/g16/B01/g16/l303.exe)
 DipDrv:  MaxL=1.
 Leave Link  303 at Sun Mar  6 19:29:51 2022, MaxMem= 16106127360 cpu:               0.8 elap:               0.1
 (Enter /sw/contrib/gaussian/g16/B01/g16/l401.exe)
 ExpMin= 2.53D-02 ExpMax= 1.53D+04 ExpMxC= 5.22D+02 IAcc=3 IRadAn=         5 AccDes= 0.00D+00
 Harris functional with IExCor=  205 and IRadAn=       5 diagonalized for initial guess.
 HarFok:  IExCor=  205 AccDes= 0.00D+00 IRadAn=         5 IDoV= 1 UseB2=F ITyADJ=14
 ICtDFT=  3500011 ScaDFX=  1.000000  1.000000  1.000000  1.000000
 FoFCou: FMM=F IPFlag=           0 FMFlag=      100000 FMFlg1=           0
         NFxFlg=           0 DoJE=T BraDBF=F KetDBF=T FulRan=T
         wScrn=  0.000000 ICntrl=       500 IOpCl=  0 I1Cent=   200000004 NGrid=           0
         NMat0=    1 NMatS0=      1 NMatT0=    0 NMatD0=    1 NMtDS0=    0 NMtDT0=    0
 Petite list used in FoFCou.
 Harris En= -279.644634354512    
 JPrj=0 DoOrth=F DoCkMO=F.
 Initial guess orbital symmetries:
       Occupied  (A') (A') (A') (A') (A') (A') (A') (A') (A') (A')
                 (A") (A') (A") (A') (A") (A')
       Virtual   (A") (A') (A') (A') (A') (A") (A') (A') (A') (A')
                 (A") (A') (A") (A') (A') (A") (A') (A') (A") (A')
                 (A') (A') (A') (A') (A") (A') (A') (A') (A") (A')
                 (A') (A") (A") (A') (A') (A") (A') (A") (A') (A")
                 (A') (A") (A') (A") (A') (A') (A') (A') (A") (A')
                 (A') (A") (A') (A") (A') (A") (A') (A') (A') (A")
                 (A') (A') (A") (A') (A') (A') (A") (A") (A') (A')
                 (A") (A') (A") (A") (A') (A') (A") (A') (A') (A')
                 (A") (A') (A') (A") (A') (A") (A") (A') (A') (A')
                 (A') (A") (A') (A") (A') (A') (A") (A') (A") (A')
                 (A") (A') (A') (A") (A") (A') (A') (A') (A") (A')
                 (A") (A') (A') (A') (A") (A') (A') (A') (A") (A')
                 (A") (A') (A') (A") (A") (A") (A") (A') (A') (A')
                 (A') (A') (A') (A") (A') (A") (A') (A") (A') (A')
                 (A") (A') (A") (A') (A') (A") (A') (A') (A') (A")
                 (A') (A') (A') (A") (A') (A") (A") (A') (A") (A')
                 (A') (A") (A") (A') (A") (A') (A') (A") (A") (A')
                 (A") (A") (A") (A') (A") (A') (A') (A') (A') (A")
                 (A') (A') (A') (A') (A') (A') (A') (A') (A') (A')
                 (A')
 The electronic state of the initial guess is 1-A'.
 Leave Link  401 at Sun Mar  6 19:29:51 2022, MaxMem= 16106127360 cpu:               5.7 elap:               0.2
 (Enter /sw/contrib/gaussian/g16/B01/g16/l502.exe)
 Keep R1 ints in memory in symmetry-blocked form, NReq=348887737.
 FoFCou: FMM=F IPFlag=           0 FMFlag=           0 FMFlg1=           0
         NFxFlg=           0 DoJE=F BraDBF=F KetDBF=F FulRan=T
         wScrn=  0.000000 ICntrl=       600 IOpCl=  0 I1Cent=           0 NGrid=           0
         NMat0=    1 NMatS0=  21528 NMatT0=    0 NMatD0=    1 NMtDS0=    0 NMtDT0=    0
 Petite list used in FoFCou.
 Closed shell SCF:
 Using DIIS extrapolation, IDIIS=  1040.
 NGot= 16106127360 LenX= 15988850015 LenY= 15988789549
 Requested convergence on RMS density matrix=1.00D-08 within 128 cycles.
 Requested convergence on MAX density matrix=1.00D-06.
 Requested convergence on             energy=1.00D-06.
 No special actions if energy rises.

 Cycle   1  Pass 1  IDiag  1:
 E= -279.364480647624    
 DIIS: error= 2.75D-02 at cycle   1 NSaved=   1.
 NSaved= 1 IEnMin= 1 EnMin= -279.364480647624     IErMin= 1 ErrMin= 2.75D-02
 ErrMax= 2.75D-02  0.00D+00 EMaxC= 1.00D-01 BMatC= 4.50D-01 BMatP= 4.50D-01
 IDIUse=3 WtCom= 7.25D-01 WtEn= 2.75D-01
 Coeff-Com:  0.100D+01
 Coeff-En:   0.100D+01
 Coeff:      0.100D+01
 Gap=     0.498 Goal=   None    Shift=    0.000
 GapD=    0.498 DampG=2.000 DampE=0.500 DampFc=1.0000 IDamp=-1.
 RMSDP=1.67D-03 MaxDP=8.76D-02              OVMax= 1.22D-01

 Cycle   2  Pass 1  IDiag  1:
 E= -279.446423068462     Delta-E=       -0.081942420838 Rises=F Damp=F
 DIIS: error= 1.91D-02 at cycle   2 NSaved=   2.
 NSaved= 2 IEnMin= 2 EnMin= -279.446423068462     IErMin= 2 ErrMin= 1.91D-02
 ErrMax= 1.91D-02  0.00D+00 EMaxC= 1.00D-01 BMatC= 8.59D-02 BMatP= 4.50D-01
 IDIUse=3 WtCom= 8.09D-01 WtEn= 1.91D-01
 Coeff-Com:  0.218D+00 0.782D+00
 Coeff-En:   0.766D-01 0.923D+00
 Coeff:      0.191D+00 0.809D+00
 Gap=     0.560 Goal=   None    Shift=    0.000
 RMSDP=9.65D-04 MaxDP=3.64D-02 DE=-8.19D-02 OVMax= 9.12D-02

 Cycle   3  Pass 1  IDiag  1:
 E= -279.484163020571     Delta-E=       -0.037739952109 Rises=F Damp=F
 DIIS: error= 1.10D-02 at cycle   3 NSaved=   3.
 NSaved= 3 IEnMin= 3 EnMin= -279.484163020571     IErMin= 3 ErrMin= 1.10D-02
 ErrMax= 1.10D-02  0.00D+00 EMaxC= 1.00D-01 BMatC= 3.09D-02 BMatP= 8.59D-02
 IDIUse=3 WtCom= 8.90D-01 WtEn= 1.10D-01
 Coeff-Com: -0.348D-01 0.365D+00 0.670D+00
 Coeff-En:   0.000D+00 0.218D+00 0.782D+00
 Coeff:     -0.309D-01 0.348D+00 0.683D+00
 Gap=     0.540 Goal=   None    Shift=    0.000
 RMSDP=4.10D-04 MaxDP=1.58D-02 DE=-3.77D-02 OVMax= 3.91D-02

 Cycle   4  Pass 1  IDiag  1:
 E= -279.505282828603     Delta-E=       -0.021119808032 Rises=F Damp=F
 DIIS: error= 1.61D-03 at cycle   4 NSaved=   4.
 NSaved= 4 IEnMin= 4 EnMin= -279.505282828603     IErMin= 4 ErrMin= 1.61D-03
 ErrMax= 1.61D-03  0.00D+00 EMaxC= 1.00D-01 BMatC= 5.92D-04 BMatP= 3.09D-02
 IDIUse=3 WtCom= 9.84D-01 WtEn= 1.61D-02
 Coeff-Com: -0.118D-01 0.461D-01 0.152D+00 0.814D+00
 Coeff-En:   0.000D+00 0.000D+00 0.000D+00 0.100D+01
 Coeff:     -0.117D-01 0.454D-01 0.150D+00 0.817D+00
 Gap=     0.528 Goal=   None    Shift=    0.000
 RMSDP=9.88D-05 MaxDP=2.31D-03 DE=-2.11D-02 OVMax= 1.18D-02

 Cycle   5  Pass 1  IDiag  1:
 E= -279.506090383680     Delta-E=       -0.000807555077 Rises=F Damp=F
 DIIS: error= 1.08D-03 at cycle   5 NSaved=   5.
 NSaved= 5 IEnMin= 5 EnMin= -279.506090383680     IErMin= 5 ErrMin= 1.08D-03
 ErrMax= 1.08D-03  0.00D+00 EMaxC= 1.00D-01 BMatC= 1.02D-04 BMatP= 5.92D-04
 IDIUse=3 WtCom= 9.89D-01 WtEn= 1.08D-02
 Coeff-Com:  0.537D-02-0.659D-01-0.110D+00 0.617D-01 0.111D+01
 Coeff-En:   0.000D+00 0.000D+00 0.000D+00 0.000D+00 0.100D+01
 Coeff:      0.531D-02-0.652D-01-0.109D+00 0.611D-01 0.111D+01
 Gap=     0.531 Goal=   None    Shift=    0.000
 RMSDP=7.96D-05 MaxDP=2.12D-03 DE=-8.08D-04 OVMax= 1.29D-02

 Cycle   6  Pass 1  IDiag  1:
 E= -279.506451439236     Delta-E=       -0.000361055556 Rises=F Damp=F
 DIIS: error= 3.27D-04 at cycle   6 NSaved=   6.
 NSaved= 6 IEnMin= 6 EnMin= -279.506451439236     IErMin= 6 ErrMin= 3.27D-04
 ErrMax= 3.27D-04  0.00D+00 EMaxC= 1.00D-01 BMatC= 2.42D-05 BMatP= 1.02D-04
 IDIUse=3 WtCom= 9.97D-01 WtEn= 3.27D-03
 Coeff-Com:  0.188D-02-0.705D-02-0.177D-01-0.185D+00 0.165D-01 0.119D+01
 Coeff-En:   0.000D+00 0.000D+00 0.000D+00 0.000D+00 0.000D+00 0.100D+01
 Coeff:      0.187D-02-0.702D-02-0.176D-01-0.184D+00 0.165D-01 0.119D+01
 Gap=     0.532 Goal=   None    Shift=    0.000
 RMSDP=4.67D-05 MaxDP=1.08D-03 DE=-3.61D-04 OVMax= 6.09D-03

 Cycle   7  Pass 1  IDiag  1:
 E= -279.506537495923     Delta-E=       -0.000086056688 Rises=F Damp=F
 DIIS: error= 1.36D-04 at cycle   7 NSaved=   7.
 NSaved= 7 IEnMin= 7 EnMin= -279.506537495923     IErMin= 7 ErrMin= 1.36D-04
 ErrMax= 1.36D-04  0.00D+00 EMaxC= 1.00D-01 BMatC= 3.61D-06 BMatP= 2.42D-05
 IDIUse=3 WtCom= 9.99D-01 WtEn= 1.36D-03
 Coeff-Com: -0.109D-02 0.115D-01 0.251D-01 0.162D-01-0.183D+00-0.149D+00
 Coeff-Com:  0.128D+01
 Coeff-En:   0.000D+00 0.000D+00 0.000D+00 0.000D+00 0.000D+00 0.000D+00
 Coeff-En:   0.100D+01
 Coeff:     -0.109D-02 0.114D-01 0.251D-01 0.162D-01-0.183D+00-0.149D+00
 Coeff:      0.128D+01
 Gap=     0.532 Goal=   None    Shift=    0.000
 RMSDP=1.76D-05 MaxDP=5.13D-04 DE=-8.61D-05 OVMax= 2.34D-03

 Cycle   8  Pass 1  IDiag  1:
 E= -279.506549629102     Delta-E=       -0.000012133179 Rises=F Damp=F
 DIIS: error= 4.74D-05 at cycle   8 NSaved=   8.
 NSaved= 8 IEnMin= 8 EnMin= -279.506549629102     IErMin= 8 ErrMin= 4.74D-05
 ErrMax= 4.74D-05  0.00D+00 EMaxC= 1.00D-01 BMatC= 6.03D-07 BMatP= 3.61D-06
 IDIUse=1 WtCom= 1.00D+00 WtEn= 0.00D+00
 Coeff-Com: -0.562D-03 0.411D-02 0.975D-02 0.252D-01-0.580D-01-0.192D+00
 Coeff-Com:  0.352D+00 0.859D+00
 Coeff:     -0.562D-03 0.411D-02 0.975D-02 0.252D-01-0.580D-01-0.192D+00
 Coeff:      0.352D+00 0.859D+00
 Gap=     0.532 Goal=   None    Shift=    0.000
 RMSDP=5.47D-06 MaxDP=1.55D-04 DE=-1.21D-05 OVMax= 6.57D-04

 Cycle   9  Pass 1  IDiag  1:
 E= -279.506551024368     Delta-E=       -0.000001395266 Rises=F Damp=F
 DIIS: error= 2.54D-05 at cycle   9 NSaved=   9.
 NSaved= 9 IEnMin= 9 EnMin= -279.506551024368     IErMin= 9 ErrMin= 2.54D-05
 ErrMax= 2.54D-05  0.00D+00 EMaxC= 1.00D-01 BMatC= 1.18D-07 BMatP= 6.03D-07
 IDIUse=1 WtCom= 1.00D+00 WtEn= 0.00D+00
 Coeff-Com:  0.242D-03-0.258D-02-0.536D-02-0.563D-02 0.472D-01 0.494D-01
 Coeff-Com: -0.340D+00 0.307D-01 0.123D+01
 Coeff:      0.242D-03-0.258D-02-0.536D-02-0.563D-02 0.472D-01 0.494D-01
 Coeff:     -0.340D+00 0.307D-01 0.123D+01
 Gap=     0.532 Goal=   None    Shift=    0.000
 RMSDP=2.47D-06 MaxDP=6.65D-05 DE=-1.40D-06 OVMax= 2.59D-04

 Cycle  10  Pass 1  IDiag  1:
 E= -279.506551291094     Delta-E=       -0.000000266725 Rises=F Damp=F
 DIIS: error= 5.95D-06 at cycle  10 NSaved=  10.
 NSaved=10 IEnMin=10 EnMin= -279.506551291094     IErMin=10 ErrMin= 5.95D-06
 ErrMax= 5.95D-06  0.00D+00 EMaxC= 1.00D-01 BMatC= 8.39D-09 BMatP= 1.18D-07
 IDIUse=1 WtCom= 1.00D+00 WtEn= 0.00D+00
 Coeff-Com: -0.394D-04 0.509D-03 0.123D-02-0.187D-02-0.112D-01 0.485D-02
 Coeff-Com:  0.748D-01-0.535D-01-0.446D+00 0.143D+01
 Coeff:     -0.394D-04 0.509D-03 0.123D-02-0.187D-02-0.112D-01 0.485D-02
 Coeff:      0.748D-01-0.535D-01-0.446D+00 0.143D+01
 Gap=     0.532 Goal=   None    Shift=    0.000
 RMSDP=7.15D-07 MaxDP=2.63D-05 DE=-2.67D-07 OVMax= 7.55D-05

 Cycle  11  Pass 1  IDiag  1:
 E= -279.506551316331     Delta-E=       -0.000000025238 Rises=F Damp=F
 DIIS: error= 2.23D-06 at cycle  11 NSaved=  11.
 NSaved=11 IEnMin=11 EnMin= -279.506551316331     IErMin=11 ErrMin= 2.23D-06
 ErrMax= 2.23D-06  0.00D+00 EMaxC= 1.00D-01 BMatC= 8.10D-10 BMatP= 8.39D-09
 IDIUse=1 WtCom= 1.00D+00 WtEn= 0.00D+00
 Coeff-Com: -0.149D-04 0.146D-03 0.298D-03 0.951D-03-0.179D-02-0.721D-02
 Coeff-Com:  0.160D-01 0.209D-01-0.329D-01-0.364D+00 0.137D+01
 Coeff:     -0.149D-04 0.146D-03 0.298D-03 0.951D-03-0.179D-02-0.721D-02
 Coeff:      0.160D-01 0.209D-01-0.329D-01-0.364D+00 0.137D+01
 Gap=     0.532 Goal=   None    Shift=    0.000
 RMSDP=2.43D-07 MaxDP=9.01D-06 DE=-2.52D-08 OVMax= 2.84D-05

 Cycle  12  Pass 1  IDiag  1:
 E= -279.506551319282     Delta-E=       -0.000000002950 Rises=F Damp=F
 DIIS: error= 6.65D-07 at cycle  12 NSaved=  12.
 NSaved=12 IEnMin=12 EnMin= -279.506551319282     IErMin=12 ErrMin= 6.65D-07
 ErrMax= 6.65D-07  0.00D+00 EMaxC= 1.00D-01 BMatC= 8.09D-11 BMatP= 8.10D-10
 IDIUse=1 WtCom= 1.00D+00 WtEn= 0.00D+00
 Coeff-Com:  0.290D-05-0.475D-04-0.100D-03 0.939D-04 0.112D-02-0.454D-03
 Coeff-Com: -0.742D-02 0.537D-02 0.394D-01-0.951D-01-0.211D+00 0.127D+01
 Coeff:      0.290D-05-0.475D-04-0.100D-03 0.939D-04 0.112D-02-0.454D-03
 Coeff:     -0.742D-02 0.537D-02 0.394D-01-0.951D-01-0.211D+00 0.127D+01
 Gap=     0.532 Goal=   None    Shift=    0.000
 RMSDP=8.19D-08 MaxDP=2.65D-06 DE=-2.95D-09 OVMax= 9.42D-06

 Cycle  13  Pass 1  IDiag  1:
 E= -279.506551319565     Delta-E=       -0.000000000284 Rises=F Damp=F
 DIIS: error= 1.54D-07 at cycle  13 NSaved=  13.
 NSaved=13 IEnMin=13 EnMin= -279.506551319565     IErMin=13 ErrMin= 1.54D-07
 ErrMax= 1.54D-07  0.00D+00 EMaxC= 1.00D-01 BMatC= 6.45D-12 BMatP= 8.09D-11
 IDIUse=1 WtCom= 1.00D+00 WtEn= 0.00D+00
 Coeff-Com:  0.114D-05-0.102D-04-0.136D-04-0.118D-03 0.148D-04 0.888D-03
 Coeff-Com: -0.761D-03-0.250D-02-0.317D-02 0.545D-01-0.122D+00-0.151D+00
 Coeff-Com:  0.122D+01
 Coeff:      0.114D-05-0.102D-04-0.136D-04-0.118D-03 0.148D-04 0.888D-03
 Coeff:     -0.761D-03-0.250D-02-0.317D-02 0.545D-01-0.122D+00-0.151D+00
 Coeff:      0.122D+01
 Gap=     0.532 Goal=   None    Shift=    0.000
 RMSDP=2.10D-08 MaxDP=6.15D-07 DE=-2.84D-10 OVMax= 2.00D-06

 Cycle  14  Pass 1  IDiag  1:
 E= -279.506551319583     Delta-E=       -0.000000000018 Rises=F Damp=F
 DIIS: error= 4.04D-08 at cycle  14 NSaved=  14.
 NSaved=14 IEnMin=14 EnMin= -279.506551319583     IErMin=14 ErrMin= 4.04D-08
 ErrMax= 4.04D-08  0.00D+00 EMaxC= 1.00D-01 BMatC= 4.54D-13 BMatP= 6.45D-12
 IDIUse=1 WtCom= 1.00D+00 WtEn= 0.00D+00
 Coeff-Com: -0.312D-06 0.450D-05 0.885D-05-0.219D-05-0.109D-03 0.438D-04
 Coeff-Com:  0.630D-03-0.265D-03-0.340D-02 0.712D-02 0.167D-01-0.882D-01
 Coeff-Com: -0.131D-01 0.108D+01
 Coeff:     -0.312D-06 0.450D-05 0.885D-05-0.219D-05-0.109D-03 0.438D-04
 Coeff:      0.630D-03-0.265D-03-0.340D-02 0.712D-02 0.167D-01-0.882D-01
 Coeff:     -0.131D-01 0.108D+01
 Gap=     0.532 Goal=   None    Shift=    0.000
 RMSDP=4.12D-09 MaxDP=1.02D-07 DE=-1.75D-11 OVMax= 4.55D-07

 SCF Done:  E(RHF) =  -279.506551320     A.U. after   14 cycles
            NFock= 14  Conv=0.41D-08     -V/T= 2.0023
 KE= 2.788780710354D+02 PE=-9.058348572349D+02 EE= 2.249686539246D+02
 Leave Link  502 at Sun Mar  6 19:29:55 2022, MaxMem= 16106127360 cpu:              52.0 elap:               3.3
 (Enter /sw/contrib/gaussian/g16/B01/g16/l801.exe)
 ExpMin= 2.53D-02 ExpMax= 1.53D+04 ExpMxC= 5.22D+02 IAcc=3 IRadAn=         5 AccDes= 0.00D+00
 HarFok:  IExCor=  205 AccDes= 0.00D+00 IRadAn=         5 IDoV=-2 UseB2=F ITyADJ=14
 ICtDFT= 12500011 ScaDFX=  1.000000  1.000000  1.000000  1.000000
 Largest valence mixing into a core orbital is  2.07D-04
 Largest core mixing into a valence orbital is  3.10D-05
 Range of M.O.s used for correlation:     5   207
 NBasis=   207 NAE=    16 NBE=    16 NFC=     4 NFV=     0
 NROrb=    203 NOA=    12 NOB=    12 NVA=   191 NVB=   191

 **** Warning!!: The largest alpha MO coefficient is  0.15876659D+02

 Leave Link  801 at Sun Mar  6 19:29:55 2022, MaxMem= 16106127360 cpu:               2.0 elap:               0.1
 (Enter /sw/contrib/gaussian/g16/B01/g16/l906.exe)
 Frozen-core derivative calculation, NFC=   4 NFV=   0.
 FulOut=F Deriv=T AODrv=T NAtomX=     5
   MMem=           0  MDisk=          12 MDiskD=          12
  W3Min=      811440 MinDsk=     2425030 NBas6D=         245
 NBas2D=       30762    NTT=       30135    LW2=     7400000
    MDV= 16105571616 MDiskM=      328644 NBas2p=       30759
 Disk-based method using ON**2 memory for 12 occupieds at a time.
 Permanent disk used for amplitudes=    11516536 words.
 Estimated scratch disk usage=   321863743 words.
 IMap=   1   2   3   4   5   6   7   8   9  10  11  12  13  14  15  16
 Actual    scratch disk usage=   310892607 words.
 JobTyp=1 Pass  1:  I=   5 to  16 NPSUse= 28 ParTrn=T ParDer=T DoDerP=T.
 (rs|ai) integrals will be sorted in core.
 Spin components of T(2) and E(2):
     alpha-alpha T2 =       0.3479049029D-01 E2=     -0.1244840220D+00
     alpha-beta  T2 =       0.1845805950D+00 E2=     -0.6996372952D+00
     beta-beta   T2 =       0.3479049029D-01 E2=     -0.1244840220D+00
 The integrals were generated   1 times.
 ANorm=    0.1119893555D+01
 E2 =    -0.9486053392D+00 EUMP2 =    -0.28045515665879D+03
 Leave Link  906 at Sun Mar  6 19:31:32 2022, MaxMem= 16106127360 cpu:            2715.6 elap:              97.1
 (Enter /sw/contrib/gaussian/g16/B01/g16/l1101.exe)
 Using compressed Sx but separate Hx and Fx, NAtomX=     5.
 Will process      6 centers per pass.
 Leave Link 1101 at Sun Mar  6 19:31:32 2022, MaxMem= 16106127360 cpu:               5.6 elap:               0.2
 (Enter /sw/contrib/gaussian/g16/B01/g16/l1102.exe)
 Leave Link 1102 at Sun Mar  6 19:31:32 2022, MaxMem= 16106127360 cpu:               1.0 elap:               0.1
 (Enter /sw/contrib/gaussian/g16/B01/g16/l1110.exe)
 Forming Gx(P) for the SCF density, NAtomX=     5.
 Integral derivatives from FoFJK, PRISM(SPDF).
 Do as many integral derivatives as possible in FoFJK.
 G2DrvN: MDV=   16106126844.
 G2DrvN: will do     6 centers at a time, making    1 passes.
 Calling FoFCou, ICntrl=  3107 FMM=F I1Cent=   0 AccDes= 0.00D+00.
 FoFJK:  IHMeth= 1 ICntrl=    3107 DoSepK=F KAlg= 0 I1Cent=           0 FoldK=F
 IRaf=         0 NMat=       1 IRICut=       1 DoRegI=T DoRafI=F ISym2E= 1 IDoP0=0 IntGTp=1.
 FoFCou: FMM=F IPFlag=           0 FMFlag=      100000 FMFlg1=           0
         NFxFlg=           0 DoJE=F BraDBF=F KetDBF=F FulRan=T
         wScrn=  0.000000 ICntrl=      3107 IOpCl=  0 I1Cent=           0 NGrid=           0
         NMat0=    1 NMatS0=      1 NMatT0=    0 NMatD0=    1 NMtDS0=    0 NMtDT0=    0
 Petite list used in FoFCou.
 End of G2Drv F.D. properties file   721 does not exist.
 End of G2Drv F.D. properties file   722 does not exist.
 End of G2Drv F.D. properties file   788 does not exist.
 Leave Link 1110 at Sun Mar  6 19:31:35 2022, MaxMem= 16106127360 cpu:              87.4 elap:               3.1
 (Enter /sw/contrib/gaussian/g16/B01/g16/l1002.exe)
 Minotr:  Closed shell wavefunction.
          IDoAtm=11111
          Frozen-core window.
          Direct CPHF calculation.
          Differentiating once with respect to electric field.
                with respect to dipole field.
          Differentiating once with respect to nuclear coordinates.
          Requested convergence is 1.0D-08 RMS, and 1.0D-07 maximum.
          Secondary convergence is 1.0D-12 RMS, and 1.0D-12 maximum.
          NewPWx=T KeepS1=T KeepF1=T KeepIn=T MapXYZ=F SortEE=F KeepMc=T.
 Keep R1 ints in memory in symmetry-blocked form, NReq=348888983.
 FoFCou: FMM=F IPFlag=           0 FMFlag=           0 FMFlg1=           0
         NFxFlg=           0 DoJE=F BraDBF=F KetDBF=F FulRan=T
         wScrn=  0.000000 ICntrl=       600 IOpCl=  0 I1Cent=           0 NGrid=           0
         NMat0=    1 NMatS0=  21528 NMatT0=    0 NMatD0=    1 NMtDS0=    0 NMtDT0=    0
 Petite list used in FoFCou.
          MDV=   16106127360 using IRadAn=       1.
          Solving linear equations simultaneously, MaxMat=       0.
          There are    18 degrees of freedom in the 1st order CPHF.  IDoFFX=6 NUNeed=    18.
     15 vectors produced by pass  0 Test12= 1.70D-14 5.56D-09 XBig12= 7.91D+00 1.23D+00.
 AX will form    15 AO Fock derivatives at one time.
     15 vectors produced by pass  1 Test12= 1.70D-14 5.56D-09 XBig12= 1.35D+00 2.22D-01.
     15 vectors produced by pass  2 Test12= 1.70D-14 5.56D-09 XBig12= 6.78D-02 5.86D-02.
     15 vectors produced by pass  3 Test12= 1.70D-14 5.56D-09 XBig12= 1.98D-03 1.08D-02.
     15 vectors produced by pass  4 Test12= 1.70D-14 5.56D-09 XBig12= 4.48D-05 1.22D-03.
     15 vectors produced by pass  5 Test12= 1.70D-14 5.56D-09 XBig12= 6.39D-07 1.17D-04.
     15 vectors produced by pass  6 Test12= 1.70D-14 5.56D-09 XBig12= 4.84D-09 1.16D-05.
     14 vectors produced by pass  7 Test12= 1.70D-14 5.56D-09 XBig12= 3.55D-11 8.58D-07.
      3 vectors produced by pass  8 Test12= 1.70D-14 5.56D-09 XBig12= 2.43D-13 6.24D-08.
      1 vectors produced by pass  9 Test12= 1.70D-14 5.56D-09 XBig12= 1.66D-15 6.80D-09.
 InvSVY:  IOpt=1 It=  1 EMax= 7.77D-16
 Solved reduced A of dimension   123 with    15 vectors.
 FullF1:  Do perturbations      1 to      18.
 Saving first derivative matrices.
 End of Minotr F.D. properties file   721 does not exist.
 End of Minotr F.D. properties file   722 does not exist.
 End of Minotr F.D. properties file   788 does not exist.
 Leave Link 1002 at Sun Mar  6 19:31:38 2022, MaxMem= 16106127360 cpu:              76.7 elap:               2.9
 (Enter /sw/contrib/gaussian/g16/B01/g16/l811.exe)
 MDV= 16106127360.
 Form MO integral derivatives with frozen-active canonical formalism.
 MOERI=1 MOERIx=1 NAtoms=     5 NAtomX=     5.
 Discarding MO integrals.
 MO basis two electron integral derivatives will not be stored on disk.
 IAlg= 3 DoFC=T DoPWx=T Debug=F.
 Frozen-core window:  NFC=   4 NFV=   0.
 Reordered first order wavefunction length =     18678272
 In DefCFB: NBatch=  1 ICI= 16 ICA=191 LFMax= 96
            Large arrays: LIAPS=   619940160 LIARS=   288257200 words.
 In StABat: MaxSiz= 55 MinSiz= 25 NAtomB=  5
 DoIAMN: NPSUse= 28.
 Leave Link  811 at Sun Mar  6 19:33:01 2022, MaxMem= 16106127360 cpu:            2315.6 elap:              82.9
 (Enter /sw/contrib/gaussian/g16/B01/g16/l804.exe)
 Frozen-core window:  NFC=   4 NFV=   0.
 Closed-shell transformation, MDV= 16106127360 ITran=4 ISComp=1.
 Semi-Direct transformation.
 ModeAB=           2 MOrb=            16 LenV=   16104919995
 LASXX=     67341636 LTotXX=    67341636 LenRXX=    67341636
 LTotAB=    68301760 MaxLAS=    99807120 LenRXY=    99807120
 NonZer=   134683272 LenScr=   202817536 LnRSAI=           0
 LnScr1=           0 LExtra=           0 Total=    369966292
 MaxDsk=          -1 SrtSym=           F ITran=            4
 DoSDTr:  NPSUse= 28
 JobTyp=0 Pass  1:  I=   1 to  16.
 (rs|ai) integrals will be sorted in core.
 Complete sort for first half transformation.
 First half transformation complete.
 Begin second half transformation for I=  10.
 Begin second half transformation for I=  10.
 Complete sort for second half transformation.
 Second half transformation complete.
 Spin components of T(2) and E(2):
     alpha-alpha T2 =       0.3479049029D-01 E2=     -0.1244840220D+00
     alpha-beta  T2 =       0.1845805950D+00 E2=     -0.6996372952D+00
     beta-beta   T2 =       0.3479049029D-01 E2=     -0.1244840220D+00
 ANorm=    0.1583768655D+01
 E2 =    -0.9486053392D+00 EUMP2 =    -0.28045515665879D+03
 Leave Link  804 at Sun Mar  6 19:33:17 2022, MaxMem= 16106127360 cpu:             447.8 elap:              16.1
 (Enter /sw/contrib/gaussian/g16/B01/g16/l1002.exe)
 Minotr:  Closed shell wavefunction.
          Computing MP2/KS-MP2 derivatives.
          Using Z-Vector for PSCF gradient.
          Skipping F1 and S1 gradient terms here.
          IDoAtm=11111
          Frozen-core window.
          Using MO integrals in the linear equations.
          Forming densities via direct SCF.
          Differentiating once with respect to electric field.
                with respect to dipole field.
          Differentiating once with respect to nuclear coordinates.
          Using symmetry in CPHF.
          Requested convergence is 1.0D-10 RMS, and 1.0D-09 maximum.
          NewPWx=F KeepS1=T KeepF1=T KeepIn=T MapXYZ=F SortEE=F KeepMc=T.
          MDV=   16106127360 using IRadAn=       5.
          Solving linear equations separately, MaxMat=       0.
          There are     1 degrees of freedom in the 1st order CPHF.  IDoFFX=0 NUNeed=     1.
 FoFJK:  IHMeth= 1 ICntrl=       0 DoSepK=F KAlg= 0 I1Cent=           0 FoldK=F
 IRaf=         0 NMat=       1 IRICut=       1 DoRegI=T DoRafI=F ISym2E= 0 IDoP0=0 IntGTp=1.
 FoFCou: FMM=F IPFlag=           0 FMFlag=      100000 FMFlg1=           0
         NFxFlg=           0 DoJE=F BraDBF=F KetDBF=F FulRan=T
         wScrn=  0.000000 ICntrl=         0 IOpCl=  0 I1Cent=           0 NGrid=           0
         NMat0=    1 NMatS0=      1 NMatT0=    0 NMatD0=    1 NMtDS0=    0 NMtDT0=    0
 Symmetry not used in FoFCou.
 LinEq1:  Iter=  0 NonCon=     1 RMS=6.59D-03 Max=1.69D-01 NDo=     1
 LinEq1:  Iter=  1 NonCon=     1 RMS=2.00D-03 Max=3.08D-02 NDo=     1
 LinEq1:  Iter=  2 NonCon=     1 RMS=8.86D-04 Max=1.44D-02 NDo=     1
 LinEq1:  Iter=  3 NonCon=     1 RMS=3.80D-04 Max=8.18D-03 NDo=     1
 LinEq1:  Iter=  4 NonCon=     1 RMS=1.37D-04 Max=1.75D-03 NDo=     1
 LinEq1:  Iter=  5 NonCon=     1 RMS=7.67D-05 Max=1.38D-03 NDo=     1
 LinEq1:  Iter=  6 NonCon=     1 RMS=2.44D-05 Max=3.66D-04 NDo=     1
 LinEq1:  Iter=  7 NonCon=     1 RMS=8.06D-06 Max=1.07D-04 NDo=     1
 LinEq1:  Iter=  8 NonCon=     1 RMS=3.97D-06 Max=6.18D-05 NDo=     1
 LinEq1:  Iter=  9 NonCon=     1 RMS=1.04D-06 Max=1.25D-05 NDo=     1
 LinEq1:  Iter= 10 NonCon=     1 RMS=2.30D-07 Max=3.10D-06 NDo=     1
 LinEq1:  Iter= 11 NonCon=     1 RMS=4.91D-08 Max=8.50D-07 NDo=     1
 LinEq1:  Iter= 12 NonCon=     1 RMS=1.16D-08 Max=1.81D-07 NDo=     1
 LinEq1:  Iter= 13 NonCon=     1 RMS=2.03D-09 Max=2.42D-08 NDo=     1
 LinEq1:  Iter= 14 NonCon=     1 RMS=4.18D-10 Max=5.66D-09 NDo=     1
 LinEq1:  Iter= 15 NonCon=     0 RMS=8.61D-11 Max=8.18D-10 NDo=     1
 Linear equations converged to 1.000D-10 1.000D-09 after    15 iterations.
 End of Minotr F.D. properties file   721 does not exist.
 End of Minotr F.D. properties file   722 does not exist.
 End of Minotr F.D. properties file   788 does not exist.
 Leave Link 1002 at Sun Mar  6 19:33:20 2022, MaxMem= 16106127360 cpu:              64.9 elap:               2.4
 (Enter /sw/contrib/gaussian/g16/B01/g16/l1102.exe)
 Use density number 2.
 Symmetrizing basis deriv contribution to polar:
 IMax=3 JMax=2 DiffMx= 0.00D+00
 Leave Link 1102 at Sun Mar  6 19:33:20 2022, MaxMem= 16106127360 cpu:               0.6 elap:               0.1
 (Enter /sw/contrib/gaussian/g16/B01/g16/l1110.exe)
 Forming Gx(P) for generalized density number  2 NAtomX=     5.
 Integral derivatives from FoFJK, PRISM(SPDF).
 Do as many integral derivatives as possible in FoFJK.
 G2DrvN: MDV=   16106126844.
 G2DrvN: will do     6 centers at a time, making    1 passes.
 Calling FoFCou, ICntrl=  3107 FMM=F I1Cent=   0 AccDes= 0.00D+00.
 FoFJK:  IHMeth= 1 ICntrl=    3107 DoSepK=F KAlg= 0 I1Cent=           0 FoldK=F
 IRaf=         0 NMat=       1 IRICut=       1 DoRegI=T DoRafI=F ISym2E= 1 IDoP0=0 IntGTp=1.
 FoFCou: FMM=F IPFlag=           0 FMFlag=      100000 FMFlg1=           0
         NFxFlg=           0 DoJE=F BraDBF=F KetDBF=F FulRan=T
         wScrn=  0.000000 ICntrl=      3107 IOpCl=  0 I1Cent=           0 NGrid=           0
         NMat0=    1 NMatS0=      1 NMatT0=    0 NMatD0=    1 NMtDS0=    0 NMtDT0=    0
 Petite list used in FoFCou.
 End of G2Drv F.D. properties file   721 does not exist.
 End of G2Drv F.D. properties file   722 does not exist.
 End of G2Drv F.D. properties file   788 does not exist.
 Leave Link 1110 at Sun Mar  6 19:33:23 2022, MaxMem= 16106127360 cpu:              86.5 elap:               3.1
 (Enter /sw/contrib/gaussian/g16/B01/g16/l1112.exe)
 MP22nd: MDV=   16106127360
 This link is doing NAtomX=     5 total of    18 degrees of freedom.
 Using ON3 I/O method in MakUI.
 Frozen-core window:  NFC=   4 NFV=   0.
 Using Ix for Sx.
 Use MO integrals over full window.
 Using OV2 memory method for fx*t*t/D, MaxI=    16 DoOO2=F NP=  28.
 R2 and R3 integrals will be kept in memory, NReq=   915591705.
 FoFCou: FMM=F IPFlag=           0 FMFlag=           0 FMFlg1=           0
         NFxFlg=           0 DoJE=F BraDBF=F KetDBF=F FulRan=T
         wScrn=  0.000000 ICntrl=       600 IOpCl=  0 I1Cent=           0 NGrid=           0
         NMat0=    1 NMatS0=      1 NMatT0=    0 NMatD0=    1 NMtDS0=    0 NMtDT0=    0
 Symmetry not used in FoFCou.
 DD1Dir will call FoFMem   1 times, MxPair=       272
 NAB=   136 NAA=     0 NBB=     0.
 Symmetry is being used.
 FoFJK:  IHMeth= 1 ICntrl=       0 DoSepK=F KAlg= 0 I1Cent=           0 FoldK=F
 IRaf=         0 NMat=      18 IRICut=      45 DoRegI=T DoRafI=T ISym2E= 2 IDoP0=3 IntGTp=3.
 Discarding MO integrals.
 Leave Link 1112 at Sun Mar  6 19:33:54 2022, MaxMem= 16106127360 cpu:             877.5 elap:              31.6
 (Enter /sw/contrib/gaussian/g16/B01/g16/l601.exe)
 Copying SCF densities to generalized density rwf, IOpCl= 0 IROHF=0.

 **********************************************************************

            Population analysis using the MP2 Density.

 **********************************************************************

 Orbital symmetries:
       Occupied  (A') (A') (A') (A') (A') (A') (A') (A') (A') (A')
                 (A") (A') (A") (A') (A') (A")
       Virtual   (A') (A") (A') (A') (A") (A') (A') (A') (A") (A')
                 (A") (A') (A') (A') (A") (A') (A') (A") (A') (A')
                 (A') (A') (A') (A') (A") (A') (A') (A") (A') (A')
                 (A') (A") (A") (A') (A') (A') (A") (A') (A") (A')
                 (A") (A") (A') (A') (A") (A') (A') (A") (A') (A')
                 (A') (A") (A') (A') (A") (A') (A") (A') (A") (A')
                 (A') (A') (A") (A') (A') (A') (A") (A") (A') (A')
                 (A") (A') (A") (A") (A') (A') (A") (A') (A') (A')
                 (A") (A') (A') (A") (A') (A") (A") (A') (A') (A')
                 (A') (A') (A") (A") (A') (A') (A") (A") (A') (A')
                 (A") (A') (A") (A') (A") (A') (A') (A') (A") (A')
                 (A") (A') (A') (A') (A") (A') (A') (A') (A") (A')
                 (A") (A") (A') (A') (A") (A") (A') (A") (A') (A')
                 (A') (A') (A") (A') (A') (A") (A") (A') (A') (A')
                 (A") (A") (A') (A') (A') (A") (A') (A') (A') (A")
                 (A') (A') (A') (A") (A") (A') (A") (A') (A') (A")
                 (A') (A") (A') (A") (A") (A') (A') (A") (A") (A")
                 (A') (A") (A") (A') (A') (A") (A') (A') (A') (A")
                 (A') (A') (A') (A') (A') (A') (A') (A') (A') (A')
                 (A')
 The electronic state is 1-A'.
 Alpha  occ. eigenvalues --  -20.71850 -20.68664 -20.66971 -15.82606  -1.64282
 Alpha  occ. eigenvalues --   -1.50529  -1.29383  -0.96018  -0.83266  -0.75838
 Alpha  occ. eigenvalues --   -0.73915  -0.63901  -0.61876  -0.61760  -0.50400
 Alpha  occ. eigenvalues --   -0.49717
 Alpha virt. eigenvalues --    0.03485   0.06072   0.09517   0.10076   0.11973
 Alpha virt. eigenvalues --    0.12248   0.14879   0.15149   0.17762   0.18062
 Alpha virt. eigenvalues --    0.18992   0.21104   0.21668   0.24111   0.24648
 Alpha virt. eigenvalues --    0.26898   0.31123   0.31527   0.33793   0.34494
 Alpha virt. eigenvalues --    0.34762   0.39150   0.44718   0.48798   0.50481
 Alpha virt. eigenvalues --    0.51923   0.54486   0.56143   0.60015   0.62051
 Alpha virt. eigenvalues --    0.63833   0.68883   0.71746   0.72487   0.74187
 Alpha virt. eigenvalues --    0.76170   0.76648   0.79553   0.80493   0.84133
 Alpha virt. eigenvalues --    0.84350   0.85141   0.88510   0.90697   0.92915
 Alpha virt. eigenvalues --    0.94775   0.95362   1.01861   1.02990   1.05567
 Alpha virt. eigenvalues --    1.06483   1.09242   1.14083   1.15600   1.16930
 Alpha virt. eigenvalues --    1.22190   1.22558   1.24688   1.34787   1.36617
 Alpha virt. eigenvalues --    1.37513   1.46729   1.48501   1.50616   1.53966
 Alpha virt. eigenvalues --    1.59310   1.59780   1.60544   1.62565   1.69586
 Alpha virt. eigenvalues --    1.74046   1.80220   1.83096   1.88855   1.89213
 Alpha virt. eigenvalues --    1.92654   1.97839   1.98777   2.05105   2.12692
 Alpha virt. eigenvalues --    2.12795   2.16389   2.18437   2.24178   2.25736
 Alpha virt. eigenvalues --    2.29547   2.34661   2.36159   2.38827   2.39957
 Alpha virt. eigenvalues --    2.43154   2.46790   2.47568   2.52650   2.53427
 Alpha virt. eigenvalues --    2.54892   2.55773   2.61317   2.62723   2.66951
 Alpha virt. eigenvalues --    2.67060   2.75426   2.80916   2.81182   2.84252
 Alpha virt. eigenvalues --    2.91490   2.98513   3.04591   3.04598   3.11675
 Alpha virt. eigenvalues --    3.11951   3.16212   3.21295   3.30767   3.33228
 Alpha virt. eigenvalues --    3.36707   3.47284   3.68297   3.86850   3.91975
 Alpha virt. eigenvalues --    4.17831   4.21647   4.22202   4.26003   4.36534
 Alpha virt. eigenvalues --    4.50310   4.50435   4.55653   4.59674   4.69820
 Alpha virt. eigenvalues --    4.81370   4.90143   4.91320   4.93792   4.99952
 Alpha virt. eigenvalues --    5.00669   5.10877   5.12930   5.18159   5.24813
 Alpha virt. eigenvalues --    5.25825   5.31768   5.32709   5.35050   5.55192
 Alpha virt. eigenvalues --    5.64552   5.70338   5.88703   5.99999   6.26724
 Alpha virt. eigenvalues --    6.29680   6.36096   6.37891   6.59650   6.65014
 Alpha virt. eigenvalues --    6.65730   6.68582   6.72877   6.79997   6.80478
 Alpha virt. eigenvalues --    6.84834   6.96736   7.02046   7.06612   7.08102
 Alpha virt. eigenvalues --    7.13534   7.16388   7.17482   7.20240   7.24515
 Alpha virt. eigenvalues --    7.24815   7.26983   7.34506   7.38870   7.42484
 Alpha virt. eigenvalues --    7.44309   7.46340   7.55523   7.65854   7.66509
 Alpha virt. eigenvalues --    7.79574   7.88070   7.94666   8.04914   8.30076
 Alpha virt. eigenvalues --    8.49519   8.65502  13.60562  14.78463  15.08327
 Alpha virt. eigenvalues --   15.72491
          Condensed to atoms (all electrons):
               1          2          3          4          5
     1  H    0.575160   0.126185   0.024536  -0.001209  -0.005355
     2  O    0.126185   8.387755  -0.233924  -0.000752  -0.006497
     3  O    0.024536  -0.233924   8.374365  -0.167520  -0.035632
     4  N   -0.001209  -0.000752  -0.167520   7.133224  -0.115805
     5  O   -0.005355  -0.006497  -0.035632  -0.115805   8.361441
 Mulliken charges:
               1
     1  H    0.280683
     2  O   -0.272766
     3  O    0.038175
     4  N    0.152060
     5  O   -0.198153
 Sum of Mulliken charges =  -0.00000
 Mulliken charges with hydrogens summed into heavy atoms:
               1
     2  O    0.007917
     3  O    0.038175
     4  N    0.152060
     5  O   -0.198153
 APT charges:
               1
     1  H    0.268639
     2  O   -0.303170
     3  O   -0.308488
     4  N    0.646468
     5  O   -0.303449
 Sum of APT charges =  -0.00000
 APT charges with hydrogens summed into heavy atoms:
               1
     2  O   -0.034531
     3  O   -0.308488
     4  N    0.646468
     5  O   -0.303449
 Electronic spatial extent (au):  <R**2>=            208.6229
 Charge=              0.0000 electrons
 Dipole moment (field-independent basis, Debye):
    X=              0.0856    Y=             -1.1040    Z=              0.0000  Tot=              1.1073
 Quadrupole moment (field-independent basis, Debye-Ang):
   XX=            -23.2908   YY=            -23.0155   ZZ=            -21.9370
   XY=             -1.9979   XZ=              0.0000   YZ=              0.0000
 Traceless Quadrupole moment (field-independent basis, Debye-Ang):
   XX=             -0.5430   YY=             -0.2678   ZZ=              0.8108
   XY=             -1.9979   XZ=              0.0000   YZ=              0.0000
 Octapole moment (field-independent basis, Debye-Ang**2):
  XXX=              2.6835  YYY=              0.3087  ZZZ=              0.0000  XYY=              2.3632
  XXY=             -2.8722  XXZ=              0.0000  XZZ=             -0.5891  YZZ=             -0.7133
  YYZ=              0.0000  XYZ=              0.0000
 Hexadecapole moment (field-independent basis, Debye-Ang**3):
 XXXX=           -128.1067 YYYY=            -95.1850 ZZZZ=            -18.0472 XXXY=            -22.2602
 XXXZ=              0.0000 YYYX=            -20.3716 YYYZ=              0.0000 ZZZX=              0.0000
 ZZZY=              0.0000 XXYY=            -35.9824 XXZZ=            -24.5754 YYZZ=            -18.6331
 XXYZ=              0.0000 YYXZ=              0.0000 ZZXY=             -6.1145
 N-N= 1.224815809553D+02 E-N=-9.065252332544D+02  KE= 2.801968109059D+02
 Symmetry A'   KE= 2.663427877300D+02
 Symmetry A"   KE= 1.385402317589D+01
  Exact polarizability:  31.130   4.247  29.931   0.000   0.000  17.639
 Approx polarizability:  24.691   0.614  27.649  -0.000  -0.000  15.526
 No NMR shielding tensors so no spin-rotation constants.
 Leave Link  601 at Sun Mar  6 19:33:55 2022, MaxMem= 16106127360 cpu:               4.3 elap:               0.2
 (Enter /sw/contrib/gaussian/g16/B01/g16/l701.exe)
 ... and contract with generalized density number  2.
 Compute integral second derivatives.
 Leave Link  701 at Sun Mar  6 19:33:55 2022, MaxMem= 16106127360 cpu:               8.2 elap:               0.3
 (Enter /sw/contrib/gaussian/g16/B01/g16/l702.exe)
 L702 exits ... SP integral derivatives will be done elsewhere.
 Leave Link  702 at Sun Mar  6 19:33:55 2022, MaxMem= 16106127360 cpu:               0.5 elap:               0.0
 (Enter /sw/contrib/gaussian/g16/B01/g16/l703.exe)
 Integral derivatives from FoFJK, PRISM(SPDF).
 Compute integral second derivatives, UseDBF=F ICtDFT=           0.
 Calling FoFJK, ICntrl=  10100127 FMM=F ISym2X=1 I1Cent= 0 IOpClX= 0 NMat=1 NMatS=1 NMatT=0.
 FoFJK:  IHMeth= 1 ICntrl=10100127 DoSepK=F KAlg= 0 I1Cent=           0 FoldK=F
 IRaf=         0 NMat=       1 IRICut=       1 DoRegI=T DoRafI=F ISym2E= 1 IDoP0=0 IntGTp=1.
 FoFCou: FMM=F IPFlag=           0 FMFlag=      100000 FMFlg1=         800
         NFxFlg=           0 DoJE=F BraDBF=F KetDBF=F FulRan=T
         wScrn=  0.000000 ICntrl=  10100127 IOpCl=  0 I1Cent=           0 NGrid=           0
         NMat0=    1 NMatS0=      1 NMatT0=    0 NMatD0=    1 NMtDS0=    0 NMtDT0=    0
 Petite list used in FoFCou.
 Leave Link  703 at Sun Mar  6 19:34:11 2022, MaxMem= 16106127360 cpu:             445.4 elap:              15.9
 (Enter /sw/contrib/gaussian/g16/B01/g16/l716.exe)
 Dipole        = 3.36852709D-02-4.34332957D-01 0.00000000D+00
 Polarizability= 3.11295318D+01 4.24739619D+00 2.99312327D+01
                 0.00000000D+00 0.00000000D+00 1.76392805D+01
 Full mass-weighted force constant matrix:
 Low frequencies ---  -44.3546    0.0010    0.0014    0.0014   21.2570   39.1723
 Low frequencies ---  354.3287  374.8995  518.6557
 Diagonal vibrational polarizability:
        7.3378976      10.0798524      16.1900899
 Harmonic frequencies (cm**-1), IR intensities (KM/Mole), Raman scattering
 activities (A**4/AMU), depolarization ratios for plane and unpolarized
 incident light, reduced masses (AMU), force constants (mDyne/A),
 and normal coordinates:
                      1                      2                      3
                     A"                     A'                     A"
 Frequencies --    354.2620               374.8994               518.6325
 Red. masses --      1.5485                 7.0106                 2.9508
 Frc consts  --      0.1145                 0.5805                 0.4676
 IR Inten    --     63.4978                 7.7261                25.7304
  Atom  AN      X      Y      Z        X      Y      Z        X      Y      Z
     1   1    -0.00  -0.00   0.98    -0.73  -0.26  -0.00    -0.00   0.00   0.93
     2   8    -0.00  -0.00  -0.11    -0.32  -0.31   0.00     0.00   0.00   0.05
     3   8    -0.00   0.00   0.12    -0.07   0.09  -0.00     0.00   0.00  -0.19
     4   7     0.00   0.00  -0.11     0.05   0.09   0.00    -0.00  -0.00   0.27
     5   8     0.00   0.00   0.03     0.39   0.16  -0.00    -0.00  -0.00  -0.17
                      4                      5                      6
                     A'                     A'                     A'
 Frequencies --    713.1143               835.3807               971.2127
 Red. masses --     13.2392                12.2332                 9.5909
 Frc consts  --      3.9667                 5.0299                 5.3302
 IR Inten    --    220.5299                28.7478                12.9675
  Atom  AN      X      Y      Z        X      Y      Z        X      Y      Z
     1   1    -0.36  -0.00  -0.00     0.45  -0.15   0.00    -0.64  -0.01   0.00
     2   8     0.01  -0.08  -0.00     0.52  -0.19  -0.00     0.21  -0.16  -0.00
     3   8     0.37   0.58   0.00    -0.38  -0.04   0.00    -0.36   0.40   0.00
     4   7    -0.42  -0.46  -0.00    -0.43  -0.05   0.00     0.37   0.04   0.00
     5   8     0.02  -0.10   0.00     0.21   0.28  -0.00    -0.13  -0.27  -0.00
                      7                      8                      9
                     A'                     A'                     A'
 Frequencies --   1431.1238              1566.5208              3494.9111
 Red. masses --      1.2885                 7.0698                 1.0639
 Frc consts  --      1.5548                10.2219                 7.6566
 IR Inten    --     78.2243               152.7475                39.3359
  Atom  AN      X      Y      Z        X      Y      Z        X      Y      Z
     1   1     0.97  -0.19   0.00    -0.73   0.15  -0.00     0.14   0.99  -0.00
     2   8    -0.06  -0.05   0.00     0.02   0.02  -0.00    -0.01  -0.06   0.00
     3   8    -0.03   0.06  -0.00    -0.04  -0.06   0.00     0.00  -0.00  -0.00
     4   7     0.06  -0.05   0.00     0.26  -0.42  -0.00    -0.00   0.00  -0.00
     5   8    -0.02   0.04  -0.00    -0.16   0.40   0.00     0.00  -0.00   0.00

 -------------------
 - Thermochemistry -
 -------------------
 Temperature   298.150 Kelvin.  Pressure   1.00000 Atm.
 Atom     1 has atomic number  1 and mass   1.00783
 Atom     2 has atomic number  8 and mass  15.99491
 Atom     3 has atomic number  8 and mass  15.99491
 Atom     4 has atomic number  7 and mass  14.00307
 Atom     5 has atomic number  8 and mass  15.99491
 Molecular mass:    62.99564 amu.
 Principal axes and moments of inertia in atomic units:
                           1         2         3
     Eigenvalues --    83.72728 226.11902 309.84630
           X            0.79786  -0.60285   0.00000
           Y            0.60285   0.79786   0.00000
           Z            0.00000   0.00000   1.00000
 This molecule is an asymmetric top.
 Rotational symmetry number  1.
 Rotational temperatures (Kelvin)      1.03448     0.38305     0.27954
 Rotational constants (GHZ):          21.55500     7.98138     5.82463
 Zero-point vibrational energy      61368.8 (Joules/Mol)
                                   14.66749 (Kcal/Mol)
 Warning -- explicit consideration of   3 degrees of freedom as
           vibrations may cause significant error
 Vibrational temperatures:    509.70   539.40   746.20  1026.01  1201.93
          (Kelvin)           1397.36  2059.07  2253.87  5028.40
 
 Zero-point correction=                           0.023374 (Hartree/Particle)
 Thermal correction to Energy=                    0.027336
 Thermal correction to Enthalpy=                  0.028280
 Thermal correction to Gibbs Free Energy=        -0.002627
 Sum of electronic and zero-point Energies=           -280.431783
 Sum of electronic and thermal Energies=              -280.427820
 Sum of electronic and thermal Enthalpies=            -280.426876
 Sum of electronic and thermal Free Energies=         -280.457783
 
                     E (Thermal)             CV                S
                      KCal/Mol        Cal/Mol-Kelvin    Cal/Mol-Kelvin
 Total                   17.154             12.223             65.049
 Electronic               0.000              0.000              0.000
 Translational            0.889              2.981             38.341
 Rotational               0.889              2.981             23.288
 Vibrational             15.376              6.262              3.421
 Vibration     1          0.730              1.567              1.147
 Vibration     2          0.746              1.524              1.060
 Vibration     3          0.874              1.209              0.613
                       Q            Log10(Q)             Ln(Q)
 Total Bot       0.161495D+02          1.208158          2.781887
 Total V=0       0.910967D+12         11.959502         27.537772
 Vib (Bot)       0.299721D-10        -10.523282        -24.230753
 Vib (Bot)    1  0.519353D+00         -0.284538         -0.655172
 Vib (Bot)    2  0.483989D+00         -0.315164         -0.725692
 Vib (Bot)    3  0.311619D+00         -0.506376         -1.165973
 Vib (V=0)       0.169068D+01          0.228062          0.525132
 Vib (V=0)    1  0.122092D+01          0.086688          0.199605
 Vib (V=0)    2  0.119588D+01          0.077687          0.178880
 Vib (V=0)    3  0.108916D+01          0.037091          0.085404
 Electronic      0.100000D+01          0.000000          0.000000
 Translational   0.196526D+08          7.293420         16.793719
 Rotational      0.274171D+05          4.438021         10.218920
 
                                                                title
                                                             IR Spectrum
 
     3                                                                      1   1                                                    
     4                                                                      5   4                9    8    7      5    33            
     9                                                                      6   3                7    3    1      1    75            
     5                                                                      7   1                1    5    3      9    54            
 
     X                                                                      X   X                X    X    X      X    XX            
     X                                                                      X   X                     X    X      X     X            
     X                                                                      X   X                     X    X            X            
     X                                                                      X   X                          X            X            
                                                                            X   X                          X            X            
                                                                            X   X                          X            X            
                                                                            X   X                          X                         
                                                                            X                              X                         
                                                                            X                              X                         
                                                                            X                              X                         
                                                                            X                              X                         
                                                                            X                              X                         
                                                                            X                              X                         
                                                                            X                              X                         
                                                                                                           X                         
                                                                                                           X                         
                                                                                                           X                         
                                                                                                           X                         
                                                                                                           X                         
                                                                                                           X                         
 
 ***** Axes restored to original set *****
 -------------------------------------------------------------------
 Center     Atomic                   Forces (Hartrees/Bohr)
 Number     Number              X              Y              Z
 -------------------------------------------------------------------
      1        1          -0.000093856   -0.000000000    0.000196519
      2        8           0.000937611   -0.000000000   -0.003518200
      3        8           0.002705740   -0.000000000    0.003579851
      4        7          -0.003084074   -0.000000000   -0.000393728
      5        8          -0.000465420   -0.000000000    0.000135558
 -------------------------------------------------------------------
 Cartesian Forces:  Max     0.003579851 RMS     0.001699846
 -----------------------------------------------------------------------------------------------
                       Internal Coordinate Forces (Hartree/Bohr or radian)
  Cent   Atom   N1       Length/X         N2         Alpha/Y        N3         Beta/Z          J
 -----------------------------------------------------------------------------------------------
      1  H 
      2  O        1  -0.000197(     1)
      3  O        2  -0.000216(     2)      1   0.000175(     5)
      4  N        3  -0.001816(     3)      2  -0.009047(     6)      1   0.000000(     8)     0
      5  O        4   0.000122(     4)      3  -0.001059(     7)      2   0.000000(     9)     0
 -----------------------------------------------------------------------------------------------
 Internal  Forces:  Max     0.009047130 RMS     0.003098416
 Force constants in Cartesian coordinates: 
                1             2             3             4             5 
      1  0.712142D-01
      2  0.000000D+00  0.601637D-02
      3  0.234508D-01  0.000000D+00  0.438531D+00
      4 -0.517344D-01  0.000000D+00 -0.480738D-02  0.279076D+00
      5  0.000000D+00 -0.260504D-02  0.000000D+00  0.000000D+00  0.123374D-01
      6  0.331362D-01  0.000000D+00 -0.423093D+00 -0.864479D-02  0.000000D+00
      7 -0.252872D-01  0.000000D+00 -0.152774D-01 -0.171935D+00  0.000000D+00
      8  0.000000D+00 -0.397247D-02  0.000000D+00  0.000000D+00 -0.179506D-01
      9 -0.452240D-01  0.000000D+00 -0.190233D-01  0.911306D-02  0.000000D+00
     10 -0.450627D-02  0.000000D+00  0.620509D-02 -0.821434D-01  0.000000D+00
     11  0.000000D+00  0.773307D-02  0.000000D+00  0.000000D+00  0.191074D-01
     12 -0.179769D-01  0.000000D+00  0.109153D-01  0.815274D-02  0.000000D+00
     13  0.103137D-01  0.000000D+00 -0.957111D-02  0.267369D-01  0.000000D+00
     14  0.000000D+00 -0.717193D-02  0.000000D+00  0.000000D+00 -0.108892D-01
     15  0.661400D-02  0.000000D+00 -0.733017D-02 -0.381363D-02  0.000000D+00
                6             7             8             9            10 
      6  0.522090D+00
      7 -0.912437D-01  0.303907D+00
      8  0.000000D+00  0.000000D+00  0.391634D-01
      9 -0.984415D-01  0.816107D-01  0.000000D+00  0.321156D+00
     10  0.394885D-01 -0.143704D+00  0.000000D+00 -0.385136D-01  0.540810D+00
     11  0.000000D+00  0.000000D+00 -0.475735D-01  0.000000D+00  0.000000D+00
     12 -0.705445D-02  0.129235D-01  0.000000D+00 -0.282475D-01  0.244756D+00
     13  0.272638D-01  0.370196D-01  0.000000D+00 -0.698614D-02 -0.310456D+00
     14  0.000000D+00  0.000000D+00  0.303332D-01  0.000000D+00  0.000000D+00
     15  0.649892D-02  0.119869D-01  0.000000D+00 -0.175444D+00 -0.251936D+00
               11            12            13            14            15 
     11  0.581551D-01
     12  0.000000D+00  0.458789D+00
     13  0.000000D+00 -0.247855D+00  0.236385D+00
     14 -0.374220D-01  0.000000D+00  0.000000D+00  0.251499D-01
     15  0.000000D+00 -0.434402D+00  0.237149D+00  0.000000D+00  0.610677D+00
 Force constants in internal coordinates: 
                1             2             3             4             5 
      1  0.438531D+00
      2  0.211724D-01  0.257960D+00
      3  0.486549D-02  0.159611D-01  0.202949D+00
      4 -0.111988D-01  0.225622D-01  0.148674D+00  0.721111D+00
      5  0.435736D-01  0.550974D-01 -0.235436D-01  0.204163D-01  0.246560D+00
      6  0.119420D-01  0.148867D-01  0.770666D-01  0.892980D-02 -0.146021D-01
      7  0.100781D-01 -0.739300D-01  0.112113D+00  0.117993D+00 -0.229909D-01
      8  0.000000D+00  0.000000D+00  0.000000D+00  0.000000D+00  0.000000D+00
      9  0.000000D+00  0.000000D+00  0.000000D+00  0.000000D+00  0.000000D+00
                6             7             8             9 
      6  0.474532D+00
      7  0.363246D-01  0.642347D+00
      8  0.000000D+00  0.000000D+00  0.197654D-01
      9  0.000000D+00  0.000000D+00  0.270023D-01  0.107067D+00
 Leave Link  716 at Sun Mar  6 19:34:11 2022, MaxMem= 16106127360 cpu:               0.8 elap:               0.1
 (Enter /sw/contrib/gaussian/g16/B01/g16/l103.exe)

 GradGradGradGradGradGradGradGradGradGradGradGradGradGradGradGradGradGrad
 Berny optimization.
 Search for a local minimum.
 Step number   1 out of a maximum of    2
 All quantities printed in internal units (Hartrees-Bohrs-Radians)
 Second derivative matrix not updated -- analytic derivatives used.
 The second derivative matrix:
                          r1        r2        r3        r4        a1
           r1           0.43853
           r2           0.02117   0.25796
           r3           0.00487   0.01596   0.20295
           r4          -0.01120   0.02256   0.14867   0.72111
           a1           0.04357   0.05510  -0.02354   0.02042   0.24656
           a2           0.01194   0.01489   0.07707   0.00893  -0.01460
           a3           0.01008  -0.07393   0.11211   0.11799  -0.02299
           d1           0.00000   0.00000   0.00000   0.00000   0.00000
           d2           0.00000   0.00000   0.00000   0.00000   0.00000
                          a2        a3        d1        d2
           a2           0.47453
           a3           0.03632   0.64235
           d1           0.00000   0.00000   0.01977
           d2           0.00000   0.00000   0.02700   0.10707
 ITU=  0
     Eigenvalues ---    0.01209   0.11474   0.12541   0.20189   0.27306
     Eigenvalues ---    0.44877   0.48510   0.58397   0.86578
 Angle between quadratic step and forces=   8.51 degrees.
 Linear search not attempted -- first point.
 Variable       Old X    -DE/DX   Delta X   Delta X   Delta X     New X
                                 (Linear)    (Quad)   (Total)
    r1        1.86209  -0.00020   0.00000   0.00019   0.00019   1.86228
    r2        2.69614  -0.00022   0.00000   0.00039   0.00039   2.69653
    r3        2.60992  -0.00182   0.00000  -0.00254  -0.00254   2.60738
    r4        2.25782   0.00012   0.00000   0.00099   0.00099   2.25881
    a1        1.75642   0.00017   0.00000  -0.00087  -0.00087   1.75555
    a2        1.99332  -0.00905   0.00000  -0.01869  -0.01869   1.97463
    a3        1.99550  -0.00106   0.00000  -0.00032  -0.00032   1.99518
    d1        0.00000   0.00000   0.00000   0.00000   0.00000   0.00000
    d2        0.00000   0.00000   0.00000   0.00000   0.00000   0.00000
         Item               Value     Threshold  Converged?
 Maximum Force            0.009047     0.000450     NO 
 RMS     Force            0.003098     0.000300     NO 
 Maximum Displacement     0.018691     0.001800     NO 
 RMS     Displacement     0.006306     0.001200     NO 
 Predicted change in Energy=-8.694865D-05
                       ----------------------------
                       ! Non-Optimized Parameters !
                       ! (Angstroms and Degrees)  !
 ----------------------                            ----------------------
 !      Name          Value   Derivative information (Atomic Units)     !
 ------------------------------------------------------------------------
 !       r1          0.9855   -DE/DX =   -0.0002                        !
 !       r2          1.4269   -DE/DX =   -0.0002                        !
 !       r3          1.3798   -DE/DX =   -0.0018                        !
 !       r4          1.1953   -DE/DX =    0.0001                        !
 !       a1        100.5854   -DE/DX =    0.0002                        !
 !       a2        113.1382   -DE/DX =   -0.009                         !
 !       a3        114.3155   -DE/DX =   -0.0011                        !
 !       d1          0.0      -DE/DX =    0.0                           !
 !       d2          0.0      -DE/DX =    0.0                           !
 ------------------------------------------------------------------------
 GradGradGradGradGradGradGradGradGradGradGradGradGradGradGradGradGradGrad

 Leave Link  103 at Sun Mar  6 19:34:11 2022, MaxMem= 16106127360 cpu:               0.7 elap:               0.0
 (Enter /sw/contrib/gaussian/g16/B01/g16/l9999.exe)

 ----------------------------------------------------------------------

 Electric dipole moment (input orientation):
 (Debye = 10**-18 statcoulomb cm , SI units = C m)
                  (au)            (Debye)         (10**-30 SI)
   Tot        0.435637D+00      0.110728D+01      0.369349D+01
   x         -0.117755D+00     -0.299304D+00     -0.998370D+00
   y          0.000000D+00      0.000000D+00      0.000000D+00
   z         -0.419420D+00     -0.106606D+01     -0.355599D+01

 Dipole polarizability, Alpha (input orientation).
 (esu units = cm**3 , SI units = C**2 m**2 J**-1)
 Alpha(0;0):
               (au)            (10**-24 esu)      (10**-40 SI)
   iso        0.262333D+02      0.388738D+01      0.432529D+01
   aniso      0.148788D+02      0.220481D+01      0.245318D+01
   xx         0.294589D+02      0.436535D+01      0.485711D+01
   yx         0.000000D+00      0.000000D+00      0.000000D+00
   yy         0.176393D+02      0.261387D+01      0.290832D+01
   zx        -0.415345D+01     -0.615478D+00     -0.684812D+00
   zy         0.000000D+00      0.000000D+00      0.000000D+00
   zz         0.316019D+02      0.468292D+01      0.521045D+01

 ----------------------------------------------------------------------

 Dipole orientation:
     1          0.00000000         -0.00000000         -0.00000000
     8         -0.50333374         -0.00000000         -1.79277486
     8          1.91334613         -0.00000000         -2.98811482
     7          3.92800423         -0.00000000         -1.32895538
     8          3.33834618          0.00000000          0.85050968

 Electric dipole moment (dipole orientation):
 (Debye = 10**-18 statcoulomb cm , SI units = C m)
                  (au)            (Debye)         (10**-30 SI)
   Tot        0.435637D+00      0.110728D+01      0.369349D+01
   x          0.000000D+00      0.000000D+00      0.000000D+00
   y          0.000000D+00      0.000000D+00      0.000000D+00
   z          0.435637D+00      0.110728D+01      0.369349D+01

 Dipole polarizability, Alpha (dipole orientation).
 (esu units = cm**3 , SI units = C**2 m**2 J**-1)
 Alpha(0;0):
               (au)            (10**-24 esu)      (10**-40 SI)
   iso        0.262333D+02      0.388738D+01      0.432529D+01
   aniso      0.148788D+02      0.220481D+01      0.245318D+01
   xx         0.317773D+02      0.470890D+01      0.523936D+01
   yx         0.000000D+00      0.000000D+00      0.000000D+00
   yy         0.176393D+02      0.261387D+01      0.290832D+01
   zx         0.410423D+01      0.608183D+00      0.676695D+00
   zy         0.000000D+00      0.000000D+00      0.000000D+00
   zz         0.292835D+02      0.433937D+01      0.482820D+01

 ----------------------------------------------------------------------
 1\1\GINC-N2228\Freq\RMP2-FC\Aug-CC-pVTZ\H1N1O3\CGAVINH\06-Mar-2022\1\\
 #p freq mp2/aug-cc-pvtz density=current\\title\\0,1\H\O,1,r1\O,2,r2,1,
 a1\N,3,r3,2,a2,1,d1,0\O,4,r4,3,a3,2,d2,0\\r1=0.98537664\r2=1.42673666\
 r3=1.38110764\r4=1.19478846\a1=100.6355057\a2=114.20909127\a3=114.3339
 2022\d1=0.\d2=0.\\Version=ES64L-G16RevB.01\State=1-A'\HF=-279.5065513\
 MP2=-280.4551567\RMSD=4.124e-09\RMSF=1.700e-03\ZeroPoint=0.0233741\The
 rmal=0.0273363\Dipole=-0.1177552,0.,-0.4194205\DipoleDeriv=0.3140229,0
 .,0.0418376,0.,0.2998466,0.,-0.0175188,0.,0.1920488,-0.5376937,0.,0.27
 91622,0.,-0.2528113,0.,-0.1129002,0.,-0.1190059,-0.0038418,0.,0.351008
 6,0.,-0.0145456,0.,0.4560511,0.,-0.9070754,0.2132291,0.,-0.1663603,0.,
 0.0153375,0.,-0.6965173,0.,1.7108363,0.0142836,0.,-0.505648,0.,-0.0478
 272,0.,0.3708852,0.,-0.8768038\Polar=29.4588532,0.,17.6392805,-4.15345
 4,0.,31.6019112\Quadrupole=0.1724192,0.6027763,-0.7751955,0.,1.4115298
 ,0.\PG=CS [SG(H1N1O3)]\NImag=0\\0.07121420,0.,0.00601637,0.02345076,0.
 ,0.43853142,-0.05173435,0.,-0.00480738,0.27907566,0.,-0.00260504,0.,0.
 ,0.01233745,0.03313618,0.,-0.42309321,-0.00864479,0.,0.52209027,-0.025
 28725,0.,-0.01527737,-0.17193486,0.,-0.09124369,0.30390675,0.,-0.00397
 247,0.,0.,-0.01795062,0.,0.,0.03916339,-0.04522400,0.,-0.01902332,0.00
 911306,0.,-0.09844153,0.08161071,0.,0.32115605,-0.00450627,0.,0.006205
 09,-0.08214338,0.,0.03948852,-0.14370425,0.,-0.03851363,0.54080950,0.,
 0.00773307,0.,0.,0.01910738,0.,0.,-0.04757350,0.,0.,0.05815506,-0.0179
 7694,0.,0.01091527,0.00815274,0.,-0.00705445,0.01292346,0.,-0.02824747
 ,0.24475601,0.,0.45878870,0.01031367,0.,-0.00957111,0.02673693,0.,0.02
 726378,0.03701960,0.,-0.00698614,-0.31045561,0.,-0.24785527,0.23638540
 ,0.,-0.00717193,0.,0.,-0.01088917,0.,0.,0.03033320,0.,0.,-0.03742201,0
 .,0.,0.02514991,0.00661400,0.,-0.00733017,-0.00381363,0.,0.00649892,0.
 01198688,0.,-0.17544373,-0.25193599,0.,-0.43440206,0.23714874,0.,0.610
 67704\\0.00009386,0.,-0.00019652,-0.00093761,0.,0.00351820,-0.00270574
 ,0.,-0.00357985,0.00308407,0.,0.00039373,0.00046542,0.,-0.00013556\\\@


 THE RED LIGHT IS ALWAYS LONGER THAN THE GREEN LIGHT.

                     -- PETER'S THEORY OF RELATIVITY
 Job cpu time:       0 days  2 hours  0 minutes 14.4 seconds.
 Elapsed time:       0 days  0 hours  4 minutes 20.6 seconds.
 File lengths (MBytes):  RWF=   7239 Int=      0 D2E=      0 Chk=      8 Scr=      1
 Normal termination of Gaussian 16 at Sun Mar  6 19:34:12 2022.
