title                                                                   
Freq      RMP2-FC                                                     Aug-CC-pVTZ         
Number of atoms                            I                5
Info1-9                                    I   N=           9
          33          24           0           0           0         100
           6           2           1
Full Title                                 C   N=           1
title       
Route                                      C   N=           4
#p freq mp2/aug-cc-pvtz density=current         
Charge                                     I                0
Multiplicity                               I                1
Number of electrons                        I               32
Number of alpha electrons                  I               16
Number of beta electrons                   I               16
Number of basis functions                  I              207
Number of independent functions            I              207
Number of point charges in /Mol/           I                0
Number of translation vectors              I                0
Atomic numbers                             I   N=           5
           1           8           8           7           8
Nuclear charges                            R   N=           5
  1.00000000E+00  8.00000000E+00  8.00000000E+00  7.00000000E+00  8.00000000E+00
Current cartesian coordinates              R   N=          15
  2.08578042E+00 -1.13981608E+00  0.00000000E+00  2.48280046E+00  6.79458946E-01
  0.00000000E+00 -1.71778196E-16  1.73059218E+00  0.00000000E+00 -1.88006921E+00
 -7.96556007E-02  0.00000000E+00 -1.09846245E+00 -2.19787547E+00  0.00000000E+00
Number of symbols in /Mol/                 I                0
Force Field                                I                0
Atom Types                                 C   N=           5
                                                            
Int Atom Types                             I   N=           5
           0           0           0           0           0
MM charges                                 R   N=           5
  0.00000000E+00  0.00000000E+00  0.00000000E+00  0.00000000E+00  0.00000000E+00
Integer atomic weights                     I   N=           5
           1          16          16          14          16
Real atomic weights                        R   N=           5
  1.00782504E+00  1.59949146E+01  1.59949146E+01  1.40030740E+01  1.59949146E+01
Atom fragment info                         I   N=           5
           0           0           0           0           0
Atom residue num                           I   N=           5
           0           0           0           0           0
Nuclear spins                              I   N=           5
           1           0           0           2           0
Nuclear ZEff                               R   N=           5
 -1.00000000E+00 -5.60000000E+00 -5.60000000E+00 -4.55000000E+00 -5.60000000E+00
Nuclear ZNuc                               R   N=           5
  1.00000000E+00  8.00000000E+00  8.00000000E+00  7.00000000E+00  8.00000000E+00
Nuclear QMom                               R   N=           5
  0.00000000E+00  0.00000000E+00  0.00000000E+00  2.04400000E+00  0.00000000E+00
Nuclear GFac                               R   N=           5
  2.79284600E+00  0.00000000E+00  0.00000000E+00  4.03761000E-01  0.00000000E+00
MicOpt                                     I   N=           5
          -1          -1          -1          -1          -1
Number of residues                         I                0
Number of secondary structures             I                0
SymInf integers                            I   N=          26
           1           2           1           1           1           1
           1          -1           0           0           0           0
           0           0           0           0           0           0
           0           0           0           0           0           0
           0           0
RotTr to input orientation                 R   N=          12
 -9.77005996E-01  0.00000000E+00  2.13211830E-01  2.13211830E-01  0.00000000E+00
  9.77005996E-01  0.00000000E+00  1.00000000E+00  0.00000000E+00  2.28084225E+00
  0.00000000E+00  6.68894086E-01
Number of contracted shells                I               65
Number of primitive shells                 I              119
Pure/Cartesian d shells                    I                0
Pure/Cartesian f shells                    I                0
Highest angular momentum                   I                3
Largest degree of contraction              I                7
Shell types                                I   N=          65
           0           0           0           0           1           1
           1          -2          -2           0           0           0
           0           0           1           1           1           1
          -2          -2          -2          -3          -3           0
           0           0           0           0           1           1
           1           1          -2          -2          -2          -3
          -3           0           0           0           0           0
           1           1           1           1          -2          -2
          -2          -3          -3           0           0           0
           0           0           1           1           1           1
          -2          -2          -2          -3          -3
Number of primitives per shell             I   N=          65
           3           1           1           1           1           1
           1           1           1           7           6           1
           1           1           3           1           1           1
           1           1           1           1           1           7
           6           1           1           1           3           1
           1           1           1           1           1           1
           1           7           6           1           1           1
           3           1           1           1           1           1
           1           1           1           7           6           1
           1           1           3           1           1           1
           1           1           1           1           1
Shell to atom map                          I   N=          65
           1           1           1           1           1           1
           1           1           1           2           2           2
           2           2           2           2           2           2
           2           2           2           2           2           3
           3           3           3           3           3           3
           3           3           3           3           3           3
           3           4           4           4           4           4
           4           4           4           4           4           4
           4           4           4           5           5           5
           5           5           5           5           5           5
           5           5           5           5           5
Primitive exponents                        R   N=         119
  3.38700000E+01  5.09500000E+00  1.15900000E+00  3.25800000E-01  1.02700000E-01
  2.52600000E-02  1.40700000E+00  3.88000000E-01  1.02000000E-01  1.05700000E+00
  2.47000000E-01  1.53300000E+04  2.29900000E+03  5.22400000E+02  1.47300000E+02
  4.75500000E+01  1.67600000E+01  6.20700000E+00  5.22400000E+02  1.47300000E+02
  4.75500000E+01  1.67600000E+01  6.20700000E+00  6.88200000E-01  1.75200000E+00
  2.38400000E-01  7.37600000E-02  3.44600000E+01  7.74900000E+00  2.28000000E+00
  7.15600000E-01  2.14000000E-01  5.97400000E-02  2.31400000E+00  6.45000000E-01
  2.14000000E-01  1.42800000E+00  5.00000000E-01  1.53300000E+04  2.29900000E+03
  5.22400000E+02  1.47300000E+02  4.75500000E+01  1.67600000E+01  6.20700000E+00
  5.22400000E+02  1.47300000E+02  4.75500000E+01  1.67600000E+01  6.20700000E+00
  6.88200000E-01  1.75200000E+00  2.38400000E-01  7.37600000E-02  3.44600000E+01
  7.74900000E+00  2.28000000E+00  7.15600000E-01  2.14000000E-01  5.97400000E-02
  2.31400000E+00  6.45000000E-01  2.14000000E-01  1.42800000E+00  5.00000000E-01
  1.14200000E+04  1.71200000E+03  3.89300000E+02  1.10000000E+02  3.55700000E+01
  1.25400000E+01  4.64400000E+00  3.89300000E+02  1.10000000E+02  3.55700000E+01
  1.25400000E+01  4.64400000E+00  5.11800000E-01  1.29300000E+00  1.78700000E-01
  5.76000000E-02  2.66300000E+01  5.94800000E+00  1.74200000E+00  5.55000000E-01
  1.72500000E-01  4.91000000E-02  1.65400000E+00  4.69000000E-01  1.51000000E-01
  1.09300000E+00  3.64000000E-01  1.53300000E+04  2.29900000E+03  5.22400000E+02
  1.47300000E+02  4.75500000E+01  1.67600000E+01  6.20700000E+00  5.22400000E+02
  1.47300000E+02  4.75500000E+01  1.67600000E+01  6.20700000E+00  6.88200000E-01
  1.75200000E+00  2.38400000E-01  7.37600000E-02  3.44600000E+01  7.74900000E+00
  2.28000000E+00  7.15600000E-01  2.14000000E-01  5.97400000E-02  2.31400000E+00
  6.45000000E-01  2.14000000E-01  1.42800000E+00  5.00000000E-01
Contraction coefficients                   R   N=         119
  2.54948632E-02  1.90362766E-01  8.52162022E-01  1.00000000E+00  1.00000000E+00
  1.00000000E+00  1.00000000E+00  1.00000000E+00  1.00000000E+00  1.00000000E+00
  1.00000000E+00  5.19808943E-04  4.02025621E-03  2.07128267E-02  8.10105536E-02
  2.35962985E-01  4.42653446E-01  3.57064423E-01 -4.42115008E-05 -1.22591041E-03
 -1.05517725E-02 -6.74452633E-02 -1.71198607E-01  1.07329856E+00  1.00000000E+00
  1.00000000E+00  1.00000000E+00  4.11634896E-02  2.57762836E-01  8.02419274E-01
  1.00000000E+00  1.00000000E+00  1.00000000E+00  1.00000000E+00  1.00000000E+00
  1.00000000E+00  1.00000000E+00  1.00000000E+00  5.19808943E-04  4.02025621E-03
  2.07128267E-02  8.10105536E-02  2.35962985E-01  4.42653446E-01  3.57064423E-01
 -4.42115008E-05 -1.22591041E-03 -1.05517725E-02 -6.74452633E-02 -1.71198607E-01
  1.07329856E+00  1.00000000E+00  1.00000000E+00  1.00000000E+00  4.11634896E-02
  2.57762836E-01  8.02419274E-01  1.00000000E+00  1.00000000E+00  1.00000000E+00
  1.00000000E+00  1.00000000E+00  1.00000000E+00  1.00000000E+00  1.00000000E+00
  5.34563860E-04  4.13435660E-03  2.12335358E-02  8.25006224E-02  2.38138871E-01
  4.42551547E-01  3.53757422E-01 -4.89867350E-05 -1.19527323E-03 -1.03490714E-02
 -6.48680190E-02 -1.71552477E-01  1.07289568E+00  1.00000000E+00  1.00000000E+00
  1.00000000E+00  3.98072123E-02  2.49002660E-01  8.10479727E-01  1.00000000E+00
  1.00000000E+00  1.00000000E+00  1.00000000E+00  1.00000000E+00  1.00000000E+00
  1.00000000E+00  1.00000000E+00  5.19808943E-04  4.02025621E-03  2.07128267E-02
  8.10105536E-02  2.35962985E-01  4.42653446E-01  3.57064423E-01 -4.42115008E-05
 -1.22591041E-03 -1.05517725E-02 -6.74452633E-02 -1.71198607E-01  1.07329856E+00
  1.00000000E+00  1.00000000E+00  1.00000000E+00  4.11634896E-02  2.57762836E-01
  8.02419274E-01  1.00000000E+00  1.00000000E+00  1.00000000E+00  1.00000000E+00
  1.00000000E+00  1.00000000E+00  1.00000000E+00  1.00000000E+00
Coordinates of each shell                  R   N=         195
  2.08578042E+00 -1.13981608E+00  0.00000000E+00  2.08578042E+00 -1.13981608E+00
  0.00000000E+00  2.08578042E+00 -1.13981608E+00  0.00000000E+00  2.08578042E+00
 -1.13981608E+00  0.00000000E+00  2.08578042E+00 -1.13981608E+00  0.00000000E+00
  2.08578042E+00 -1.13981608E+00  0.00000000E+00  2.08578042E+00 -1.13981608E+00
  0.00000000E+00  2.08578042E+00 -1.13981608E+00  0.00000000E+00  2.08578042E+00
 -1.13981608E+00  0.00000000E+00  2.48280046E+00  6.79458946E-01  0.00000000E+00
  2.48280046E+00  6.79458946E-01  0.00000000E+00  2.48280046E+00  6.79458946E-01
  0.00000000E+00  2.48280046E+00  6.79458946E-01  0.00000000E+00  2.48280046E+00
  6.79458946E-01  0.00000000E+00  2.48280046E+00  6.79458946E-01  0.00000000E+00
  2.48280046E+00  6.79458946E-01  0.00000000E+00  2.48280046E+00  6.79458946E-01
  0.00000000E+00  2.48280046E+00  6.79458946E-01  0.00000000E+00  2.48280046E+00
  6.79458946E-01  0.00000000E+00  2.48280046E+00  6.79458946E-01  0.00000000E+00
  2.48280046E+00  6.79458946E-01  0.00000000E+00  2.48280046E+00  6.79458946E-01
  0.00000000E+00  2.48280046E+00  6.79458946E-01  0.00000000E+00 -1.99016108E-17
  1.73059218E+00  0.00000000E+00 -1.99016108E-17  1.73059218E+00  0.00000000E+00
 -1.99016108E-17  1.73059218E+00  0.00000000E+00 -1.99016108E-17  1.73059218E+00
  0.00000000E+00 -1.99016108E-17  1.73059218E+00  0.00000000E+00 -1.99016108E-17
  1.73059218E+00  0.00000000E+00 -1.99016108E-17  1.73059218E+00  0.00000000E+00
 -1.99016108E-17  1.73059218E+00  0.00000000E+00 -1.99016108E-17  1.73059218E+00
  0.00000000E+00 -1.99016108E-17  1.73059218E+00  0.00000000E+00 -1.99016108E-17
  1.73059218E+00  0.00000000E+00 -1.99016108E-17  1.73059218E+00  0.00000000E+00
 -1.99016108E-17  1.73059218E+00  0.00000000E+00 -1.99016108E-17  1.73059218E+00
  0.00000000E+00 -1.88006921E+00 -7.96556007E-02  0.00000000E+00 -1.88006921E+00
 -7.96556007E-02  0.00000000E+00 -1.88006921E+00 -7.96556007E-02  0.00000000E+00
 -1.88006921E+00 -7.96556007E-02  0.00000000E+00 -1.88006921E+00 -7.96556007E-02
  0.00000000E+00 -1.88006921E+00 -7.96556007E-02  0.00000000E+00 -1.88006921E+00
 -7.96556007E-02  0.00000000E+00 -1.88006921E+00 -7.96556007E-02  0.00000000E+00
 -1.88006921E+00 -7.96556007E-02  0.00000000E+00 -1.88006921E+00 -7.96556007E-02
  0.00000000E+00 -1.88006921E+00 -7.96556007E-02  0.00000000E+00 -1.88006921E+00
 -7.96556007E-02  0.00000000E+00 -1.88006921E+00 -7.96556007E-02  0.00000000E+00
 -1.88006921E+00 -7.96556007E-02  0.00000000E+00 -1.09846245E+00 -2.19787547E+00
  0.00000000E+00 -1.09846245E+00 -2.19787547E+00  0.00000000E+00 -1.09846245E+00
 -2.19787547E+00  0.00000000E+00 -1.09846245E+00 -2.19787547E+00  0.00000000E+00
 -1.09846245E+00 -2.19787547E+00  0.00000000E+00 -1.09846245E+00 -2.19787547E+00
  0.00000000E+00 -1.09846245E+00 -2.19787547E+00  0.00000000E+00 -1.09846245E+00
 -2.19787547E+00  0.00000000E+00 -1.09846245E+00 -2.19787547E+00  0.00000000E+00
 -1.09846245E+00 -2.19787547E+00  0.00000000E+00 -1.09846245E+00 -2.19787547E+00
  0.00000000E+00 -1.09846245E+00 -2.19787547E+00  0.00000000E+00 -1.09846245E+00
 -2.19787547E+00  0.00000000E+00 -1.09846245E+00 -2.19787547E+00  0.00000000E+00
Num ILSW                                   I              100
ILSW                                       I   N=         100
           0           0           0           0           2           0
           0           0           0           0           0          -1
           5           0           0           0           2           0
           0           0           0           0           1           0
           1           0           0           0           0           0
           0           0      100000           0          -1           0
           0           0           0           0           0           0
           0           0           0           1           1           0
           0 -2000000000           1           0           0           0
           0           0           4          52           0           0
           0           0           0           0           0           0
           0           0           0           5           4           1
           0           0           0           0           0           0
           0           0           0           0           0           0
           0           0           0           0           0           0
           0           0           0           0           0           0
           0           0           0           0
Num RLSW                                   I               52
RLSW                                       R   N=          52
  1.00000000E+00  1.00000000E+00  1.00000000E+00  1.00000000E+00  1.00000000E+00
  0.00000000E+00  0.00000000E+00  1.00000000E+00  0.00000000E+00  0.00000000E+00
  0.00000000E+00  0.00000000E+00  1.00000000E+00  0.00000000E+00  0.00000000E+00
  0.00000000E+00  0.00000000E+00  1.00000000E+00  0.00000000E+00  0.00000000E+00
  0.00000000E+00  0.00000000E+00  1.00000000E+00  0.00000000E+00  0.00000000E+00
  0.00000000E+00  0.00000000E+00  1.00000000E+00  0.00000000E+00  0.00000000E+00
  0.00000000E+00  0.00000000E+00  1.00000000E+00  0.00000000E+00  0.00000000E+00
  0.00000000E+00  0.00000000E+00  0.00000000E+00  1.00000000E+00  1.00000000E+00
  0.00000000E+00  1.00000000E+00  0.00000000E+00  0.00000000E+00  0.00000000E+00
  0.00000000E+00  0.00000000E+00  0.00000000E+00  0.00000000E+00  0.00000000E+00
  0.00000000E+00  0.00000000E+00
MxBond                                     I                2
NBond                                      I   N=           5
           1           2           2           2           1
IBond                                      I   N=          10
           2           0           1           3           2           4
           3           5           4           0
RBond                                      R   N=          10
  1.00000000E+00  0.00000000E+00  1.00000000E+00  1.00000000E+00  1.00000000E+00
  1.00000000E+00  1.00000000E+00  2.00000000E+00  2.00000000E+00  0.00000000E+00
Virial Ratio                               R      2.002207370698473E+00
SCF Energy                                 R     -2.795063489686364E+02
MP2 Energy                                 R     -2.804551957838209E+02
Total Energy                               R     -2.804551957838209E+02
Post-SCF wavefunction norm                 R      1.583694727885462E+00
RMS Force                                  R      1.460892616142142E-03
RMS Density                                R      4.489012255071518E-09
NImag                                      I                0
Job Status                                 I                1
Nuclear derivative order                   I                2
External E-field                           R   N=          35
  0.00000000E+00  0.00000000E+00  0.00000000E+00  0.00000000E+00  0.00000000E+00
  0.00000000E+00  0.00000000E+00  0.00000000E+00  0.00000000E+00  0.00000000E+00
  0.00000000E+00  0.00000000E+00  0.00000000E+00  0.00000000E+00  0.00000000E+00
  0.00000000E+00  0.00000000E+00  0.00000000E+00  0.00000000E+00  0.00000000E+00
  0.00000000E+00  0.00000000E+00  0.00000000E+00  0.00000000E+00  0.00000000E+00
  0.00000000E+00  0.00000000E+00  0.00000000E+00  0.00000000E+00  0.00000000E+00
  0.00000000E+00  0.00000000E+00  0.00000000E+00  0.00000000E+00  0.00000000E+00
IOpCl                                      I                0
IROHF                                      I                0
Alpha Orbital Energies                     R   N=         207
 -2.07191159E+01 -2.06869207E+01 -2.06678382E+01 -1.58264560E+01 -1.64514891E+00
 -1.50420792E+00 -1.29348502E+00 -9.60138305E-01 -8.35608306E-01 -7.59065632E-01
 -7.40093927E-01 -6.36407065E-01 -6.18131466E-01 -6.17930011E-01 -5.05852977E-01
 -4.97137899E-01  3.51261872E-02  5.98630408E-02  9.51202345E-02  1.00273979E-01
  1.19700332E-01  1.22563716E-01  1.49531257E-01  1.52161041E-01  1.77426135E-01
  1.80322981E-01  1.89912346E-01  2.10953676E-01  2.16683984E-01  2.42479232E-01
  2.46354615E-01  2.69485185E-01  3.13521722E-01  3.17526417E-01  3.37967481E-01
  3.44233240E-01  3.47323251E-01  3.92555559E-01  4.50159756E-01  4.88701191E-01
  5.05434622E-01  5.18100604E-01  5.45652603E-01  5.60484116E-01  5.99064082E-01
  6.19795381E-01  6.38220066E-01  6.89785446E-01  7.16854570E-01  7.24447905E-01
  7.45582405E-01  7.62939457E-01  7.67084085E-01  7.95786267E-01  8.07516626E-01
  8.39525077E-01  8.43161818E-01  8.52135494E-01  8.85582596E-01  9.08459428E-01
  9.32764334E-01  9.47139427E-01  9.53868677E-01  1.01863371E+00  1.03257827E+00
  1.06639367E+00  1.06790009E+00  1.09654833E+00  1.14573930E+00  1.15673544E+00
  1.16818371E+00  1.22354031E+00  1.22766220E+00  1.24584800E+00  1.35514592E+00
  1.35857559E+00  1.37282498E+00  1.46785078E+00  1.48627385E+00  1.50368549E+00
  1.54284970E+00  1.59770245E+00  1.60048421E+00  1.60614157E+00  1.62926159E+00
  1.69587233E+00  1.74102574E+00  1.80078820E+00  1.83065913E+00  1.88882616E+00
  1.89528873E+00  1.93014932E+00  1.97863859E+00  1.98980066E+00  2.05348561E+00
  2.12589143E+00  2.13056605E+00  2.16654586E+00  2.18881280E+00  2.24464714E+00
  2.25949277E+00  2.29401142E+00  2.35243665E+00  2.36930585E+00  2.38605073E+00
  2.40280524E+00  2.43351575E+00  2.46913220E+00  2.47939810E+00  2.53119462E+00
  2.53880722E+00  2.55215162E+00  2.55984888E+00  2.61858421E+00  2.63111837E+00
  2.67474688E+00  2.67702649E+00  2.75411223E+00  2.81037286E+00  2.82140929E+00
  2.83911146E+00  2.91932289E+00  2.99153775E+00  3.04622371E+00  3.04920964E+00
  3.11403987E+00  3.11935972E+00  3.17587498E+00  3.21367616E+00  3.31040813E+00
  3.33090506E+00  3.36195056E+00  3.47558743E+00  3.67886008E+00  3.86994255E+00
  3.93438168E+00  4.18697524E+00  4.22722519E+00  4.22961773E+00  4.26990873E+00
  4.37249057E+00  4.49936695E+00  4.53941474E+00  4.55417711E+00  4.59848749E+00
  4.69521219E+00  4.81114868E+00  4.89535251E+00  4.91526615E+00  4.93959015E+00
  5.00117174E+00  5.00611386E+00  5.10646116E+00  5.13267716E+00  5.18181780E+00
  5.25215692E+00  5.26061681E+00  5.31974561E+00  5.34906008E+00  5.36195063E+00
  5.55002771E+00  5.64596798E+00  5.70917654E+00  5.89199947E+00  5.99464162E+00
  6.26532762E+00  6.29583095E+00  6.36241932E+00  6.37729373E+00  6.59797860E+00
  6.66027259E+00  6.66601929E+00  6.69360637E+00  6.72825679E+00  6.79047346E+00
  6.80304478E+00  6.86044194E+00  6.96695460E+00  7.02130461E+00  7.06634032E+00
  7.07994294E+00  7.13697551E+00  7.17478796E+00  7.18456899E+00  7.20411668E+00
  7.24692035E+00  7.24934141E+00  7.27241568E+00  7.34983106E+00  7.39286711E+00
  7.43162823E+00  7.44227522E+00  7.46420076E+00  7.56025356E+00  7.66351652E+00
  7.67755164E+00  7.79518882E+00  7.88412857E+00  7.95326447E+00  8.07234783E+00
  8.30883892E+00  8.49910928E+00  8.65240595E+00  1.36227549E+01  1.47625718E+01
  1.51095859E+01  1.57879646E+01
Alpha MO coefficients                      R   N=       42849
  6.35672049E-05 -2.58627180E-06 -1.11570824E-03  1.47708568E-05 -5.11340189E-05
  4.19193831E-05  0.00000000E+00 -9.41764314E-05 -2.79605627E-04  0.00000000E+00
 -2.91737319E-06 -3.52652365E-04  0.00000000E+00  4.15832039E-05  0.00000000E+00
  0.00000000E+00 -2.51006608E-05  1.18469024E-05  2.30777269E-04  0.00000000E+00
  0.00000000E+00 -4.22928312E-05 -2.13209796E-04  3.08754128E-03 -9.56409200E-05
 -9.80296504E-05  3.51807223E-03  2.48230593E-03  1.01823589E-04 -5.39305732E-05
  0.00000000E+00 -7.24796262E-04  2.90535417E-04  0.00000000E+00 -1.95772011E-03
  1.12538608E-03  0.00000000E+00 -5.38683982E-04  3.87085970E-05  0.00000000E+00
  2.04289776E-05  0.00000000E+00  0.00000000E+00 -8.64723922E-06  4.41607357E-05
 -4.41998074E-04  0.00000000E+00  0.00000000E+00  4.23671840E-04 -6.65571776E-04
 -3.62726482E-04  0.00000000E+00  0.00000000E+00  5.37302282E-04 -7.48838391E-04
  0.00000000E+00  7.35054579E-05 -5.29159596E-05  0.00000000E+00  0.00000000E+00
 -2.66695089E-05  1.08676332E-04  0.00000000E+00  2.07967355E-04 -5.04984416E-05
  0.00000000E+00  0.00000000E+00 -1.66803400E-04  3.01220960E-04  9.76902066E-01
 -9.17538101E-03  4.34093854E-02  4.86758314E-04 -2.20762374E-03  4.37926027E-04
 -2.14974825E-03  0.00000000E+00 -3.08849995E-04  2.25522294E-03  0.00000000E+00
 -2.30290233E-03 -4.82711684E-04  0.00000000E+00 -2.22560319E-04  9.72384490E-05
  0.00000000E+00  6.73928073E-06  0.00000000E+00  0.00000000E+00 -5.22269702E-06
  3.80041749E-05  8.26468013E-04  0.00000000E+00  0.00000000E+00 -4.76081055E-04
 -1.67271237E-04 -1.42781865E-04  0.00000000E+00  0.00000000E+00 -5.53400476E-04
  3.54272207E-04  0.00000000E+00 -6.56546275E-06 -7.97267535E-05  0.00000000E+00
  0.00000000E+00 -8.73653956E-06  4.77549976E-05  0.00000000E+00  9.13971346E-05
  1.94925951E-06  0.00000000E+00  0.00000000E+00 -3.31156918E-04  3.83682927E-04
  1.04511543E-04  4.57671633E-04 -3.24075727E-04 -8.36351009E-04  3.46696933E-04
 -4.53579397E-05 -9.95719364E-05  0.00000000E+00  7.01204423E-04  1.10726099E-03
  0.00000000E+00 -7.39813354E-04 -6.09278847E-04  0.00000000E+00  1.98130826E-04
  2.14329012E-04  0.00000000E+00 -5.25873867E-05  0.00000000E+00  0.00000000E+00
  1.87030024E-05  9.37275911E-05 -4.16295895E-04  0.00000000E+00  0.00000000E+00
  5.23158691E-05  1.07575461E-03  2.67183701E-05  0.00000000E+00  0.00000000E+00
 -3.02808563E-04  3.20071238E-05  0.00000000E+00 -7.92663877E-05 -1.12771522E-04
  0.00000000E+00  0.00000000E+00 -9.57834692E-05  1.06690313E-04  0.00000000E+00
 -1.27048520E-04  4.46120338E-05  0.00000000E+00  0.00000000E+00  1.73631514E-05
  5.15528315E-04 -7.19568038E-04  5.71240965E-05 -6.89806248E-05  2.44693580E-04
 -1.79958431E-04 -2.80550780E-05 -4.03076481E-05  0.00000000E+00  1.64020128E-04
  2.54990784E-04  0.00000000E+00  4.98750519E-04  3.14725606E-04  0.00000000E+00
 -2.26597622E-04 -6.20552781E-05  0.00000000E+00 -1.36215298E-05  0.00000000E+00
  0.00000000E+00  2.45256856E-06  1.68230493E-05  2.15558450E-06  0.00000000E+00
  0.00000000E+00 -1.58674110E-04 -1.91326659E-06 -1.49436352E-05  0.00000000E+00
  0.00000000E+00 -1.67553281E-04 -6.05518671E-05  0.00000000E+00 -5.45780769E-06
 -7.83294834E-06  0.00000000E+00  0.00000000E+00 -2.04868509E-05  1.03317458E-05
  0.00000000E+00  3.97317701E-05  6.24516207E-05  0.00000000E+00  0.00000000E+00
  1.63629491E-04 -1.02555183E-04  3.82317523E-05  6.72611654E-05 -9.70939053E-05
 -2.95980684E-05  2.26183946E-05  1.44025970E-05  0.00000000E+00  2.29210279E-04
  4.58711589E-05  0.00000000E+00  1.17065138E-04  1.75957787E-05  0.00000000E+00
  1.10582895E-05  0.00000000E+00  0.00000000E+00 -8.78432944E-06  1.92569874E-05
  1.84105678E-05  0.00000000E+00  0.00000000E+00 -8.54542080E-05  7.04056462E-05
 -2.64999127E-04  3.24200199E-05 -1.49203006E-05 -5.43530570E-04  1.55321029E-04
  7.23443847E-06  1.34743867E-05  0.00000000E+00 -1.92562984E-06 -4.41056002E-05
  0.00000000E+00  1.81340046E-04  1.41748830E-04  0.00000000E+00 -4.33484783E-05
  5.13414628E-05  0.00000000E+00 -2.12135438E-06  0.00000000E+00  0.00000000E+00
 -8.06848891E-06 -1.08063642E-05  2.46636936E-05  0.00000000E+00  0.00000000E+00
  4.99268133E-05  1.07708895E-04  6.51912582E-05  0.00000000E+00  0.00000000E+00
 -3.02059410E-05 -8.06883499E-05  0.00000000E+00  7.56943127E-06  9.89410445E-06
  0.00000000E+00  0.00000000E+00 -7.67313115E-07 -2.63313442E-05  0.00000000E+00
 -1.52351308E-05 -3.87490823E-05  0.00000000E+00  0.00000000E+00 -1.79189809E-06
 -1.78393099E-05  7.49476153E-04  2.40467038E-05 -1.62603761E-05  2.91134528E-04
 -4.01486925E-04  1.58355128E-05  2.53841476E-05  0.00000000E+00 -6.34175461E-05
 -1.47097090E-04  0.00000000E+00  1.36362906E-04 -1.93512201E-04  0.00000000E+00
 -1.58432479E-04  1.41815637E-04  0.00000000E+00 -4.18200872E-06  0.00000000E+00
  0.00000000E+00 -3.07734776E-05 -9.17804129E-06 -4.87842466E-05  0.00000000E+00
  0.00000000E+00  8.91505691E-05  1.16135253E-04 -6.31162122E-05  0.00000000E+00
  0.00000000E+00  4.52157785E-05  3.04547503E-05  0.00000000E+00  2.37941391E-06
  1.86350620E-06  0.00000000E+00  0.00000000E+00 -9.03885584E-06 -3.35464836E-06
  0.00000000E+00  4.42637979E-06 -2.42666127E-05  0.00000000E+00  0.00000000E+00
  9.08264773E-05 -1.58506842E-04  2.36735729E-04  1.35381872E-03 -1.48360011E-04
 -7.10128232E-04  9.06989755E-04  6.28032449E-05 -7.17309425E-05  0.00000000E+00
  5.86820454E-04 -2.06916180E-03  0.00000000E+00  1.07258276E-04  4.89421022E-04
  0.00000000E+00  1.90422893E-04 -3.02956856E-04  0.00000000E+00 -1.27444041E-04
  0.00000000E+00  0.00000000E+00 -2.02327329E-04 -1.61360578E-04 -4.61723726E-04
  0.00000000E+00  0.00000000E+00 -5.83485319E-04 -9.22382020E-04 -4.25182464E-05
  0.00000000E+00  0.00000000E+00  6.27971092E-05  1.17726376E-04  0.00000000E+00
  7.75332501E-06  3.58923801E-05  0.00000000E+00  0.00000000E+00 -2.41299724E-05
 -4.53248294E-06  0.00000000E+00 -1.37642769E-04  1.59491732E-04  0.00000000E+00
  0.00000000E+00 -3.10000036E-04 -3.53891273E-05  9.76644084E-01 -9.88360577E-03
  4.35787646E-02  3.69236538E-03 -8.95720691E-04 -4.68768644E-04  2.12450165E-03
  0.00000000E+00  5.38473538E-04 -2.49570468E-03  0.00000000E+00 -8.69037468E-05
  8.27818983E-04  0.00000000E+00  1.02266859E-04 -6.43229572E-05  0.00000000E+00
 -1.94412317E-04  0.00000000E+00  0.00000000E+00 -7.35364374E-05 -4.34022993E-05
  4.08342788E-04  0.00000000E+00  0.00000000E+00  8.45905052E-04  4.97893138E-04
 -2.05925614E-04  0.00000000E+00  0.00000000E+00 -1.49023259E-04 -3.90358983E-05
  0.00000000E+00 -5.52048431E-06  7.01869179E-05  0.00000000E+00  0.00000000E+00
 -2.83773074E-05  9.98244557E-06  0.00000000E+00 -8.92740923E-05  9.06255710E-05
  0.00000000E+00  0.00000000E+00 -1.71765375E-04  1.98401266E-04  3.72255227E-04
  2.00793487E-03  1.40480472E-03 -1.67131743E-05  5.27307406E-05  2.68178117E-04
  0.00000000E+00  3.69036288E-04  1.02374134E-03  0.00000000E+00 -1.35022346E-04
  2.35698223E-04  0.00000000E+00 -2.43523351E-05  0.00000000E+00  0.00000000E+00
  3.34780375E-05 -2.99070919E-05 -2.18229232E-04  0.00000000E+00  0.00000000E+00
 -3.46748271E-04  4.09795047E-04  9.76833943E-01 -9.18751464E-03  4.34664394E-02
  1.19814672E-04 -1.91120364E-03 -2.04664806E-03 -8.25235951E-04  0.00000000E+00
  2.08687358E-03  7.62409254E-04  0.00000000E+00 -3.88487204E-04  6.42355575E-04
  0.00000000E+00  2.23953723E-04 -3.00532186E-04  0.00000000E+00  3.03700803E-05
  0.00000000E+00  0.00000000E+00 -7.47560694E-05  6.42543798E-05  7.66256330E-04
  0.00000000E+00  0.00000000E+00 -2.08537674E-04  3.53393804E-04 -2.39500237E-04
  0.00000000E+00  0.00000000E+00  3.30256989E-04  5.49116729E-07  0.00000000E+00
 -8.09073355E-05  1.60360769E-06  0.00000000E+00  0.00000000E+00  1.53712330E-05