title                                                                   
Freq      RMP2-FC                                                     Aug-CC-pVTZ         
Number of atoms                            I                5
Info1-9                                    I   N=           9
          33          24           0           0           0         100
           6           2           1
Full Title                                 C   N=           1
title       
Route                                      C   N=           4
#p freq mp2/aug-cc-pvtz density=current         
Charge                                     I                0
Multiplicity                               I                1
Number of electrons                        I               32
Number of alpha electrons                  I               16
Number of beta electrons                   I               16
Number of basis functions                  I              207
Number of independent functions            I              207
Number of point charges in /Mol/           I                0
Number of translation vectors              I                0
Atomic numbers                             I   N=           5
           1           8           8           7           8
Nuclear charges                            R   N=           5
  1.00000000E+00  8.00000000E+00  8.00000000E+00  7.00000000E+00  8.00000000E+00
Current cartesian coordinates              R   N=          15
  1.02081081E+00 -2.15149313E+00  4.40411130E-02  2.41310218E+00 -9.15631412E-01
  4.58115166E-03  1.02593871E+00  1.39619103E+00 -1.62447375E-02 -1.55942014E+00
  1.04129783E+00  2.40997790E-02 -2.20214962E+00 -1.12275858E+00 -1.49288599E-02
Number of symbols in /Mol/                 I                0
Force Field                                I                0
Atom Types                                 C   N=           5
                                                            
Int Atom Types                             I   N=           5
           0           0           0           0           0
MM charges                                 R   N=           5
  0.00000000E+00  0.00000000E+00  0.00000000E+00  0.00000000E+00  0.00000000E+00
Integer atomic weights                     I   N=           5
           1          16          16          14          16
Real atomic weights                        R   N=           5
  1.00782504E+00  1.59949146E+01  1.59949146E+01  1.40030740E+01  1.59949146E+01
Atom fragment info                         I   N=           5
           0           0           0           0           0
Atom residue num                           I   N=           5
           0           0           0           0           0
Nuclear spins                              I   N=           5
           1           0           0           2           0
Nuclear ZEff                               R   N=           5
 -1.00000000E+00 -5.60000000E+00 -5.60000000E+00 -4.55000000E+00 -5.60000000E+00
Nuclear ZNuc                               R   N=           5
  1.00000000E+00  8.00000000E+00  8.00000000E+00  7.00000000E+00  8.00000000E+00
Nuclear QMom                               R   N=           5
  0.00000000E+00  0.00000000E+00  0.00000000E+00  2.04400000E+00  0.00000000E+00
Nuclear GFac                               R   N=           5
  2.79284600E+00  0.00000000E+00  0.00000000E+00  4.03761000E-01  0.00000000E+00
MicOpt                                     I   N=           5
          -1          -1          -1          -1          -1
Number of residues                         I                0
Number of secondary structures             I                0
SymInf integers                            I   N=          26
           1           1           1           1           1           0
           0           0           0           0           0           0
           0           0           0           0           0           0
           0           0           0           0           0           0
           0           0
RotTr to input orientation                 R   N=          12
 -6.63900890E-01  1.32719120E-02  7.47702792E-01  7.47810507E-01  1.69698877E-02
  6.63695313E-01 -3.87992661E-03  9.99767913E-01 -2.11911988E-02  2.28679725E+00
 -2.10684060E-02  6.65606098E-01
Number of contracted shells                I               65
Number of primitive shells                 I              119
Pure/Cartesian d shells                    I                0
Pure/Cartesian f shells                    I                0
Highest angular momentum                   I                3
Largest degree of contraction              I                7
Shell types                                I   N=          65
           0           0           0           0           1           1
           1          -2          -2           0           0           0
           0           0           1           1           1           1
          -2          -2          -2          -3          -3           0
           0           0           0           0           1           1
           1           1          -2          -2          -2          -3
          -3           0           0           0           0           0
           1           1           1           1          -2          -2
          -2          -3          -3           0           0           0
           0           0           1           1           1           1
          -2          -2          -2          -3          -3
Number of primitives per shell             I   N=          65
           3           1           1           1           1           1
           1           1           1           7           6           1
           1           1           3           1           1           1
           1           1           1           1           1           7
           6           1           1           1           3           1
           1           1           1           1           1           1
           1           7           6           1           1           1
           3           1           1           1           1           1
           1           1           1           7           6           1
           1           1           3           1           1           1
           1           1           1           1           1
Shell to atom map                          I   N=          65
           1           1           1           1           1           1
           1           1           1           2           2           2
           2           2           2           2           2           2
           2           2           2           2           2           3
           3           3           3           3           3           3
           3           3           3           3           3           3
           3           4           4           4           4           4
           4           4           4           4           4           4
           4           4           4           5           5           5
           5           5           5           5           5           5
           5           5           5           5           5
Primitive exponents                        R   N=         119
  3.38700000E+01  5.09500000E+00  1.15900000E+00  3.25800000E-01  1.02700000E-01
  2.52600000E-02  1.40700000E+00  3.88000000E-01  1.02000000E-01  1.05700000E+00
  2.47000000E-01  1.53300000E+04  2.29900000E+03  5.22400000E+02  1.47300000E+02
  4.75500000E+01  1.67600000E+01  6.20700000E+00  5.22400000E+02  1.47300000E+02
  4.75500000E+01  1.67600000E+01  6.20700000E+00  6.88200000E-01  1.75200000E+00
  2.38400000E-01  7.37600000E-02  3.44600000E+01  7.74900000E+00  2.28000000E+00
  7.15600000E-01  2.14000000E-01  5.97400000E-02  2.31400000E+00  6.45000000E-01
  2.14000000E-01  1.42800000E+00  5.00000000E-01  1.53300000E+04  2.29900000E+03
  5.22400000E+02  1.47300000E+02  4.75500000E+01  1.67600000E+01  6.20700000E+00
  5.22400000E+02  1.47300000E+02  4.75500000E+01  1.67600000E+01  6.20700000E+00
  6.88200000E-01  1.75200000E+00  2.38400000E-01  7.37600000E-02  3.44600000E+01
  7.74900000E+00  2.28000000E+00  7.15600000E-01  2.14000000E-01  5.97400000E-02
  2.31400000E+00  6.45000000E-01  2.14000000E-01  1.42800000E+00  5.00000000E-01
  1.14200000E+04  1.71200000E+03  3.89300000E+02  1.10000000E+02  3.55700000E+01
  1.25400000E+01  4.64400000E+00  3.89300000E+02  1.10000000E+02  3.55700000E+01
  1.25400000E+01  4.64400000E+00  5.11800000E-01  1.29300000E+00  1.78700000E-01
  5.76000000E-02  2.66300000E+01  5.94800000E+00  1.74200000E+00  5.55000000E-01
  1.72500000E-01  4.91000000E-02  1.65400000E+00  4.69000000E-01  1.51000000E-01
  1.09300000E+00  3.64000000E-01  1.53300000E+04  2.29900000E+03  5.22400000E+02
  1.47300000E+02  4.75500000E+01  1.67600000E+01  6.20700000E+00  5.22400000E+02
  1.47300000E+02  4.75500000E+01  1.67600000E+01  6.20700000E+00  6.88200000E-01
  1.75200000E+00  2.38400000E-01  7.37600000E-02  3.44600000E+01  7.74900000E+00
  2.28000000E+00  7.15600000E-01  2.14000000E-01  5.97400000E-02  2.31400000E+00
  6.45000000E-01  2.14000000E-01  1.42800000E+00  5.00000000E-01
Contraction coefficients                   R   N=         119
  2.54948632E-02  1.90362766E-01  8.52162022E-01  1.00000000E+00  1.00000000E+00
  1.00000000E+00  1.00000000E+00  1.00000000E+00  1.00000000E+00  1.00000000E+00
  1.00000000E+00  5.19808943E-04  4.02025621E-03  2.07128267E-02  8.10105536E-02
  2.35962985E-01  4.42653446E-01  3.57064423E-01 -4.42115008E-05 -1.22591041E-03
 -1.05517725E-02 -6.74452633E-02 -1.71198607E-01  1.07329856E+00  1.00000000E+00
  1.00000000E+00  1.00000000E+00  4.11634896E-02  2.57762836E-01  8.02419274E-01
  1.00000000E+00  1.00000000E+00  1.00000000E+00  1.00000000E+00  1.00000000E+00
  1.00000000E+00  1.00000000E+00  1.00000000E+00  5.19808943E-04  4.02025621E-03
  2.07128267E-02  8.10105536E-02  2.35962985E-01  4.42653446E-01  3.57064423E-01
 -4.42115008E-05 -1.22591041E-03 -1.05517725E-02 -6.74452633E-02 -1.71198607E-01
  1.07329856E+00  1.00000000E+00  1.00000000E+00  1.00000000E+00  4.11634896E-02
  2.57762836E-01  8.02419274E-01  1.00000000E+00  1.00000000E+00  1.00000000E+00
  1.00000000E+00  1.00000000E+00  1.00000000E+00  1.00000000E+00  1.00000000E+00
  5.34563860E-04  4.13435660E-03  2.12335358E-02  8.25006224E-02  2.38138871E-01
  4.42551547E-01  3.53757422E-01 -4.89867350E-05 -1.19527323E-03 -1.03490714E-02
 -6.48680190E-02 -1.71552477E-01  1.07289568E+00  1.00000000E+00  1.00000000E+00
  1.00000000E+00  3.98072123E-02  2.49002660E-01  8.10479727E-01  1.00000000E+00
  1.00000000E+00  1.00000000E+00  1.00000000E+00  1.00000000E+00  1.00000000E+00
  1.00000000E+00  1.00000000E+00  5.19808943E-04  4.02025621E-03  2.07128267E-02
  8.10105536E-02  2.35962985E-01  4.42653446E-01  3.57064423E-01 -4.42115008E-05
 -1.22591041E-03 -1.05517725E-02 -6.74452633E-02 -1.71198607E-01  1.07329856E+00
  1.00000000E+00  1.00000000E+00  1.00000000E+00  4.11634896E-02  2.57762836E-01
  8.02419274E-01  1.00000000E+00  1.00000000E+00  1.00000000E+00  1.00000000E+00
  1.00000000E+00  1.00000000E+00  1.00000000E+00  1.00000000E+00
Coordinates of each shell                  R   N=         195
  1.02081081E+00 -2.15149313E+00  4.40411130E-02  1.02081081E+00 -2.15149313E+00
  4.40411130E-02  1.02081081E+00 -2.15149313E+00  4.40411130E-02  1.02081081E+00
 -2.15149313E+00  4.40411130E-02  1.02081081E+00 -2.15149313E+00  4.40411130E-02
  1.02081081E+00 -2.15149313E+00  4.40411130E-02  1.02081081E+00 -2.15149313E+00
  4.40411130E-02  1.02081081E+00 -2.15149313E+00  4.40411130E-02  1.02081081E+00
 -2.15149313E+00  4.40411130E-02  2.41310218E+00 -9.15631412E-01  4.58115166E-03
  2.41310218E+00 -9.15631412E-01  4.58115166E-03  2.41310218E+00 -9.15631412E-01
  4.58115166E-03  2.41310218E+00 -9.15631412E-01  4.58115166E-03  2.41310218E+00
 -9.15631412E-01  4.58115166E-03  2.41310218E+00 -9.15631412E-01  4.58115166E-03
  2.41310218E+00 -9.15631412E-01  4.58115166E-03  2.41310218E+00 -9.15631412E-01
  4.58115166E-03  2.41310218E+00 -9.15631412E-01  4.58115166E-03  2.41310218E+00
 -9.15631412E-01  4.58115166E-03  2.41310218E+00 -9.15631412E-01  4.58115166E-03
  2.41310218E+00 -9.15631412E-01  4.58115166E-03  2.41310218E+00 -9.15631412E-01
  4.58115166E-03  2.41310218E+00 -9.15631412E-01  4.58115166E-03  1.02593871E+00
  1.39619103E+00 -1.62447375E-02  1.02593871E+00  1.39619103E+00 -1.62447375E-02
  1.02593871E+00  1.39619103E+00 -1.62447375E-02  1.02593871E+00  1.39619103E+00
 -1.62447375E-02  1.02593871E+00  1.39619103E+00 -1.62447375E-02  1.02593871E+00
  1.39619103E+00 -1.62447375E-02  1.02593871E+00  1.39619103E+00 -1.62447375E-02
  1.02593871E+00  1.39619103E+00 -1.62447375E-02  1.02593871E+00  1.39619103E+00
 -1.62447375E-02  1.02593871E+00  1.39619103E+00 -1.62447375E-02  1.02593871E+00
  1.39619103E+00 -1.62447375E-02  1.02593871E+00  1.39619103E+00 -1.62447375E-02
  1.02593871E+00  1.39619103E+00 -1.62447375E-02  1.02593871E+00  1.39619103E+00
 -1.62447375E-02 -1.55942014E+00  1.04129783E+00  2.40997790E-02 -1.55942014E+00
  1.04129783E+00  2.40997790E-02 -1.55942014E+00  1.04129783E+00  2.40997790E-02
 -1.55942014E+00  1.04129783E+00  2.40997790E-02 -1.55942014E+00  1.04129783E+00
  2.40997790E-02 -1.55942014E+00  1.04129783E+00  2.40997790E-02 -1.55942014E+00
  1.04129783E+00  2.40997790E-02 -1.55942014E+00  1.04129783E+00  2.40997790E-02
 -1.55942014E+00  1.04129783E+00  2.40997790E-02 -1.55942014E+00  1.04129783E+00
  2.40997790E-02 -1.55942014E+00  1.04129783E+00  2.40997790E-02 -1.55942014E+00
  1.04129783E+00  2.40997790E-02 -1.55942014E+00  1.04129783E+00  2.40997790E-02
 -1.55942014E+00  1.04129783E+00  2.40997790E-02 -2.20214962E+00 -1.12275858E+00
 -1.49288599E-02 -2.20214962E+00 -1.12275858E+00 -1.49288599E-02 -2.20214962E+00
 -1.12275858E+00 -1.49288599E-02 -2.20214962E+00 -1.12275858E+00 -1.49288599E-02
 -2.20214962E+00 -1.12275858E+00 -1.49288599E-02 -2.20214962E+00 -1.12275858E+00
 -1.49288599E-02 -2.20214962E+00 -1.12275858E+00 -1.49288599E-02 -2.20214962E+00
 -1.12275858E+00 -1.49288599E-02 -2.20214962E+00 -1.12275858E+00 -1.49288599E-02
 -2.20214962E+00 -1.12275858E+00 -1.49288599E-02 -2.20214962E+00 -1.12275858E+00
 -1.49288599E-02 -2.20214962E+00 -1.12275858E+00 -1.49288599E-02 -2.20214962E+00
 -1.12275858E+00 -1.49288599E-02 -2.20214962E+00 -1.12275858E+00 -1.49288599E-02
Num ILSW                                   I              100
ILSW                                       I   N=         100
           0           0           0           0           2           0
           0           0           0           0           0          -1
           5           0           0           0           2           0
           0           0           0           0           1           0
           1           0           0           0           0           0
           0           0      100000           0          -1           0
           0           0           0           0           0           0
           0           0           0           1           1           0
           0 -2000000000           1           0           0           0
           0           0           4          52           0           0
           0           0           0           0           0           0
           0           0           0           5           4           1
           0           0           0           0           0           0
           0           0           0           0           0           0
           0           0           0           0           0           0
           0           0           0           0           0           0
           0           0           0           0
Num RLSW                                   I               52
RLSW                                       R   N=          52
  1.00000000E+00  1.00000000E+00  1.00000000E+00  1.00000000E+00  1.00000000E+00
  0.00000000E+00  0.00000000E+00  1.00000000E+00  0.00000000E+00  0.00000000E+00
  0.00000000E+00  0.00000000E+00  1.00000000E+00  0.00000000E+00  0.00000000E+00
  0.00000000E+00  0.00000000E+00  1.00000000E+00  0.00000000E+00  0.00000000E+00
  0.00000000E+00  0.00000000E+00  1.00000000E+00  0.00000000E+00  0.00000000E+00
  0.00000000E+00  0.00000000E+00  1.00000000E+00  0.00000000E+00  0.00000000E+00
  0.00000000E+00  0.00000000E+00  1.00000000E+00  0.00000000E+00  0.00000000E+00
  0.00000000E+00  0.00000000E+00  0.00000000E+00  1.00000000E+00  1.00000000E+00
  0.00000000E+00  1.00000000E+00  0.00000000E+00  0.00000000E+00  0.00000000E+00
  0.00000000E+00  0.00000000E+00  0.00000000E+00  0.00000000E+00  0.00000000E+00
  0.00000000E+00  0.00000000E+00
MxBond                                     I                2
NBond                                      I   N=           5
           1           2           2           2           1
IBond                                      I   N=          10
           2           0           1           3           2           4
           3           5           4           0
RBond                                      R   N=          10
  1.00000000E+00  0.00000000E+00  1.00000000E+00  1.00000000E+00  1.00000000E+00
  1.00000000E+00  1.00000000E+00  2.00000000E+00  2.00000000E+00  0.00000000E+00
Virial Ratio                               R      2.002227086446947E+00
SCF Energy                                 R     -2.795063662528477E+02
MP2 Energy                                 R     -2.804551491775011E+02
Total Energy                               R     -2.804551491775011E+02
Post-SCF wavefunction norm                 R      1.583723434849449E+00
RMS Force                                  R      1.236487642109119E-03
RMS Density                                R      8.899622145300914E-09
NImag                                      I                0
Job Status                                 I                1
Nuclear derivative order                   I                2
External E-field                           R   N=          35
  0.00000000E+00  0.00000000E+00  0.00000000E+00  0.00000000E+00  0.00000000E+00
  0.00000000E+00  0.00000000E+00  0.00000000E+00  0.00000000E+00  0.00000000E+00
  0.00000000E+00  0.00000000E+00  0.00000000E+00  0.00000000E+00  0.00000000E+00
  0.00000000E+00  0.00000000E+00  0.00000000E+00  0.00000000E+00  0.00000000E+00
  0.00000000E+00  0.00000000E+00  0.00000000E+00  0.00000000E+00  0.00000000E+00
  0.00000000E+00  0.00000000E+00  0.00000000E+00  0.00000000E+00  0.00000000E+00
  0.00000000E+00  0.00000000E+00  0.00000000E+00  0.00000000E+00  0.00000000E+00
IOpCl                                      I                0
IROHF                                      I                0
Alpha Orbital Energies                     R   N=         207
 -2.07197532E+01 -2.06872579E+01 -2.06683116E+01 -1.58260023E+01 -1.64426759E+00
 -1.50516095E+00 -1.29375835E+00 -9.60355926E-01 -8.34629431E-01 -7.58931237E-01
 -7.39935104E-01 -6.37433626E-01 -6.19025714E-01 -6.18108779E-01 -5.04763427E-01
 -4.97395456E-01  3.50590962E-02  6.01908222E-02  9.51180033E-02  1.00378632E-01
  1.19402247E-01  1.22845101E-01  1.49386044E-01  1.52043783E-01  1.77436626E-01
  1.80442105E-01  1.89708706E-01  2.11083267E-01  2.16746234E-01  2.42531969E-01
  2.46337447E-01  2.68957166E-01  3.12067486E-01  3.17341165E-01  3.38059650E-01
  3.43855324E-01  3.46803654E-01  3.92610119E-01  4.48677563E-01  4.88177358E-01
  5.05409832E-01  5.18575322E-01  5.44906543E-01  5.61222492E-01  5.99045266E-01
  6.20286244E-01  6.38489915E-01  6.89708092E-01  7.16935082E-01  7.24474169E-01
  7.43164810E-01  7.63732530E-01  7.67278192E-01  7.95274946E-01  8.06302788E-01
  8.40340267E-01  8.43178548E-01  8.51887166E-01  8.85477417E-01  9.07786500E-01
  9.30308489E-01  9.48308581E-01  9.54163868E-01  1.01806793E+00  1.03260832E+00
  1.06201738E+00  1.06575636E+00  1.09573806E+00  1.14393156E+00  1.15631801E+00
  1.16992970E+00  1.22216232E+00  1.22707662E+00  1.24607688E+00  1.35255564E+00
  1.36182051E+00  1.37139235E+00  1.46849872E+00  1.48567224E+00  1.50475870E+00
  1.54171106E+00  1.59399618E+00  1.59776878E+00  1.60825022E+00  1.62875646E+00
  1.69557040E+00  1.74054310E+00  1.80117574E+00  1.82989832E+00  1.88752901E+00
  1.89678241E+00  1.92946205E+00  1.97912961E+00  1.98954508E+00  2.05217353E+00
  2.12382691E+00  2.13057403E+00  2.16543776E+00  2.18800436E+00  2.24168419E+00
  2.26167924E+00  2.29444206E+00  2.35214348E+00  2.36615805E+00  2.38650516E+00
  2.40223737E+00  2.43368257E+00  2.46861128E+00  2.47989001E+00  2.52897396E+00
  2.53877943E+00  2.54902749E+00  2.55930975E+00  2.61611536E+00  2.63016651E+00
  2.67151817E+00  2.67445139E+00  2.75416791E+00  2.80901077E+00  2.81850441E+00
  2.84124429E+00  2.91869601E+00  2.98531416E+00  3.04688337E+00  3.05104451E+00
  3.11550035E+00  3.11819227E+00  3.17345738E+00  3.21322396E+00  3.30797128E+00
  3.33231557E+00  3.36107981E+00  3.47781742E+00  3.67807287E+00  3.86969498E+00
  3.93048029E+00  4.18353207E+00  4.22070665E+00  4.22782684E+00  4.26876762E+00
  4.36978163E+00  4.50020337E+00  4.52815950E+00  4.55615939E+00  4.59909738E+00
  4.69378409E+00  4.80988517E+00  4.89702901E+00  4.91632044E+00  4.94130426E+00
  4.99837897E+00  5.00594683E+00  5.10790680E+00  5.13309950E+00  5.17958426E+00
  5.25007911E+00  5.25890558E+00  5.31795463E+00  5.34707260E+00  5.35621143E+00
  5.54705030E+00  5.64493523E+00  5.70622457E+00  5.88943574E+00  5.99744740E+00
  6.26462689E+00  6.29598604E+00  6.36110578E+00  6.37675300E+00  6.59824607E+00
  6.65931834E+00  6.65977797E+00  6.68999303E+00  6.72612510E+00  6.79604224E+00
  6.80618749E+00  6.85091110E+00  6.96794160E+00  7.02072018E+00  7.06636714E+00
  7.08032165E+00  7.13873702E+00  7.17322854E+00  7.17752155E+00  7.20348137E+00
  7.24481689E+00  7.24867664E+00  7.27152753E+00  7.34953375E+00  7.39429692E+00
  7.42823481E+00  7.44273202E+00  7.46301055E+00  7.55967507E+00  7.66350050E+00
  7.66761810E+00  7.79450613E+00  7.88314987E+00  7.95284737E+00  8.06456769E+00
  8.30669421E+00  8.50003869E+00  8.65224056E+00  1.36190454E+01  1.47627084E+01
  1.51048843E+01  1.57638957E+01
Alpha MO coefficients                      R   N=       42849
  6.44579040E-05 -2.41317397E-05 -1.11217577E-03  1.28335188E-05 -1.66113959E-05
  6.44359810E-05  5.73308520E-08 -2.42578039E-04 -1.80466063E-04 -6.10014465E-06
 -2.07237027E-04 -2.81518907E-04 -5.64313593E-06  4.24206532E-05  5.52006775E-07
 -9.92570060E-07  4.26312916E-06  2.77683118E-05  2.28516938E-04  5.39991695E-06
 -2.85399947E-06 -2.11362442E-04 -2.44249003E-05  3.07486412E-03 -9.56160113E-05
 -9.92677716E-05  3.54339327E-03  2.48063008E-03  5.11869827E-05 -1.03713926E-04
  8.63667612E-07 -4.18635143E-04  6.62111325E-04 -4.77172771E-06 -9.37722063E-04
  2.06627965E-03 -1.10136681E-05 -4.10421887E-04  3.50346625E-04  1.85793921E-06
  2.04656899E-05  4.10977269E-08  1.46841672E-06  3.94340107E-05  2.17167369E-05
 -4.43165020E-04  3.97875892E-06 -1.66340913E-05 -5.03478570E-04 -6.06921099E-04
 -3.64097664E-04  7.65942063E-06 -1.54277758E-05 -5.44575483E-04 -7.41065594E-04
  2.21435972E-06  2.86285843E-05 -8.60798295E-05  1.50468362E-06  1.25359118E-06
  1.11265837E-04 -8.88308369E-06  2.73190084E-06  1.37479458E-04 -1.63807025E-04
  2.32837692E-06  8.79215683E-06  3.39081600E-04  6.38131268E-05  9.76903757E-01
 -9.17363550E-03  4.34072267E-02  4.94669412E-04 -2.20911735E-03 -9.09197109E-04
 -1.99696563E-03  3.29569221E-05  1.07602587E-03  2.00553176E-03 -3.62535268E-05
 -2.15301053E-03  9.81698623E-04  2.23927262E-05 -1.22931962E-04  2.10933026E-04
 -4.14485463E-06  7.12925602E-06  1.25675160E-06  1.54614581E-06  3.46575389E-05
  1.60152365E-05  8.27024269E-04  1.12200054E-05  1.42757769E-05 -3.05392955E-04
  4.02173160E-04 -1.38709147E-04 -1.97324132E-05 -9.48523101E-06  1.73753611E-04
  6.31244321E-04  3.84793959E-06 -5.20484532E-05 -6.01248114E-05 -6.78860040E-07
  1.82130076E-07  4.84436525E-05 -7.00326335E-06 -1.16980519E-06  7.46864547E-05
 -5.40061613E-05 -4.78740192E-06  2.74264065E-06  4.68749500E-04  1.95088890E-04
  1.04403123E-04  4.57812102E-04 -3.23555650E-04 -8.27673559E-04  3.53253243E-04
 -9.48353584E-05 -5.44140944E-05  1.80014637E-06  1.22025013E-03  4.82054771E-04
 -1.63894729E-05 -1.00662592E-03 -7.73786713E-05 -5.36285333E-06  2.82520255E-04
  5.51281878E-05 -5.56653538E-06 -5.24845043E-05 -2.37059802E-06 -9.22647833E-07
  9.46862482E-05  9.56637509E-06 -4.15384781E-04 -3.41273938E-05 -6.57133040E-06
  1.04307344E-03  2.84212811E-04  2.69952322E-05 -2.57226803E-06  2.26450355E-06
 -6.76120285E-05  3.10833744E-04  4.47464375E-06 -1.30433267E-04 -4.49339311E-05
 -6.91232327E-06 -1.18529499E-06  1.31663460E-04  5.69283391E-05  8.47350917E-06
 -7.19837869E-05  1.11218034E-04 -1.77777389E-05  5.19247531E-06  4.87280121E-04
 -1.83104215E-04 -7.07043904E-04  4.59141263E-05 -7.03065432E-05  2.10850700E-04
 -1.78860979E-04 -4.78066278E-05 -1.62775430E-05  1.36012491E-06  2.85864791E-04
  1.04372206E-04 -7.78706628E-06  6.19701873E-04 -5.32535028E-05  1.30662161E-05
 -2.12552214E-04  7.85295978E-05  5.27443964E-06 -1.29374522E-05 -1.42192752E-06
  3.98186122E-07  1.55337486E-05  1.38601779E-06 -2.27326742E-06  7.55838250E-06
 -3.33029516E-06 -3.92671033E-05  1.59489320E-04 -2.20477182E-05  2.20416650E-05
 -3.44356737E-07 -9.04652124E-05  1.49732235E-04  1.38330709E-06 -1.01487521E-05
 -3.78071201E-06 -1.33809071E-06 -4.15922198E-07  1.59011945E-05  1.72767791E-05
 -6.66416213E-06  6.85400454E-05  2.51014762E-05  6.77717619E-06  6.52938687E-06
 -1.48885654E-04 -1.15034293E-04  4.00891005E-05  6.22793548E-05 -1.18380692E-04
 -2.98662326E-05  2.15575925E-05 -2.18321201E-06  3.49087139E-07  2.28207540E-04
 -9.32687325E-05  1.56839429E-06  1.14371478E-04 -5.57151628E-05  4.97631810E-06
  1.33390677E-05 -9.02182140E-07  1.00809770E-06  1.19031276E-05  1.66387677E-05
  2.20893640E-05  4.56808828E-06  4.67958431E-07  3.14141108E-05  1.10594976E-04
 -2.59158704E-04  2.60028478E-05 -1.52080677E-05 -5.50644958E-04  1.60671136E-04
  1.40320553E-05  6.65756389E-06  3.04865707E-07 -2.52853896E-05 -3.37517784E-05
 -1.41936155E-06  2.26051132E-04 -3.76435742E-06 -2.55369255E-06 -8.27363481E-06
  6.66759323E-05 -4.86288247E-06 -1.42412622E-06  6.85446732E-08 -4.25248898E-07
 -1.36281407E-05  4.46680423E-06  2.11306445E-05  3.07360448E-07  3.15254716E-06
  1.18560746E-04 -1.49440882E-05  6.15165558E-05 -7.04623095E-07  7.94443163E-06
 -8.33323620E-05  4.39356116E-06  3.86161763E-07  1.23266755E-05  3.68175751E-06
 -6.36060747E-07 -3.77171527E-08 -2.31908188E-05  9.00982884E-06 -7.30862130E-07
 -3.25302069E-05 -2.06284227E-05  1.66864375E-06 -2.16635823E-06 -1.76067027E-05
  8.83918032E-06  7.35070376E-04  2.27128010E-05 -1.89015030E-05  2.98290423E-04
 -3.92105079E-04  2.94122123E-05  1.21586353E-05 -3.05517822E-07 -1.43876921E-04
 -8.44906223E-05  8.00323576E-07  2.79054537E-06 -2.55003135E-04  1.06808294E-05
 -4.23963842E-05  2.07466045E-04  4.79282528E-06 -4.05753832E-06  5.10111695E-07
  3.79896866E-07 -1.82242907E-05  2.52373117E-05 -5.14070142E-05 -4.19699971E-06
 -1.90075191E-06  1.40210745E-04 -3.98931671E-05 -6.48179645E-05 -1.23927921E-05
 -2.82644585E-06  3.85041621E-05 -3.19570664E-05  4.14962228E-07  4.38293508E-06
  9.01777905E-07  4.80365324E-07 -5.20949257E-07  3.80669706E-07  8.17930615E-06
 -4.52311906E-06 -1.18878317E-05 -2.24417363E-05  3.30908589E-06  4.19680614E-06
 -1.77403332E-04 -4.04581837E-05  2.37078179E-04  1.35757833E-03 -1.47116285E-04
 -6.92424986E-04  9.03757255E-04  8.83753137E-06 -9.46495176E-05 -1.68898442E-06
 -7.73536269E-04 -2.01684986E-03 -3.41994366E-05  3.84833083E-04  3.34592390E-04
 -1.79396188E-05 -3.23265262E-05 -3.57265716E-04 -6.22495162E-06 -1.27696970E-04
  3.38563281E-06  7.34456176E-06 -2.12014126E-04  1.47481273E-04 -4.59718288E-04
  7.22134909E-06  3.67103153E-05 -1.05781873E-03  3.00609743E-04 -4.18824961E-05
 -9.05481730E-06  1.93679175E-06  1.29453592E-04 -2.21101716E-05  8.35827327E-08
  2.85891642E-05  2.46817953E-05  2.31930081E-06  3.54883229E-07  4.06257656E-06
  2.44699218E-05  1.33099028E-05 -1.52987901E-05  2.07131860E-04  1.26422950E-05
 -4.74698090E-06  7.04512142E-05  3.08910787E-04  9.76646018E-01 -9.88637148E-03
  4.35754049E-02  3.68835518E-03 -8.94101260E-04  9.01815862E-04  1.98240457E-03
  3.89503882E-05 -1.07156397E-03 -2.32227350E-03 -4.33531036E-05  4.27015872E-04
  6.99183957E-04  3.09851303E-05  4.62003330E-05 -1.13933181E-04 -2.64695631E-06
 -1.93797312E-04 -3.39718029E-06  7.32450418E-06 -6.36788292E-05  5.80652947E-05
  4.08675102E-04 -1.52588397E-05 -2.43745721E-05  7.17664683E-04 -6.75637534E-04
 -2.05857695E-04  1.07732189E-05  1.23221989E-05 -7.63273974E-05  1.22992237E-04
  3.27980504E-06  3.78168992E-05  5.94001744E-05  1.90536918E-06 -8.64712051E-07
  1.94068369E-05  2.39780044E-05  2.60732691E-06 -1.76304606E-05  1.26519033E-04
  7.96520010E-06 -6.48308659E-06  2.48073608E-04  9.02112228E-05  3.75121768E-04
  1.99462061E-03  1.37314878E-03 -1.83087864E-05  2.00093457E-04  1.86272183E-04
 -5.17588488E-06  9.15134125E-04  6.01950468E-04 -2.72544473E-05  4.05664018E-05
  2.65311416E-04 -1.49139181E-05 -2.36492002E-05  1.12627326E-06 -1.51397607E-06
 -1.78068662E-05 -3.97680970E-05 -2.16260698E-04 -1.21178766E-05 -7.34733699E-06
  2.83017538E-04  4.52761423E-04  9.76834451E-01 -9.18700859E-03  4.34653611E-02
  1.35665068E-04 -1.90933176E-03 -2.14187552E-03  5.37084243E-04  1.91690494E-05
  2.13477843E-03 -6.11072501E-04 -1.72107390E-05  5.73740149E-05  7.59382066E-04
 -1.75684277E-05  4.13398801E-06 -3.72947255E-04  9.83653944E-06  3.07497911E-05
 -1.17588537E-06  1.92191467E-06  3.80571760E-05  8.99937150E-05  7.65510613E-04
  7.30838604E-06  2.40707827E-05  2.74036361E-04  3.04832127E-04 -2.37891286E-04
  1.22292226E-06 -3.60487411E-06  1.02866005E-04 -3.19375929E-04 -3.53873485E-07
 -6.40125265E-05  4.90083088E-05 -1.40447726E-06 -1.57631670E-06 -4.63421215E-05