 Entering Gaussian System, Link 0=g16
 Input=hoono_r4_1p158837.gjf
 Output=hoono_r4_1p158837.log
 Initial command:
 /sw/contrib/gaussian/g16/B01/g16/l1.exe "/scr/Gau-3997.inp" -scrdir="/scr/"
 Entering Link 1 = /sw/contrib/gaussian/g16/B01/g16/l1.exe PID=      3998.
  
 Copyright (c) 1988-2017, Gaussian, Inc.  All Rights Reserved.
  
 This is part of the Gaussian(R) 16 program.  It is based on
 the Gaussian(R) 09 system (copyright 2009, Gaussian, Inc.),
 the Gaussian(R) 03 system (copyright 2003, Gaussian, Inc.),
 the Gaussian(R) 98 system (copyright 1998, Gaussian, Inc.),
 the Gaussian(R) 94 system (copyright 1995, Gaussian, Inc.),
 the Gaussian 92(TM) system (copyright 1992, Gaussian, Inc.),
 the Gaussian 90(TM) system (copyright 1990, Gaussian, Inc.),
 the Gaussian 88(TM) system (copyright 1988, Gaussian, Inc.),
 the Gaussian 86(TM) system (copyright 1986, Carnegie Mellon
 University), and the Gaussian 82(TM) system (copyright 1983,
 Carnegie Mellon University). Gaussian is a federally registered
 trademark of Gaussian, Inc.
  
 This software contains proprietary and confidential information,
 including trade secrets, belonging to Gaussian, Inc.
  
 This software is provided under written license and may be
 used, copied, transmitted, or stored only in accord with that
 written license.
  
 The following legend is applicable only to US Government
 contracts under FAR:
  
                    RESTRICTED RIGHTS LEGEND
  
 Use, reproduction and disclosure by the US Government is
 subject to restrictions as set forth in subparagraphs (a)
 and (c) of the Commercial Computer Software - Restricted
 Rights clause in FAR 52.227-19.
  
 Gaussian, Inc.
 340 Quinnipiac St., Bldg. 40, Wallingford CT 06492
  
  
 ---------------------------------------------------------------
 Warning -- This program may not be used in any manner that
 competes with the business of Gaussian, Inc. or will provide
 assistance to any competitor of Gaussian, Inc.  The licensee
 of this program is prohibited from giving any competitor of
 Gaussian, Inc. access to this program.  By using this program,
 the user acknowledges that Gaussian, Inc. is engaged in the
 business of creating and licensing software in the field of
 computational chemistry and represents and warrants to the
 licensee that it is not a competitor of Gaussian, Inc. and that
 it will not use this program in any manner prohibited above.
 ---------------------------------------------------------------
  

 Cite this work as:
 Gaussian 16, Revision B.01,
 M. J. Frisch, G. W. Trucks, H. B. Schlegel, G. E. Scuseria, 
 M. A. Robb, J. R. Cheeseman, G. Scalmani, V. Barone, 
 G. A. Petersson, H. Nakatsuji, X. Li, M. Caricato, A. V. Marenich, 
 J. Bloino, B. G. Janesko, R. Gomperts, B. Mennucci, H. P. Hratchian, 
 J. V. Ortiz, A. F. Izmaylov, J. L. Sonnenberg, D. Williams-Young, 
 F. Ding, F. Lipparini, F. Egidi, J. Goings, B. Peng, A. Petrone, 
 T. Henderson, D. Ranasinghe, V. G. Zakrzewski, J. Gao, N. Rega, 
 G. Zheng, W. Liang, M. Hada, M. Ehara, K. Toyota, R. Fukuda, 
 J. Hasegawa, M. Ishida, T. Nakajima, Y. Honda, O. Kitao, H. Nakai, 
 T. Vreven, K. Throssell, J. A. Montgomery, Jr., J. E. Peralta, 
 F. Ogliaro, M. J. Bearpark, J. J. Heyd, E. N. Brothers, K. N. Kudin, 
 V. N. Staroverov, T. A. Keith, R. Kobayashi, J. Normand, 
 K. Raghavachari, A. P. Rendell, J. C. Burant, S. S. Iyengar, 
 J. Tomasi, M. Cossi, J. M. Millam, M. Klene, C. Adamo, R. Cammi, 
 J. W. Ochterski, R. L. Martin, K. Morokuma, O. Farkas, 
 J. B. Foresman, and D. J. Fox, Gaussian, Inc., Wallingford CT, 2016.
 
 ******************************************
 Gaussian 16:  ES64L-G16RevB.01 20-Dec-2017
                21-Feb-2022 
 ******************************************
 %nproc=28
 Will use up to   28 processors via shared memory.
 %mem=120GB
 %chk=hoono_r4_1p158837.chk
 ---------------------------------------
 #p freq mp2/aug-cc-pvtz density=current
 ---------------------------------------
 1/10=4,30=1,38=1/1,3;
 2/12=2,17=6,18=5,40=1/2;
 3/5=16,6=1,7=10,11=9,25=1,30=1,71=2,140=1/1,2,3;
 4//1;
 5/5=2,38=5,98=1/2;
 8/6=3,8=1,10=1,19=11,30=-1/1;
 9/15=3,16=-3/6;
 11/6=1,8=1,15=11,17=12,24=-1,27=1,28=-2,29=300,32=6,42=3/1,2,10;
 10/6=2,21=1/2;
 8/6=4,8=1,10=1,19=11,30=-1/11,4;
 10/5=1,20=4/2;
 11/12=2,14=11,16=1,17=2,28=-2,42=3,76=2/2,10,12;
 6/7=2,8=2,9=2,10=2,22=-1/1;
 7/8=1,10=1,12=2,25=1,44=2/1,2,3,16;
 1/10=4,30=1/3;
 99//99;
 Leave Link    1 at Mon Feb 21 20:29:43 2022, MaxMem= 16106127360 cpu:               2.5 elap:               0.1
 (Enter /sw/contrib/gaussian/g16/B01/g16/l101.exe)
 -----
 title
 -----
 Symbolic Z-matrix:
 Charge =  0 Multiplicity = 1
 H
 O                    1    r1
 O                    2    r2       1    a1
 N                    3    r3       2    a2       1    d1       0
 O                    4    r4       3    a3       2    d2       0
       Variables:
  r1                    0.96898                  
  r2                    1.45492                  
  r3                    1.45878                  
  r4                    1.15884                  
  a1                   97.59495                  
  a2                  102.29752                  
  a3                  109.06955                  
  d1                  180.                       
  d2                  180.                       
 
 ITRead=  0  0  0  0  0
 MicOpt= -1 -1 -1 -1 -1
 NAtoms=      5 NQM=        5 NQMF=       0 NMMI=      0 NMMIF=      0
                NMic=       0 NMicF=      0.
                    Isotopes and Nuclear Properties:
 (Nuclear quadrupole moments (NQMom) in fm**2, nuclear magnetic moments (NMagM)
  in nuclear magnetons)

  Atom         1           2           3           4           5
 IAtWgt=           1          16          16          14          16
 AtmWgt=   1.0078250  15.9949146  15.9949146  14.0030740  15.9949146
 NucSpn=           1           0           0           2           0
 AtZEff=  -0.0000000  -0.0000000  -0.0000000  -0.0000000  -0.0000000
 NQMom=    0.0000000   0.0000000   0.0000000   2.0440000   0.0000000
 NMagM=    2.7928460   0.0000000   0.0000000   0.4037610   0.0000000
 AtZNuc=   1.0000000   8.0000000   8.0000000   7.0000000   8.0000000
 Leave Link  101 at Mon Feb 21 20:29:43 2022, MaxMem= 16106127360 cpu:               3.2 elap:               0.2
 (Enter /sw/contrib/gaussian/g16/B01/g16/l103.exe)

 GradGradGradGradGradGradGradGradGradGradGradGradGradGradGradGradGradGrad
 Berny optimization.
 Initialization pass.
                       ----------------------------
                       !    Initial Parameters    !
                       ! (Angstroms and Degrees)  !
 ----------------------                            ----------------------
 !      Name          Value   Derivative information (Atomic Units)     !
 ------------------------------------------------------------------------
 !       r1          0.969    calculate D2E/DX2 analytically            !
 !       r2          1.4549   calculate D2E/DX2 analytically            !
 !       r3          1.4588   calculate D2E/DX2 analytically            !
 !       r4          1.1588   calculate D2E/DX2 analytically            !
 !       a1         97.5949   calculate D2E/DX2 analytically            !
 !       a2        102.2975   calculate D2E/DX2 analytically            !
 !       a3        109.0696   calculate D2E/DX2 analytically            !
 !       d1        180.0      calculate D2E/DX2 analytically            !
 !       d2        180.0      calculate D2E/DX2 analytically            !
 ------------------------------------------------------------------------
 Trust Radius=3.00D-01 FncErr=1.00D-07 GrdErr=1.00D-07 EigMax=2.50D+02 EigMin=1.00D-04
 Number of steps in this run=      2 maximum allowed number of steps=      2.
 GradGradGradGradGradGradGradGradGradGradGradGradGradGradGradGradGradGrad

 Leave Link  103 at Mon Feb 21 20:29:43 2022, MaxMem= 16106127360 cpu:               0.5 elap:               0.0
 (Enter /sw/contrib/gaussian/g16/B01/g16/l202.exe)
                          Input orientation:                          
 ---------------------------------------------------------------------
 Center     Atomic      Atomic             Coordinates (Angstroms)
 Number     Number       Type             X           Y           Z
 ---------------------------------------------------------------------
      1          1           0        0.000000    0.000000    0.000000
      2          8           0        0.000000    0.000000    0.968976
      3          8           0        1.442156    0.000000    1.161271
      4          7           0        1.561752    0.000000    2.615144
      5          8           0        2.684348    0.000000    2.902688
 ---------------------------------------------------------------------
                    Distance matrix (angstroms):
                    1          2          3          4          5
     1  H    0.000000
     2  O    0.968976   0.000000
     3  O    1.851584   1.454919   0.000000
     4  N    3.045989   2.269127   1.458784   0.000000
     5  O    3.953647   3.308318   2.139060   1.158838   0.000000
 Stoichiometry    HNO3
 Framework group  CS[SG(HNO3)]
 Deg. of freedom     7
 Full point group                 CS      NOp   2
 Largest Abelian subgroup         CS      NOp   2
 Largest concise Abelian subgroup C1      NOp   1
                         Standard orientation:                         
 ---------------------------------------------------------------------
 Center     Atomic      Atomic             Coordinates (Angstroms)
 Number     Number       Type             X           Y           Z
 ---------------------------------------------------------------------
      1          1           0        1.553528    1.679993   -0.000000
      2          8           0        1.454267    0.716115   -0.000000
      3          8           0        0.000000    0.672564   -0.000000
      4          7           0       -0.267900   -0.761410    0.000000
      5          8           0       -1.414046   -0.932444    0.000000
 ---------------------------------------------------------------------
 Rotational constants (GHZ):          55.0350153           5.0392099           4.6165055
 Leave Link  202 at Mon Feb 21 20:29:44 2022, MaxMem= 16106127360 cpu:               0.5 elap:               0.0
 (Enter /sw/contrib/gaussian/g16/B01/g16/l301.exe)
 Standard basis: Aug-CC-pVTZ (5D, 7F)
 Ernie: Thresh=  0.10000D-02 Tol=  0.10000D-05 Strict=F.
 Ernie:  12 primitive shells out of 131 were deleted.
 There are   166 symmetry adapted cartesian basis functions of A'  symmetry.
 There are    79 symmetry adapted cartesian basis functions of A"  symmetry.
 There are   136 symmetry adapted basis functions of A'  symmetry.
 There are    71 symmetry adapted basis functions of A"  symmetry.
   207 basis functions,   315 primitive gaussians,   245 cartesian basis functions
    16 alpha electrons       16 beta electrons
       nuclear repulsion energy       117.2357157485 Hartrees.
 IExCor=    0 DFT=F Ex=HF Corr=None ExCW=0 ScaHFX=  1.000000
 ScaDFX=  1.000000  1.000000  1.000000  1.000000 ScalE2=  1.000000  1.000000
 IRadAn=      5 IRanWt=     -1 IRanGd=            0 ICorTp=0 IEmpDi=  4
 NAtoms=    5 NActive=    5 NUniq=    5 SFac= 1.00D+00 NAtFMM=   60 NAOKFM=F Big=F
 Integral buffers will be    131072 words long.
 Raffenetti 1 integral format.
 Two-electron integral symmetry is turned on.
 Leave Link  301 at Mon Feb 21 20:29:44 2022, MaxMem= 16106127360 cpu:               3.0 elap:               0.1
 (Enter /sw/contrib/gaussian/g16/B01/g16/l302.exe)
 NPDir=0 NMtPBC=     1 NCelOv=     1 NCel=       1 NClECP=     1 NCelD=      1
         NCelK=      1 NCelE2=     1 NClLst=     1 CellRange=     0.0.
 One-electron integrals computed using PRISM.
 One-electron integral symmetry used in STVInt
 NBasis=   207 RedAO= T EigKep=  1.79D-04  NBF=   136    71
 NBsUse=   207 1.00D-06 EigRej= -1.00D+00 NBFU=   136    71
 Leave Link  302 at Mon Feb 21 20:29:44 2022, MaxMem= 16106127360 cpu:               5.1 elap:               0.2
 (Enter /sw/contrib/gaussian/g16/B01/g16/l303.exe)
 DipDrv:  MaxL=1.
 Leave Link  303 at Mon Feb 21 20:29:44 2022, MaxMem= 16106127360 cpu:               0.9 elap:               0.1
 (Enter /sw/contrib/gaussian/g16/B01/g16/l401.exe)
 ExpMin= 2.53D-02 ExpMax= 1.53D+04 ExpMxC= 5.22D+02 IAcc=3 IRadAn=         5 AccDes= 0.00D+00
 Harris functional with IExCor=  205 and IRadAn=       5 diagonalized for initial guess.
 HarFok:  IExCor=  205 AccDes= 0.00D+00 IRadAn=         5 IDoV= 1 UseB2=F ITyADJ=14
 ICtDFT=  3500011 ScaDFX=  1.000000  1.000000  1.000000  1.000000
 FoFCou: FMM=F IPFlag=           0 FMFlag=      100000 FMFlg1=           0
         NFxFlg=           0 DoJE=T BraDBF=F KetDBF=T FulRan=T
         wScrn=  0.000000 ICntrl=       500 IOpCl=  0 I1Cent=   200000004 NGrid=           0
         NMat0=    1 NMatS0=      1 NMatT0=    0 NMatD0=    1 NMtDS0=    0 NMtDT0=    0
 Petite list used in FoFCou.
 Harris En= -279.628341443409    
 JPrj=0 DoOrth=F DoCkMO=F.
 Initial guess orbital symmetries:
       Occupied  (A') (A') (A') (A') (A') (A') (A') (A') (A') (A')
                 (A") (A') (A') (A") (A") (A')
       Virtual   (A") (A') (A') (A') (A') (A') (A") (A') (A') (A')
                 (A") (A') (A") (A') (A') (A") (A') (A") (A') (A')
                 (A') (A') (A') (A') (A') (A") (A') (A") (A') (A')
                 (A") (A') (A") (A') (A') (A") (A') (A") (A') (A')
                 (A") (A') (A") (A') (A") (A') (A') (A') (A") (A")
                 (A') (A') (A') (A') (A") (A') (A") (A') (A") (A')
                 (A') (A') (A") (A') (A') (A") (A') (A") (A') (A')
                 (A") (A') (A') (A") (A") (A') (A') (A") (A') (A')
                 (A') (A") (A') (A") (A') (A") (A') (A") (A') (A')
                 (A') (A") (A') (A") (A') (A") (A") (A') (A') (A")
                 (A') (A') (A") (A') (A') (A') (A') (A") (A") (A')
                 (A") (A') (A') (A') (A") (A') (A') (A') (A") (A')
                 (A") (A') (A") (A') (A") (A') (A') (A") (A") (A')
                 (A') (A') (A') (A") (A") (A') (A") (A') (A') (A')
                 (A') (A") (A") (A') (A') (A") (A') (A') (A') (A')
                 (A") (A') (A') (A") (A') (A") (A') (A") (A') (A")
                 (A') (A") (A') (A") (A') (A") (A") (A") (A') (A')
                 (A") (A') (A") (A') (A') (A") (A") (A") (A') (A')
                 (A') (A') (A') (A') (A') (A') (A') (A') (A') (A')
                 (A')
 The electronic state of the initial guess is 1-A'.
 Leave Link  401 at Mon Feb 21 20:29:44 2022, MaxMem= 16106127360 cpu:               7.8 elap:               0.3
 (Enter /sw/contrib/gaussian/g16/B01/g16/l502.exe)
 Keep R1 ints in memory in symmetry-blocked form, NReq=348887737.
 FoFCou: FMM=F IPFlag=           0 FMFlag=           0 FMFlg1=           0
         NFxFlg=           0 DoJE=F BraDBF=F KetDBF=F FulRan=T
         wScrn=  0.000000 ICntrl=       600 IOpCl=  0 I1Cent=           0 NGrid=           0
         NMat0=    1 NMatS0=  21528 NMatT0=    0 NMatD0=    1 NMtDS0=    0 NMtDT0=    0
 Petite list used in FoFCou.
 Closed shell SCF:
 Using DIIS extrapolation, IDIIS=  1040.
 NGot= 16106127360 LenX= 15988850015 LenY= 15988789549
 Requested convergence on RMS density matrix=1.00D-08 within 128 cycles.
 Requested convergence on MAX density matrix=1.00D-06.
 Requested convergence on             energy=1.00D-06.
 No special actions if energy rises.

 Cycle   1  Pass 1  IDiag  1:
 E= -279.374623028315    
 DIIS: error= 2.69D-02 at cycle   1 NSaved=   1.
 NSaved= 1 IEnMin= 1 EnMin= -279.374623028315     IErMin= 1 ErrMin= 2.69D-02
 ErrMax= 2.69D-02  0.00D+00 EMaxC= 1.00D-01 BMatC= 4.36D-01 BMatP= 4.36D-01
 IDIUse=3 WtCom= 7.31D-01 WtEn= 2.69D-01
 Coeff-Com:  0.100D+01
 Coeff-En:   0.100D+01
 Coeff:      0.100D+01
 Gap=     0.517 Goal=   None    Shift=    0.000
 GapD=    0.517 DampG=2.000 DampE=0.500 DampFc=1.0000 IDamp=-1.
 RMSDP=1.60D-03 MaxDP=9.84D-02              OVMax= 1.08D-01

 Cycle   2  Pass 1  IDiag  1:
 E= -279.457563225855     Delta-E=       -0.082940197540 Rises=F Damp=F
 DIIS: error= 1.75D-02 at cycle   2 NSaved=   2.
 NSaved= 2 IEnMin= 2 EnMin= -279.457563225855     IErMin= 2 ErrMin= 1.75D-02
 ErrMax= 1.75D-02  0.00D+00 EMaxC= 1.00D-01 BMatC= 6.72D-02 BMatP= 4.36D-01
 IDIUse=3 WtCom= 8.25D-01 WtEn= 1.75D-01
 Coeff-Com:  0.186D+00 0.814D+00
 Coeff-En:   0.000D+00 0.100D+01
 Coeff:      0.153D+00 0.847D+00
 Gap=     0.524 Goal=   None    Shift=    0.000
 RMSDP=8.76D-04 MaxDP=3.64D-02 DE=-8.29D-02 OVMax= 6.74D-02

 Cycle   3  Pass 1  IDiag  1:
 E= -279.484628738950     Delta-E=       -0.027065513095 Rises=F Damp=F
 DIIS: error= 1.01D-02 at cycle   3 NSaved=   3.
 NSaved= 3 IEnMin= 3 EnMin= -279.484628738950     IErMin= 3 ErrMin= 1.01D-02
 ErrMax= 1.01D-02  0.00D+00 EMaxC= 1.00D-01 BMatC= 2.70D-02 BMatP= 6.72D-02
 IDIUse=3 WtCom= 8.99D-01 WtEn= 1.01D-01
 Coeff-Com: -0.326D-01 0.379D+00 0.654D+00
 Coeff-En:   0.000D+00 0.239D+00 0.761D+00
 Coeff:     -0.293D-01 0.365D+00 0.665D+00
 Gap=     0.508 Goal=   None    Shift=    0.000
 RMSDP=3.65D-04 MaxDP=1.47D-02 DE=-2.71D-02 OVMax= 3.62D-02

 Cycle   4  Pass 1  IDiag  1:
 E= -279.502462001373     Delta-E=       -0.017833262423 Rises=F Damp=F
 DIIS: error= 1.27D-03 at cycle   4 NSaved=   4.
 NSaved= 4 IEnMin= 4 EnMin= -279.502462001373     IErMin= 4 ErrMin= 1.27D-03
 ErrMax= 1.27D-03  0.00D+00 EMaxC= 1.00D-01 BMatC= 4.79D-04 BMatP= 2.70D-02
 IDIUse=3 WtCom= 9.87D-01 WtEn= 1.27D-02
 Coeff-Com: -0.116D-01 0.599D-01 0.162D+00 0.789D+00
 Coeff-En:   0.000D+00 0.000D+00 0.000D+00 0.100D+01
 Coeff:     -0.115D-01 0.591D-01 0.160D+00 0.792D+00
 Gap=     0.500 Goal=   None    Shift=    0.000
 RMSDP=8.83D-05 MaxDP=2.75D-03 DE=-1.78D-02 OVMax= 1.09D-02

 Cycle   5  Pass 1  IDiag  1:
 E= -279.503106740646     Delta-E=       -0.000644739274 Rises=F Damp=F
 DIIS: error= 7.25D-04 at cycle   5 NSaved=   5.
 NSaved= 5 IEnMin= 5 EnMin= -279.503106740646     IErMin= 5 ErrMin= 7.25D-04
 ErrMax= 7.25D-04  0.00D+00 EMaxC= 1.00D-01 BMatC= 8.39D-05 BMatP= 4.79D-04
 IDIUse=3 WtCom= 9.93D-01 WtEn= 7.25D-03
 Coeff-Com:  0.598D-02-0.719D-01-0.117D+00 0.222D-01 0.116D+01
 Coeff-En:   0.000D+00 0.000D+00 0.000D+00 0.000D+00 0.100D+01
 Coeff:      0.594D-02-0.714D-01-0.116D+00 0.221D-01 0.116D+01
 Gap=     0.500 Goal=   None    Shift=    0.000
 RMSDP=7.43D-05 MaxDP=2.04D-03 DE=-6.45D-04 OVMax= 1.07D-02

 Cycle   6  Pass 1  IDiag  1:
 E= -279.503406511468     Delta-E=       -0.000299770821 Rises=F Damp=F
 DIIS: error= 2.73D-04 at cycle   6 NSaved=   6.
 NSaved= 6 IEnMin= 6 EnMin= -279.503406511468     IErMin= 6 ErrMin= 2.73D-04
 ErrMax= 2.73D-04  0.00D+00 EMaxC= 1.00D-01 BMatC= 1.60D-05 BMatP= 8.39D-05
 IDIUse=3 WtCom= 9.97D-01 WtEn= 2.73D-03
 Coeff-Com:  0.799D-03-0.101D-02-0.334D-03-0.127D+00-0.196D+00 0.132D+01
 Coeff-En:   0.000D+00 0.000D+00 0.000D+00 0.000D+00 0.000D+00 0.100D+01
 Coeff:      0.796D-03-0.101D-02-0.333D-03-0.126D+00-0.195D+00 0.132D+01
 Gap=     0.500 Goal=   None    Shift=    0.000
 RMSDP=4.37D-05 MaxDP=1.20D-03 DE=-3.00D-04 OVMax= 5.28D-03

 Cycle   7  Pass 1  IDiag  1:
 E= -279.503475131971     Delta-E=       -0.000068620504 Rises=F Damp=F
 DIIS: error= 1.21D-04 at cycle   7 NSaved=   7.
 NSaved= 7 IEnMin= 7 EnMin= -279.503475131971     IErMin= 7 ErrMin= 1.21D-04
 ErrMax= 1.21D-04  0.00D+00 EMaxC= 1.00D-01 BMatC= 4.73D-06 BMatP= 1.60D-05
 IDIUse=3 WtCom= 9.99D-01 WtEn= 1.21D-03
 Coeff-Com: -0.905D-03 0.136D-01 0.264D-01-0.266D-01-0.297D+00 0.419D+00
 Coeff-Com:  0.865D+00
 Coeff-En:   0.000D+00 0.000D+00 0.000D+00 0.000D+00 0.000D+00 0.000D+00
 Coeff-En:   0.100D+01
 Coeff:     -0.904D-03 0.136D-01 0.264D-01-0.266D-01-0.297D+00 0.419D+00
 Coeff:      0.865D+00
 Gap=     0.500 Goal=   None    Shift=    0.000
 RMSDP=1.34D-05 MaxDP=3.77D-04 DE=-6.86D-05 OVMax= 1.53D-03

 Cycle   8  Pass 1  IDiag  1:
 E= -279.503484169980     Delta-E=       -0.000009038009 Rises=F Damp=F
 DIIS: error= 5.32D-05 at cycle   8 NSaved=   8.
 NSaved= 8 IEnMin= 8 EnMin= -279.503484169980     IErMin= 8 ErrMin= 5.32D-05
 ErrMax= 5.32D-05  0.00D+00 EMaxC= 1.00D-01 BMatC= 5.60D-07 BMatP= 4.73D-06
 IDIUse=1 WtCom= 1.00D+00 WtEn= 0.00D+00
 Coeff-Com: -0.452D-03 0.365D-02 0.795D-02 0.268D-01-0.451D-01-0.184D+00
 Coeff-Com:  0.128D+00 0.106D+01
 Coeff:     -0.452D-03 0.365D-02 0.795D-02 0.268D-01-0.451D-01-0.184D+00
 Coeff:      0.128D+00 0.106D+01
 Gap=     0.500 Goal=   None    Shift=    0.000
 RMSDP=6.88D-06 MaxDP=1.97D-04 DE=-9.04D-06 OVMax= 7.50D-04

 Cycle   9  Pass 1  IDiag  1:
 E= -279.503485860850     Delta-E=       -0.000001690870 Rises=F Damp=F
 DIIS: error= 1.43D-05 at cycle   9 NSaved=   9.
 NSaved= 9 IEnMin= 9 EnMin= -279.503485860850     IErMin= 9 ErrMin= 1.43D-05
 ErrMax= 1.43D-05  0.00D+00 EMaxC= 1.00D-01 BMatC= 5.96D-08 BMatP= 5.60D-07
 IDIUse=1 WtCom= 1.00D+00 WtEn= 0.00D+00
 Coeff-Com:  0.109D-03-0.162D-02-0.290D-02-0.136D-02 0.325D-01-0.371D-02
 Coeff-Com: -0.147D+00-0.100D+00 0.122D+01
 Coeff:      0.109D-03-0.162D-02-0.290D-02-0.136D-02 0.325D-01-0.371D-02
 Coeff:     -0.147D+00-0.100D+00 0.122D+01
 Gap=     0.500 Goal=   None    Shift=    0.000
 RMSDP=1.79D-06 MaxDP=5.94D-05 DE=-1.69D-06 OVMax= 1.56D-04

 Cycle  10  Pass 1  IDiag  1:
 E= -279.503485996085     Delta-E=       -0.000000135235 Rises=F Damp=F
 DIIS: error= 3.83D-06 at cycle  10 NSaved=  10.
 NSaved=10 IEnMin=10 EnMin= -279.503485996085     IErMin=10 ErrMin= 3.83D-06
 ErrMax= 3.83D-06  0.00D+00 EMaxC= 1.00D-01 BMatC= 4.70D-09 BMatP= 5.96D-08
 IDIUse=1 WtCom= 1.00D+00 WtEn= 0.00D+00
 Coeff-Com:  0.343D-04-0.297D-03-0.441D-03-0.260D-02 0.276D-02 0.187D-01
 Coeff-Com: -0.137D-01-0.811D-01-0.467D-01 0.112D+01
 Coeff:      0.343D-04-0.297D-03-0.441D-03-0.260D-02 0.276D-02 0.187D-01
 Coeff:     -0.137D-01-0.811D-01-0.467D-01 0.112D+01
 Gap=     0.500 Goal=   None    Shift=    0.000
 RMSDP=4.63D-07 MaxDP=1.88D-05 DE=-1.35D-07 OVMax= 3.61D-05

 Cycle  11  Pass 1  IDiag  1:
 E= -279.503486006169     Delta-E=       -0.000000010084 Rises=F Damp=F
 DIIS: error= 1.77D-06 at cycle  11 NSaved=  11.
 NSaved=11 IEnMin=11 EnMin= -279.503486006169     IErMin=11 ErrMin= 1.77D-06
 ErrMax= 1.77D-06  0.00D+00 EMaxC= 1.00D-01 BMatC= 5.25D-10 BMatP= 4.70D-09
 IDIUse=1 WtCom= 1.00D+00 WtEn= 0.00D+00
 Coeff-Com: -0.191D-04 0.225D-03 0.454D-03 0.454D-03-0.402D-02-0.289D-02
 Coeff-Com:  0.172D-01 0.306D-01-0.129D+00-0.180D+00 0.127D+01
 Coeff:     -0.191D-04 0.225D-03 0.454D-03 0.454D-03-0.402D-02-0.289D-02
 Coeff:      0.172D-01 0.306D-01-0.129D+00-0.180D+00 0.127D+01
 Gap=     0.500 Goal=   None    Shift=    0.000
 RMSDP=1.55D-07 MaxDP=5.66D-06 DE=-1.01D-08 OVMax= 1.55D-05

 Cycle  12  Pass 1  IDiag  1:
 E= -279.503486007545     Delta-E=       -0.000000001376 Rises=F Damp=F
 DIIS: error= 5.35D-07 at cycle  12 NSaved=  12.
 NSaved=12 IEnMin=12 EnMin= -279.503486007545     IErMin=12 ErrMin= 5.35D-07
 ErrMax= 5.35D-07  0.00D+00 EMaxC= 1.00D-01 BMatC= 5.69D-11 BMatP= 5.25D-10
 IDIUse=1 WtCom= 1.00D+00 WtEn= 0.00D+00
 Coeff-Com:  0.884D-06-0.240D-04-0.532D-04 0.156D-03 0.948D-03-0.201D-02
 Coeff-Com: -0.369D-02 0.504D-02 0.383D-01-0.978D-01-0.312D+00 0.137D+01
 Coeff:      0.884D-06-0.240D-04-0.532D-04 0.156D-03 0.948D-03-0.201D-02
 Coeff:     -0.369D-02 0.504D-02 0.383D-01-0.978D-01-0.312D+00 0.137D+01
 Gap=     0.500 Goal=   None    Shift=    0.000
 RMSDP=6.25D-08 MaxDP=2.47D-06 DE=-1.38D-09 OVMax= 6.05D-06

 Cycle  13  Pass 1  IDiag  1:
 E= -279.503486007723     Delta-E=       -0.000000000178 Rises=F Damp=F
 DIIS: error= 1.48D-07 at cycle  13 NSaved=  13.
 NSaved=13 IEnMin=13 EnMin= -279.503486007723     IErMin=13 ErrMin= 1.48D-07
 ErrMax= 1.48D-07  0.00D+00 EMaxC= 1.00D-01 BMatC= 3.23D-12 BMatP= 5.69D-11
 IDIUse=1 WtCom= 1.00D+00 WtEn= 0.00D+00
 Coeff-Com:  0.120D-05-0.133D-04-0.217D-04-0.780D-04 0.122D-03 0.668D-03
 Coeff-Com: -0.612D-03-0.322D-02 0.357D-03 0.382D-01-0.240D-01-0.345D+00
 Coeff-Com:  0.133D+01
 Coeff:      0.120D-05-0.133D-04-0.217D-04-0.780D-04 0.122D-03 0.668D-03
 Coeff:     -0.612D-03-0.322D-02 0.357D-03 0.382D-01-0.240D-01-0.345D+00
 Coeff:      0.133D+01
 Gap=     0.500 Goal=   None    Shift=    0.000
 RMSDP=1.72D-08 MaxDP=5.01D-07 DE=-1.78D-10 OVMax= 1.45D-06

 Cycle  14  Pass 1  IDiag  1:
 E= -279.503486007733     Delta-E=       -0.000000000010 Rises=F Damp=F
 DIIS: error= 2.21D-08 at cycle  14 NSaved=  14.
 NSaved=14 IEnMin=14 EnMin= -279.503486007733     IErMin=14 ErrMin= 2.21D-08
 ErrMax= 2.21D-08  0.00D+00 EMaxC= 1.00D-01 BMatC= 1.57D-13 BMatP= 3.23D-12
 IDIUse=1 WtCom= 1.00D+00 WtEn= 0.00D+00
 Coeff-Com: -0.180D-06 0.296D-05 0.540D-05 0.463D-05-0.779D-04 0.378D-04
 Coeff-Com:  0.251D-03 0.246D-03-0.232D-02 0.898D-03 0.180D-01-0.249D-01
 Coeff-Com: -0.207D+00 0.122D+01
 Coeff:     -0.180D-06 0.296D-05 0.540D-05 0.463D-05-0.779D-04 0.378D-04
 Coeff:      0.251D-03 0.246D-03-0.232D-02 0.898D-03 0.180D-01-0.249D-01
 Coeff:     -0.207D+00 0.122D+01
 Gap=     0.500 Goal=   None    Shift=    0.000
 RMSDP=3.48D-09 MaxDP=8.33D-08 DE=-9.95D-12 OVMax= 3.15D-07

 SCF Done:  E(RHF) =  -279.503486008     A.U. after   14 cycles
            NFock= 14  Conv=0.35D-08     -V/T= 2.0021
 KE= 2.789049663337D+02 PE=-8.958448424857D+02 EE= 2.202006743958D+02
 Leave Link  502 at Mon Feb 21 20:29:48 2022, MaxMem= 16106127360 cpu:              57.2 elap:               3.7
 (Enter /sw/contrib/gaussian/g16/B01/g16/l801.exe)
 ExpMin= 2.53D-02 ExpMax= 1.53D+04 ExpMxC= 5.22D+02 IAcc=3 IRadAn=         5 AccDes= 0.00D+00
 HarFok:  IExCor=  205 AccDes= 0.00D+00 IRadAn=         5 IDoV=-2 UseB2=F ITyADJ=14
 ICtDFT= 12500011 ScaDFX=  1.000000  1.000000  1.000000  1.000000
 Largest valence mixing into a core orbital is  2.07D-04
 Largest core mixing into a valence orbital is  3.59D-05
 Range of M.O.s used for correlation:     5   207
 NBasis=   207 NAE=    16 NBE=    16 NFC=     4 NFV=     0
 NROrb=    203 NOA=    12 NOB=    12 NVA=   191 NVB=   191

 **** Warning!!: The largest alpha MO coefficient is  0.17649393D+02

 Leave Link  801 at Mon Feb 21 20:29:48 2022, MaxMem= 16106127360 cpu:               2.9 elap:               0.2
 (Enter /sw/contrib/gaussian/g16/B01/g16/l906.exe)
 Frozen-core derivative calculation, NFC=   4 NFV=   0.
 FulOut=F Deriv=T AODrv=T NAtomX=     5
   MMem=           0  MDisk=          12 MDiskD=          12
  W3Min=      811440 MinDsk=     2425030 NBas6D=         245
 NBas2D=       30762    NTT=       30135    LW2=     7400000
    MDV= 16105574283 MDiskM=      328644 NBas2p=       30702
 Disk-based method using ON**2 memory for 12 occupieds at a time.
 Permanent disk used for amplitudes=    11516536 words.
 Estimated scratch disk usage=   321251614 words.
 IMap=   1   2   3   4   5   6   7   8   9  10  11  12  13  14  15  16
 Actual    scratch disk usage=   310331678 words.
 JobTyp=1 Pass  1:  I=   5 to  16 NPSUse= 28 ParTrn=T ParDer=T DoDerP=T.
 (rs|ai) integrals will be sorted in core.
 Spin components of T(2) and E(2):
     alpha-alpha T2 =       0.3378201105D-01 E2=     -0.1221507801D+00
     alpha-beta  T2 =       0.1854903188D+00 E2=     -0.6987269393D+00
     beta-beta   T2 =       0.3378201105D-01 E2=     -0.1221507801D+00
 The integrals were generated   1 times.
 ANorm=    0.1119399098D+01
 E2 =    -0.9430284995D+00 EUMP2 =    -0.28044651450719D+03
 Leave Link  906 at Mon Feb 21 20:31:25 2022, MaxMem= 16106127360 cpu:            2712.8 elap:              97.0
 (Enter /sw/contrib/gaussian/g16/B01/g16/l1101.exe)
 Using compressed Sx but separate Hx and Fx, NAtomX=     5.
 Will process      6 centers per pass.
 Leave Link 1101 at Mon Feb 21 20:31:25 2022, MaxMem= 16106127360 cpu:               5.4 elap:               0.2
 (Enter /sw/contrib/gaussian/g16/B01/g16/l1102.exe)
 Leave Link 1102 at Mon Feb 21 20:31:26 2022, MaxMem= 16106127360 cpu:               0.5 elap:               0.0
 (Enter /sw/contrib/gaussian/g16/B01/g16/l1110.exe)
 Forming Gx(P) for the SCF density, NAtomX=     5.
 Integral derivatives from FoFJK, PRISM(SPDF).
 Do as many integral derivatives as possible in FoFJK.
 G2DrvN: MDV=   16106126844.
 G2DrvN: will do     6 centers at a time, making    1 passes.
 Calling FoFCou, ICntrl=  3107 FMM=F I1Cent=   0 AccDes= 0.00D+00.
 FoFJK:  IHMeth= 1 ICntrl=    3107 DoSepK=F KAlg= 0 I1Cent=           0 FoldK=F
 IRaf=         0 NMat=       1 IRICut=       1 DoRegI=T DoRafI=F ISym2E= 1 IDoP0=0 IntGTp=1.
 FoFCou: FMM=F IPFlag=           0 FMFlag=      100000 FMFlg1=           0
         NFxFlg=           0 DoJE=F BraDBF=F KetDBF=F FulRan=T
         wScrn=  0.000000 ICntrl=      3107 IOpCl=  0 I1Cent=           0 NGrid=           0
         NMat0=    1 NMatS0=      1 NMatT0=    0 NMatD0=    1 NMtDS0=    0 NMtDT0=    0
 Petite list used in FoFCou.
 End of G2Drv F.D. properties file   721 does not exist.
 End of G2Drv F.D. properties file   722 does not exist.
 End of G2Drv F.D. properties file   788 does not exist.
 Leave Link 1110 at Mon Feb 21 20:31:29 2022, MaxMem= 16106127360 cpu:              84.0 elap:               3.0
 (Enter /sw/contrib/gaussian/g16/B01/g16/l1002.exe)
 Minotr:  Closed shell wavefunction.
          IDoAtm=11111
          Frozen-core window.
          Direct CPHF calculation.
          Differentiating once with respect to electric field.
                with respect to dipole field.
          Differentiating once with respect to nuclear coordinates.
          Requested convergence is 1.0D-08 RMS, and 1.0D-07 maximum.
          Secondary convergence is 1.0D-12 RMS, and 1.0D-12 maximum.
          NewPWx=T KeepS1=T KeepF1=T KeepIn=T MapXYZ=F SortEE=F KeepMc=T.
 Keep R1 ints in memory in symmetry-blocked form, NReq=348888983.
 FoFCou: FMM=F IPFlag=           0 FMFlag=           0 FMFlg1=           0
         NFxFlg=           0 DoJE=F BraDBF=F KetDBF=F FulRan=T
         wScrn=  0.000000 ICntrl=       600 IOpCl=  0 I1Cent=           0 NGrid=           0
         NMat0=    1 NMatS0=  21528 NMatT0=    0 NMatD0=    1 NMtDS0=    0 NMtDT0=    0
 Petite list used in FoFCou.
          MDV=   16106127360 using IRadAn=       1.
          Solving linear equations simultaneously, MaxMat=       0.
          There are    18 degrees of freedom in the 1st order CPHF.  IDoFFX=6 NUNeed=    18.
     15 vectors produced by pass  0 Test12= 1.70D-14 5.56D-09 XBig12= 8.17D+00 1.09D+00.
 AX will form    15 AO Fock derivatives at one time.
     15 vectors produced by pass  1 Test12= 1.70D-14 5.56D-09 XBig12= 1.29D+00 2.56D-01.
     15 vectors produced by pass  2 Test12= 1.70D-14 5.56D-09 XBig12= 1.35D-01 9.24D-02.
     15 vectors produced by pass  3 Test12= 1.70D-14 5.56D-09 XBig12= 4.65D-03 1.07D-02.
     15 vectors produced by pass  4 Test12= 1.70D-14 5.56D-09 XBig12= 8.88D-05 1.59D-03.
     15 vectors produced by pass  5 Test12= 1.70D-14 5.56D-09 XBig12= 1.28D-06 1.61D-04.
     15 vectors produced by pass  6 Test12= 1.70D-14 5.56D-09 XBig12= 1.02D-08 1.42D-05.
     13 vectors produced by pass  7 Test12= 1.70D-14 5.56D-09 XBig12= 7.39D-11 1.14D-06.
      3 vectors produced by pass  8 Test12= 1.70D-14 5.56D-09 XBig12= 5.22D-13 1.17D-07.
      2 vectors produced by pass  9 Test12= 1.70D-14 5.56D-09 XBig12= 3.53D-15 1.07D-08.
 InvSVY:  IOpt=1 It=  1 EMax= 1.33D-15
 Solved reduced A of dimension   123 with    15 vectors.
 FullF1:  Do perturbations      1 to      18.
 Saving first derivative matrices.
 End of Minotr F.D. properties file   721 does not exist.
 End of Minotr F.D. properties file   722 does not exist.
 End of Minotr F.D. properties file   788 does not exist.
 Leave Link 1002 at Mon Feb 21 20:31:31 2022, MaxMem= 16106127360 cpu:              78.6 elap:               2.8
 (Enter /sw/contrib/gaussian/g16/B01/g16/l811.exe)
 MDV= 16106127360.
 Form MO integral derivatives with frozen-active canonical formalism.
 MOERI=1 MOERIx=1 NAtoms=     5 NAtomX=     5.
 Discarding MO integrals.
 MO basis two electron integral derivatives will not be stored on disk.
 IAlg= 3 DoFC=T DoPWx=T Debug=F.
 Frozen-core window:  NFC=   4 NFV=   0.
 Reordered first order wavefunction length =     18678272
 In DefCFB: NBatch=  1 ICI= 16 ICA=191 LFMax= 96
            Large arrays: LIAPS=   619940160 LIARS=   288257200 words.
 In StABat: MaxSiz= 55 MinSiz= 25 NAtomB=  5
 DoIAMN: NPSUse= 28.
 Leave Link  811 at Mon Feb 21 20:32:52 2022, MaxMem= 16106127360 cpu:            2238.9 elap:              80.1
 (Enter /sw/contrib/gaussian/g16/B01/g16/l804.exe)
 Frozen-core window:  NFC=   4 NFV=   0.
 Closed-shell transformation, MDV= 16106127360 ITran=4 ISComp=1.
 Semi-Direct transformation.
 ModeAB=           2 MOrb=            16 LenV=   16104923023
 LASXX=     67341636 LTotXX=    67341636 LenRXX=    67341636
 LTotAB=    68301760 MaxLAS=    99807120 LenRXY=    99807120
 NonZer=   134683272 LenScr=   202817536 LnRSAI=           0
 LnScr1=           0 LExtra=           0 Total=    369966292
 MaxDsk=          -1 SrtSym=           F ITran=            4
 DoSDTr:  NPSUse= 28
 JobTyp=0 Pass  1:  I=   1 to  16.
 (rs|ai) integrals will be sorted in core.
 Complete sort for first half transformation.
 First half transformation complete.
 Begin second half transformation for I=  10.
 Begin second half transformation for I=  10.
 Complete sort for second half transformation.
 Second half transformation complete.
 Spin components of T(2) and E(2):
     alpha-alpha T2 =       0.3378201105D-01 E2=     -0.1221507801D+00
     alpha-beta  T2 =       0.1854903188D+00 E2=     -0.6987269393D+00
     beta-beta   T2 =       0.3378201105D-01 E2=     -0.1221507801D+00
 ANorm=    0.1583069386D+01
 E2 =    -0.9430284995D+00 EUMP2 =    -0.28044651450719D+03
 Leave Link  804 at Mon Feb 21 20:33:07 2022, MaxMem= 16106127360 cpu:             425.7 elap:              15.3
 (Enter /sw/contrib/gaussian/g16/B01/g16/l1002.exe)
 Minotr:  Closed shell wavefunction.
          Computing MP2/KS-MP2 derivatives.
          Using Z-Vector for PSCF gradient.
          Skipping F1 and S1 gradient terms here.
          IDoAtm=11111
          Frozen-core window.
          Using MO integrals in the linear equations.
          Forming densities via direct SCF.
          Differentiating once with respect to electric field.
                with respect to dipole field.
          Differentiating once with respect to nuclear coordinates.
          Using symmetry in CPHF.
          Requested convergence is 1.0D-10 RMS, and 1.0D-09 maximum.
          NewPWx=F KeepS1=T KeepF1=T KeepIn=T MapXYZ=F SortEE=F KeepMc=T.
          MDV=   16106127360 using IRadAn=       5.
          Solving linear equations separately, MaxMat=       0.
          There are     1 degrees of freedom in the 1st order CPHF.  IDoFFX=0 NUNeed=     1.
 FoFJK:  IHMeth= 1 ICntrl=       0 DoSepK=F KAlg= 0 I1Cent=           0 FoldK=F
 IRaf=         0 NMat=       1 IRICut=       1 DoRegI=T DoRafI=F ISym2E= 0 IDoP0=0 IntGTp=1.
 FoFCou: FMM=F IPFlag=           0 FMFlag=      100000 FMFlg1=           0
         NFxFlg=           0 DoJE=F BraDBF=F KetDBF=F FulRan=T
         wScrn=  0.000000 ICntrl=         0 IOpCl=  0 I1Cent=           0 NGrid=           0
         NMat0=    1 NMatS0=      1 NMatT0=    0 NMatD0=    1 NMtDS0=    0 NMtDT0=    0
 Symmetry not used in FoFCou.
 LinEq1:  Iter=  0 NonCon=     1 RMS=5.89D-03 Max=1.28D-01 NDo=     1
 LinEq1:  Iter=  1 NonCon=     1 RMS=1.86D-03 Max=3.66D-02 NDo=     1
 LinEq1:  Iter=  2 NonCon=     1 RMS=8.45D-04 Max=1.37D-02 NDo=     1
 LinEq1:  Iter=  3 NonCon=     1 RMS=3.72D-04 Max=7.25D-03 NDo=     1
 LinEq1:  Iter=  4 NonCon=     1 RMS=1.15D-04 Max=1.82D-03 NDo=     1
 LinEq1:  Iter=  5 NonCon=     1 RMS=4.17D-05 Max=6.55D-04 NDo=     1
 LinEq1:  Iter=  6 NonCon=     1 RMS=1.87D-05 Max=2.24D-04 NDo=     1
 LinEq1:  Iter=  7 NonCon=     1 RMS=7.48D-06 Max=1.53D-04 NDo=     1
 LinEq1:  Iter=  8 NonCon=     1 RMS=3.20D-06 Max=3.20D-05 NDo=     1
 LinEq1:  Iter=  9 NonCon=     1 RMS=8.76D-07 Max=1.26D-05 NDo=     1
 LinEq1:  Iter= 10 NonCon=     1 RMS=1.73D-07 Max=1.86D-06 NDo=     1
 LinEq1:  Iter= 11 NonCon=     1 RMS=3.24D-08 Max=3.33D-07 NDo=     1
 LinEq1:  Iter= 12 NonCon=     1 RMS=7.75D-09 Max=1.21D-07 NDo=     1
 LinEq1:  Iter= 13 NonCon=     1 RMS=1.39D-09 Max=2.43D-08 NDo=     1
 LinEq1:  Iter= 14 NonCon=     1 RMS=2.53D-10 Max=3.55D-09 NDo=     1
 LinEq1:  Iter= 15 NonCon=     0 RMS=4.69D-11 Max=5.43D-10 NDo=     1
 Linear equations converged to 1.000D-10 1.000D-09 after    15 iterations.
 End of Minotr F.D. properties file   721 does not exist.
 End of Minotr F.D. properties file   722 does not exist.
 End of Minotr F.D. properties file   788 does not exist.
 Leave Link 1002 at Mon Feb 21 20:33:09 2022, MaxMem= 16106127360 cpu:              64.2 elap:               2.3
 (Enter /sw/contrib/gaussian/g16/B01/g16/l1102.exe)
 Use density number 2.
 Symmetrizing basis deriv contribution to polar:
 IMax=3 JMax=2 DiffMx= 0.00D+00
 Leave Link 1102 at Mon Feb 21 20:33:09 2022, MaxMem= 16106127360 cpu:               0.7 elap:               0.1
 (Enter /sw/contrib/gaussian/g16/B01/g16/l1110.exe)
 Forming Gx(P) for generalized density number  2 NAtomX=     5.
 Integral derivatives from FoFJK, PRISM(SPDF).
 Do as many integral derivatives as possible in FoFJK.
 G2DrvN: MDV=   16106126844.
 G2DrvN: will do     6 centers at a time, making    1 passes.
 Calling FoFCou, ICntrl=  3107 FMM=F I1Cent=   0 AccDes= 0.00D+00.
 FoFJK:  IHMeth= 1 ICntrl=    3107 DoSepK=F KAlg= 0 I1Cent=           0 FoldK=F
 IRaf=         0 NMat=       1 IRICut=       1 DoRegI=T DoRafI=F ISym2E= 1 IDoP0=0 IntGTp=1.
 FoFCou: FMM=F IPFlag=           0 FMFlag=      100000 FMFlg1=           0
         NFxFlg=           0 DoJE=F BraDBF=F KetDBF=F FulRan=T
         wScrn=  0.000000 ICntrl=      3107 IOpCl=  0 I1Cent=           0 NGrid=           0
         NMat0=    1 NMatS0=      1 NMatT0=    0 NMatD0=    1 NMtDS0=    0 NMtDT0=    0
 Petite list used in FoFCou.
 End of G2Drv F.D. properties file   721 does not exist.
 End of G2Drv F.D. properties file   722 does not exist.
 End of G2Drv F.D. properties file   788 does not exist.
 Leave Link 1110 at Mon Feb 21 20:33:12 2022, MaxMem= 16106127360 cpu:              83.3 elap:               3.0
 (Enter /sw/contrib/gaussian/g16/B01/g16/l1112.exe)
 MP22nd: MDV=   16106127360
 This link is doing NAtomX=     5 total of    18 degrees of freedom.
 Using ON3 I/O method in MakUI.
 Frozen-core window:  NFC=   4 NFV=   0.
 Using Ix for Sx.
 Use MO integrals over full window.
 Using OV2 memory method for fx*t*t/D, MaxI=    16 DoOO2=F NP=  28.
 R2 and R3 integrals will be kept in memory, NReq=   915591705.
 FoFCou: FMM=F IPFlag=           0 FMFlag=           0 FMFlg1=           0
         NFxFlg=           0 DoJE=F BraDBF=F KetDBF=F FulRan=T
         wScrn=  0.000000 ICntrl=       600 IOpCl=  0 I1Cent=           0 NGrid=           0
         NMat0=    1 NMatS0=      1 NMatT0=    0 NMatD0=    1 NMtDS0=    0 NMtDT0=    0
 Symmetry not used in FoFCou.
 DD1Dir will call FoFMem   1 times, MxPair=       272
 NAB=   136 NAA=     0 NBB=     0.
 Symmetry is being used.
 FoFJK:  IHMeth= 1 ICntrl=       0 DoSepK=F KAlg= 0 I1Cent=           0 FoldK=F
 IRaf=         0 NMat=      18 IRICut=      45 DoRegI=T DoRafI=T ISym2E= 2 IDoP0=3 IntGTp=3.
 Discarding MO integrals.
 Leave Link 1112 at Mon Feb 21 20:33:51 2022, MaxMem= 16106127360 cpu:            1080.7 elap:              39.1
 (Enter /sw/contrib/gaussian/g16/B01/g16/l601.exe)
 Copying SCF densities to generalized density rwf, IOpCl= 0 IROHF=0.

 **********************************************************************

            Population analysis using the MP2 Density.

 **********************************************************************

 Orbital symmetries:
       Occupied  (A') (A') (A') (A') (A') (A') (A') (A') (A') (A')
                 (A") (A') (A") (A') (A") (A')
       Virtual   (A') (A") (A') (A') (A") (A') (A') (A') (A") (A')
                 (A") (A') (A') (A') (A") (A') (A') (A") (A') (A')
                 (A') (A') (A') (A') (A") (A') (A') (A") (A') (A')
                 (A") (A') (A") (A') (A') (A") (A') (A') (A") (A')
                 (A") (A') (A") (A') (A') (A") (A') (A') (A") (A')
                 (A") (A') (A') (A') (A") (A') (A") (A') (A") (A')
                 (A') (A') (A") (A') (A') (A") (A') (A") (A') (A')
                 (A") (A') (A') (A") (A") (A') (A') (A") (A') (A')
                 (A') (A") (A') (A") (A") (A') (A') (A") (A') (A')
                 (A") (A') (A') (A") (A') (A") (A') (A") (A') (A')
                 (A") (A') (A") (A') (A') (A") (A') (A') (A") (A')
                 (A") (A') (A') (A') (A") (A') (A') (A') (A") (A')
                 (A") (A') (A") (A') (A') (A") (A") (A') (A") (A')
                 (A') (A') (A') (A") (A") (A") (A') (A') (A') (A')
                 (A") (A') (A") (A') (A') (A") (A') (A') (A') (A')
                 (A") (A') (A') (A") (A') (A") (A') (A") (A') (A")
                 (A') (A") (A') (A") (A') (A") (A") (A') (A") (A')
                 (A") (A') (A") (A') (A") (A') (A") (A") (A') (A')
                 (A') (A') (A') (A') (A') (A') (A') (A') (A') (A')
                 (A')
 The electronic state is 1-A'.
 Alpha  occ. eigenvalues --  -20.68806 -20.68480 -20.65845 -15.81110  -1.63392
 Alpha  occ. eigenvalues --   -1.49578  -1.25320  -0.94646  -0.77428  -0.76236
 Alpha  occ. eigenvalues --   -0.71443  -0.68072  -0.62274  -0.58862  -0.48419
 Alpha  occ. eigenvalues --   -0.47015
 Alpha virt. eigenvalues --    0.02995   0.07535   0.08574   0.10172   0.13373
 Alpha virt. eigenvalues --    0.13411   0.14434   0.15482   0.17848   0.19403
 Alpha virt. eigenvalues --    0.20026   0.20638   0.22120   0.23645   0.23747
 Alpha virt. eigenvalues --    0.26619   0.29465   0.30436   0.31102   0.34330
 Alpha virt. eigenvalues --    0.35015   0.38768   0.42257   0.43182   0.52709
 Alpha virt. eigenvalues --    0.53076   0.55912   0.58190   0.63215   0.63797
 Alpha virt. eigenvalues --    0.67078   0.68544   0.70652   0.71148   0.72453
 Alpha virt. eigenvalues --    0.73013   0.74466   0.79220   0.79281   0.80994
 Alpha virt. eigenvalues --    0.81381   0.83379   0.86923   0.90941   0.92306
 Alpha virt. eigenvalues --    0.92742   0.95726   0.98008   0.98567   1.01706
 Alpha virt. eigenvalues --    1.05279   1.05597   1.08497   1.11934   1.14235
 Alpha virt. eigenvalues --    1.19025   1.22248   1.23446   1.33975   1.35124
 Alpha virt. eigenvalues --    1.38818   1.45414   1.48840   1.51050   1.53834
 Alpha virt. eigenvalues --    1.56689   1.57948   1.61416   1.66684   1.67041
 Alpha virt. eigenvalues --    1.70287   1.79376   1.83022   1.83511   1.88155
 Alpha virt. eigenvalues --    1.90964   1.95302   1.99531   2.00584   2.07843
 Alpha virt. eigenvalues --    2.12136   2.13324   2.15124   2.22508   2.26540
 Alpha virt. eigenvalues --    2.26597   2.29069   2.31579   2.34789   2.38723
 Alpha virt. eigenvalues --    2.42718   2.43171   2.45456   2.46442   2.47865
 Alpha virt. eigenvalues --    2.50355   2.59120   2.59919   2.62321   2.62948
 Alpha virt. eigenvalues --    2.63629   2.67141   2.76220   2.83013   2.86020
 Alpha virt. eigenvalues --    2.89005   2.89758   2.92885   2.96112   3.02788
 Alpha virt. eigenvalues --    3.06626   3.12575   3.20577   3.22995   3.31904
 Alpha virt. eigenvalues --    3.34364   3.52222   3.64443   3.83997   3.84805
 Alpha virt. eigenvalues --    4.15023   4.16486   4.18577   4.28619   4.35318
 Alpha virt. eigenvalues --    4.39518   4.46656   4.52186   4.67676   4.71289
 Alpha virt. eigenvalues --    4.81080   4.82730   4.83242   4.89521   5.02138
 Alpha virt. eigenvalues --    5.07864   5.10817   5.13831   5.18265   5.24693
 Alpha virt. eigenvalues --    5.27320   5.30669   5.33163   5.36788   5.60853
 Alpha virt. eigenvalues --    5.69372   5.78147   5.83448   5.95450   6.17185
 Alpha virt. eigenvalues --    6.31109   6.33960   6.39622   6.49363   6.50563
 Alpha virt. eigenvalues --    6.61555   6.66962   6.70453   6.75976   6.76562
 Alpha virt. eigenvalues --    6.84004   6.90273   7.01760   7.05921   7.06008
 Alpha virt. eigenvalues --    7.09197   7.13055   7.15301   7.18336   7.23391
 Alpha virt. eigenvalues --    7.24436   7.31306   7.34687   7.35655   7.41300
 Alpha virt. eigenvalues --    7.43364   7.48615   7.61066   7.63476   7.64504
 Alpha virt. eigenvalues --    7.66980   7.79955   7.90676   8.09849   8.31971
 Alpha virt. eigenvalues --    8.41073   8.54726  13.41245  14.48841  15.16739
 Alpha virt. eigenvalues --   16.52644
          Condensed to atoms (all electrons):
               1          2          3          4          5
     1  H    0.589846   0.128396   0.020041   0.012517  -0.000652
     2  O    0.128396   8.322949  -0.173867  -0.090462   0.015544
     3  O    0.020041  -0.173867   8.479982  -0.134974  -0.041363
     4  N    0.012517  -0.090462  -0.134974   6.976589  -0.056587
     5  O   -0.000652   0.015544  -0.041363  -0.056587   8.273445
 Mulliken charges:
               1
     1  H    0.249852
     2  O   -0.202561
     3  O   -0.149820
     4  N    0.292916
     5  O   -0.190388
 Sum of Mulliken charges =  -0.00000
 Mulliken charges with hydrogens summed into heavy atoms:
               1
     2  O    0.047291
     3  O   -0.149820
     4  N    0.292916
     5  O   -0.190388
 APT charges:
               1
     1  H    0.298555
     2  O   -0.288084
     3  O   -0.502902
     4  N    0.892860
     5  O   -0.400429
 Sum of APT charges =  -0.00000
 APT charges with hydrogens summed into heavy atoms:
               1
     2  O    0.010471
     3  O   -0.502902
     4  N    0.892860
     5  O   -0.400429
 Electronic spatial extent (au):  <R**2>=            251.7863
 Charge=             -0.0000 electrons
 Dipole moment (field-independent basis, Debye):
    X=              0.4624    Y=              1.3078    Z=             -0.0000  Tot=              1.3871
 Quadrupole moment (field-independent basis, Debye-Ang):
   XX=            -22.4051   YY=            -18.6158   ZZ=            -21.9906
   XY=              3.2968   XZ=              0.0000   YZ=              0.0000
 Traceless Quadrupole moment (field-independent basis, Debye-Ang):
   XX=             -1.4013   YY=              2.3880   ZZ=             -0.9867
   XY=              3.2968   XZ=              0.0000   YZ=              0.0000
 Octapole moment (field-independent basis, Debye-Ang**2):
  XXX=              2.7645  YYY=             11.0046  ZZZ=              0.0000  XYY=              7.8000
  XXY=              6.5378  XXZ=             -0.0000  XZZ=             -1.6183  YZZ=             -0.8943
  YYZ=             -0.0000  XYZ=             -0.0000
 Hexadecapole moment (field-independent basis, Debye-Ang**3):
 XXXX=           -157.9721 YYYY=            -88.9412 ZZZZ=            -18.2235 XXXY=            -36.2387
 XXXZ=              0.0000 YYYX=            -30.3729 YYYZ=              0.0000 ZZZX=              0.0000
 ZZZY=              0.0000 XXYY=            -33.7143 XXZZ=            -30.7999 YYZZ=            -20.4958
 XXYZ=              0.0000 YYXZ=              0.0000 ZZXY=            -14.9134
 N-N= 1.172357157485D+02 E-N=-8.966140036240D+02  KE= 2.802492168191D+02
 Symmetry A'   KE= 2.662726273391D+02
 Symmetry A"   KE= 1.397658947995D+01
  Exact polarizability:  33.877   9.343  30.096  -0.000  -0.000  17.906
 Approx polarizability:  28.751   5.013  23.420  -0.000  -0.000  15.471
 No NMR shielding tensors so no spin-rotation constants.
 Leave Link  601 at Mon Feb 21 20:33:52 2022, MaxMem= 16106127360 cpu:               4.3 elap:               0.2
 (Enter /sw/contrib/gaussian/g16/B01/g16/l701.exe)
 ... and contract with generalized density number  2.
 Compute integral second derivatives.
 Leave Link  701 at Mon Feb 21 20:33:52 2022, MaxMem= 16106127360 cpu:               5.6 elap:               0.2
 (Enter /sw/contrib/gaussian/g16/B01/g16/l702.exe)
 L702 exits ... SP integral derivatives will be done elsewhere.
 Leave Link  702 at Mon Feb 21 20:33:52 2022, MaxMem= 16106127360 cpu:               0.5 elap:               0.0
 (Enter /sw/contrib/gaussian/g16/B01/g16/l703.exe)
 Integral derivatives from FoFJK, PRISM(SPDF).
 Compute integral second derivatives, UseDBF=F ICtDFT=           0.
 Calling FoFJK, ICntrl=  10100127 FMM=F ISym2X=1 I1Cent= 0 IOpClX= 0 NMat=1 NMatS=1 NMatT=0.
 FoFJK:  IHMeth= 1 ICntrl=10100127 DoSepK=F KAlg= 0 I1Cent=           0 FoldK=F
 IRaf=         0 NMat=       1 IRICut=       1 DoRegI=T DoRafI=F ISym2E= 1 IDoP0=0 IntGTp=1.
 FoFCou: FMM=F IPFlag=           0 FMFlag=      100000 FMFlg1=         800
         NFxFlg=           0 DoJE=F BraDBF=F KetDBF=F FulRan=T
         wScrn=  0.000000 ICntrl=  10100127 IOpCl=  0 I1Cent=           0 NGrid=           0
         NMat0=    1 NMatS0=      1 NMatT0=    0 NMatD0=    1 NMtDS0=    0 NMtDT0=    0
 Petite list used in FoFCou.
 Leave Link  703 at Mon Feb 21 20:34:07 2022, MaxMem= 16106127360 cpu:             420.5 elap:              15.1
 (Enter /sw/contrib/gaussian/g16/B01/g16/l716.exe)
 Dipole        = 1.81921340D-01 5.14519209D-01-7.94354610D-33
 Polarizability= 3.38768387D+01 9.34269571D+00 3.00957118D+01
                -5.37673356D-31-6.78305416D-31 1.79059376D+01
 Full mass-weighted force constant matrix:
 Low frequencies --- -268.2246 -117.8584  -61.7065  -43.1541   -0.0016   -0.0012
 Low frequencies ---   -0.0010  192.6061  331.1756
 ******    1 imaginary frequencies (negative Signs) ****** 
 Diagonal vibrational polarizability:
       13.8343674      24.2934154      47.8949898
 Harmonic frequencies (cm**-1), IR intensities (KM/Mole), Raman scattering
 activities (A**4/AMU), depolarization ratios for plane and unpolarized
 incident light, reduced masses (AMU), force constants (mDyne/A),
 and normal coordinates:
                      1                      2                      3
                     A"                     A"                     A'
 Frequencies --   -267.7368               181.8380               330.8056
 Red. masses --      1.1558                 9.2663                 8.7593
 Frc consts  --      0.0488                 0.1805                 0.5648
 IR Inten    --    123.6810                 1.7972                 2.4707
  Atom  AN      X      Y      Z        X      Y      Z        X      Y      Z
     1   1     0.00  -0.00   0.99     0.00  -0.00  -0.65     0.52  -0.45   0.00
     2   8     0.00  -0.00  -0.07     0.00  -0.00  -0.28    -0.10  -0.38   0.00
     3   8     0.00   0.00  -0.04     0.00   0.00   0.31    -0.15   0.42  -0.00
     4   7    -0.00   0.00   0.06    -0.00  -0.00   0.49     0.06   0.28  -0.00
     5   8    -0.00  -0.00  -0.01    -0.00  -0.00  -0.41     0.17  -0.25   0.00
                      4                      5                      6
                     A'                     A'                     A'
 Frequencies --    458.5922               784.3883               968.5088
 Red. masses --     12.1593                12.6473                15.4060
 Frc consts  --      1.5067                 4.5847                 8.5143
 IR Inten    --    200.7033               171.4202                21.0057
  Atom  AN      X      Y      Z        X      Y      Z        X      Y      Z
     1   1     0.44   0.17   0.00    -0.36   0.20   0.00    -0.17  -0.04  -0.00
     2   8     0.32   0.18   0.00     0.42   0.09   0.00    -0.52   0.04   0.00
     3   8     0.17   0.45  -0.00    -0.06  -0.28  -0.00     0.75  -0.02  -0.00
     4   7    -0.34  -0.39  -0.00    -0.15   0.61  -0.00    -0.13   0.24  -0.00
     5   8    -0.21  -0.31   0.00    -0.21  -0.36   0.00    -0.11  -0.22   0.00
                      7                      8                      9
                     A'                     A'                     A'
 Frequencies --   1372.0188              1755.3102              3778.5896
 Red. masses --      1.1295                13.9311                 1.0675
 Frc consts  --      1.2527                25.2896                 8.9804
 IR Inten    --    147.6648               168.5963                81.6324
  Atom  AN      X      Y      Z        X      Y      Z        X      Y      Z
     1   1     0.99  -0.06   0.00    -0.26   0.00  -0.00     0.11   0.99  -0.00
     2   8    -0.03   0.05   0.00    -0.01  -0.03  -0.00    -0.01  -0.06  -0.00
     3   8    -0.02  -0.05  -0.00     0.00   0.14   0.00     0.00   0.00   0.00
     4   7     0.01   0.01  -0.00     0.72  -0.04   0.00    -0.00  -0.00   0.00
     5   8    -0.03  -0.01   0.00    -0.62  -0.07  -0.00     0.00   0.00  -0.00

 -------------------
 - Thermochemistry -
 -------------------
 Temperature   298.150 Kelvin.  Pressure   1.00000 Atm.
 Atom     1 has atomic number  1 and mass   1.00783
 Atom     2 has atomic number  8 and mass  15.99491
 Atom     3 has atomic number  8 and mass  15.99491
 Atom     4 has atomic number  7 and mass  14.00307
 Atom     5 has atomic number  8 and mass  15.99491
 Molecular mass:    62.99564 amu.
 Principal axes and moments of inertia in atomic units:
                           1         2         3
     Eigenvalues --    32.79260 358.13972 390.93232
           X            0.81170  -0.58407   0.00000
           Y            0.58407   0.81170   0.00000
           Z            0.00000  -0.00000   1.00000
 This molecule is an asymmetric top.
 Rotational symmetry number  1.
 Rotational temperatures (Kelvin)      2.64126     0.24184     0.22156
 Rotational constants (GHZ):          55.03502     5.03921     4.61651
    1 imaginary frequencies ignored.
 Zero-point vibrational energy      57600.5 (Joules/Mol)
                                   13.76685 (Kcal/Mol)
 Warning -- explicit consideration of   3 degrees of freedom as
           vibrations may cause significant error
 Vibrational temperatures:    261.62   475.96   659.81  1128.56  1393.47
          (Kelvin)           1974.03  2525.50  5436.55
 
 Zero-point correction=                           0.021939 (Hartree/Particle)
 Thermal correction to Energy=                    0.026135
 Thermal correction to Enthalpy=                  0.027080
 Thermal correction to Gibbs Free Energy=        -0.004313
 Sum of electronic and zero-point Energies=           -280.424576
 Sum of electronic and thermal Energies=              -280.420379
 Sum of electronic and thermal Enthalpies=            -280.419435
 Sum of electronic and thermal Free Energies=         -280.450828
 
                     E (Thermal)             CV                S
                      KCal/Mol        Cal/Mol-Kelvin    Cal/Mol-Kelvin
 Total                   16.400             12.018             66.072
 Electronic               0.000              0.000              0.000
 Translational            0.889              2.981             38.341
 Rotational               0.889              2.981             23.044
 Vibrational             14.623              6.056              4.687
 Vibration     1          0.630              1.864              2.309
 Vibration     2          0.713              1.614              1.256
 Vibration     3          0.817              1.342              0.770
                       Q            Log10(Q)             Ln(Q)
 Total Bot       0.963557D+02          1.983877          4.568047
 Total V=0       0.118864D+13         12.075049         27.803828
 Vib (Bot)       0.202138D-09         -9.694353        -22.322072
 Vib (Bot)    1  0.110385D+01          0.042912          0.098808
 Vib (Bot)    2  0.564541D+00         -0.248304         -0.571742
 Vib (Bot)    3  0.371323D+00         -0.430249         -0.990684
 Vib (V=0)       0.249355D+01          0.396819          0.913709
 Vib (V=0)    1  0.171181D+01          0.233457          0.537554
 Vib (V=0)    2  0.125413D+01          0.098341          0.226439
 Vib (V=0)    3  0.112280D+01          0.050303          0.115826
 Electronic      0.100000D+01          0.000000          0.000000
 Translational   0.196526D+08          7.293420         16.793719
 Rotational      0.242555D+05          4.384811         10.096399
 
                                                                title
                                                             IR Spectrum
 
     3                                                                    1           1                                              
     7                                                                    7           3             9     7          4   3    1      
     7                                                                    5           7             6     8          5   3    8      
     9                                                                    5           2             9     4          9   1    2      
 
     X                                                                    X           X             X     X          X   X    X      
     X                                                                    X           X             X     X          X               
     X                                                                    X           X                   X          X               
     X                                                                    X           X                   X          X               
     X                                                                    X           X                   X          X               
     X                                                                    X           X                   X          X               
     X                                                                    X           X                   X          X               
     X                                                                    X           X                   X          X               
                                                                          X           X                   X          X               
                                                                          X           X                   X          X               
                                                                          X           X                   X          X               
                                                                          X           X                   X          X               
                                                                          X           X                   X          X               
                                                                          X           X                   X          X               
                                                                          X           X                   X          X               
                                                                          X                               X          X               
                                                                          X                               X          X               
                                                                                                                     X               
                                                                                                                     X               
                                                                                                                     X               
 
 ***** Axes restored to original set *****
 -------------------------------------------------------------------
 Center     Atomic                   Forces (Hartrees/Bohr)
 Number     Number              X              Y              Z
 -------------------------------------------------------------------
      1        1           0.000008047    0.000000000    0.000083043
      2        8           0.000124222   -0.000000000   -0.000220998
      3        8          -0.001246151   -0.000000000   -0.003190138
      4        7          -0.017586978   -0.000000000   -0.002343187
      5        8           0.018700860    0.000000000    0.005671280
 -------------------------------------------------------------------
 Cartesian Forces:  Max     0.018700860 RMS     0.006872549
 -----------------------------------------------------------------------------------------------
                       Internal Coordinate Forces (Hartree/Bohr or radian)
  Cent   Atom   N1       Length/X         N2         Alpha/Y        N3         Beta/Z          J
 -----------------------------------------------------------------------------------------------
      1  H 
      2  O        1  -0.000083(     1)
      3  O        2  -0.000113(     2)      1  -0.000015(     5)
      4  N        3   0.003408(     3)      2   0.000439(     6)      1  -0.000000(     8)     0
      5  O        4   0.019523(     4)      3   0.001869(     7)      2   0.000000(     9)     0
 -----------------------------------------------------------------------------------------------
 Internal  Forces:  Max     0.019523240 RMS     0.006637266
 Force constants in Cartesian coordinates: 
                1             2             3             4             5 
      1  0.645897D-01
      2  0.000000D+00 -0.229115D-02
      3  0.535059D-02  0.000000D+00  0.512332D+00
      4 -0.356422D-01  0.000000D+00 -0.163942D-01  0.273134D+00
      5  0.000000D+00  0.296417D-02  0.000000D+00  0.000000D+00  0.218206D-02
      6  0.480780D-01  0.000000D+00 -0.508494D+00  0.339132D-01  0.000000D+00
      7 -0.184649D-01  0.000000D+00  0.126072D-01 -0.220616D+00  0.000000D+00
      8  0.000000D+00  0.100069D-02  0.000000D+00  0.000000D+00 -0.661803D-02
      9 -0.531017D-01  0.000000D+00 -0.497672D-03 -0.198251D-01  0.000000D+00
     10 -0.924461D-02  0.000000D+00 -0.494752D-02 -0.172799D-01  0.000000D+00
     11  0.000000D+00 -0.271298D-02  0.000000D+00  0.000000D+00 -0.492404D-02
     12  0.556420D-02  0.000000D+00 -0.473754D-02  0.118189D-01  0.000000D+00
     13 -0.123800D-02  0.000000D+00  0.338396D-02  0.403947D-03  0.000000D+00
     14  0.000000D+00  0.103926D-02  0.000000D+00  0.000000D+00  0.639583D-02
     15 -0.589109D-02  0.000000D+00  0.139742D-02 -0.951280D-02  0.000000D+00
                6             7             8             9            10 
      6  0.594277D+00
      7 -0.213185D-01  0.342287D+00
      8  0.000000D+00  0.000000D+00  0.316979D-02
      9 -0.783439D-01  0.374648D-01  0.000000D+00  0.183434D+00
     10 -0.525239D-01 -0.779893D-01  0.000000D+00  0.178459D+00  0.902831D+00
     11  0.000000D+00  0.000000D+00  0.933729D-02  0.000000D+00  0.000000D+00
     12  0.178335D-01  0.641078D-01  0.000000D+00 -0.826640D-01 -0.233729D-02
     13 -0.814875D-02 -0.252166D-01  0.000000D+00 -0.142997D+00 -0.798317D+00
     14  0.000000D+00  0.000000D+00 -0.688974D-02  0.000000D+00  0.000000D+00
     15 -0.252722D-01 -0.928613D-01  0.000000D+00 -0.219283D-01 -0.118650D+00
               11            12            13            14            15 
     11 -0.360860D-03
     12  0.000000D+00  0.185459D+00
     13  0.000000D+00 -0.791537D-01  0.824368D+00
     14 -0.133940D-02  0.000000D+00  0.000000D+00  0.794044D-03
     15  0.000000D+00 -0.115891D+00  0.226915D+00  0.000000D+00  0.161694D+00
 Force constants in internal coordinates: 
                1             2             3             4             5 
      1  0.512332D+00
      2 -0.104395D-01  0.281940D+00
      3  0.345706D-02  0.236219D-02  0.119849D+00
      4 -0.362488D-02  0.598259D-02  0.158257D+00  0.892656D+00
      5  0.980555D-02  0.654712D-01  0.217036D-02  0.487259D-02  0.216413D+00
      6  0.466660D-02  0.589332D-01  0.409133D-01  0.221690D-01  0.309476D-01
      7 -0.112571D-02  0.382938D-01  0.344880D-01  0.860529D-01  0.216534D-01
      8  0.000000D+00  0.000000D+00  0.000000D+00  0.000000D+00  0.000000D+00
      9  0.000000D+00  0.000000D+00  0.000000D+00  0.000000D+00  0.000000D+00
                6             7             8             9 
      6  0.281666D+00
      7  0.976106D-01  0.490695D+00
      8  0.000000D+00  0.000000D+00 -0.769465D-02
      9  0.000000D+00  0.000000D+00 -0.390348D-02  0.410142D-01
 Leave Link  716 at Mon Feb 21 20:34:07 2022, MaxMem= 16106127360 cpu:               0.8 elap:               0.1
 (Enter /sw/contrib/gaussian/g16/B01/g16/l103.exe)

 GradGradGradGradGradGradGradGradGradGradGradGradGradGradGradGradGradGrad
 Berny optimization.
 Search for a local minimum.
 Step number   1 out of a maximum of    2
 All quantities printed in internal units (Hartrees-Bohrs-Radians)
 Second derivative matrix not updated -- analytic derivatives used.
 The second derivative matrix:
                          r1        r2        r3        r4        a1
           r1           0.51233
           r2          -0.01044   0.28194
           r3           0.00346   0.00236   0.11985
           r4          -0.00362   0.00598   0.15826   0.89266
           a1           0.00981   0.06547   0.00217   0.00487   0.21641
           a2           0.00467   0.05893   0.04091   0.02217   0.03095
           a3          -0.00113   0.03829   0.03449   0.08605   0.02165
           d1           0.00000  -0.00000  -0.00000  -0.00000  -0.00000
           d2          -0.00000   0.00000   0.00000   0.00000   0.00000
                          a2        a3        d1        d2
           a2           0.28167
           a3           0.09761   0.49070
           d1          -0.00000  -0.00000  -0.00769
           d2          -0.00000  -0.00000  -0.00390   0.04101
 ITU=  0
     Eigenvalues ---   -0.00801   0.04133   0.08171   0.17510   0.22473
     Eigenvalues ---    0.32569   0.51303   0.52862   0.94667
 Eigenvalue     1 is  -8.01D-03 should be greater than     0.000000 Eigenvector:
                          d1        d2        a3        a2        r3
   1                    0.99684   0.07938   0.00000   0.00000  -0.00000
                          r4        a1        r2        r1
   1                    0.00000  -0.00000  -0.00000  -0.00000
 Angle between quadratic step and forces=  12.82 degrees.
 Linear search not attempted -- first point.
 Variable       Old X    -DE/DX   Delta X   Delta X   Delta X     New X
                                 (Linear)    (Quad)   (Total)
    r1        1.83110  -0.00008   0.00000  -0.00001  -0.00001   1.83108
    r2        2.74940  -0.00011   0.00000  -0.00081  -0.00081   2.74858
    r3        2.75670   0.00341   0.00000  -0.00061  -0.00061   2.75609
    r4        2.18989   0.01952   0.00000   0.02198   0.02198   2.21186
    a1        1.70335  -0.00001   0.00000  -0.00033  -0.00033   1.70302
    a2        1.78543   0.00044   0.00000   0.00010   0.00010   1.78553
    a3        1.90362   0.00187   0.00000   0.00006   0.00006   1.90368
    d1        3.14159  -0.00000   0.00000  -0.00000   0.00000   3.14159
    d2        3.14159   0.00000   0.00000   0.00000   0.00000   3.14159
         Item               Value     Threshold  Converged?
 Maximum Force            0.019523     0.000450     NO 
 RMS     Force            0.006637     0.000300     NO 
 Maximum Displacement     0.021979     0.001800     NO 
 RMS     Displacement     0.007335     0.001200     NO 
 Predicted change in Energy=-2.136289D-04
                       ----------------------------
                       ! Non-Optimized Parameters !
                       ! (Angstroms and Degrees)  !
 ----------------------                            ----------------------
 !      Name          Value   Derivative information (Atomic Units)     !
 ------------------------------------------------------------------------
 !       r1          0.969    -DE/DX =   -0.0001                        !
 !       r2          1.4545   -DE/DX =   -0.0001                        !
 !       r3          1.4585   -DE/DX =    0.0034                        !
 !       r4          1.1705   -DE/DX =    0.0195                        !
 !       a1         97.576    -DE/DX =    0.0                           !
 !       a2        102.3035   -DE/DX =    0.0004                        !
 !       a3        109.0727   -DE/DX =    0.0019                        !
 !       d1        180.0      -DE/DX =    0.0                           !
 !       d2        180.0      -DE/DX =    0.0                           !
 ------------------------------------------------------------------------
 GradGradGradGradGradGradGradGradGradGradGradGradGradGradGradGradGradGrad

 Leave Link  103 at Mon Feb 21 20:34:07 2022, MaxMem= 16106127360 cpu:               0.5 elap:               0.0
 (Enter /sw/contrib/gaussian/g16/B01/g16/l9999.exe)

 ----------------------------------------------------------------------

 Electric dipole moment (input orientation):
 (Debye = 10**-18 statcoulomb cm , SI units = C m)
                  (au)            (Debye)         (10**-30 SI)
   Tot        0.545734D+00      0.138712D+01      0.462692D+01
   x         -0.128258D+00     -0.325998D+00     -0.108741D+01
   y          0.000000D+00      0.000000D+00      0.000000D+00
   z         -0.530448D+00     -0.134826D+01     -0.449733D+01

 Dipole polarizability, Alpha (input orientation).
 (esu units = cm**3 , SI units = C**2 m**2 J**-1)
 Alpha(0;0):
               (au)            (10**-24 esu)      (10**-40 SI)
   iso        0.272928D+02      0.404438D+01      0.449998D+01
   aniso      0.216988D+02      0.321543D+01      0.357764D+01
   xx         0.319331D+02      0.473200D+01      0.526506D+01
   yx         0.000000D+00      0.000000D+00      0.000000D+00
   yy         0.179059D+02      0.265339D+01      0.295229D+01
   zx         0.953191D+01      0.141248D+01      0.157160D+01
   zy         0.000000D+00      0.000000D+00      0.000000D+00
   zz         0.320394D+02      0.474775D+01      0.528259D+01

 ----------------------------------------------------------------------

 Dipole orientation:
     1          0.00000000          0.00000000          0.00000000
     8         -0.43034232          0.00000000         -1.77981093
     8          2.13320170          0.00000000         -2.77350963
     7          1.70717954          0.00000000         -5.49709420
     8          3.64145633          0.00000000         -6.52382289

 Electric dipole moment (dipole orientation):
 (Debye = 10**-18 statcoulomb cm , SI units = C m)
                  (au)            (Debye)         (10**-30 SI)
   Tot        0.545734D+00      0.138712D+01      0.462692D+01
   x          0.000000D+00      0.000000D+00      0.000000D+00
   y          0.000000D+00      0.000000D+00      0.000000D+00
   z          0.545734D+00      0.138712D+01      0.462692D+01

 Dipole polarizability, Alpha (dipole orientation).
 (esu units = cm**3 , SI units = C**2 m**2 J**-1)
 Alpha(0;0):
               (au)            (10**-24 esu)      (10**-40 SI)
   iso        0.272928D+02      0.404438D+01      0.449998D+01
   aniso      0.216988D+02      0.321543D+01      0.357764D+01
   xx         0.275841D+02      0.408755D+01      0.454801D+01
   yx         0.000000D+00      0.000000D+00      0.000000D+00
   yy         0.179059D+02      0.265339D+01      0.295229D+01
   zx        -0.845466D+01     -0.125285D+01     -0.139399D+01
   zy         0.000000D+00      0.000000D+00      0.000000D+00
   zz         0.363884D+02      0.539221D+01      0.599964D+01

 ----------------------------------------------------------------------
 1\1\GINC-N2128\Freq\RMP2-FC\Aug-CC-pVTZ\H1N1O3\CGAVINH\21-Feb-2022\1\\
 #p freq mp2/aug-cc-pvtz density=current\\title\\0,1\H\O,1,r1\O,2,r2,1,
 a1\N,3,r3,2,a2,1,d1,0\O,4,r4,3,a3,2,d2,0\\r1=0.96897556\r2=1.45491931\
 r3=1.45878406\r4=1.1588375\a1=97.59494903\a2=102.29752444\a3=109.06955
 123\d1=180.\d2=180.\\Version=ES64L-G16RevB.01\State=1-A'\HF=-279.50348
 6\MP2=-280.4465145\RMSD=3.480e-09\RMSF=6.873e-03\ZeroPoint=0.0219389\T
 hermal=0.0261354\Dipole=-0.1282576,0.,-0.5304483\DipoleDeriv=0.2663295
 ,0.,0.0481017,0.,0.3551539,0.,0.0813536,0.,0.2741812,-0.325858,0.,-0.2
 045556,0.,-0.3153591,0.,-0.1098544,0.,-0.2230358,-0.0543991,0.,0.14602
 08,0.,-0.091628,0.,-0.7549101,0.,-1.3626775,0.9270291,0.,0.9382003,0.,
 0.0666914,0.,0.9338479,0.,1.6848586,-0.8131015,0.,-0.9277671,0.,-0.014
 8581,0.,-0.1504369,0.,-0.3733265\Polar=31.9331232,0.,17.9059376,9.5319
 131,0.,32.0394274\Quadrupole=-1.5117942,-0.7336157,2.2454098,0.,2.1125
 891,0.\PG=CS [SG(H1N1O3)]\NImag=1\\0.06458972,0.,-0.00229115,0.0053505
 9,0.,0.51233197,-0.03564224,0.,-0.01639421,0.27313392,0.,0.00296417,0.
 ,0.,0.00218206,0.04807801,0.,-0.50849417,0.03391318,0.,0.59427684,-0.0
 1846487,0.,0.01260718,-0.22061574,0.,-0.02131854,0.34228656,0.,0.00100
 069,0.,0.,-0.00661803,0.,0.,0.00316979,-0.05310171,0.,-0.00049767,-0.0
 1982513,0.,-0.07834390,0.03746484,0.,0.18343382,-0.00924461,0.,-0.0049
 4752,-0.01727989,0.,-0.05252390,-0.07798932,0.,0.17845885,0.90283117,0
 .,-0.00271298,0.,0.,-0.00492404,0.,0.,0.00933729,0.,0.,-0.00036086,0.0
 0556420,0.,-0.00473754,0.01181895,0.,0.01783346,0.06410782,0.,-0.08266
 399,-0.00233729,0.,0.18545948,-0.00123800,0.,0.00338396,0.00040395,0.,
 -0.00814875,-0.02521663,0.,-0.14299686,-0.79831735,0.,-0.07915368,0.82
 436803,0.,0.00103926,0.,0.,0.00639583,0.,0.,-0.00688974,0.,0.,-0.00133
 940,0.,0.,0.00079404,-0.00589109,0.,0.00139742,-0.00951280,0.,-0.02527
 223,-0.09286130,0.,-0.02192826,-0.11865014,0.,-0.11589141,0.22691533,0
 .,0.16169448\\-0.00000805,0.,-0.00008304,-0.00012422,0.,0.00022100,0.0
 0124615,0.,0.00319014,0.01758698,0.,0.00234319,-0.01870086,0.,-0.00567
 128\\\@


 IF YOU GIVE A BOY AND A PIG EVERYTHING THEY WANT,
 YOU'LL GET A BAD BOY AND A GOOD PIG.
 Job cpu time:       0 days  2 hours  1 minutes 32.1 seconds.
 Elapsed time:       0 days  0 hours  4 minutes 23.7 seconds.
 File lengths (MBytes):  RWF=   7239 Int=      0 D2E=      0 Chk=      8 Scr=      1
 Normal termination of Gaussian 16 at Mon Feb 21 20:34:08 2022.
