title                                                                   
Freq      RMP2-FC                                                     Aug-CC-pVTZ         
Number of atoms                            I                5
Info1-9                                    I   N=           9
          33          24           0           0           0         100
           6           2           1
Full Title                                 C   N=           1
title       
Route                                      C   N=           4
#p freq mp2/aug-cc-pvtz density=current         
Charge                                     I                0
Multiplicity                               I                1
Number of electrons                        I               32
Number of alpha electrons                  I               16
Number of beta electrons                   I               16
Number of basis functions                  I              207
Number of independent functions            I              207
Number of point charges in /Mol/           I                0
Number of translation vectors              I                0
Atomic numbers                             I   N=           5
           1           8           8           7           8
Nuclear charges                            R   N=           5
  1.00000000E+00  8.00000000E+00  8.00000000E+00  7.00000000E+00  8.00000000E+00
Current cartesian coordinates              R   N=          15
  2.14368370E+00 -1.10899526E+00  0.00000000E+00  2.50364942E+00  7.17972509E-01
  0.00000000E+00  1.50572660E-16  1.71843180E+00  0.00000000E+00 -1.88112087E+00
 -9.07231322E-02  0.00000000E+00 -1.12562912E+00 -2.21839716E+00  0.00000000E+00
Number of symbols in /Mol/                 I                0
Force Field                                I                0
Atom Types                                 C   N=           5
                                                            
Int Atom Types                             I   N=           5
           0           0           0           0           0
MM charges                                 R   N=           5
  0.00000000E+00  0.00000000E+00  0.00000000E+00  0.00000000E+00  0.00000000E+00
Integer atomic weights                     I   N=           5
           1          16          16          14          16
Real atomic weights                        R   N=           5
  1.00782504E+00  1.59949146E+01  1.59949146E+01  1.40030740E+01  1.59949146E+01
Atom fragment info                         I   N=           5
           0           0           0           0           0
Atom residue num                           I   N=           5
           0           0           0           0           0
Nuclear spins                              I   N=           5
           1           0           0           2           0
Nuclear ZEff                               R   N=           5
 -1.00000000E+00 -5.60000000E+00 -5.60000000E+00 -4.55000000E+00 -5.60000000E+00
Nuclear ZNuc                               R   N=           5
  1.00000000E+00  8.00000000E+00  8.00000000E+00  7.00000000E+00  8.00000000E+00
Nuclear QMom                               R   N=           5
  0.00000000E+00  0.00000000E+00  0.00000000E+00  2.04400000E+00  0.00000000E+00
Nuclear GFac                               R   N=           5
  2.79284600E+00  0.00000000E+00  0.00000000E+00  4.03761000E-01  0.00000000E+00
MicOpt                                     I   N=           5
          -1          -1          -1          -1          -1
Number of residues                         I                0
Number of secondary structures             I                0
SymInf integers                            I   N=          26
           1           2           1           1           1           1
           1          -1           0           0           0           0
           0           0           0           0           0           0
           0           0           0           0           0           0
           0           0
RotTr to input orientation                 R   N=          12
 -9.81137230E-01  0.00000000E+00  1.93312532E-01  1.93312532E-01  0.00000000E+00
  9.81137230E-01  0.00000000E+00  1.00000000E+00  0.00000000E+00  2.31763057E+00
  0.00000000E+00  6.73675612E-01
Number of contracted shells                I               65
Number of primitive shells                 I              119
Pure/Cartesian d shells                    I                0
Pure/Cartesian f shells                    I                0
Highest angular momentum                   I                3
Largest degree of contraction              I                7
Shell types                                I   N=          65
           0           0           0           0           1           1
           1          -2          -2           0           0           0
           0           0           1           1           1           1
          -2          -2          -2          -3          -3           0
           0           0           0           0           1           1
           1           1          -2          -2          -2          -3
          -3           0           0           0           0           0
           1           1           1           1          -2          -2
          -2          -3          -3           0           0           0
           0           0           1           1           1           1
          -2          -2          -2          -3          -3
Number of primitives per shell             I   N=          65
           3           1           1           1           1           1
           1           1           1           7           6           1
           1           1           3           1           1           1
           1           1           1           1           1           7
           6           1           1           1           3           1
           1           1           1           1           1           1
           1           7           6           1           1           1
           3           1           1           1           1           1
           1           1           1           7           6           1
           1           1           3           1           1           1
           1           1           1           1           1
Shell to atom map                          I   N=          65
           1           1           1           1           1           1
           1           1           1           2           2           2
           2           2           2           2           2           2
           2           2           2           2           2           3
           3           3           3           3           3           3
           3           3           3           3           3           3
           3           4           4           4           4           4
           4           4           4           4           4           4
           4           4           4           5           5           5
           5           5           5           5           5           5
           5           5           5           5           5
Primitive exponents                        R   N=         119
  3.38700000E+01  5.09500000E+00  1.15900000E+00  3.25800000E-01  1.02700000E-01
  2.52600000E-02  1.40700000E+00  3.88000000E-01  1.02000000E-01  1.05700000E+00
  2.47000000E-01  1.53300000E+04  2.29900000E+03  5.22400000E+02  1.47300000E+02
  4.75500000E+01  1.67600000E+01  6.20700000E+00  5.22400000E+02  1.47300000E+02
  4.75500000E+01  1.67600000E+01  6.20700000E+00  6.88200000E-01  1.75200000E+00
  2.38400000E-01  7.37600000E-02  3.44600000E+01  7.74900000E+00  2.28000000E+00
  7.15600000E-01  2.14000000E-01  5.97400000E-02  2.31400000E+00  6.45000000E-01
  2.14000000E-01  1.42800000E+00  5.00000000E-01  1.53300000E+04  2.29900000E+03
  5.22400000E+02  1.47300000E+02  4.75500000E+01  1.67600000E+01  6.20700000E+00
  5.22400000E+02  1.47300000E+02  4.75500000E+01  1.67600000E+01  6.20700000E+00
  6.88200000E-01  1.75200000E+00  2.38400000E-01  7.37600000E-02  3.44600000E+01
  7.74900000E+00  2.28000000E+00  7.15600000E-01  2.14000000E-01  5.97400000E-02
  2.31400000E+00  6.45000000E-01  2.14000000E-01  1.42800000E+00  5.00000000E-01
  1.14200000E+04  1.71200000E+03  3.89300000E+02  1.10000000E+02  3.55700000E+01
  1.25400000E+01  4.64400000E+00  3.89300000E+02  1.10000000E+02  3.55700000E+01
  1.25400000E+01  4.64400000E+00  5.11800000E-01  1.29300000E+00  1.78700000E-01
  5.76000000E-02  2.66300000E+01  5.94800000E+00  1.74200000E+00  5.55000000E-01
  1.72500000E-01  4.91000000E-02  1.65400000E+00  4.69000000E-01  1.51000000E-01
  1.09300000E+00  3.64000000E-01  1.53300000E+04  2.29900000E+03  5.22400000E+02
  1.47300000E+02  4.75500000E+01  1.67600000E+01  6.20700000E+00  5.22400000E+02
  1.47300000E+02  4.75500000E+01  1.67600000E+01  6.20700000E+00  6.88200000E-01
  1.75200000E+00  2.38400000E-01  7.37600000E-02  3.44600000E+01  7.74900000E+00
  2.28000000E+00  7.15600000E-01  2.14000000E-01  5.97400000E-02  2.31400000E+00
  6.45000000E-01  2.14000000E-01  1.42800000E+00  5.00000000E-01
Contraction coefficients                   R   N=         119
  2.54948632E-02  1.90362766E-01  8.52162022E-01  1.00000000E+00  1.00000000E+00
  1.00000000E+00  1.00000000E+00  1.00000000E+00  1.00000000E+00  1.00000000E+00
  1.00000000E+00  5.19808943E-04  4.02025621E-03  2.07128267E-02  8.10105536E-02
  2.35962985E-01  4.42653446E-01  3.57064423E-01 -4.42115008E-05 -1.22591041E-03
 -1.05517725E-02 -6.74452633E-02 -1.71198607E-01  1.07329856E+00  1.00000000E+00
  1.00000000E+00  1.00000000E+00  4.11634896E-02  2.57762836E-01  8.02419274E-01
  1.00000000E+00  1.00000000E+00  1.00000000E+00  1.00000000E+00  1.00000000E+00
  1.00000000E+00  1.00000000E+00  1.00000000E+00  5.19808943E-04  4.02025621E-03
  2.07128267E-02  8.10105536E-02  2.35962985E-01  4.42653446E-01  3.57064423E-01
 -4.42115008E-05 -1.22591041E-03 -1.05517725E-02 -6.74452633E-02 -1.71198607E-01
  1.07329856E+00  1.00000000E+00  1.00000000E+00  1.00000000E+00  4.11634896E-02
  2.57762836E-01  8.02419274E-01  1.00000000E+00  1.00000000E+00  1.00000000E+00
  1.00000000E+00  1.00000000E+00  1.00000000E+00  1.00000000E+00  1.00000000E+00
  5.34563860E-04  4.13435660E-03  2.12335358E-02  8.25006224E-02  2.38138871E-01
  4.42551547E-01  3.53757422E-01 -4.89867350E-05 -1.19527323E-03 -1.03490714E-02
 -6.48680190E-02 -1.71552477E-01  1.07289568E+00  1.00000000E+00  1.00000000E+00
  1.00000000E+00  3.98072123E-02  2.49002660E-01  8.10479727E-01  1.00000000E+00
  1.00000000E+00  1.00000000E+00  1.00000000E+00  1.00000000E+00  1.00000000E+00
  1.00000000E+00  1.00000000E+00  5.19808943E-04  4.02025621E-03  2.07128267E-02
  8.10105536E-02  2.35962985E-01  4.42653446E-01  3.57064423E-01 -4.42115008E-05
 -1.22591041E-03 -1.05517725E-02 -6.74452633E-02 -1.71198607E-01  1.07329856E+00
  1.00000000E+00  1.00000000E+00  1.00000000E+00  4.11634896E-02  2.57762836E-01
  8.02419274E-01  1.00000000E+00  1.00000000E+00  1.00000000E+00  1.00000000E+00
  1.00000000E+00  1.00000000E+00  1.00000000E+00  1.00000000E+00
Coordinates of each shell                  R   N=         195
  2.14368370E+00 -1.10899526E+00  0.00000000E+00  2.14368370E+00 -1.10899526E+00
  0.00000000E+00  2.14368370E+00 -1.10899526E+00  0.00000000E+00  2.14368370E+00
 -1.10899526E+00  0.00000000E+00  2.14368370E+00 -1.10899526E+00  0.00000000E+00
  2.14368370E+00 -1.10899526E+00  0.00000000E+00  2.14368370E+00 -1.10899526E+00
  0.00000000E+00  2.14368370E+00 -1.10899526E+00  0.00000000E+00  2.14368370E+00
 -1.10899526E+00  0.00000000E+00  2.50364942E+00  7.17972509E-01  0.00000000E+00
  2.50364942E+00  7.17972509E-01  0.00000000E+00  2.50364942E+00  7.17972509E-01
  0.00000000E+00  2.50364942E+00  7.17972509E-01  0.00000000E+00  2.50364942E+00
  7.17972509E-01  0.00000000E+00  2.50364942E+00  7.17972509E-01  0.00000000E+00
  2.50364942E+00  7.17972509E-01  0.00000000E+00  2.50364942E+00  7.17972509E-01
  0.00000000E+00  2.50364942E+00  7.17972509E-01  0.00000000E+00  2.50364942E+00
  7.17972509E-01  0.00000000E+00  2.50364942E+00  7.17972509E-01  0.00000000E+00
  2.50364942E+00  7.17972509E-01  0.00000000E+00  2.50364942E+00  7.17972509E-01
  0.00000000E+00  2.50364942E+00  7.17972509E-01  0.00000000E+00 -2.89207937E-18
  1.71843180E+00  0.00000000E+00 -2.89207937E-18  1.71843180E+00  0.00000000E+00
 -2.89207937E-18  1.71843180E+00  0.00000000E+00 -2.89207937E-18  1.71843180E+00
  0.00000000E+00 -2.89207937E-18  1.71843180E+00  0.00000000E+00 -2.89207937E-18
  1.71843180E+00  0.00000000E+00 -2.89207937E-18  1.71843180E+00  0.00000000E+00
 -2.89207937E-18  1.71843180E+00  0.00000000E+00 -2.89207937E-18  1.71843180E+00
  0.00000000E+00 -2.89207937E-18  1.71843180E+00  0.00000000E+00 -2.89207937E-18
  1.71843180E+00  0.00000000E+00 -2.89207937E-18  1.71843180E+00  0.00000000E+00
 -2.89207937E-18  1.71843180E+00  0.00000000E+00 -2.89207937E-18  1.71843180E+00
  0.00000000E+00 -1.88112087E+00 -9.07231322E-02  0.00000000E+00 -1.88112087E+00
 -9.07231322E-02  0.00000000E+00 -1.88112087E+00 -9.07231322E-02  0.00000000E+00
 -1.88112087E+00 -9.07231322E-02  0.00000000E+00 -1.88112087E+00 -9.07231322E-02
  0.00000000E+00 -1.88112087E+00 -9.07231322E-02  0.00000000E+00 -1.88112087E+00
 -9.07231322E-02  0.00000000E+00 -1.88112087E+00 -9.07231322E-02  0.00000000E+00
 -1.88112087E+00 -9.07231322E-02  0.00000000E+00 -1.88112087E+00 -9.07231322E-02
  0.00000000E+00 -1.88112087E+00 -9.07231322E-02  0.00000000E+00 -1.88112087E+00
 -9.07231322E-02  0.00000000E+00 -1.88112087E+00 -9.07231322E-02  0.00000000E+00
 -1.88112087E+00 -9.07231322E-02  0.00000000E+00 -1.12562912E+00 -2.21839716E+00
  0.00000000E+00 -1.12562912E+00 -2.21839716E+00  0.00000000E+00 -1.12562912E+00
 -2.21839716E+00  0.00000000E+00 -1.12562912E+00 -2.21839716E+00  0.00000000E+00
 -1.12562912E+00 -2.21839716E+00  0.00000000E+00 -1.12562912E+00 -2.21839716E+00
  0.00000000E+00 -1.12562912E+00 -2.21839716E+00  0.00000000E+00 -1.12562912E+00
 -2.21839716E+00  0.00000000E+00 -1.12562912E+00 -2.21839716E+00  0.00000000E+00
 -1.12562912E+00 -2.21839716E+00  0.00000000E+00 -1.12562912E+00 -2.21839716E+00
  0.00000000E+00 -1.12562912E+00 -2.21839716E+00  0.00000000E+00 -1.12562912E+00
 -2.21839716E+00  0.00000000E+00 -1.12562912E+00 -2.21839716E+00  0.00000000E+00
Num ILSW                                   I              100
ILSW                                       I   N=         100
           0           0           0           0           2           0
           0           0           0           0           0          -1
           5           0           0           0           2           0
           0           0           0           0           1           0
           1           0           0           0           0           0
           0           0      100000           0          -1           0
           0           0           0           0           0           0
           0           0           0           1           1           0
           0 -2000000000           1           0           0           0
           0           0           4          52           0           0
           0           0           0           0           0           0
           0           0           0           5           4           1
           0           0           0           0           0           0
           0           0           0           0           0           0
           0           0           0           0           0           0
           0           0           0           0           0           0
           0           0           0           0
Num RLSW                                   I               52
RLSW                                       R   N=          52
  1.00000000E+00  1.00000000E+00  1.00000000E+00  1.00000000E+00  1.00000000E+00
  0.00000000E+00  0.00000000E+00  1.00000000E+00  0.00000000E+00  0.00000000E+00
  0.00000000E+00  0.00000000E+00  1.00000000E+00  0.00000000E+00  0.00000000E+00
  0.00000000E+00  0.00000000E+00  1.00000000E+00  0.00000000E+00  0.00000000E+00
  0.00000000E+00  0.00000000E+00  1.00000000E+00  0.00000000E+00  0.00000000E+00
  0.00000000E+00  0.00000000E+00  1.00000000E+00  0.00000000E+00  0.00000000E+00
  0.00000000E+00  0.00000000E+00  1.00000000E+00  0.00000000E+00  0.00000000E+00
  0.00000000E+00  0.00000000E+00  0.00000000E+00  1.00000000E+00  1.00000000E+00
  0.00000000E+00  1.00000000E+00  0.00000000E+00  0.00000000E+00  0.00000000E+00
  0.00000000E+00  0.00000000E+00  0.00000000E+00  0.00000000E+00  0.00000000E+00
  0.00000000E+00  0.00000000E+00
MxBond                                     I                2
NBond                                      I   N=           5
           1           2           2           2           1
IBond                                      I   N=          10
           2           0           1           3           2           4
           3           5           4           0
RBond                                      R   N=          10
  1.00000000E+00  0.00000000E+00  1.00000000E+00  1.00000000E+00  1.00000000E+00
  1.00000000E+00  1.00000000E+00  2.00000000E+00  2.00000000E+00  0.00000000E+00
Virial Ratio                               R      2.002256381629703E+00
SCF Energy                                 R     -2.795065525063667E+02
MP2 Energy                                 R     -2.804551355403035E+02
Total Energy                               R     -2.804551355403035E+02
Post-SCF wavefunction norm                 R      1.583773381462101E+00
RMS Force                                  R      1.906625511049510E-03
RMS Density                                R      4.083362813421452E-09
NImag                                      I                0
Job Status                                 I                1
Nuclear derivative order                   I                2
External E-field                           R   N=          35
  0.00000000E+00  0.00000000E+00  0.00000000E+00  0.00000000E+00  0.00000000E+00
  0.00000000E+00  0.00000000E+00  0.00000000E+00  0.00000000E+00  0.00000000E+00
  0.00000000E+00  0.00000000E+00  0.00000000E+00  0.00000000E+00  0.00000000E+00
  0.00000000E+00  0.00000000E+00  0.00000000E+00  0.00000000E+00  0.00000000E+00
  0.00000000E+00  0.00000000E+00  0.00000000E+00  0.00000000E+00  0.00000000E+00
  0.00000000E+00  0.00000000E+00  0.00000000E+00  0.00000000E+00  0.00000000E+00
  0.00000000E+00  0.00000000E+00  0.00000000E+00  0.00000000E+00  0.00000000E+00
IOpCl                                      I                0
IROHF                                      I                0
Alpha Orbital Energies                     R   N=         207
 -2.07183425E+01 -2.06865643E+01 -2.06698718E+01 -1.58260603E+01 -1.64264956E+00
 -1.50530097E+00 -1.29383551E+00 -9.60154768E-01 -8.32426469E-01 -7.58313359E-01
 -7.39049465E-01 -6.39215040E-01 -6.18798771E-01 -6.17448838E-01 -5.03919718E-01
 -4.97130643E-01  3.48262642E-02  6.07714826E-02  9.51712322E-02  1.00811445E-01
  1.19733264E-01  1.22461887E-01  1.48717836E-01  1.51434603E-01  1.77634697E-01
  1.80647557E-01  1.89931199E-01  2.11045396E-01  2.16681006E-01  2.40936090E-01
  2.46498288E-01  2.68972763E-01  3.11070856E-01  3.15092232E-01  3.37909847E-01
  3.45024509E-01  3.47757069E-01  3.91369027E-01  4.46961644E-01  4.87892123E-01
  5.04780104E-01  5.19330631E-01  5.44846386E-01  5.61467921E-01  6.00274411E-01
  6.20545785E-01  6.38276959E-01  6.88741868E-01  7.17510371E-01  7.24939518E-01
  7.41714971E-01  7.61460639E-01  7.66385418E-01  7.95504350E-01  8.04749332E-01
  8.41519440E-01  8.43522493E-01  8.51404853E-01  8.85063169E-01  9.06874715E-01
  9.28960219E-01  9.47688957E-01  9.53592562E-01  1.01864586E+00  1.02961127E+00
  1.05483147E+00  1.06468588E+00  1.09208149E+00  1.14043612E+00  1.15596349E+00
  1.16927234E+00  1.22179584E+00  1.22538625E+00  1.24699621E+00  1.34719074E+00
  1.36662732E+00  1.37567644E+00  1.46711768E+00  1.48498657E+00  1.50631657E+00
  1.53943134E+00  1.59268251E+00  1.59783777E+00  1.60541812E+00  1.62527381E+00
  1.69588861E+00  1.74043824E+00  1.80234494E+00  1.83108177E+00  1.88858546E+00
  1.89160180E+00  1.92624554E+00  1.97830478E+00  1.98756668E+00  2.05093356E+00
  2.12724390E+00  2.12767037E+00  2.16368208E+00  2.18397368E+00  2.24155263E+00
  2.25712984E+00  2.29562404E+00  2.34595317E+00  2.36101975E+00  2.38845883E+00
  2.39926491E+00  2.43133268E+00  2.46771413E+00  2.47519905E+00  2.52613334E+00
  2.53372673E+00  2.54890837E+00  2.55768642E+00  2.61286211E+00  2.62692555E+00
  2.66899328E+00  2.67034879E+00  2.75417065E+00  2.80904264E+00  2.81118687E+00
  2.84283749E+00  2.91440092E+00  2.98508425E+00  3.04536933E+00  3.04569438E+00
  3.11659486E+00  3.11998549E+00  3.16080188E+00  3.21293875E+00  3.30754088E+00
  3.33229191E+00  3.36783967E+00  3.47224490E+00  3.68347370E+00  3.86839072E+00
  3.91846224E+00  4.17756215E+00  4.21574533E+00  4.22160954E+00  4.25905835E+00
  4.36483477E+00  4.50158346E+00  4.50345227E+00  4.55657510E+00  4.59645297E+00
  4.69858876E+00  4.81413637E+00  4.90180125E+00  4.91309525E+00  4.93749594E+00
  4.99961945E+00  5.00681871E+00  5.10895827E+00  5.12892294E+00  5.18171334E+00
  5.24790519E+00  5.25822243E+00  5.31762160E+00  5.32455841E+00  5.35016369E+00
  5.55246863E+00  5.64559695E+00  5.70308478E+00  5.88680782E+00  6.00023068E+00
  6.26753597E+00  6.29688534E+00  6.36088855E+00  6.37920453E+00  6.59630376E+00
  6.64889221E+00  6.65704755E+00  6.68546792E+00  6.72900744E+00  6.80009560E+00
  6.80483534E+00  6.84816817E+00  6.96726516E+00  7.02039866E+00  7.06609664E+00
  7.08116546E+00  7.13470398E+00  7.16271036E+00  7.17475311E+00  7.20231191E+00
  7.24507633E+00  7.24828938E+00  7.26968148E+00  7.34458059E+00  7.38801862E+00
  7.42430496E+00  7.44318210E+00  7.46338811E+00  7.55479532E+00  7.65762803E+00
  7.66527160E+00  7.79588111E+00  7.88032285E+00  7.94591513E+00  8.04733241E+00
  8.30007205E+00  8.49459313E+00  8.65536751E+00  1.36040412E+01  1.47873136E+01
  1.50806919E+01  1.57203829E+01
Alpha MO coefficients                      R   N=       42849
  6.63829724E-05 -6.64663373E-05 -1.12040272E-03  1.57724082E-05 -5.26889871E-05
  4.31227678E-05  0.00000000E+00 -8.32593070E-05 -3.06576557E-04  0.00000000E+00
  2.52422804E-05 -3.45869188E-04  0.00000000E+00  4.40265785E-05  0.00000000E+00
  0.00000000E+00 -2.68287735E-05  1.10444938E-05  2.23066977E-04  0.00000000E+00
  0.00000000E+00 -3.86016963E-05 -2.01425695E-04  3.25277677E-03 -9.59590522E-05
 -9.38440421E-05  3.61089501E-03  2.50394565E-03  1.05207517E-04 -5.19768497E-05
  0.00000000E+00 -7.47654701E-04  2.75087328E-04  0.00000000E+00 -2.04880459E-03
  1.03016166E-03  0.00000000E+00 -5.48308806E-04  4.67353168E-05  0.00000000E+00
  2.04985188E-05  0.00000000E+00  0.00000000E+00 -1.05054837E-05  4.36366166E-05
 -4.47573045E-04  0.00000000E+00  0.00000000E+00  4.55413921E-04 -6.48447545E-04
 -3.69765797E-04  0.00000000E+00  0.00000000E+00  5.80145076E-04 -7.07198057E-04
  0.00000000E+00  7.58166660E-05 -5.17524907E-05  0.00000000E+00  0.00000000E+00
 -3.19782005E-05  1.06284745E-04  0.00000000E+00  2.06436397E-04 -4.51711918E-05
  0.00000000E+00  0.00000000E+00 -1.92180694E-04  2.93308175E-04  9.76900841E-01
 -9.16586958E-03  4.34151464E-02  4.66768886E-04 -2.18044724E-03  4.66552974E-04
 -2.14091417E-03  0.00000000E+00 -3.33759271E-04  2.23827662E-03  0.00000000E+00
 -2.37953571E-03 -4.52202554E-04  0.00000000E+00 -2.50865597E-04  8.49952514E-05
  0.00000000E+00  5.20696768E-06  0.00000000E+00  0.00000000E+00 -2.83523173E-06
  3.96673700E-05  8.33040575E-04  0.00000000E+00  0.00000000E+00 -4.96181692E-04
 -1.87360707E-04 -1.38132736E-04  0.00000000E+00  0.00000000E+00 -5.16365307E-04
  3.59953051E-04  0.00000000E+00 -6.38857773E-06 -7.83227142E-05  0.00000000E+00
  0.00000000E+00 -9.90205830E-06  4.81752489E-05  0.00000000E+00  9.58836738E-05
 -8.57998001E-07  0.00000000E+00  0.00000000E+00 -3.52862084E-04  3.79385427E-04
  1.05122174E-04  4.62648703E-04 -3.23213693E-04 -8.53874617E-04  2.84835220E-04
 -4.54330194E-05 -1.00215140E-04  0.00000000E+00  7.12879993E-04  1.11976912E-03
  0.00000000E+00 -7.61849092E-04 -7.15997021E-04  0.00000000E+00  1.83716155E-04
  2.02500471E-04  0.00000000E+00 -5.33947518E-05  0.00000000E+00  0.00000000E+00
  1.94776399E-05  9.33196504E-05 -4.12136764E-04  0.00000000E+00  0.00000000E+00
  6.60060547E-05  1.08751173E-03  3.10836372E-05  0.00000000E+00  0.00000000E+00
 -3.03199749E-04  1.86833225E-05  0.00000000E+00 -7.92565119E-05 -1.14324909E-04
  0.00000000E+00  0.00000000E+00 -9.39476384E-05  1.06461407E-04  0.00000000E+00
 -1.20408976E-04  5.33810014E-05  0.00000000E+00  0.00000000E+00  2.94035504E-05
  5.33231868E-04 -7.27159065E-04  4.75660192E-05 -7.16867340E-05  1.88749393E-04
 -1.31562408E-04 -2.87192691E-05 -4.22587130E-05  0.00000000E+00  1.67562167E-04
  2.60094885E-04  0.00000000E+00  5.38016973E-04  3.32915623E-04  0.00000000E+00
 -2.09546493E-04 -5.34433345E-05  0.00000000E+00 -1.32341351E-05  0.00000000E+00
  0.00000000E+00  3.85393594E-06  1.47678892E-05 -2.51204697E-06  0.00000000E+00
  0.00000000E+00 -1.70402805E-04  1.20794658E-05 -2.84445886E-05  0.00000000E+00
  0.00000000E+00 -1.70429057E-04 -3.74806281E-05  0.00000000E+00 -5.47788734E-06
 -9.04217390E-06  0.00000000E+00  0.00000000E+00 -2.23391909E-05  9.03115268E-06
  0.00000000E+00  3.91184213E-05  5.98963875E-05  0.00000000E+00  0.00000000E+00
  1.60391677E-04 -1.03535305E-04  4.05836216E-05  6.64375118E-05 -1.31160269E-04
 -2.84436213E-05  9.78925776E-06  3.71111669E-06  0.00000000E+00  2.54250825E-04
  7.55591500E-05  0.00000000E+00  1.38710920E-04  3.14863097E-05  0.00000000E+00
  1.69136241E-05  0.00000000E+00  0.00000000E+00 -1.69525580E-05  1.23980763E-05
  2.92023056E-05  0.00000000E+00  0.00000000E+00 -1.07412668E-04  5.36992666E-05
 -2.67366623E-04  1.28818872E-05 -1.50489639E-05 -5.44713016E-04  1.62122984E-04
  6.06418174E-06  1.43277024E-05  0.00000000E+00  8.90313426E-06 -4.15641240E-05
  0.00000000E+00  1.64465564E-04  1.23131924E-04  0.00000000E+00 -5.18166474E-05
  4.53323076E-05  0.00000000E+00 -5.89114323E-08  0.00000000E+00  0.00000000E+00
 -7.68001623E-06 -1.30685187E-05  1.57302489E-05  0.00000000E+00  0.00000000E+00
  3.84613151E-05  1.11439566E-04  5.55094316E-05  0.00000000E+00  0.00000000E+00
 -1.72128534E-05 -6.86176608E-05  0.00000000E+00  7.15036862E-06  1.12521698E-05
  0.00000000E+00  0.00000000E+00 -2.63041016E-07 -2.19493942E-05  0.00000000E+00
 -1.11847759E-05 -3.16427382E-05  0.00000000E+00  0.00000000E+00  3.01781978E-06
 -2.50400380E-05  7.55543064E-04  2.23107818E-05 -1.82483824E-05  3.00835742E-04
 -3.77399486E-04  1.62839165E-05  2.71548370E-05  0.00000000E+00 -6.47082695E-05
 -1.52701665E-04  0.00000000E+00  1.46329634E-04 -1.89280562E-04  0.00000000E+00
 -1.55020829E-04  1.39893812E-04  0.00000000E+00 -3.95111707E-06  0.00000000E+00
  0.00000000E+00 -2.98318629E-05 -9.46211791E-06 -5.21203209E-05  0.00000000E+00
  0.00000000E+00  8.34531838E-05  1.20375334E-04 -6.62819573E-05  0.00000000E+00
  0.00000000E+00  5.64689423E-05  2.88175867E-05  0.00000000E+00  2.76478754E-06
  3.25178644E-06  0.00000000E+00  0.00000000E+00 -7.49831488E-06 -1.73653536E-06
  0.00000000E+00  4.26762951E-06 -2.48171770E-05  0.00000000E+00  0.00000000E+00
  9.27959219E-05 -1.58137890E-04  2.37694678E-04  1.36034639E-03 -1.48032553E-04
 -6.79775274E-04  8.90075795E-04  6.27025588E-05 -7.12040884E-05  0.00000000E+00
  5.64829967E-04 -2.08698619E-03  0.00000000E+00  1.20208201E-04  4.70836136E-04
  0.00000000E+00  1.80783698E-04 -3.07220536E-04  0.00000000E+00 -1.28055361E-04
  0.00000000E+00  0.00000000E+00 -2.05298933E-04 -1.57220440E-04 -4.60252583E-04
  0.00000000E+00  0.00000000E+00 -6.09767312E-04 -9.12878133E-04 -4.09096828E-05
  0.00000000E+00  0.00000000E+00  6.32690788E-05  1.10036628E-04  0.00000000E+00
  8.51024947E-06  3.67278994E-05  0.00000000E+00  0.00000000E+00 -2.40715622E-05
 -3.77027431E-06  0.00000000E+00 -1.33405581E-04  1.60526288E-04  0.00000000E+00
  0.00000000E+00 -3.14017361E-04 -2.53227770E-05  9.76647423E-01 -9.88703155E-03
  4.35732893E-02  3.67051394E-03 -8.88448819E-04 -4.46578189E-04  2.13255575E-03
  0.00000000E+00  5.05412545E-04 -2.50654213E-03  0.00000000E+00 -5.65303811E-05
  8.03573148E-04  0.00000000E+00  1.04988793E-04 -6.51065837E-05  0.00000000E+00
 -1.94287028E-04  0.00000000E+00  0.00000000E+00 -7.50887073E-05 -4.32519728E-05
  4.09583049E-04  0.00000000E+00  0.00000000E+00  8.61469529E-04  4.78364440E-04
 -2.08561528E-04  0.00000000E+00  0.00000000E+00 -1.33014984E-04 -3.81548659E-05
  0.00000000E+00 -3.91135115E-06  7.04232005E-05  0.00000000E+00  0.00000000E+00
 -3.02786503E-05  1.07916664E-05  0.00000000E+00 -9.01932177E-05  9.23219059E-05
  0.00000000E+00  0.00000000E+00 -1.60322909E-04  2.06703894E-04  3.81179964E-04
  2.00103658E-03  1.25032607E-03 -2.02529140E-05  4.57139424E-05  2.71545098E-04
  0.00000000E+00  3.92912304E-04  1.04690019E-03  0.00000000E+00 -8.15201172E-05
  2.40864026E-04  0.00000000E+00 -2.36829924E-05  0.00000000E+00  0.00000000E+00
  3.04434046E-05 -2.56262599E-05 -2.05299923E-04  0.00000000E+00  0.00000000E+00
 -3.59403547E-04  3.81186421E-04  9.76837837E-01 -9.18431172E-03  4.34588861E-02
  1.57868987E-04 -1.91868372E-03 -2.02647573E-03 -8.80862862E-04  0.00000000E+00
  2.06399615E-03  8.18100982E-04  0.00000000E+00 -4.22254274E-04  6.65197680E-04
  0.00000000E+00  2.24863490E-04 -2.91282275E-04  0.00000000E+00  3.22423702E-05
  0.00000000E+00  0.00000000E+00 -7.67004205E-05  5.90690262E-05  7.66836208E-04
  0.00000000E+00  0.00000000E+00 -2.15338947E-04  3.44201538E-04 -2.31761819E-04
  0.00000000E+00  0.00000000E+00  3.46860022E-04  3.53448231E-06  0.00000000E+00
 -8.02593902E-05  2.05543540E-07  0.00000000E+00  0.00000000E+00  1.81339201E-05