 Entering Gaussian System, Link 0=g16
 Input=hoono_a3_110p5423.gjf
 Output=hoono_a3_110p5423.log
 Initial command:
 /sw/contrib/gaussian/g16/B01/g16/l1.exe "/scr/Gau-593.inp" -scrdir="/scr/"
 Entering Link 1 = /sw/contrib/gaussian/g16/B01/g16/l1.exe PID=       594.
  
 Copyright (c) 1988-2017, Gaussian, Inc.  All Rights Reserved.
  
 This is part of the Gaussian(R) 16 program.  It is based on
 the Gaussian(R) 09 system (copyright 2009, Gaussian, Inc.),
 the Gaussian(R) 03 system (copyright 2003, Gaussian, Inc.),
 the Gaussian(R) 98 system (copyright 1998, Gaussian, Inc.),
 the Gaussian(R) 94 system (copyright 1995, Gaussian, Inc.),
 the Gaussian 92(TM) system (copyright 1992, Gaussian, Inc.),
 the Gaussian 90(TM) system (copyright 1990, Gaussian, Inc.),
 the Gaussian 88(TM) system (copyright 1988, Gaussian, Inc.),
 the Gaussian 86(TM) system (copyright 1986, Carnegie Mellon
 University), and the Gaussian 82(TM) system (copyright 1983,
 Carnegie Mellon University). Gaussian is a federally registered
 trademark of Gaussian, Inc.
  
 This software contains proprietary and confidential information,
 including trade secrets, belonging to Gaussian, Inc.
  
 This software is provided under written license and may be
 used, copied, transmitted, or stored only in accord with that
 written license.
  
 The following legend is applicable only to US Government
 contracts under FAR:
  
                    RESTRICTED RIGHTS LEGEND
  
 Use, reproduction and disclosure by the US Government is
 subject to restrictions as set forth in subparagraphs (a)
 and (c) of the Commercial Computer Software - Restricted
 Rights clause in FAR 52.227-19.
  
 Gaussian, Inc.
 340 Quinnipiac St., Bldg. 40, Wallingford CT 06492
  
  
 ---------------------------------------------------------------
 Warning -- This program may not be used in any manner that
 competes with the business of Gaussian, Inc. or will provide
 assistance to any competitor of Gaussian, Inc.  The licensee
 of this program is prohibited from giving any competitor of
 Gaussian, Inc. access to this program.  By using this program,
 the user acknowledges that Gaussian, Inc. is engaged in the
 business of creating and licensing software in the field of
 computational chemistry and represents and warrants to the
 licensee that it is not a competitor of Gaussian, Inc. and that
 it will not use this program in any manner prohibited above.
 ---------------------------------------------------------------
  

 Cite this work as:
 Gaussian 16, Revision B.01,
 M. J. Frisch, G. W. Trucks, H. B. Schlegel, G. E. Scuseria, 
 M. A. Robb, J. R. Cheeseman, G. Scalmani, V. Barone, 
 G. A. Petersson, H. Nakatsuji, X. Li, M. Caricato, A. V. Marenich, 
 J. Bloino, B. G. Janesko, R. Gomperts, B. Mennucci, H. P. Hratchian, 
 J. V. Ortiz, A. F. Izmaylov, J. L. Sonnenberg, D. Williams-Young, 
 F. Ding, F. Lipparini, F. Egidi, J. Goings, B. Peng, A. Petrone, 
 T. Henderson, D. Ranasinghe, V. G. Zakrzewski, J. Gao, N. Rega, 
 G. Zheng, W. Liang, M. Hada, M. Ehara, K. Toyota, R. Fukuda, 
 J. Hasegawa, M. Ishida, T. Nakajima, Y. Honda, O. Kitao, H. Nakai, 
 T. Vreven, K. Throssell, J. A. Montgomery, Jr., J. E. Peralta, 
 F. Ogliaro, M. J. Bearpark, J. J. Heyd, E. N. Brothers, K. N. Kudin, 
 V. N. Staroverov, T. A. Keith, R. Kobayashi, J. Normand, 
 K. Raghavachari, A. P. Rendell, J. C. Burant, S. S. Iyengar, 
 J. Tomasi, M. Cossi, J. M. Millam, M. Klene, C. Adamo, R. Cammi, 
 J. W. Ochterski, R. L. Martin, K. Morokuma, O. Farkas, 
 J. B. Foresman, and D. J. Fox, Gaussian, Inc., Wallingford CT, 2016.
 
 ******************************************
 Gaussian 16:  ES64L-G16RevB.01 20-Dec-2017
                21-Feb-2022 
 ******************************************
 %nproc=28
 Will use up to   28 processors via shared memory.
 %mem=120GB
 %chk=hoono_a3_110p5423.chk
 ---------------------------------------
 #p freq mp2/aug-cc-pvtz density=current
 ---------------------------------------
 1/10=4,30=1,38=1/1,3;
 2/12=2,17=6,18=5,40=1/2;
 3/5=16,6=1,7=10,11=9,25=1,30=1,71=2,140=1/1,2,3;
 4//1;
 5/5=2,38=5,98=1/2;
 8/6=3,8=1,10=1,19=11,30=-1/1;
 9/15=3,16=-3/6;
 11/6=1,8=1,15=11,17=12,24=-1,27=1,28=-2,29=300,32=6,42=3/1,2,10;
 10/6=2,21=1/2;
 8/6=4,8=1,10=1,19=11,30=-1/11,4;
 10/5=1,20=4/2;
 11/12=2,14=11,16=1,17=2,28=-2,42=3,76=2/2,10,12;
 6/7=2,8=2,9=2,10=2,22=-1/1;
 7/8=1,10=1,12=2,25=1,44=2/1,2,3,16;
 1/10=4,30=1/3;
 99//99;
 Leave Link    1 at Mon Feb 21 20:51:33 2022, MaxMem= 16106127360 cpu:               2.5 elap:               0.1
 (Enter /sw/contrib/gaussian/g16/B01/g16/l101.exe)
 -----
 title
 -----
 Symbolic Z-matrix:
 Charge =  0 Multiplicity = 1
 H
 O                    1    r1
 O                    2    r2       1    a1
 N                    3    r3       2    a2       1    d1       0
 O                    4    r4       3    a3       2    d2       0
       Variables:
  r1                    0.96898                  
  r2                    1.45492                  
  r3                    1.45878                  
  r4                    1.17073                  
  a1                   97.59495                  
  a2                  102.29752                  
  a3                  110.54238                  
  d1                  180.                       
  d2                  180.                       
 
 ITRead=  0  0  0  0  0
 MicOpt= -1 -1 -1 -1 -1
 NAtoms=      5 NQM=        5 NQMF=       0 NMMI=      0 NMMIF=      0
                NMic=       0 NMicF=      0.
                    Isotopes and Nuclear Properties:
 (Nuclear quadrupole moments (NQMom) in fm**2, nuclear magnetic moments (NMagM)
  in nuclear magnetons)

  Atom         1           2           3           4           5
 IAtWgt=           1          16          16          14          16
 AtmWgt=   1.0078250  15.9949146  15.9949146  14.0030740  15.9949146
 NucSpn=           1           0           0           2           0
 AtZEff=  -0.0000000  -0.0000000  -0.0000000  -0.0000000  -0.0000000
 NQMom=    0.0000000   0.0000000   0.0000000   2.0440000   0.0000000
 NMagM=    2.7928460   0.0000000   0.0000000   0.4037610   0.0000000
 AtZNuc=   1.0000000   8.0000000   8.0000000   7.0000000   8.0000000
 Leave Link  101 at Mon Feb 21 20:51:33 2022, MaxMem= 16106127360 cpu:               3.1 elap:               0.1
 (Enter /sw/contrib/gaussian/g16/B01/g16/l103.exe)

 GradGradGradGradGradGradGradGradGradGradGradGradGradGradGradGradGradGrad
 Berny optimization.
 Initialization pass.
                       ----------------------------
                       !    Initial Parameters    !
                       ! (Angstroms and Degrees)  !
 ----------------------                            ----------------------
 !      Name          Value   Derivative information (Atomic Units)     !
 ------------------------------------------------------------------------
 !       r1          0.969    calculate D2E/DX2 analytically            !
 !       r2          1.4549   calculate D2E/DX2 analytically            !
 !       r3          1.4588   calculate D2E/DX2 analytically            !
 !       r4          1.1707   calculate D2E/DX2 analytically            !
 !       a1         97.5949   calculate D2E/DX2 analytically            !
 !       a2        102.2975   calculate D2E/DX2 analytically            !
 !       a3        110.5424   calculate D2E/DX2 analytically            !
 !       d1        180.0      calculate D2E/DX2 analytically            !
 !       d2        180.0      calculate D2E/DX2 analytically            !
 ------------------------------------------------------------------------
 Trust Radius=3.00D-01 FncErr=1.00D-07 GrdErr=1.00D-07 EigMax=2.50D+02 EigMin=1.00D-04
 Number of steps in this run=      2 maximum allowed number of steps=      2.
 GradGradGradGradGradGradGradGradGradGradGradGradGradGradGradGradGradGrad

 Leave Link  103 at Mon Feb 21 20:51:34 2022, MaxMem= 16106127360 cpu:               1.7 elap:               0.1
 (Enter /sw/contrib/gaussian/g16/B01/g16/l202.exe)
                          Input orientation:                          
 ---------------------------------------------------------------------
 Center     Atomic      Atomic             Coordinates (Angstroms)
 Number     Number       Type             X           Y           Z
 ---------------------------------------------------------------------
      1          1           0        0.000000    0.000000    0.000000
      2          8           0        0.000000    0.000000    0.968976
      3          8           0        1.442156    0.000000    1.161271
      4          7           0        1.561752    0.000000    2.615144
      5          8           0        2.688026    0.000000    2.934693
 ---------------------------------------------------------------------
                    Distance matrix (angstroms):
                    1          2          3          4          5
     1  H    0.000000
     2  O    0.968976   0.000000
     3  O    1.851584   1.454919   0.000000
     4  N    3.045989   2.269127   1.458784   0.000000
     5  O    3.979687   3.330095   2.167307   1.170729   0.000000
 Stoichiometry    HNO3
 Framework group  CS[SG(HNO3)]
 Deg. of freedom     7
 Full point group                 CS      NOp   2
 Largest Abelian subgroup         CS      NOp   2
 Largest concise Abelian subgroup C1      NOp   1
                         Standard orientation:                         
 ---------------------------------------------------------------------
 Center     Atomic      Atomic             Coordinates (Angstroms)
 Number     Number       Type             X           Y           Z
 ---------------------------------------------------------------------
      1          1           0        1.550955    1.691817   -0.000000
      2          8           0        1.454152    0.727689   -0.000000
      3          8           0       -0.000000    0.680431   -0.000000
      4          7           0       -0.264244   -0.754221    0.000000
      5          8           0       -1.416808   -0.959653    0.000000
 ---------------------------------------------------------------------
 Rotational constants (GHZ):          55.3371650           4.9755773           4.5651107
 Leave Link  202 at Mon Feb 21 20:51:34 2022, MaxMem= 16106127360 cpu:               0.9 elap:               0.1
 (Enter /sw/contrib/gaussian/g16/B01/g16/l301.exe)
 Standard basis: Aug-CC-pVTZ (5D, 7F)
 Ernie: Thresh=  0.10000D-02 Tol=  0.10000D-05 Strict=F.
 Ernie:  12 primitive shells out of 131 were deleted.
 There are   166 symmetry adapted cartesian basis functions of A'  symmetry.
 There are    79 symmetry adapted cartesian basis functions of A"  symmetry.
 There are   136 symmetry adapted basis functions of A'  symmetry.
 There are    71 symmetry adapted basis functions of A"  symmetry.
   207 basis functions,   315 primitive gaussians,   245 cartesian basis functions
    16 alpha electrons       16 beta electrons
       nuclear repulsion energy       116.6956711220 Hartrees.
 IExCor=    0 DFT=F Ex=HF Corr=None ExCW=0 ScaHFX=  1.000000
 ScaDFX=  1.000000  1.000000  1.000000  1.000000 ScalE2=  1.000000  1.000000
 IRadAn=      5 IRanWt=     -1 IRanGd=            0 ICorTp=0 IEmpDi=  4
 NAtoms=    5 NActive=    5 NUniq=    5 SFac= 1.00D+00 NAtFMM=   60 NAOKFM=F Big=F
 Integral buffers will be    131072 words long.
 Raffenetti 1 integral format.
 Two-electron integral symmetry is turned on.
 Leave Link  301 at Mon Feb 21 20:51:34 2022, MaxMem= 16106127360 cpu:               1.9 elap:               0.1
 (Enter /sw/contrib/gaussian/g16/B01/g16/l302.exe)
 NPDir=0 NMtPBC=     1 NCelOv=     1 NCel=       1 NClECP=     1 NCelD=      1
         NCelK=      1 NCelE2=     1 NClLst=     1 CellRange=     0.0.
 One-electron integrals computed using PRISM.
 One-electron integral symmetry used in STVInt
 NBasis=   207 RedAO= T EigKep=  1.82D-04  NBF=   136    71
 NBsUse=   207 1.00D-06 EigRej= -1.00D+00 NBFU=   136    71
 Leave Link  302 at Mon Feb 21 20:51:34 2022, MaxMem= 16106127360 cpu:               5.0 elap:               0.2
 (Enter /sw/contrib/gaussian/g16/B01/g16/l303.exe)
 DipDrv:  MaxL=1.
 Leave Link  303 at Mon Feb 21 20:51:34 2022, MaxMem= 16106127360 cpu:               0.9 elap:               0.1
 (Enter /sw/contrib/gaussian/g16/B01/g16/l401.exe)
 ExpMin= 2.53D-02 ExpMax= 1.53D+04 ExpMxC= 5.22D+02 IAcc=3 IRadAn=         5 AccDes= 0.00D+00
 Harris functional with IExCor=  205 and IRadAn=       5 diagonalized for initial guess.
 HarFok:  IExCor=  205 AccDes= 0.00D+00 IRadAn=         5 IDoV= 1 UseB2=F ITyADJ=14
 ICtDFT=  3500011 ScaDFX=  1.000000  1.000000  1.000000  1.000000
 FoFCou: FMM=F IPFlag=           0 FMFlag=      100000 FMFlg1=           0
         NFxFlg=           0 DoJE=T BraDBF=F KetDBF=T FulRan=T
         wScrn=  0.000000 ICntrl=       500 IOpCl=  0 I1Cent=   200000004 NGrid=           0
         NMat0=    1 NMatS0=      1 NMatT0=    0 NMatD0=    1 NMtDS0=    0 NMtDT0=    0
 Petite list used in FoFCou.
 Harris En= -279.628545652977    
 JPrj=0 DoOrth=F DoCkMO=F.
 Initial guess orbital symmetries:
       Occupied  (A') (A') (A') (A') (A') (A') (A') (A') (A') (A')
                 (A") (A') (A') (A") (A") (A')
       Virtual   (A") (A') (A') (A') (A') (A') (A") (A') (A') (A')
                 (A") (A') (A") (A') (A') (A") (A') (A") (A') (A')
                 (A') (A') (A') (A') (A') (A") (A') (A") (A') (A')
                 (A") (A') (A") (A') (A') (A") (A') (A") (A') (A')
                 (A") (A') (A") (A') (A") (A') (A') (A') (A") (A")
                 (A') (A') (A') (A') (A") (A') (A") (A') (A") (A')
                 (A') (A') (A") (A') (A') (A") (A') (A") (A') (A')
                 (A") (A') (A') (A") (A") (A') (A') (A") (A') (A')
                 (A') (A") (A') (A") (A') (A") (A') (A") (A') (A')
                 (A') (A") (A') (A") (A') (A") (A") (A') (A') (A")
                 (A') (A') (A") (A') (A') (A') (A") (A') (A") (A')
                 (A") (A') (A') (A') (A") (A') (A') (A') (A") (A')
                 (A") (A') (A') (A") (A") (A') (A') (A") (A") (A')
                 (A') (A') (A') (A") (A") (A') (A") (A') (A') (A')
                 (A') (A") (A") (A') (A') (A") (A') (A') (A') (A')
                 (A") (A') (A') (A") (A') (A") (A') (A") (A") (A')
                 (A') (A") (A') (A") (A') (A") (A") (A") (A') (A')
                 (A") (A') (A") (A') (A") (A') (A") (A") (A') (A')
                 (A') (A') (A') (A') (A') (A') (A') (A') (A') (A')
                 (A')
 The electronic state of the initial guess is 1-A'.
 Leave Link  401 at Mon Feb 21 20:51:34 2022, MaxMem= 16106127360 cpu:               6.7 elap:               0.3
 (Enter /sw/contrib/gaussian/g16/B01/g16/l502.exe)
 Keep R1 ints in memory in symmetry-blocked form, NReq=348887737.
 FoFCou: FMM=F IPFlag=           0 FMFlag=           0 FMFlg1=           0
         NFxFlg=           0 DoJE=F BraDBF=F KetDBF=F FulRan=T
         wScrn=  0.000000 ICntrl=       600 IOpCl=  0 I1Cent=           0 NGrid=           0
         NMat0=    1 NMatS0=  21528 NMatT0=    0 NMatD0=    1 NMtDS0=    0 NMtDT0=    0
 Petite list used in FoFCou.
 Closed shell SCF:
 Using DIIS extrapolation, IDIIS=  1040.
 NGot= 16106127360 LenX= 15988850015 LenY= 15988789549
 Requested convergence on RMS density matrix=1.00D-08 within 128 cycles.
 Requested convergence on MAX density matrix=1.00D-06.
 Requested convergence on             energy=1.00D-06.
 No special actions if energy rises.

 Cycle   1  Pass 1  IDiag  1:
 E= -279.370654312729    
 DIIS: error= 2.91D-02 at cycle   1 NSaved=   1.
 NSaved= 1 IEnMin= 1 EnMin= -279.370654312729     IErMin= 1 ErrMin= 2.91D-02
 ErrMax= 2.91D-02  0.00D+00 EMaxC= 1.00D-01 BMatC= 4.38D-01 BMatP= 4.38D-01
 IDIUse=3 WtCom= 7.09D-01 WtEn= 2.91D-01
 Coeff-Com:  0.100D+01
 Coeff-En:   0.100D+01
 Coeff:      0.100D+01
 Gap=     0.515 Goal=   None    Shift=    0.000
 GapD=    0.515 DampG=2.000 DampE=0.500 DampFc=1.0000 IDamp=-1.
 RMSDP=1.62D-03 MaxDP=9.75D-02              OVMax= 1.12D-01

 Cycle   2  Pass 1  IDiag  1:
 E= -279.452254991591     Delta-E=       -0.081600678861 Rises=F Damp=F
 DIIS: error= 1.77D-02 at cycle   2 NSaved=   2.
 NSaved= 2 IEnMin= 2 EnMin= -279.452254991591     IErMin= 2 ErrMin= 1.77D-02
 ErrMax= 1.77D-02  0.00D+00 EMaxC= 1.00D-01 BMatC= 7.15D-02 BMatP= 4.38D-01
 IDIUse=3 WtCom= 8.23D-01 WtEn= 1.77D-01
 Coeff-Com:  0.194D+00 0.806D+00
 Coeff-En:   0.000D+00 0.100D+01
 Coeff:      0.160D+00 0.840D+00
 Gap=     0.527 Goal=   None    Shift=    0.000
 RMSDP=9.01D-04 MaxDP=3.71D-02 DE=-8.16D-02 OVMax= 6.90D-02

 Cycle   3  Pass 1  IDiag  1:
 E= -279.481083925061     Delta-E=       -0.028828933470 Rises=F Damp=F
 DIIS: error= 1.03D-02 at cycle   3 NSaved=   3.
 NSaved= 3 IEnMin= 3 EnMin= -279.481083925061     IErMin= 3 ErrMin= 1.03D-02
 ErrMax= 1.03D-02  0.00D+00 EMaxC= 1.00D-01 BMatC= 2.90D-02 BMatP= 7.15D-02
 IDIUse=3 WtCom= 8.97D-01 WtEn= 1.03D-01
 Coeff-Com: -0.331D-01 0.380D+00 0.653D+00
 Coeff-En:   0.000D+00 0.244D+00 0.756D+00
 Coeff:     -0.297D-01 0.366D+00 0.664D+00
 Gap=     0.508 Goal=   None    Shift=    0.000
 RMSDP=3.77D-04 MaxDP=1.52D-02 DE=-2.88D-02 OVMax= 3.83D-02

 Cycle   4  Pass 1  IDiag  1:
 E= -279.500339471255     Delta-E=       -0.019255546194 Rises=F Damp=F
 DIIS: error= 1.31D-03 at cycle   4 NSaved=   4.
 NSaved= 4 IEnMin= 4 EnMin= -279.500339471255     IErMin= 4 ErrMin= 1.31D-03
 ErrMax= 1.31D-03  0.00D+00 EMaxC= 1.00D-01 BMatC= 4.90D-04 BMatP= 2.90D-02
 IDIUse=3 WtCom= 9.87D-01 WtEn= 1.31D-02
 Coeff-Com: -0.117D-01 0.578D-01 0.157D+00 0.797D+00
 Coeff-En:   0.000D+00 0.000D+00 0.000D+00 0.100D+01
 Coeff:     -0.115D-01 0.570D-01 0.155D+00 0.799D+00
 Gap=     0.500 Goal=   None    Shift=    0.000
 RMSDP=9.07D-05 MaxDP=2.80D-03 DE=-1.93D-02 OVMax= 1.12D-02

 Cycle   5  Pass 1  IDiag  1:
 E= -279.501014734029     Delta-E=       -0.000675262774 Rises=F Damp=F
 DIIS: error= 7.43D-04 at cycle   5 NSaved=   5.
 NSaved= 5 IEnMin= 5 EnMin= -279.501014734029     IErMin= 5 ErrMin= 7.43D-04
 ErrMax= 7.43D-04  0.00D+00 EMaxC= 1.00D-01 BMatC= 8.76D-05 BMatP= 4.90D-04
 IDIUse=3 WtCom= 9.93D-01 WtEn= 7.43D-03
 Coeff-Com:  0.608D-02-0.721D-01-0.117D+00 0.239D-01 0.116D+01
 Coeff-En:   0.000D+00 0.000D+00 0.000D+00 0.000D+00 0.100D+01
 Coeff:      0.604D-02-0.716D-01-0.116D+00 0.237D-01 0.116D+01
 Gap=     0.500 Goal=   None    Shift=    0.000
 RMSDP=7.61D-05 MaxDP=2.09D-03 DE=-6.75D-04 OVMax= 1.10D-02

 Cycle   6  Pass 1  IDiag  1:
 E= -279.501329915642     Delta-E=       -0.000315181613 Rises=F Damp=F
 DIIS: error= 2.95D-04 at cycle   6 NSaved=   6.
 NSaved= 6 IEnMin= 6 EnMin= -279.501329915642     IErMin= 6 ErrMin= 2.95D-04
 ErrMax= 2.95D-04  0.00D+00 EMaxC= 1.00D-01 BMatC= 1.68D-05 BMatP= 8.76D-05
 IDIUse=3 WtCom= 9.97D-01 WtEn= 2.95D-03
 Coeff-Com:  0.635D-03 0.118D-02 0.369D-02-0.130D+00-0.227D+00 0.135D+01
 Coeff-En:   0.000D+00 0.000D+00 0.000D+00 0.000D+00 0.000D+00 0.100D+01
 Coeff:      0.634D-03 0.118D-02 0.368D-02-0.130D+00-0.226D+00 0.135D+01
 Gap=     0.500 Goal=   None    Shift=    0.000
 RMSDP=4.56D-05 MaxDP=1.26D-03 DE=-3.15D-04 OVMax= 5.55D-03

 Cycle   7  Pass 1  IDiag  1:
 E= -279.501403480684     Delta-E=       -0.000073565042 Rises=F Damp=F
 DIIS: error= 1.24D-04 at cycle   7 NSaved=   7.
 NSaved= 7 IEnMin= 7 EnMin= -279.501403480684     IErMin= 7 ErrMin= 1.24D-04
 ErrMax= 1.24D-04  0.00D+00 EMaxC= 1.00D-01 BMatC= 4.65D-06 BMatP= 1.68D-05
 IDIUse=3 WtCom= 9.99D-01 WtEn= 1.24D-03
 Coeff-Com: -0.940D-03 0.137D-01 0.265D-01-0.254D-01-0.291D+00 0.400D+00
 Coeff-Com:  0.877D+00
 Coeff-En:   0.000D+00 0.000D+00 0.000D+00 0.000D+00 0.000D+00 0.000D+00
 Coeff-En:   0.100D+01
 Coeff:     -0.939D-03 0.137D-01 0.265D-01-0.253D-01-0.291D+00 0.400D+00
 Coeff:      0.877D+00
 Gap=     0.500 Goal=   None    Shift=    0.000
 RMSDP=1.34D-05 MaxDP=3.87D-04 DE=-7.36D-05 OVMax= 1.56D-03

 Cycle   8  Pass 1  IDiag  1:
 E= -279.501412628578     Delta-E=       -0.000009147894 Rises=F Damp=F
 DIIS: error= 5.90D-05 at cycle   8 NSaved=   8.
 NSaved= 8 IEnMin= 8 EnMin= -279.501412628578     IErMin= 8 ErrMin= 5.90D-05
 ErrMax= 5.90D-05  0.00D+00 EMaxC= 1.00D-01 BMatC= 6.10D-07 BMatP= 4.65D-06
 IDIUse=1 WtCom= 1.00D+00 WtEn= 0.00D+00
 Coeff-Com: -0.451D-03 0.348D-02 0.760D-02 0.277D-01-0.415D-01-0.196D+00
 Coeff-Com:  0.161D+00 0.104D+01
 Coeff:     -0.451D-03 0.348D-02 0.760D-02 0.277D-01-0.415D-01-0.196D+00
 Coeff:      0.161D+00 0.104D+01
 Gap=     0.500 Goal=   None    Shift=    0.000
 RMSDP=7.03D-06 MaxDP=2.04D-04 DE=-9.15D-06 OVMax= 7.66D-04

 Cycle   9  Pass 1  IDiag  1:
 E= -279.501414443660     Delta-E=       -0.000001815082 Rises=F Damp=F
 DIIS: error= 1.53D-05 at cycle   9 NSaved=   9.
 NSaved= 9 IEnMin= 9 EnMin= -279.501414443660     IErMin= 9 ErrMin= 1.53D-05
 ErrMax= 1.53D-05  0.00D+00 EMaxC= 1.00D-01 BMatC= 6.88D-08 BMatP= 6.10D-07
 IDIUse=1 WtCom= 1.00D+00 WtEn= 0.00D+00
 Coeff-Com:  0.121D-03-0.171D-02-0.303D-02-0.197D-02 0.340D-01-0.316D-03
 Coeff-Com: -0.162D+00-0.106D+00 0.124D+01
 Coeff:      0.121D-03-0.171D-02-0.303D-02-0.197D-02 0.340D-01-0.316D-03
 Coeff:     -0.162D+00-0.106D+00 0.124D+01
 Gap=     0.500 Goal=   None    Shift=    0.000
 RMSDP=1.95D-06 MaxDP=6.60D-05 DE=-1.82D-06 OVMax= 1.76D-04

 Cycle  10  Pass 1  IDiag  1:
 E= -279.501414604569     Delta-E=       -0.000000160910 Rises=F Damp=F
 DIIS: error= 4.12D-06 at cycle  10 NSaved=  10.
 NSaved=10 IEnMin=10 EnMin= -279.501414604569     IErMin=10 ErrMin= 4.12D-06
 ErrMax= 4.12D-06  0.00D+00 EMaxC= 1.00D-01 BMatC= 5.64D-09 BMatP= 6.88D-08
 IDIUse=1 WtCom= 1.00D+00 WtEn= 0.00D+00
 Coeff-Com:  0.317D-04-0.251D-03-0.334D-03-0.274D-02 0.172D-02 0.197D-01
 Coeff-Com: -0.127D-01-0.756D-01-0.790D-01 0.115D+01
 Coeff:      0.317D-04-0.251D-03-0.334D-03-0.274D-02 0.172D-02 0.197D-01
 Coeff:     -0.127D-01-0.756D-01-0.790D-01 0.115D+01
 Gap=     0.500 Goal=   None    Shift=    0.000
 RMSDP=5.15D-07 MaxDP=2.12D-05 DE=-1.61D-07 OVMax= 4.25D-05

 Cycle  11  Pass 1  IDiag  1:
 E= -279.501414617348     Delta-E=       -0.000000012779 Rises=F Damp=F
 DIIS: error= 2.05D-06 at cycle  11 NSaved=  11.
 NSaved=11 IEnMin=11 EnMin= -279.501414617348     IErMin=11 ErrMin= 2.05D-06
 ErrMax= 2.05D-06  0.00D+00 EMaxC= 1.00D-01 BMatC= 6.71D-10 BMatP= 5.64D-09
 IDIUse=1 WtCom= 1.00D+00 WtEn= 0.00D+00
 Coeff-Com: -0.213D-04 0.245D-03 0.486D-03 0.540D-03-0.430D-02-0.356D-02
 Coeff-Com:  0.204D-01 0.320D-01-0.139D+00-0.182D+00 0.128D+01
 Coeff:     -0.213D-04 0.245D-03 0.486D-03 0.540D-03-0.430D-02-0.356D-02
 Coeff:      0.204D-01 0.320D-01-0.139D+00-0.182D+00 0.128D+01
 Gap=     0.500 Goal=   None    Shift=    0.000
 RMSDP=1.82D-07 MaxDP=6.78D-06 DE=-1.28D-08 OVMax= 1.74D-05

 Cycle  12  Pass 1  IDiag  1:
 E= -279.501414619192     Delta-E=       -0.000000001844 Rises=F Damp=F
 DIIS: error= 6.01D-07 at cycle  12 NSaved=  12.
 NSaved=12 IEnMin=12 EnMin= -279.501414619192     IErMin=12 ErrMin= 6.01D-07
 ErrMax= 6.01D-07  0.00D+00 EMaxC= 1.00D-01 BMatC= 7.23D-11 BMatP= 6.71D-10
 IDIUse=1 WtCom= 1.00D+00 WtEn= 0.00D+00
 Coeff-Com:  0.121D-05-0.291D-04-0.624D-04 0.185D-03 0.108D-02-0.228D-02
 Coeff-Com: -0.413D-02 0.537D-02 0.419D-01-0.112D+00-0.283D+00 0.135D+01
 Coeff:      0.121D-05-0.291D-04-0.624D-04 0.185D-03 0.108D-02-0.228D-02
 Coeff:     -0.413D-02 0.537D-02 0.419D-01-0.112D+00-0.283D+00 0.135D+01
 Gap=     0.500 Goal=   None    Shift=    0.000
 RMSDP=7.24D-08 MaxDP=2.94D-06 DE=-1.84D-09 OVMax= 6.68D-06

 Cycle  13  Pass 1  IDiag  1:
 E= -279.501414619421     Delta-E=       -0.000000000229 Rises=F Damp=F
 DIIS: error= 1.73D-07 at cycle  13 NSaved=  13.
 NSaved=13 IEnMin=13 EnMin= -279.501414619421     IErMin=13 ErrMin= 1.73D-07
 ErrMax= 1.73D-07  0.00D+00 EMaxC= 1.00D-01 BMatC= 4.11D-12 BMatP= 7.23D-11
 IDIUse=1 WtCom= 1.00D+00 WtEn= 0.00D+00
 Coeff-Com:  0.128D-05-0.140D-04-0.222D-04-0.909D-04 0.118D-03 0.766D-03
 Coeff-Com: -0.788D-03-0.331D-02 0.355D-03 0.413D-01-0.340D-01-0.332D+00
 Coeff-Com:  0.133D+01
 Coeff:      0.128D-05-0.140D-04-0.222D-04-0.909D-04 0.118D-03 0.766D-03
 Coeff:     -0.788D-03-0.331D-02 0.355D-03 0.413D-01-0.340D-01-0.332D+00
 Coeff:      0.133D+01
 Gap=     0.500 Goal=   None    Shift=    0.000
 RMSDP=1.94D-08 MaxDP=5.64D-07 DE=-2.29D-10 OVMax= 1.58D-06

 Cycle  14  Pass 1  IDiag  1:
 E= -279.501414619435     Delta-E=       -0.000000000014 Rises=F Damp=F
 DIIS: error= 2.44D-08 at cycle  14 NSaved=  14.
 NSaved=14 IEnMin=14 EnMin= -279.501414619435     IErMin=14 ErrMin= 2.44D-08
 ErrMax= 2.44D-08  0.00D+00 EMaxC= 1.00D-01 BMatC= 2.03D-13 BMatP= 4.11D-12
 IDIUse=1 WtCom= 1.00D+00 WtEn= 0.00D+00
 Coeff-Com: -0.193D-06 0.317D-05 0.559D-05 0.475D-05-0.830D-04 0.433D-04
 Coeff-Com:  0.278D-03 0.242D-03-0.244D-02 0.128D-02 0.171D-01-0.248D-01
 Coeff-Com: -0.203D+00 0.121D+01
 Coeff:     -0.193D-06 0.317D-05 0.559D-05 0.475D-05-0.830D-04 0.433D-04
 Coeff:      0.278D-03 0.242D-03-0.244D-02 0.128D-02 0.171D-01-0.248D-01
 Coeff:     -0.203D+00 0.121D+01
 Gap=     0.500 Goal=   None    Shift=    0.000
 RMSDP=3.86D-09 MaxDP=9.33D-08 DE=-1.41D-11 OVMax= 3.49D-07

 SCF Done:  E(RHF) =  -279.501414619     A.U. after   14 cycles
            NFock= 14  Conv=0.39D-08     -V/T= 2.0024
 KE= 2.788358024256D+02 PE=-8.947015422132D+02 EE= 2.196686540461D+02
 Leave Link  502 at Mon Feb 21 20:51:38 2022, MaxMem= 16106127360 cpu:              58.8 elap:               3.8
 (Enter /sw/contrib/gaussian/g16/B01/g16/l801.exe)
 ExpMin= 2.53D-02 ExpMax= 1.53D+04 ExpMxC= 5.22D+02 IAcc=3 IRadAn=         5 AccDes= 0.00D+00
 HarFok:  IExCor=  205 AccDes= 0.00D+00 IRadAn=         5 IDoV=-2 UseB2=F ITyADJ=14
 ICtDFT= 12500011 ScaDFX=  1.000000  1.000000  1.000000  1.000000
 Largest valence mixing into a core orbital is  2.08D-04
 Largest core mixing into a valence orbital is  3.61D-05
 Range of M.O.s used for correlation:     5   207
 NBasis=   207 NAE=    16 NBE=    16 NFC=     4 NFV=     0
 NROrb=    203 NOA=    12 NOB=    12 NVA=   191 NVB=   191

 **** Warning!!: The largest alpha MO coefficient is  0.17758946D+02

 Leave Link  801 at Mon Feb 21 20:51:38 2022, MaxMem= 16106127360 cpu:               2.2 elap:               0.1
 (Enter /sw/contrib/gaussian/g16/B01/g16/l906.exe)
 Frozen-core derivative calculation, NFC=   4 NFV=   0.
 FulOut=F Deriv=T AODrv=T NAtomX=     5
   MMem=           0  MDisk=          12 MDiskD=          12
  W3Min=      811440 MinDsk=     2425030 NBas6D=         245
 NBas2D=       30762    NTT=       30135    LW2=     7400000
    MDV= 16105574311 MDiskM=      328644 NBas2p=       30702
 Disk-based method using ON**2 memory for 12 occupieds at a time.
 Permanent disk used for amplitudes=    11516536 words.
 Estimated scratch disk usage=   321251614 words.
 IMap=   1   2   3   4   5   6   7   8   9  10  11  12  13  14  15  16
 Actual    scratch disk usage=   310331678 words.
 JobTyp=1 Pass  1:  I=   5 to  16 NPSUse= 28 ParTrn=T ParDer=T DoDerP=T.
 (rs|ai) integrals will be sorted in core.
 Spin components of T(2) and E(2):
     alpha-alpha T2 =       0.3406141156D-01 E2=     -0.1224344944D+00
     alpha-beta  T2 =       0.1869325930D+00 E2=     -0.7002925835D+00
     beta-beta   T2 =       0.3406141156D-01 E2=     -0.1224344944D+00
 The integrals were generated   1 times.
 ANorm=    0.1120292558D+01
 E2 =    -0.9451615724D+00 EUMP2 =    -0.28044657619188D+03
 Leave Link  906 at Mon Feb 21 20:53:15 2022, MaxMem= 16106127360 cpu:            2703.2 elap:              96.7
 (Enter /sw/contrib/gaussian/g16/B01/g16/l1101.exe)
 Using compressed Sx but separate Hx and Fx, NAtomX=     5.
 Will process      6 centers per pass.
 Leave Link 1101 at Mon Feb 21 20:53:15 2022, MaxMem= 16106127360 cpu:               5.2 elap:               0.2
 (Enter /sw/contrib/gaussian/g16/B01/g16/l1102.exe)
 Leave Link 1102 at Mon Feb 21 20:53:15 2022, MaxMem= 16106127360 cpu:               0.8 elap:               0.1
 (Enter /sw/contrib/gaussian/g16/B01/g16/l1110.exe)
 Forming Gx(P) for the SCF density, NAtomX=     5.
 Integral derivatives from FoFJK, PRISM(SPDF).
 Do as many integral derivatives as possible in FoFJK.
 G2DrvN: MDV=   16106126844.
 G2DrvN: will do     6 centers at a time, making    1 passes.
 Calling FoFCou, ICntrl=  3107 FMM=F I1Cent=   0 AccDes= 0.00D+00.
 FoFJK:  IHMeth= 1 ICntrl=    3107 DoSepK=F KAlg= 0 I1Cent=           0 FoldK=F
 IRaf=         0 NMat=       1 IRICut=       1 DoRegI=T DoRafI=F ISym2E= 1 IDoP0=0 IntGTp=1.
 FoFCou: FMM=F IPFlag=           0 FMFlag=      100000 FMFlg1=           0
         NFxFlg=           0 DoJE=F BraDBF=F KetDBF=F FulRan=T
         wScrn=  0.000000 ICntrl=      3107 IOpCl=  0 I1Cent=           0 NGrid=           0
         NMat0=    1 NMatS0=      1 NMatT0=    0 NMatD0=    1 NMtDS0=    0 NMtDT0=    0
 Petite list used in FoFCou.
 End of G2Drv F.D. properties file   721 does not exist.
 End of G2Drv F.D. properties file   722 does not exist.
 End of G2Drv F.D. properties file   788 does not exist.
 Leave Link 1110 at Mon Feb 21 20:53:18 2022, MaxMem= 16106127360 cpu:              83.7 elap:               3.0
 (Enter /sw/contrib/gaussian/g16/B01/g16/l1002.exe)
 Minotr:  Closed shell wavefunction.
          IDoAtm=11111
          Frozen-core window.
          Direct CPHF calculation.
          Differentiating once with respect to electric field.
                with respect to dipole field.
          Differentiating once with respect to nuclear coordinates.
          Requested convergence is 1.0D-08 RMS, and 1.0D-07 maximum.
          Secondary convergence is 1.0D-12 RMS, and 1.0D-12 maximum.
          NewPWx=T KeepS1=T KeepF1=T KeepIn=T MapXYZ=F SortEE=F KeepMc=T.
 Keep R1 ints in memory in symmetry-blocked form, NReq=348888983.
 FoFCou: FMM=F IPFlag=           0 FMFlag=           0 FMFlg1=           0
         NFxFlg=           0 DoJE=F BraDBF=F KetDBF=F FulRan=T
         wScrn=  0.000000 ICntrl=       600 IOpCl=  0 I1Cent=           0 NGrid=           0
         NMat0=    1 NMatS0=  21528 NMatT0=    0 NMatD0=    1 NMtDS0=    0 NMtDT0=    0
 Petite list used in FoFCou.
          MDV=   16106127360 using IRadAn=       1.
          Solving linear equations simultaneously, MaxMat=       0.
          There are    18 degrees of freedom in the 1st order CPHF.  IDoFFX=6 NUNeed=    18.
     15 vectors produced by pass  0 Test12= 1.70D-14 5.56D-09 XBig12= 8.27D+00 1.03D+00.
 AX will form    15 AO Fock derivatives at one time.
     15 vectors produced by pass  1 Test12= 1.70D-14 5.56D-09 XBig12= 1.33D+00 2.61D-01.
     15 vectors produced by pass  2 Test12= 1.70D-14 5.56D-09 XBig12= 1.41D-01 9.69D-02.
     15 vectors produced by pass  3 Test12= 1.70D-14 5.56D-09 XBig12= 4.94D-03 1.11D-02.
     15 vectors produced by pass  4 Test12= 1.70D-14 5.56D-09 XBig12= 9.84D-05 1.87D-03.
     15 vectors produced by pass  5 Test12= 1.70D-14 5.56D-09 XBig12= 1.38D-06 1.67D-04.
     15 vectors produced by pass  6 Test12= 1.70D-14 5.56D-09 XBig12= 1.07D-08 1.45D-05.
     13 vectors produced by pass  7 Test12= 1.70D-14 5.56D-09 XBig12= 7.88D-11 1.26D-06.
      3 vectors produced by pass  8 Test12= 1.70D-14 5.56D-09 XBig12= 5.49D-13 1.18D-07.
      2 vectors produced by pass  9 Test12= 1.70D-14 5.56D-09 XBig12= 3.61D-15 9.79D-09.
 InvSVY:  IOpt=1 It=  1 EMax= 1.33D-15
 Solved reduced A of dimension   123 with    15 vectors.
 FullF1:  Do perturbations      1 to      18.
 Saving first derivative matrices.
 End of Minotr F.D. properties file   721 does not exist.
 End of Minotr F.D. properties file   722 does not exist.
 End of Minotr F.D. properties file   788 does not exist.
 Leave Link 1002 at Mon Feb 21 20:53:21 2022, MaxMem= 16106127360 cpu:              81.4 elap:               2.9
 (Enter /sw/contrib/gaussian/g16/B01/g16/l811.exe)
 MDV= 16106127360.
 Form MO integral derivatives with frozen-active canonical formalism.
 MOERI=1 MOERIx=1 NAtoms=     5 NAtomX=     5.
 Discarding MO integrals.
 MO basis two electron integral derivatives will not be stored on disk.
 IAlg= 3 DoFC=T DoPWx=T Debug=F.
 Frozen-core window:  NFC=   4 NFV=   0.
 Reordered first order wavefunction length =     18678272
 In DefCFB: NBatch=  1 ICI= 16 ICA=191 LFMax= 96
            Large arrays: LIAPS=   619940160 LIARS=   288257200 words.
 In StABat: MaxSiz= 55 MinSiz= 25 NAtomB=  5
 DoIAMN: NPSUse= 28.
 Leave Link  811 at Mon Feb 21 20:54:44 2022, MaxMem= 16106127360 cpu:            2300.6 elap:              82.4
 (Enter /sw/contrib/gaussian/g16/B01/g16/l804.exe)
 Frozen-core window:  NFC=   4 NFV=   0.
 Closed-shell transformation, MDV= 16106127360 ITran=4 ISComp=1.
 Semi-Direct transformation.
 ModeAB=           2 MOrb=            16 LenV=   16104923079
 LASXX=     67341636 LTotXX=    67341636 LenRXX=    67341636
 LTotAB=    68301760 MaxLAS=    99807120 LenRXY=    99807120
 NonZer=   134683272 LenScr=   202817536 LnRSAI=           0
 LnScr1=           0 LExtra=           0 Total=    369966292
 MaxDsk=          -1 SrtSym=           F ITran=            4
 DoSDTr:  NPSUse= 28
 JobTyp=0 Pass  1:  I=   1 to  16.
 (rs|ai) integrals will be sorted in core.
 Complete sort for first half transformation.
 First half transformation complete.
 Begin second half transformation for I=  10.
 Begin second half transformation for I=  10.
 Complete sort for second half transformation.
 Second half transformation complete.
 Spin components of T(2) and E(2):
     alpha-alpha T2 =       0.3406141156D-01 E2=     -0.1224344944D+00
     alpha-beta  T2 =       0.1869325930D+00 E2=     -0.7002925835D+00
     beta-beta   T2 =       0.3406141156D-01 E2=     -0.1224344944D+00
 ANorm=    0.1584332930D+01
 E2 =    -0.9451615724D+00 EUMP2 =    -0.28044657619188D+03
 Leave Link  804 at Mon Feb 21 20:54:59 2022, MaxMem= 16106127360 cpu:             426.9 elap:              15.3
 (Enter /sw/contrib/gaussian/g16/B01/g16/l1002.exe)
 Minotr:  Closed shell wavefunction.
          Computing MP2/KS-MP2 derivatives.
          Using Z-Vector for PSCF gradient.
          Skipping F1 and S1 gradient terms here.
          IDoAtm=11111
          Frozen-core window.
          Using MO integrals in the linear equations.
          Forming densities via direct SCF.
          Differentiating once with respect to electric field.
                with respect to dipole field.
          Differentiating once with respect to nuclear coordinates.
          Using symmetry in CPHF.
          Requested convergence is 1.0D-10 RMS, and 1.0D-09 maximum.
          NewPWx=F KeepS1=T KeepF1=T KeepIn=T MapXYZ=F SortEE=F KeepMc=T.
          MDV=   16106127360 using IRadAn=       5.
          Solving linear equations separately, MaxMat=       0.
          There are     1 degrees of freedom in the 1st order CPHF.  IDoFFX=0 NUNeed=     1.
 FoFJK:  IHMeth= 1 ICntrl=       0 DoSepK=F KAlg= 0 I1Cent=           0 FoldK=F
 IRaf=         0 NMat=       1 IRICut=       1 DoRegI=T DoRafI=F ISym2E= 0 IDoP0=0 IntGTp=1.
 FoFCou: FMM=F IPFlag=           0 FMFlag=      100000 FMFlg1=           0
         NFxFlg=           0 DoJE=F BraDBF=F KetDBF=F FulRan=T
         wScrn=  0.000000 ICntrl=         0 IOpCl=  0 I1Cent=           0 NGrid=           0
         NMat0=    1 NMatS0=      1 NMatT0=    0 NMatD0=    1 NMtDS0=    0 NMtDT0=    0
 Symmetry not used in FoFCou.
 LinEq1:  Iter=  0 NonCon=     1 RMS=5.98D-03 Max=1.34D-01 NDo=     1
 LinEq1:  Iter=  1 NonCon=     1 RMS=1.92D-03 Max=3.84D-02 NDo=     1
 LinEq1:  Iter=  2 NonCon=     1 RMS=8.74D-04 Max=1.41D-02 NDo=     1
 LinEq1:  Iter=  3 NonCon=     1 RMS=3.89D-04 Max=7.83D-03 NDo=     1
 LinEq1:  Iter=  4 NonCon=     1 RMS=1.21D-04 Max=1.96D-03 NDo=     1
 LinEq1:  Iter=  5 NonCon=     1 RMS=4.75D-05 Max=7.57D-04 NDo=     1
 LinEq1:  Iter=  6 NonCon=     1 RMS=2.11D-05 Max=2.39D-04 NDo=     1
 LinEq1:  Iter=  7 NonCon=     1 RMS=8.38D-06 Max=1.58D-04 NDo=     1
 LinEq1:  Iter=  8 NonCon=     1 RMS=3.53D-06 Max=3.45D-05 NDo=     1
 LinEq1:  Iter=  9 NonCon=     1 RMS=9.49D-07 Max=1.32D-05 NDo=     1
 LinEq1:  Iter= 10 NonCon=     1 RMS=1.86D-07 Max=2.01D-06 NDo=     1
 LinEq1:  Iter= 11 NonCon=     1 RMS=3.44D-08 Max=3.51D-07 NDo=     1
 LinEq1:  Iter= 12 NonCon=     1 RMS=8.32D-09 Max=1.24D-07 NDo=     1
 LinEq1:  Iter= 13 NonCon=     1 RMS=1.51D-09 Max=2.58D-08 NDo=     1
 LinEq1:  Iter= 14 NonCon=     1 RMS=2.74D-10 Max=3.83D-09 NDo=     1
 LinEq1:  Iter= 15 NonCon=     0 RMS=4.85D-11 Max=5.59D-10 NDo=     1
 Linear equations converged to 1.000D-10 1.000D-09 after    15 iterations.
 End of Minotr F.D. properties file   721 does not exist.
 End of Minotr F.D. properties file   722 does not exist.
 End of Minotr F.D. properties file   788 does not exist.
 Leave Link 1002 at Mon Feb 21 20:55:02 2022, MaxMem= 16106127360 cpu:              65.5 elap:               2.4
 (Enter /sw/contrib/gaussian/g16/B01/g16/l1102.exe)
 Use density number 2.
 Symmetrizing basis deriv contribution to polar:
 IMax=3 JMax=2 DiffMx= 0.00D+00
 Leave Link 1102 at Mon Feb 21 20:55:02 2022, MaxMem= 16106127360 cpu:               0.8 elap:               0.1
 (Enter /sw/contrib/gaussian/g16/B01/g16/l1110.exe)
 Forming Gx(P) for generalized density number  2 NAtomX=     5.
 Integral derivatives from FoFJK, PRISM(SPDF).
 Do as many integral derivatives as possible in FoFJK.
 G2DrvN: MDV=   16106126844.
 G2DrvN: will do     6 centers at a time, making    1 passes.
 Calling FoFCou, ICntrl=  3107 FMM=F I1Cent=   0 AccDes= 0.00D+00.
 FoFJK:  IHMeth= 1 ICntrl=    3107 DoSepK=F KAlg= 0 I1Cent=           0 FoldK=F
 IRaf=         0 NMat=       1 IRICut=       1 DoRegI=T DoRafI=F ISym2E= 1 IDoP0=0 IntGTp=1.
 FoFCou: FMM=F IPFlag=           0 FMFlag=      100000 FMFlg1=           0
         NFxFlg=           0 DoJE=F BraDBF=F KetDBF=F FulRan=T
         wScrn=  0.000000 ICntrl=      3107 IOpCl=  0 I1Cent=           0 NGrid=           0
         NMat0=    1 NMatS0=      1 NMatT0=    0 NMatD0=    1 NMtDS0=    0 NMtDT0=    0
 Petite list used in FoFCou.
 End of G2Drv F.D. properties file   721 does not exist.
 End of G2Drv F.D. properties file   722 does not exist.
 End of G2Drv F.D. properties file   788 does not exist.
 Leave Link 1110 at Mon Feb 21 20:55:05 2022, MaxMem= 16106127360 cpu:              91.2 elap:               3.3
 (Enter /sw/contrib/gaussian/g16/B01/g16/l1112.exe)
 MP22nd: MDV=   16106127360
 This link is doing NAtomX=     5 total of    18 degrees of freedom.
 Using ON3 I/O method in MakUI.
 Frozen-core window:  NFC=   4 NFV=   0.
 Using Ix for Sx.
 Use MO integrals over full window.
 Using OV2 memory method for fx*t*t/D, MaxI=    16 DoOO2=F NP=  28.
 R2 and R3 integrals will be kept in memory, NReq=   915591705.
 FoFCou: FMM=F IPFlag=           0 FMFlag=           0 FMFlg1=           0
         NFxFlg=           0 DoJE=F BraDBF=F KetDBF=F FulRan=T
         wScrn=  0.000000 ICntrl=       600 IOpCl=  0 I1Cent=           0 NGrid=           0
         NMat0=    1 NMatS0=      1 NMatT0=    0 NMatD0=    1 NMtDS0=    0 NMtDT0=    0
 Symmetry not used in FoFCou.
 DD1Dir will call FoFMem   1 times, MxPair=       272
 NAB=   136 NAA=     0 NBB=     0.
 Symmetry is being used.
 FoFJK:  IHMeth= 1 ICntrl=       0 DoSepK=F KAlg= 0 I1Cent=           0 FoldK=F
 IRaf=         0 NMat=      18 IRICut=      45 DoRegI=T DoRafI=T ISym2E= 2 IDoP0=3 IntGTp=3.
 Discarding MO integrals.
 Leave Link 1112 at Mon Feb 21 20:55:47 2022, MaxMem= 16106127360 cpu:            1159.1 elap:              42.0
 (Enter /sw/contrib/gaussian/g16/B01/g16/l601.exe)
 Copying SCF densities to generalized density rwf, IOpCl= 0 IROHF=0.

 **********************************************************************

            Population analysis using the MP2 Density.

 **********************************************************************

 Orbital symmetries:
       Occupied  (A') (A') (A') (A') (A') (A') (A') (A') (A') (A')
                 (A") (A') (A") (A') (A") (A')
       Virtual   (A') (A") (A') (A') (A') (A") (A') (A') (A") (A')
                 (A") (A') (A') (A') (A") (A') (A') (A") (A') (A')
                 (A') (A') (A') (A') (A") (A') (A') (A") (A') (A')
                 (A") (A') (A") (A') (A') (A") (A') (A') (A") (A')
                 (A") (A') (A") (A') (A') (A") (A') (A') (A") (A')
                 (A") (A') (A') (A') (A") (A') (A") (A') (A") (A')
                 (A') (A') (A") (A') (A') (A") (A') (A") (A') (A')
                 (A") (A') (A') (A") (A") (A') (A') (A") (A') (A')
                 (A') (A") (A') (A") (A') (A") (A') (A") (A') (A')
                 (A") (A') (A') (A") (A') (A") (A') (A") (A') (A')
                 (A") (A') (A") (A') (A') (A") (A') (A') (A") (A')
                 (A") (A') (A') (A') (A") (A') (A') (A') (A") (A')
                 (A") (A') (A") (A') (A') (A") (A") (A') (A") (A')
                 (A') (A') (A') (A") (A") (A") (A') (A') (A') (A')
                 (A") (A') (A") (A') (A') (A") (A') (A') (A') (A')
                 (A") (A') (A') (A") (A') (A") (A') (A") (A') (A")
                 (A') (A") (A') (A') (A") (A") (A") (A') (A") (A')
                 (A") (A') (A") (A') (A") (A') (A") (A") (A') (A')
                 (A') (A') (A') (A') (A') (A') (A') (A') (A') (A')
                 (A')
 The electronic state is 1-A'.
 Alpha  occ. eigenvalues --  -20.69150 -20.68481 -20.66090 -15.81231  -1.62283
 Alpha  occ. eigenvalues --   -1.49681  -1.25558  -0.94769  -0.77356  -0.75870
 Alpha  occ. eigenvalues --   -0.71152  -0.67975  -0.62102  -0.59068  -0.48591
 Alpha  occ. eigenvalues --   -0.47066
 Alpha virt. eigenvalues --    0.02952   0.07229   0.08565   0.10173   0.13404
 Alpha virt. eigenvalues --    0.13404   0.14403   0.15463   0.17810   0.19423
 Alpha virt. eigenvalues --    0.19975   0.20607   0.22081   0.23398   0.23719
 Alpha virt. eigenvalues --    0.26501   0.29452   0.30435   0.31072   0.34294
 Alpha virt. eigenvalues --    0.34996   0.38670   0.42138   0.43116   0.52596
 Alpha virt. eigenvalues --    0.53041   0.55911   0.58312   0.62681   0.63508
 Alpha virt. eigenvalues --    0.67405   0.68418   0.70863   0.71068   0.72459
 Alpha virt. eigenvalues --    0.72978   0.74615   0.78918   0.79133   0.80956
 Alpha virt. eigenvalues --    0.81216   0.82999   0.86829   0.90729   0.92160
 Alpha virt. eigenvalues --    0.92322   0.95677   0.98022   0.98432   1.01589
 Alpha virt. eigenvalues --    1.05218   1.05462   1.08159   1.11834   1.14031
 Alpha virt. eigenvalues --    1.18868   1.22379   1.23198   1.33814   1.34851
 Alpha virt. eigenvalues --    1.38363   1.45125   1.48807   1.51046   1.53910
 Alpha virt. eigenvalues --    1.56544   1.58011   1.61417   1.66340   1.66766
 Alpha virt. eigenvalues --    1.70462   1.79353   1.83328   1.83386   1.87574
 Alpha virt. eigenvalues --    1.91226   1.95548   1.99058   2.00984   2.07395
 Alpha virt. eigenvalues --    2.11873   2.13368   2.14836   2.22261   2.26078
 Alpha virt. eigenvalues --    2.26352   2.28988   2.31416   2.34005   2.38602
 Alpha virt. eigenvalues --    2.42160   2.42866   2.45711   2.46725   2.47581
 Alpha virt. eigenvalues --    2.50224   2.58981   2.59407   2.61636   2.62736
 Alpha virt. eigenvalues --    2.63499   2.66401   2.76220   2.83417   2.86397
 Alpha virt. eigenvalues --    2.87496   2.89464   2.90667   2.96490   3.02262
 Alpha virt. eigenvalues --    3.07316   3.11605   3.20486   3.23054   3.31379
 Alpha virt. eigenvalues --    3.34646   3.50653   3.64948   3.83857   3.84486
 Alpha virt. eigenvalues --    4.14767   4.15773   4.18277   4.25724   4.35573
 Alpha virt. eigenvalues --    4.39286   4.46331   4.51797   4.66821   4.70902
 Alpha virt. eigenvalues --    4.80828   4.81916   4.82678   4.89481   5.02145
 Alpha virt. eigenvalues --    5.07867   5.09887   5.14207   5.18529   5.24042
 Alpha virt. eigenvalues --    5.26947   5.31227   5.32835   5.35900   5.60999
 Alpha virt. eigenvalues --    5.67354   5.75250   5.82928   5.95811   6.16742
 Alpha virt. eigenvalues --    6.30644   6.34021   6.39368   6.49069   6.50140
 Alpha virt. eigenvalues --    6.61216   6.66757   6.69343   6.75672   6.76133
 Alpha virt. eigenvalues --    6.82550   6.90374   7.01240   7.05458   7.05687
 Alpha virt. eigenvalues --    7.08793   7.12620   7.14687   7.18055   7.22413
 Alpha virt. eigenvalues --    7.24069   7.30686   7.32468   7.34831   7.40029
 Alpha virt. eigenvalues --    7.43271   7.48655   7.60622   7.61523   7.63025
 Alpha virt. eigenvalues --    7.66068   7.77998   7.89486   8.09163   8.31401
 Alpha virt. eigenvalues --    8.40915   8.54534  13.37712  14.41102  15.15329
 Alpha virt. eigenvalues --   16.15038
          Condensed to atoms (all electrons):
               1          2          3          4          5
     1  H    0.589425   0.128807   0.019879   0.012282  -0.000692
     2  O    0.128807   8.317408  -0.171088  -0.091861   0.015177
     3  O    0.019879  -0.171088   8.469908  -0.135991  -0.033542
     4  N    0.012282  -0.091861  -0.135991   6.983716  -0.058190
     5  O   -0.000692   0.015177  -0.033542  -0.058190   8.269977
 Mulliken charges:
               1
     1  H    0.250298
     2  O   -0.198444
     3  O   -0.149166
     4  N    0.290043
     5  O   -0.192730
 Sum of Mulliken charges =  -0.00000
 Mulliken charges with hydrogens summed into heavy atoms:
               1
     2  O    0.051854
     3  O   -0.149166
     4  N    0.290043
     5  O   -0.192730
 APT charges:
               1
     1  H    0.300265
     2  O   -0.286534
     3  O   -0.506327
     4  N    0.887007
     5  O   -0.394411
 Sum of APT charges =  -0.00000
 APT charges with hydrogens summed into heavy atoms:
               1
     2  O    0.013731
     3  O   -0.506327
     4  N    0.887007
     5  O   -0.394411
 Electronic spatial extent (au):  <R**2>=            254.0851
 Charge=             -0.0000 electrons
 Dipole moment (field-independent basis, Debye):
    X=              0.5035    Y=              1.3794    Z=             -0.0000  Tot=              1.4684
 Quadrupole moment (field-independent basis, Debye-Ang):
   XX=            -22.4221   YY=            -18.6254   ZZ=            -22.0178
   XY=              3.2920   XZ=              0.0000   YZ=             -0.0000
 Traceless Quadrupole moment (field-independent basis, Debye-Ang):
   XX=             -1.4003   YY=              2.3963   ZZ=             -0.9960
   XY=              3.2920   XZ=              0.0000   YZ=             -0.0000
 Octapole moment (field-independent basis, Debye-Ang**2):
  XXX=              2.9374  YYY=             11.3213  ZZZ=              0.0000  XYY=              7.9534
  XXY=              6.5980  XXZ=             -0.0000  XZZ=             -1.5691  YZZ=             -0.8621
  YYZ=             -0.0000  XYZ=             -0.0000
 Hexadecapole moment (field-independent basis, Debye-Ang**3):
 XXXX=           -158.2387 YYYY=            -90.9821 ZZZZ=            -18.2633 XXXY=            -37.0141
 XXXZ=              0.0000 YYYX=            -31.0583 YYYZ=              0.0000 ZZZX=              0.0000
 ZZZY=              0.0000 XXYY=            -33.9685 XXZZ=            -30.8549 YYZZ=            -20.9038
 XXYZ=              0.0000 YYXZ=              0.0000 ZZXY=            -15.2182
 N-N= 1.166956711220D+02 E-N=-8.954874390482D+02  KE= 2.801882275401D+02
 Symmetry A'   KE= 2.662205574408D+02
 Symmetry A"   KE= 1.396767009921D+01
  Exact polarizability:  34.038   9.608  30.477  -0.000  -0.000  17.955
 Approx polarizability:  28.964   5.295  23.676  -0.000  -0.000  15.535
 No NMR shielding tensors so no spin-rotation constants.
 Leave Link  601 at Mon Feb 21 20:55:47 2022, MaxMem= 16106127360 cpu:               5.1 elap:               0.2
 (Enter /sw/contrib/gaussian/g16/B01/g16/l701.exe)
 ... and contract with generalized density number  2.
 Compute integral second derivatives.
 Leave Link  701 at Mon Feb 21 20:55:47 2022, MaxMem= 16106127360 cpu:               5.9 elap:               0.2
 (Enter /sw/contrib/gaussian/g16/B01/g16/l702.exe)
 L702 exits ... SP integral derivatives will be done elsewhere.
 Leave Link  702 at Mon Feb 21 20:55:47 2022, MaxMem= 16106127360 cpu:               0.9 elap:               0.1
 (Enter /sw/contrib/gaussian/g16/B01/g16/l703.exe)
 Integral derivatives from FoFJK, PRISM(SPDF).
 Compute integral second derivatives, UseDBF=F ICtDFT=           0.
 Calling FoFJK, ICntrl=  10100127 FMM=F ISym2X=1 I1Cent= 0 IOpClX= 0 NMat=1 NMatS=1 NMatT=0.
 FoFJK:  IHMeth= 1 ICntrl=10100127 DoSepK=F KAlg= 0 I1Cent=           0 FoldK=F
 IRaf=         0 NMat=       1 IRICut=       1 DoRegI=T DoRafI=F ISym2E= 1 IDoP0=0 IntGTp=1.
 FoFCou: FMM=F IPFlag=           0 FMFlag=      100000 FMFlg1=         800
         NFxFlg=           0 DoJE=F BraDBF=F KetDBF=F FulRan=T
         wScrn=  0.000000 ICntrl=  10100127 IOpCl=  0 I1Cent=           0 NGrid=           0
         NMat0=    1 NMatS0=      1 NMatT0=    0 NMatD0=    1 NMtDS0=    0 NMtDT0=    0
 Petite list used in FoFCou.
 Leave Link  703 at Mon Feb 21 20:56:03 2022, MaxMem= 16106127360 cpu:             421.3 elap:              15.1
 (Enter /sw/contrib/gaussian/g16/B01/g16/l716.exe)
 Dipole        = 1.98094798D-01 5.42705092D-01-1.94165912D-32
 Polarizability= 3.40384189D+01 9.60798951D+00 3.04766516D+01
                -8.41708288D-31-5.42031934D-31 1.79551265D+01
 Full mass-weighted force constant matrix:
 Low frequencies --- -274.1131  -98.9811   -0.0008   -0.0005    0.0016   24.1486
 Low frequencies ---   38.4838  228.3999  340.5396
 ******    1 imaginary frequencies (negative Signs) ****** 
 Diagonal vibrational polarizability:
       14.6704754      26.9090576      45.1645851
 Harmonic frequencies (cm**-1), IR intensities (KM/Mole), Raman scattering
 activities (A**4/AMU), depolarization ratios for plane and unpolarized
 incident light, reduced masses (AMU), force constants (mDyne/A),
 and normal coordinates:
                      1                      2                      3
                     A"                     A"                     A'
 Frequencies --   -274.0555               226.7379               340.5360
 Red. masses --      1.1448                 9.9437                 8.5655
 Frc consts  --      0.0507                 0.3012                 0.5852
 IR Inten    --    124.3044                 1.1947                 7.1930
  Atom  AN      X      Y      Z        X      Y      Z        X      Y      Z
     1   1    -0.00   0.00   1.00    -0.00   0.00  -0.61     0.55  -0.43   0.00
     2   8     0.00   0.00  -0.07     0.00   0.00  -0.29    -0.08  -0.37   0.00
     3   8     0.00  -0.00  -0.04     0.00   0.00   0.31    -0.14   0.44  -0.00
     4   7    -0.00  -0.00   0.06    -0.00  -0.00   0.52     0.03   0.24  -0.00
     5   8    -0.00   0.00  -0.01    -0.00  -0.00  -0.43     0.16  -0.26   0.00
                      4                      5                      6
                     A'                     A'                     A'
 Frequencies --    439.2295               787.2416               965.9877
 Red. masses --     12.5061                12.9034                15.2844
 Frc consts  --      1.4215                 4.7116                 8.4031
 IR Inten    --    198.8668               176.5642                25.3198
  Atom  AN      X      Y      Z        X      Y      Z        X      Y      Z
     1   1     0.38   0.22  -0.00    -0.34   0.19  -0.00    -0.19  -0.04   0.00
     2   8     0.33   0.22   0.00     0.42   0.08   0.00    -0.52   0.03   0.00
     3   8     0.19   0.42  -0.00    -0.07  -0.27  -0.00     0.74  -0.03  -0.00
     4   7    -0.35  -0.41  -0.00    -0.15   0.62  -0.00    -0.12   0.25  -0.00
     5   8    -0.23  -0.30   0.00    -0.20  -0.37   0.00    -0.11  -0.22   0.00
                      7                      8                      9
                     A'                     A'                     A'
 Frequencies --   1370.9338              1676.8612              3778.9548
 Red. masses --      1.1337                13.1421                 1.0676
 Frc consts  --      1.2554                21.7726                 8.9822
 IR Inten    --    155.7479               144.7124                83.6958
  Atom  AN      X      Y      Z        X      Y      Z        X      Y      Z
     1   1     0.99  -0.05  -0.00    -0.35   0.01   0.00     0.10   0.99  -0.00
     2   8    -0.03   0.05   0.00    -0.00  -0.04  -0.00    -0.01  -0.06   0.00
     3   8    -0.02  -0.05   0.00    -0.00   0.15  -0.00     0.00   0.00   0.00
     4   7     0.02   0.01  -0.00     0.70  -0.04   0.00    -0.00  -0.00  -0.00
     5   8    -0.03  -0.01  -0.00    -0.59  -0.08   0.00     0.00   0.00  -0.00

 -------------------
 - Thermochemistry -
 -------------------
 Temperature   298.150 Kelvin.  Pressure   1.00000 Atm.
 Atom     1 has atomic number  1 and mass   1.00783
 Atom     2 has atomic number  8 and mass  15.99491
 Atom     3 has atomic number  8 and mass  15.99491
 Atom     4 has atomic number  7 and mass  14.00307
 Atom     5 has atomic number  8 and mass  15.99491
 Molecular mass:    62.99564 amu.
 Principal axes and moments of inertia in atomic units:
                           1         2         3
     Eigenvalues --    32.61355 362.71996 395.33350
           X            0.80673  -0.59092   0.00000
           Y            0.59092   0.80673   0.00000
           Z           -0.00000   0.00000   1.00000
 This molecule is an asymmetric top.
 Rotational symmetry number  1.
 Rotational temperatures (Kelvin)      2.65577     0.23879     0.21909
 Rotational constants (GHZ):          55.33716     4.97558     4.56511
    1 imaginary frequencies ignored.
 Zero-point vibrational energy      57339.9 (Joules/Mol)
                                   13.70456 (Kcal/Mol)
 Warning -- explicit consideration of   3 degrees of freedom as
           vibrations may cause significant error
 Vibrational temperatures:    326.23   489.96   631.95  1132.67  1389.84
          (Kelvin)           1972.47  2412.63  5437.07
 
 Zero-point correction=                           0.021840 (Hartree/Particle)
 Thermal correction to Energy=                    0.025972
 Thermal correction to Enthalpy=                  0.026916
 Thermal correction to Gibbs Free Energy=        -0.004299
 Sum of electronic and zero-point Energies=           -280.424737
 Sum of electronic and thermal Energies=              -280.420604
 Sum of electronic and thermal Enthalpies=            -280.419660
 Sum of electronic and thermal Free Energies=         -280.450875
 
                     E (Thermal)             CV                S
                      KCal/Mol        Cal/Mol-Kelvin    Cal/Mol-Kelvin
 Total                   16.298             11.986             65.698
 Electronic               0.000              0.000              0.000
 Translational            0.889              2.981             38.341
 Rotational               0.889              2.981             23.063
 Vibrational             14.520              6.024              4.294
 Vibration     1          0.650              1.800              1.905
 Vibration     2          0.720              1.594              1.210
 Vibration     3          0.799              1.385              0.829
                       Q            Log10(Q)             Ln(Q)
 Total Bot       0.949111D+02          1.977317          4.552940
 Total V=0       0.105398D+13         12.022833         27.683596
 Vib (Bot)       0.197281D-09         -9.704915        -22.346393
 Vib (Bot)    1  0.869892D+00         -0.060535         -0.139386
 Vib (Bot)    2  0.545087D+00         -0.263534         -0.606809
 Vib (Bot)    3  0.393819D+00         -0.404704         -0.931865
 Vib (V=0)       0.219079D+01          0.340601          0.784264
 Vib (V=0)    1  0.150335D+01          0.177060          0.407696
 Vib (V=0)    2  0.123968D+01          0.093308          0.214850
 Vib (V=0)    3  0.113647D+01          0.055558          0.127926
 Electronic      0.100000D+01          0.000000          0.000000
 Translational   0.196526D+08          7.293420         16.793719
 Rotational      0.244800D+05          4.388812         10.105613
 
                                                                title
                                                             IR Spectrum
 
     3                                                                      1         1                                              
     7                                                                      6         3             9     7           4  3   2       
     7                                                                      7         7             6     8           3  4   2       
     9                                                                      7         1             6     7           9  1   7       
 
     X                                                                      X         X             X     X           X  X   X       
     X                                                                      X         X             X     X           X              
     X                                                                      X         X             X     X           X              
     X                                                                      X         X                   X           X              
     X                                                                      X         X                   X           X              
     X                                                                      X         X                   X           X              
     X                                                                      X         X                   X           X              
     X                                                                      X         X                   X           X              
                                                                            X         X                   X           X              
                                                                            X         X                   X           X              
                                                                            X         X                   X           X              
                                                                            X         X                   X           X              
                                                                            X         X                   X           X              
                                                                            X         X                   X           X              
                                                                            X         X                   X           X              
                                                                                      X                   X           X              
                                                                                                          X           X              
                                                                                                          X           X              
                                                                                                                      X              
                                                                                                                      X              
 
 ***** Axes restored to original set *****
 -------------------------------------------------------------------
 Center     Atomic                   Forces (Hartrees/Bohr)
 Number     Number              X              Y              Z
 -------------------------------------------------------------------
      1        1           0.000364163    0.000000000   -0.000029193
      2        8           0.000658955    0.000000000    0.001324577
      3        8           0.004355551    0.000000000   -0.000936755
      4        7          -0.005267500   -0.000000000    0.005407275
      5        8          -0.000111168   -0.000000000   -0.005765904
 -------------------------------------------------------------------
 Cartesian Forces:  Max     0.005765904 RMS     0.002737562
 -----------------------------------------------------------------------------------------------
                       Internal Coordinate Forces (Hartree/Bohr or radian)
  Cent   Atom   N1       Length/X         N2         Alpha/Y        N3         Beta/Z          J
 -----------------------------------------------------------------------------------------------
      1  H 
      2  O        1   0.000029(     1)
      3  O        2  -0.001185(     2)      1  -0.000667(     5)
      4  N        3  -0.000798(     3)      2  -0.002492(     6)      1   0.000000(     8)     0
      5  O        4  -0.001681(     4)      3  -0.012205(     7)      2   0.000000(     9)     0
 -----------------------------------------------------------------------------------------------
 Internal  Forces:  Max     0.012204735 RMS     0.004222649
 Force constants in Cartesian coordinates: 
                1             2             3             4             5 
      1  0.646405D-01
      2  0.000000D+00 -0.242882D-02
      3  0.514542D-02  0.000000D+00  0.512434D+00
      4 -0.358792D-01  0.000000D+00 -0.162601D-01  0.272225D+00
      5  0.000000D+00  0.321900D-02  0.000000D+00  0.000000D+00  0.209047D-02
      6  0.483925D-01  0.000000D+00 -0.508578D+00  0.325525D-01  0.000000D+00
      7 -0.183552D-01  0.000000D+00  0.126798D-01 -0.220714D+00  0.000000D+00
      8  0.000000D+00  0.938562D-03  0.000000D+00  0.000000D+00 -0.627131D-02
      9 -0.531427D-01  0.000000D+00 -0.332992D-03 -0.192990D-01  0.000000D+00
     10 -0.947932D-02  0.000000D+00 -0.490654D-02 -0.162776D-01  0.000000D+00
     11  0.000000D+00 -0.275313D-02  0.000000D+00  0.000000D+00 -0.542503D-02
     12  0.524220D-02  0.000000D+00 -0.506127D-02  0.113221D-01  0.000000D+00
     13 -0.926762D-03  0.000000D+00  0.334143D-02  0.645291D-03  0.000000D+00
     14  0.000000D+00  0.102439D-02  0.000000D+00  0.000000D+00  0.638687D-02
     15 -0.563735D-02  0.000000D+00  0.153858D-02 -0.831560D-02  0.000000D+00
                6             7             8             9            10 
      6  0.594755D+00
      7 -0.208434D-01  0.339620D+00
      8  0.000000D+00  0.000000D+00  0.306832D-02
      9 -0.786470D-01  0.312683D-01  0.000000D+00  0.178346D+00
     10 -0.533145D-01 -0.807466D-01  0.000000D+00  0.178641D+00  0.827020D+00
     11  0.000000D+00  0.000000D+00  0.113798D-01  0.000000D+00  0.000000D+00
     12  0.165977D-01  0.641427D-01  0.000000D+00 -0.789756D-01 -0.680683D-02
     13 -0.678713D-02 -0.198040D-01  0.000000D+00 -0.137468D+00 -0.720516D+00
     14  0.000000D+00  0.000000D+00 -0.911533D-02  0.000000D+00  0.000000D+00
     15 -0.241271D-01 -0.872474D-01  0.000000D+00 -0.203903D-01 -0.113613D+00
               11            12            13            14            15 
     11  0.445519D-02
     12  0.000000D+00  0.189841D+00
     13  0.000000D+00 -0.739002D-01  0.740602D+00
     14 -0.765678D-02  0.000000D+00  0.000000D+00  0.936085D-02
     15  0.000000D+00 -0.122402D+00  0.214814D+00  0.000000D+00  0.165381D+00
 Force constants in internal coordinates: 
                1             2             3             4             5 
      1  0.512434D+00
      2 -0.105076D-01  0.280346D+00
      3  0.363915D-02  0.166027D-02  0.113876D+00
      4 -0.363450D-02  0.529645D-02  0.150647D+00  0.810561D+00
      5  0.978597D-02  0.651596D-01  0.228344D-02  0.445006D-02  0.216789D+00
      6  0.476076D-02  0.582113D-01  0.416834D-01  0.199043D-01  0.312412D-01
      7 -0.125688D-02  0.353470D-01  0.230247D-01  0.757854D-01  0.209465D-01
      8  0.000000D+00  0.000000D+00  0.000000D+00  0.000000D+00  0.000000D+00
      9  0.000000D+00  0.000000D+00  0.000000D+00  0.000000D+00  0.000000D+00
                6             7             8             9 
      6  0.282849D+00
      7  0.936748D-01  0.463327D+00
      8  0.000000D+00  0.000000D+00 -0.786087D-02
      9  0.000000D+00  0.000000D+00 -0.385126D-02  0.409252D-01
 Leave Link  716 at Mon Feb 21 20:56:03 2022, MaxMem= 16106127360 cpu:               1.2 elap:               0.1
 (Enter /sw/contrib/gaussian/g16/B01/g16/l103.exe)

 GradGradGradGradGradGradGradGradGradGradGradGradGradGradGradGradGradGrad
 Berny optimization.
 Search for a local minimum.
 Step number   1 out of a maximum of    2
 All quantities printed in internal units (Hartrees-Bohrs-Radians)
 Second derivative matrix not updated -- analytic derivatives used.
 The second derivative matrix:
                          r1        r2        r3        r4        a1
           r1           0.51243
           r2          -0.01051   0.28035
           r3           0.00364   0.00166   0.11388
           r4          -0.00363   0.00530   0.15065   0.81056
           a1           0.00979   0.06516   0.00228   0.00445   0.21679
           a2           0.00476   0.05821   0.04168   0.01990   0.03124
           a3          -0.00126   0.03535   0.02302   0.07579   0.02095
           d1           0.00000  -0.00000  -0.00000  -0.00000  -0.00000
           d2          -0.00000   0.00000   0.00000   0.00000   0.00000
                          a2        a3        d1        d2
           a2           0.28285
           a3           0.09367   0.46333
           d1          -0.00000  -0.00000  -0.00786
           d2          -0.00000  -0.00000  -0.00385   0.04093
 ITU=  0
     Eigenvalues ---   -0.00816   0.04123   0.07539   0.17526   0.22597
     Eigenvalues ---    0.32275   0.50545   0.51320   0.86216
 Eigenvalue     1 is  -8.16D-03 should be greater than     0.000000 Eigenvector:
                          d1        d2        a3        a2        r3
   1                    0.99694   0.07822   0.00000   0.00000  -0.00000
                          r4        a1        r1        r2
   1                    0.00000  -0.00000  -0.00000   0.00000
 Angle between quadratic step and forces=  16.73 degrees.
 Linear search not attempted -- first point.
 Variable       Old X    -DE/DX   Delta X   Delta X   Delta X     New X
                                 (Linear)    (Quad)   (Total)
    r1        1.83110   0.00003   0.00000   0.00000   0.00000   1.83110
    r2        2.74940  -0.00119   0.00000  -0.00094  -0.00094   2.74845
    r3        2.75670  -0.00080   0.00000  -0.00314  -0.00314   2.75356
    r4        2.21236  -0.00168   0.00000   0.00097   0.00097   2.21333
    a1        1.70335  -0.00067   0.00000  -0.00031  -0.00031   1.70304
    a2        1.78543  -0.00249   0.00000   0.00055   0.00055   1.78598
    a3        1.92933  -0.01220   0.00000  -0.02637  -0.02637   1.90296
    d1        3.14159   0.00000   0.00000   0.00000   0.00000   3.14159
    d2        3.14159   0.00000   0.00000   0.00000   0.00000   3.14159
         Item               Value     Threshold  Converged?
 Maximum Force            0.012205     0.000450     NO 
 RMS     Force            0.004223     0.000300     NO 
 Maximum Displacement     0.026369     0.001800     NO 
 RMS     Displacement     0.008866     0.001200     NO 
 Predicted change in Energy=-1.613319D-04
                       ----------------------------
                       ! Non-Optimized Parameters !
                       ! (Angstroms and Degrees)  !
 ----------------------                            ----------------------
 !      Name          Value   Derivative information (Atomic Units)     !
 ------------------------------------------------------------------------
 !       r1          0.969    -DE/DX =    0.0                           !
 !       r2          1.4544   -DE/DX =   -0.0012                        !
 !       r3          1.4571   -DE/DX =   -0.0008                        !
 !       r4          1.1712   -DE/DX =   -0.0017                        !
 !       a1         97.5772   -DE/DX =   -0.0007                        !
 !       a2        102.3289   -DE/DX =   -0.0025                        !
 !       a3        109.0316   -DE/DX =   -0.0122                        !
 !       d1        180.0      -DE/DX =    0.0                           !
 !       d2        180.0      -DE/DX =    0.0                           !
 ------------------------------------------------------------------------
 GradGradGradGradGradGradGradGradGradGradGradGradGradGradGradGradGradGrad

 Leave Link  103 at Mon Feb 21 20:56:03 2022, MaxMem= 16106127360 cpu:               1.3 elap:               0.1
 (Enter /sw/contrib/gaussian/g16/B01/g16/l9999.exe)

 ----------------------------------------------------------------------

 Electric dipole moment (input orientation):
 (Debye = 10**-18 statcoulomb cm , SI units = C m)
                  (au)            (Debye)         (10**-30 SI)
   Tot        0.577729D+00      0.146844D+01      0.489819D+01
   x         -0.142886D+00     -0.363180D+00     -0.121144D+01
   y          0.000000D+00      0.000000D+00      0.000000D+00
   z         -0.559780D+00     -0.142282D+01     -0.474601D+01

 Dipole polarizability, Alpha (input orientation).
 (esu units = cm**3 , SI units = C**2 m**2 J**-1)
 Alpha(0;0):
               (au)            (10**-24 esu)      (10**-40 SI)
   iso        0.274901D+02      0.407361D+01      0.453250D+01
   aniso      0.221588D+02      0.328360D+01      0.365350D+01
   xx         0.320927D+02      0.475565D+01      0.529138D+01
   yx         0.000000D+00      0.000000D+00      0.000000D+00
   yy         0.179551D+02      0.266068D+01      0.296040D+01
   zx         0.977025D+01      0.144780D+01      0.161090D+01
   zy         0.000000D+00      0.000000D+00      0.000000D+00
   zz         0.324223D+02      0.480449D+01      0.534572D+01

 ----------------------------------------------------------------------

 Dipole orientation:
     1         -0.00000000          0.00000000          0.00000000
     8         -0.45287401          0.00000000         -1.77421154
     8          2.09786480          0.00000000         -2.80033362
     7          1.63734446          0.00000000         -5.51829772
     8          3.55022465          0.00000000         -6.62978879

 Electric dipole moment (dipole orientation):
 (Debye = 10**-18 statcoulomb cm , SI units = C m)
                  (au)            (Debye)         (10**-30 SI)
   Tot        0.577729D+00      0.146844D+01      0.489819D+01
   x          0.000000D+00      0.000000D+00      0.000000D+00
   y          0.000000D+00      0.000000D+00      0.000000D+00
   z          0.577729D+00      0.146844D+01      0.489819D+01

 Dipole polarizability, Alpha (dipole orientation).
 (esu units = cm**3 , SI units = C**2 m**2 J**-1)
 Alpha(0;0):
               (au)            (10**-24 esu)      (10**-40 SI)
   iso        0.274901D+02      0.407361D+01      0.453250D+01
   aniso      0.221588D+02      0.328360D+01      0.365350D+01
   xx         0.274302D+02      0.406474D+01      0.452263D+01
   yx         0.000000D+00      0.000000D+00      0.000000D+00
   yy         0.179551D+02      0.266068D+01      0.296040D+01
   zx        -0.849600D+01     -0.125898D+01     -0.140080D+01
   zy         0.000000D+00      0.000000D+00      0.000000D+00
   zz         0.370849D+02      0.549541D+01      0.611447D+01

 ----------------------------------------------------------------------
 1\1\GINC-N2127\Freq\RMP2-FC\Aug-CC-pVTZ\H1N1O3\CGAVINH\21-Feb-2022\1\\
 #p freq mp2/aug-cc-pvtz density=current\\title\\0,1\H\O,1,r1\O,2,r2,1,
 a1\N,3,r3,2,a2,1,d1,0\O,4,r4,3,a3,2,d2,0\\r1=0.96897556\r2=1.45491931\
 r3=1.45878406\r4=1.17072885\a1=97.59494903\a2=102.29752444\a3=110.5423
 7636\d1=180.\d2=180.\\Version=ES64L-G16RevB.01\State=1-A'\HF=-279.5014
 146\MP2=-280.4465762\RMSD=3.864e-09\RMSF=2.738e-03\ZeroPoint=0.0218396
 \Thermal=0.025972\Dipole=-0.142886,0.,-0.5597803\DipoleDeriv=0.2671766
 ,0.,0.0487171,0.,0.3558217,0.,0.0833481,0.,0.2777953,-0.3251565,0.,-0.
 2061275,0.,-0.3139588,0.,-0.1091445,0.,-0.2204855,-0.0539419,0.,0.1425
 866,0.,-0.0847753,0.,-0.7587672,0.,-1.3802638,0.891116,0.,0.9164676,0.
 ,0.0609997,0.,0.9344547,0.,1.7089043,-0.7791942,0.,-0.9016437,0.,-0.01
 80873,0.,-0.149891,0.,-0.3859503\Polar=32.092743,0.,17.9551265,9.77025
 34,0.,32.4223275\Quadrupole=-1.4994929,-0.7405274,2.2400203,0.,2.11804
 98,0.\PG=CS [SG(H1N1O3)]\NImag=1\\0.06464049,0.,-0.00242882,0.00514542
 ,0.,0.51243394,-0.03587923,0.,-0.01626008,0.27222535,0.,0.00321900,0.,
 0.,0.00209047,0.04839248,0.,-0.50857825,0.03255251,0.,0.59475465,-0.01
 835517,0.,0.01267977,-0.22071386,0.,-0.02084340,0.33961970,0.,0.000938
 56,0.,0.,-0.00627131,0.,0.,0.00306832,-0.05314274,0.,-0.00033299,-0.01
 929895,0.,-0.07864695,0.03126831,0.,0.17834585,-0.00947932,0.,-0.00490
 654,-0.01627755,0.,-0.05331446,-0.08074663,0.,0.17864113,0.82701983,0.
 ,-0.00275313,0.,0.,-0.00542503,0.,0.,0.01137976,0.,0.,0.00445519,0.005
 24220,0.,-0.00506127,0.01132212,0.,0.01659769,0.06414270,0.,-0.0789755
 8,-0.00680683,0.,0.18984111,-0.00092676,0.,0.00334143,0.00064529,0.,-0
 .00678713,-0.01980403,0.,-0.13746775,-0.72051633,0.,-0.07390018,0.7406
 0183,0.,0.00102439,0.,0.,0.00638687,0.,0.,-0.00911533,0.,0.,-0.0076567
 8,0.,0.,0.00936085,-0.00563735,0.,0.00153858,-0.00831560,0.,-0.0241271
 3,-0.08724738,0.,-0.02039034,-0.11361330,0.,-0.12240195,0.21481363,0.,
 0.16538084\\-0.00036416,0.,0.00002919,-0.00065895,0.,-0.00132458,-0.00
 435555,0.,0.00093675,0.00526750,0.,-0.00540728,0.00011117,0.,0.0057659
 0\\\@


 HE THAT IS UNAWARE OF HIS IGNORANCE WILL BE MISLED BY HIS KNOWLEDGE.

                                        -- WHATLEY
 Job cpu time:       0 days  2 hours  4 minutes 23.3 seconds.
 Elapsed time:       0 days  0 hours  4 minutes 30.2 seconds.
 File lengths (MBytes):  RWF=   7239 Int=      0 D2E=      0 Chk=      8 Scr=      1
 Normal termination of Gaussian 16 at Mon Feb 21 20:56:05 2022.
