title                                                                   
Freq      RMP2-FC                                                     Aug-CC-pVTZ         
Number of atoms                            I                5
Info1-9                                    I   N=           9
          33          24           0           0           0         100
           6           2           1
Full Title                                 C   N=           1
title       
Route                                      C   N=           4
#p freq mp2/aug-cc-pvtz density=current         
Charge                                     I                0
Multiplicity                               I                1
Number of electrons                        I               32
Number of alpha electrons                  I               16
Number of beta electrons                   I               16
Number of basis functions                  I              207
Number of independent functions            I              207
Number of point charges in /Mol/           I                0
Number of translation vectors              I                0
Atomic numbers                             I   N=           5
           1           8           8           7           8
Nuclear charges                            R   N=           5
  1.00000000E+00  8.00000000E+00  8.00000000E+00  7.00000000E+00  8.00000000E+00
Current cartesian coordinates              R   N=          15
 -1.02163440E+00 -2.15121055E+00  6.22664358E-02 -2.41347273E+00 -9.15468044E-01
  6.47150038E-03 -1.02581339E+00  1.39596311E+00 -2.29694435E-02  1.55922286E+00
  1.04101201E+00  3.40795594E-02  2.20267042E+00 -1.12247926E+00 -2.11049758E-02
Number of symbols in /Mol/                 I                0
Force Field                                I                0
Atom Types                                 C   N=           5
                                                            
Int Atom Types                             I   N=           5
           0           0           0           0           0
MM charges                                 R   N=           5
  0.00000000E+00  0.00000000E+00  0.00000000E+00  0.00000000E+00  0.00000000E+00
Integer atomic weights                     I   N=           5
           1          16          16          14          16
Real atomic weights                        R   N=           5
  1.00782504E+00  1.59949146E+01  1.59949146E+01  1.40030740E+01  1.59949146E+01
Atom fragment info                         I   N=           5
           0           0           0           0           0
Atom residue num                           I   N=           5
           0           0           0           0           0
Nuclear spins                              I   N=           5
           1           0           0           2           0
Nuclear ZEff                               R   N=           5
 -1.00000000E+00 -5.60000000E+00 -5.60000000E+00 -4.55000000E+00 -5.60000000E+00
Nuclear ZNuc                               R   N=           5
  1.00000000E+00  8.00000000E+00  8.00000000E+00  7.00000000E+00  8.00000000E+00
Nuclear QMom                               R   N=           5
  0.00000000E+00  0.00000000E+00  0.00000000E+00  2.04400000E+00  0.00000000E+00
Nuclear GFac                               R   N=           5
  2.79284600E+00  0.00000000E+00  0.00000000E+00  4.03761000E-01  0.00000000E+00
MicOpt                                     I   N=           5
          -1          -1          -1          -1          -1
Number of residues                         I                0
Number of secondary structures             I                0
SymInf integers                            I   N=          26
           1           1           1           1           1           0
           0           0           0           0           0           0
           0           0           0           0           0           0
           0           0           0           0           0           0
           0           0
RotTr to input orientation                 R   N=          12
  6.64042337E-01  1.87638101E-02 -7.47459493E-01  7.47674865E-01 -2.39959810E-02
  6.63631290E-01 -5.48377232E-03 -9.99535948E-01 -2.99635765E-02  2.28715601E+00
  2.97868875E-02  6.65846022E-01
Number of contracted shells                I               65
Number of primitive shells                 I              119
Pure/Cartesian d shells                    I                0
Pure/Cartesian f shells                    I                0
Highest angular momentum                   I                3
Largest degree of contraction              I                7
Shell types                                I   N=          65
           0           0           0           0           1           1
           1          -2          -2           0           0           0
           0           0           1           1           1           1
          -2          -2          -2          -3          -3           0
           0           0           0           0           1           1
           1           1          -2          -2          -2          -3
          -3           0           0           0           0           0
           1           1           1           1          -2          -2
          -2          -3          -3           0           0           0
           0           0           1           1           1           1
          -2          -2          -2          -3          -3
Number of primitives per shell             I   N=          65
           3           1           1           1           1           1
           1           1           1           7           6           1
           1           1           3           1           1           1
           1           1           1           1           1           7
           6           1           1           1           3           1
           1           1           1           1           1           1
           1           7           6           1           1           1
           3           1           1           1           1           1
           1           1           1           7           6           1
           1           1           3           1           1           1
           1           1           1           1           1
Shell to atom map                          I   N=          65
           1           1           1           1           1           1
           1           1           1           2           2           2
           2           2           2           2           2           2
           2           2           2           2           2           3
           3           3           3           3           3           3
           3           3           3           3           3           3
           3           4           4           4           4           4
           4           4           4           4           4           4
           4           4           4           5           5           5
           5           5           5           5           5           5
           5           5           5           5           5
Primitive exponents                        R   N=         119
  3.38700000E+01  5.09500000E+00  1.15900000E+00  3.25800000E-01  1.02700000E-01
  2.52600000E-02  1.40700000E+00  3.88000000E-01  1.02000000E-01  1.05700000E+00
  2.47000000E-01  1.53300000E+04  2.29900000E+03  5.22400000E+02  1.47300000E+02
  4.75500000E+01  1.67600000E+01  6.20700000E+00  5.22400000E+02  1.47300000E+02
  4.75500000E+01  1.67600000E+01  6.20700000E+00  6.88200000E-01  1.75200000E+00
  2.38400000E-01  7.37600000E-02  3.44600000E+01  7.74900000E+00  2.28000000E+00
  7.15600000E-01  2.14000000E-01  5.97400000E-02  2.31400000E+00  6.45000000E-01
  2.14000000E-01  1.42800000E+00  5.00000000E-01  1.53300000E+04  2.29900000E+03
  5.22400000E+02  1.47300000E+02  4.75500000E+01  1.67600000E+01  6.20700000E+00
  5.22400000E+02  1.47300000E+02  4.75500000E+01  1.67600000E+01  6.20700000E+00
  6.88200000E-01  1.75200000E+00  2.38400000E-01  7.37600000E-02  3.44600000E+01
  7.74900000E+00  2.28000000E+00  7.15600000E-01  2.14000000E-01  5.97400000E-02
  2.31400000E+00  6.45000000E-01  2.14000000E-01  1.42800000E+00  5.00000000E-01
  1.14200000E+04  1.71200000E+03  3.89300000E+02  1.10000000E+02  3.55700000E+01
  1.25400000E+01  4.64400000E+00  3.89300000E+02  1.10000000E+02  3.55700000E+01
  1.25400000E+01  4.64400000E+00  5.11800000E-01  1.29300000E+00  1.78700000E-01
  5.76000000E-02  2.66300000E+01  5.94800000E+00  1.74200000E+00  5.55000000E-01
  1.72500000E-01  4.91000000E-02  1.65400000E+00  4.69000000E-01  1.51000000E-01
  1.09300000E+00  3.64000000E-01  1.53300000E+04  2.29900000E+03  5.22400000E+02
  1.47300000E+02  4.75500000E+01  1.67600000E+01  6.20700000E+00  5.22400000E+02
  1.47300000E+02  4.75500000E+01  1.67600000E+01  6.20700000E+00  6.88200000E-01
  1.75200000E+00  2.38400000E-01  7.37600000E-02  3.44600000E+01  7.74900000E+00
  2.28000000E+00  7.15600000E-01  2.14000000E-01  5.97400000E-02  2.31400000E+00
  6.45000000E-01  2.14000000E-01  1.42800000E+00  5.00000000E-01
Contraction coefficients                   R   N=         119
  2.54948632E-02  1.90362766E-01  8.52162022E-01  1.00000000E+00  1.00000000E+00
  1.00000000E+00  1.00000000E+00  1.00000000E+00  1.00000000E+00  1.00000000E+00
  1.00000000E+00  5.19808943E-04  4.02025621E-03  2.07128267E-02  8.10105536E-02
  2.35962985E-01  4.42653446E-01  3.57064423E-01 -4.42115008E-05 -1.22591041E-03
 -1.05517725E-02 -6.74452633E-02 -1.71198607E-01  1.07329856E+00  1.00000000E+00
  1.00000000E+00  1.00000000E+00  4.11634896E-02  2.57762836E-01  8.02419274E-01
  1.00000000E+00  1.00000000E+00  1.00000000E+00  1.00000000E+00  1.00000000E+00
  1.00000000E+00  1.00000000E+00  1.00000000E+00  5.19808943E-04  4.02025621E-03
  2.07128267E-02  8.10105536E-02  2.35962985E-01  4.42653446E-01  3.57064423E-01
 -4.42115008E-05 -1.22591041E-03 -1.05517725E-02 -6.74452633E-02 -1.71198607E-01
  1.07329856E+00  1.00000000E+00  1.00000000E+00  1.00000000E+00  4.11634896E-02
  2.57762836E-01  8.02419274E-01  1.00000000E+00  1.00000000E+00  1.00000000E+00
  1.00000000E+00  1.00000000E+00  1.00000000E+00  1.00000000E+00  1.00000000E+00
  5.34563860E-04  4.13435660E-03  2.12335358E-02  8.25006224E-02  2.38138871E-01
  4.42551547E-01  3.53757422E-01 -4.89867350E-05 -1.19527323E-03 -1.03490714E-02
 -6.48680190E-02 -1.71552477E-01  1.07289568E+00  1.00000000E+00  1.00000000E+00
  1.00000000E+00  3.98072123E-02  2.49002660E-01  8.10479727E-01  1.00000000E+00
  1.00000000E+00  1.00000000E+00  1.00000000E+00  1.00000000E+00  1.00000000E+00
  1.00000000E+00  1.00000000E+00  5.19808943E-04  4.02025621E-03  2.07128267E-02
  8.10105536E-02  2.35962985E-01  4.42653446E-01  3.57064423E-01 -4.42115008E-05
 -1.22591041E-03 -1.05517725E-02 -6.74452633E-02 -1.71198607E-01  1.07329856E+00
  1.00000000E+00  1.00000000E+00  1.00000000E+00  4.11634896E-02  2.57762836E-01
  8.02419274E-01  1.00000000E+00  1.00000000E+00  1.00000000E+00  1.00000000E+00
  1.00000000E+00  1.00000000E+00  1.00000000E+00  1.00000000E+00
Coordinates of each shell                  R   N=         195
 -1.02163440E+00 -2.15121055E+00  6.22664358E-02 -1.02163440E+00 -2.15121055E+00
  6.22664358E-02 -1.02163440E+00 -2.15121055E+00  6.22664358E-02 -1.02163440E+00
 -2.15121055E+00  6.22664358E-02 -1.02163440E+00 -2.15121055E+00  6.22664358E-02
 -1.02163440E+00 -2.15121055E+00  6.22664358E-02 -1.02163440E+00 -2.15121055E+00
  6.22664358E-02 -1.02163440E+00 -2.15121055E+00  6.22664358E-02 -1.02163440E+00
 -2.15121055E+00  6.22664358E-02 -2.41347273E+00 -9.15468044E-01  6.47150038E-03
 -2.41347273E+00 -9.15468044E-01  6.47150038E-03 -2.41347273E+00 -9.15468044E-01
  6.47150038E-03 -2.41347273E+00 -9.15468044E-01  6.47150038E-03 -2.41347273E+00
 -9.15468044E-01  6.47150038E-03 -2.41347273E+00 -9.15468044E-01  6.47150038E-03
 -2.41347273E+00 -9.15468044E-01  6.47150038E-03 -2.41347273E+00 -9.15468044E-01
  6.47150038E-03 -2.41347273E+00 -9.15468044E-01  6.47150038E-03 -2.41347273E+00
 -9.15468044E-01  6.47150038E-03 -2.41347273E+00 -9.15468044E-01  6.47150038E-03
 -2.41347273E+00 -9.15468044E-01  6.47150038E-03 -2.41347273E+00 -9.15468044E-01
  6.47150038E-03 -2.41347273E+00 -9.15468044E-01  6.47150038E-03 -1.02581339E+00
  1.39596311E+00 -2.29694435E-02 -1.02581339E+00  1.39596311E+00 -2.29694435E-02
 -1.02581339E+00  1.39596311E+00 -2.29694435E-02 -1.02581339E+00  1.39596311E+00
 -2.29694435E-02 -1.02581339E+00  1.39596311E+00 -2.29694435E-02 -1.02581339E+00
  1.39596311E+00 -2.29694435E-02 -1.02581339E+00  1.39596311E+00 -2.29694435E-02
 -1.02581339E+00  1.39596311E+00 -2.29694435E-02 -1.02581339E+00  1.39596311E+00
 -2.29694435E-02 -1.02581339E+00  1.39596311E+00 -2.29694435E-02 -1.02581339E+00
  1.39596311E+00 -2.29694435E-02 -1.02581339E+00  1.39596311E+00 -2.29694435E-02
 -1.02581339E+00  1.39596311E+00 -2.29694435E-02 -1.02581339E+00  1.39596311E+00
 -2.29694435E-02  1.55922286E+00  1.04101201E+00  3.40795594E-02  1.55922286E+00
  1.04101201E+00  3.40795594E-02  1.55922286E+00  1.04101201E+00  3.40795594E-02
  1.55922286E+00  1.04101201E+00  3.40795594E-02  1.55922286E+00  1.04101201E+00
  3.40795594E-02  1.55922286E+00  1.04101201E+00  3.40795594E-02  1.55922286E+00
  1.04101201E+00  3.40795594E-02  1.55922286E+00  1.04101201E+00  3.40795594E-02
  1.55922286E+00  1.04101201E+00  3.40795594E-02  1.55922286E+00  1.04101201E+00
  3.40795594E-02  1.55922286E+00  1.04101201E+00  3.40795594E-02  1.55922286E+00
  1.04101201E+00  3.40795594E-02  1.55922286E+00  1.04101201E+00  3.40795594E-02
  1.55922286E+00  1.04101201E+00  3.40795594E-02  2.20267042E+00 -1.12247926E+00
 -2.11049758E-02  2.20267042E+00 -1.12247926E+00 -2.11049758E-02  2.20267042E+00
 -1.12247926E+00 -2.11049758E-02  2.20267042E+00 -1.12247926E+00 -2.11049758E-02
  2.20267042E+00 -1.12247926E+00 -2.11049758E-02  2.20267042E+00 -1.12247926E+00
 -2.11049758E-02  2.20267042E+00 -1.12247926E+00 -2.11049758E-02  2.20267042E+00
 -1.12247926E+00 -2.11049758E-02  2.20267042E+00 -1.12247926E+00 -2.11049758E-02
  2.20267042E+00 -1.12247926E+00 -2.11049758E-02  2.20267042E+00 -1.12247926E+00
 -2.11049758E-02  2.20267042E+00 -1.12247926E+00 -2.11049758E-02  2.20267042E+00
 -1.12247926E+00 -2.11049758E-02  2.20267042E+00 -1.12247926E+00 -2.11049758E-02
Num ILSW                                   I              100
ILSW                                       I   N=         100
           0           0           0           0           2           0
           0           0           0           0           0          -1
           5           0           0           0           2           0
           0           0           0           0           1           0
           1           0           0           0           0           0
           0           0      100000           0          -1           0
           0           0           0           0           0           0
           0           0           0           1           1           0
           0 -2000000000           1           0           0           0
           0           0           4          52           0           0
           0           0           0           0           0           0
           0           0           0           5           4           1
           0           0           0           0           0           0
           0           0           0           0           0           0
           0           0           0           0           0           0
           0           0           0           0           0           0
           0           0           0           0
Num RLSW                                   I               52
RLSW                                       R   N=          52
  1.00000000E+00  1.00000000E+00  1.00000000E+00  1.00000000E+00  1.00000000E+00
  0.00000000E+00  0.00000000E+00  1.00000000E+00  0.00000000E+00  0.00000000E+00
  0.00000000E+00  0.00000000E+00  1.00000000E+00  0.00000000E+00  0.00000000E+00
  0.00000000E+00  0.00000000E+00  1.00000000E+00  0.00000000E+00  0.00000000E+00
  0.00000000E+00  0.00000000E+00  1.00000000E+00  0.00000000E+00  0.00000000E+00
  0.00000000E+00  0.00000000E+00  1.00000000E+00  0.00000000E+00  0.00000000E+00
  0.00000000E+00  0.00000000E+00  1.00000000E+00  0.00000000E+00  0.00000000E+00
  0.00000000E+00  0.00000000E+00  0.00000000E+00  1.00000000E+00  1.00000000E+00
  0.00000000E+00  1.00000000E+00  0.00000000E+00  0.00000000E+00  0.00000000E+00
  0.00000000E+00  0.00000000E+00  0.00000000E+00  0.00000000E+00  0.00000000E+00
  0.00000000E+00  0.00000000E+00
MxBond                                     I                2
NBond                                      I   N=           5
           1           2           2           2           1
IBond                                      I   N=          10
           2           0           1           3           2           4
           3           5           4           0
RBond                                      R   N=          10
  1.00000000E+00  0.00000000E+00  1.00000000E+00  1.00000000E+00  1.00000000E+00
  1.00000000E+00  1.00000000E+00  2.00000000E+00  2.00000000E+00  0.00000000E+00
Virial Ratio                               R      2.002226457418124E+00
SCF Energy                                 R     -2.795063036206631E+02
MP2 Energy                                 R     -2.804550582594171E+02
Total Energy                               R     -2.804550582594171E+02
Post-SCF wavefunction norm                 R      1.583714955997823E+00
RMS Force                                  R      1.735544247016561E-03
RMS Density                                R      6.468281436714335E-09
NImag                                      I                0
Job Status                                 I                1
Nuclear derivative order                   I                2
External E-field                           R   N=          35
  0.00000000E+00  0.00000000E+00  0.00000000E+00  0.00000000E+00  0.00000000E+00
  0.00000000E+00  0.00000000E+00  0.00000000E+00  0.00000000E+00  0.00000000E+00
  0.00000000E+00  0.00000000E+00  0.00000000E+00  0.00000000E+00  0.00000000E+00
  0.00000000E+00  0.00000000E+00  0.00000000E+00  0.00000000E+00  0.00000000E+00
  0.00000000E+00  0.00000000E+00  0.00000000E+00  0.00000000E+00  0.00000000E+00
  0.00000000E+00  0.00000000E+00  0.00000000E+00  0.00000000E+00  0.00000000E+00
  0.00000000E+00  0.00000000E+00  0.00000000E+00  0.00000000E+00  0.00000000E+00
IOpCl                                      I                0
IROHF                                      I                0
Alpha Orbital Energies                     R   N=         207
 -2.07197022E+01 -2.06872559E+01 -2.06683373E+01 -1.58259800E+01 -1.64424083E+00
 -1.50516639E+00 -1.29374090E+00 -9.60358632E-01 -8.34547933E-01 -7.58936614E-01
 -7.39896587E-01 -6.37497985E-01 -6.19191967E-01 -6.17945293E-01 -5.04819232E-01
 -4.97278835E-01  3.50498231E-02  6.01299286E-02  9.51182617E-02  1.00376676E-01
  1.19128046E-01  1.23046452E-01  1.49447484E-01  1.52043732E-01  1.77350759E-01
  1.80537425E-01  1.89638382E-01  2.11155249E-01  2.16786579E-01  2.42527931E-01
  2.46322793E-01  2.68886534E-01  3.11551795E-01  3.17794413E-01  3.38059188E-01
  3.43863300E-01  3.46831408E-01  3.92618976E-01  4.48366243E-01  4.87711238E-01
  5.05696852E-01  5.18709883E-01  5.44807688E-01  5.61310087E-01  5.98988253E-01
  6.20349207E-01  6.38262705E-01  6.89826315E-01  7.16833273E-01  7.24710833E-01
  7.43118232E-01  7.63752274E-01  7.67302363E-01  7.94840437E-01  8.06135441E-01
  8.40841305E-01  8.43230581E-01  8.52112771E-01  8.85664979E-01  9.07755452E-01
  9.29904652E-01  9.48728260E-01  9.54213700E-01  1.01778973E+00  1.03298635E+00
  1.06096298E+00  1.06546298E+00  1.09617569E+00  1.14355009E+00  1.15633976E+00
  1.17032320E+00  1.22176695E+00  1.22688678E+00  1.24621270E+00  1.35170654E+00
  1.36254281E+00  1.37107702E+00  1.46850050E+00  1.48605443E+00  1.50470308E+00
  1.54129087E+00  1.59207245E+00  1.59810019E+00  1.61007301E+00  1.62860898E+00
  1.69539988E+00  1.74037033E+00  1.80132279E+00  1.82999007E+00  1.88690602E+00
  1.89736700E+00  1.92966549E+00  1.97904595E+00  1.98933919E+00  2.05235367E+00
  2.12365607E+00  2.13076417E+00  2.16521958E+00  2.18818065E+00  2.24010193E+00
  2.26343884E+00  2.29462598E+00  2.35205246E+00  2.36585251E+00  2.38652887E+00
  2.40218657E+00  2.43367572E+00  2.46790825E+00  2.48031075E+00  2.52849498E+00
  2.53923697E+00  2.54844300E+00  2.55987181E+00  2.61619854E+00  2.63032336E+00
  2.67019035E+00  2.67474686E+00  2.75350898E+00  2.80844607E+00  2.81928080E+00
  2.84220740E+00  2.91859160E+00  2.98510340E+00  3.04646227E+00  3.05103045E+00
  3.11545266E+00  3.11825557E+00  3.17301950E+00  3.21304035E+00  3.30732179E+00
  3.33239402E+00  3.36110515E+00  3.47774588E+00  3.67782626E+00  3.86986541E+00
  3.93021385E+00  4.18249242E+00  4.21933028E+00  4.22913101E+00  4.26925064E+00
  4.36980916E+00  4.50029851E+00  4.52765418E+00  4.55628525E+00  4.59928061E+00
  4.69356089E+00  4.80952705E+00  4.89575682E+00  4.91814933E+00  4.94142013E+00
  4.99773017E+00  5.00629789E+00  5.10862676E+00  5.13299718E+00  5.17944482E+00
  5.24962117E+00  5.25924134E+00  5.31765960E+00  5.34697498E+00  5.35609900E+00
  5.54687785E+00  5.64498307E+00  5.70646750E+00  5.88970951E+00  5.99732486E+00
  6.26441771E+00  6.29591787E+00  6.36098115E+00  6.37662286E+00  6.59828536E+00
  6.65925422E+00  6.65981805E+00  6.69011408E+00  6.72582714E+00  6.79503313E+00
  6.80746037E+00  6.85066749E+00  6.96785510E+00  7.02080477E+00  7.06642783E+00
  7.08062591E+00  7.13872252E+00  7.17207919E+00  7.17804591E+00  7.20339676E+00
  7.24416847E+00  7.24934156E+00  7.27175612E+00  7.34989274E+00  7.39436611E+00
  7.42801798E+00  7.44314949E+00  7.46269247E+00  7.55972704E+00  7.66345992E+00
  7.66738446E+00  7.79434414E+00  7.88265685E+00  7.95282677E+00  8.06346873E+00
  8.30648880E+00  8.49956049E+00  8.65220289E+00  1.36188848E+01  1.47634554E+01
  1.51035495E+01  1.57618206E+01
Alpha MO coefficients                      R   N=       42849
  6.45593611E-05 -2.71225421E-05 -1.10858909E-03  1.29033155E-05  1.66492428E-05
  6.44674177E-05  7.47961124E-08  2.41897376E-04 -1.81911388E-04 -8.51658055E-06
  2.05930979E-04 -2.80927217E-04 -7.95415414E-06  4.26164724E-05 -7.77285888E-07
 -1.38071364E-06  4.30187942E-06 -2.79032256E-05  2.28293762E-04 -7.59214204E-06
 -3.99101917E-06 -2.10324769E-04  2.44112043E-05  3.07891173E-03 -9.57244212E-05
 -9.91125385E-05  3.54214867E-03  2.47775559E-03 -5.12138408E-05 -1.03685152E-04
  1.22094675E-06  4.18765197E-04  6.61883659E-04 -6.74516980E-06  9.40293396E-04
  2.06563918E-03 -1.55805321E-05  4.09862571E-04  3.50742221E-04  2.59082054E-06
  2.04482542E-05 -5.68633483E-08  2.07368195E-06  3.93829602E-05 -2.17398588E-05
 -4.42964322E-04 -5.63786397E-06 -2.34966825E-05 -5.02858989E-04  6.07151054E-04
 -3.64203576E-04 -1.08248617E-05 -2.17790685E-05 -5.42639670E-04  7.40991660E-04
  3.13201092E-06 -2.86281789E-05 -8.60244193E-05  2.12414693E-06 -1.77336422E-06
 -1.11280607E-04 -8.77205728E-06  3.86109144E-06 -1.37530900E-04 -1.63777053E-04
  3.28339949E-06 -1.24197331E-05 -3.38863977E-04  6.40318178E-05  9.76903612E-01
 -9.17362253E-03  4.34074930E-02  4.93048339E-04 -2.20810125E-03  9.08672577E-04
 -1.99691548E-03  4.65985952E-05 -1.07541533E-03  2.00552264E-03 -5.12611234E-05
  2.15061680E-03  9.81380549E-04  3.15906678E-05  1.23361440E-04  2.10912830E-04
 -5.84590862E-06  7.12870870E-06 -1.77257228E-06  2.18608366E-06  3.46562774E-05
 -1.60490077E-05  8.26910316E-04 -1.58683117E-05  2.01837660E-05 -3.05487934E-04
 -4.02323890E-04 -1.38586766E-04  2.78605096E-05 -1.34064118E-05  1.73516790E-04
 -6.30412396E-04  5.43979090E-06  5.19473055E-05 -6.01078128E-05 -9.57860626E-07
 -2.57726931E-07 -4.84553565E-05 -6.95256895E-06 -1.64770347E-06 -7.45382638E-05
 -5.39743377E-05 -6.77993193E-06 -3.87819065E-06 -4.68480514E-04  1.95010644E-04
  1.04350947E-04  4.57567327E-04 -3.23532993E-04 -8.24583305E-04  3.53703431E-04
  9.48163628E-05 -5.44181784E-05  2.54496516E-06 -1.22007747E-03  4.81882082E-04
 -2.31801218E-05  1.00447487E-03 -7.83050750E-05 -7.63160961E-06 -2.82196069E-04
  5.47599161E-05 -7.88031937E-06 -5.24699224E-05  3.35394894E-06 -1.30484157E-06
  9.46528616E-05 -9.56981631E-06 -4.14928538E-04  4.82417177E-05 -9.27773659E-06
  1.04246785E-03 -2.84131579E-04  2.68354056E-05  3.62189847E-06  3.23852474E-06
 -6.73494257E-05 -3.10147466E-04  6.32550767E-06  1.30231392E-04 -4.48882271E-05
 -9.76686037E-06  1.67546286E-06 -1.31617332E-04  5.69952565E-05  1.19661388E-05
  7.15784024E-05  1.11042808E-04 -2.51147397E-05 -7.33518590E-06 -4.86810145E-04
 -1.82837799E-04 -7.07912851E-04  4.61895756E-05 -7.02906676E-05  2.08304273E-04
 -1.78868893E-04  4.77136169E-05 -1.62887403E-05  1.92193774E-06 -2.85368446E-04
  1.04418645E-04 -1.10004123E-05 -6.17980873E-04 -5.36295151E-05  1.84327848E-05
  2.11921796E-04  7.81611282E-05  7.46580953E-06 -1.29081153E-05  2.00730901E-06
  5.60147985E-07  1.55379060E-05 -1.41184385E-06 -2.40218848E-06 -1.06696474E-05
 -4.69302905E-06 -3.92650489E-05 -1.59201117E-04 -2.20265957E-05 -3.11002881E-05
 -4.58009465E-07 -9.01731102E-05 -1.49237291E-04  1.95383191E-06  1.01651077E-05
 -3.73156504E-06 -1.89008569E-06  5.88746082E-07 -1.58762957E-05  1.72872089E-05
 -9.41946713E-06 -6.86846304E-05  2.48660797E-05  9.56998093E-06 -9.22634993E-06
  1.48568690E-04 -1.15021842E-04  4.02586403E-05  6.08369397E-05 -1.23498516E-04
 -2.98347333E-05 -2.11663789E-05 -2.22017851E-06  4.88825726E-07 -2.28618327E-04
 -9.31323824E-05  2.25654224E-06 -1.14058723E-04 -5.64700564E-05  7.06727421E-06
  1.34921972E-05  1.28665790E-06  1.42976962E-06  1.15816673E-05 -1.67664545E-05
  2.27323422E-05 -6.38656749E-06  6.77084767E-07  3.00255641E-05 -1.10732229E-04
 -2.59137990E-04  2.56609325E-05 -1.52414443E-05 -5.47847484E-04  1.63532937E-04
 -1.40357910E-05  6.70939778E-06  4.27731433E-07  2.52439818E-05 -3.40187015E-05
 -1.99116426E-06 -2.25671937E-04 -4.83645344E-06 -3.55575358E-06  8.86629282E-06
  6.65507770E-05 -6.86768952E-06 -1.37338763E-06 -9.57599265E-08 -5.98803740E-07
 -1.35981444E-05 -4.44601095E-06  2.08105263E-05 -4.30464386E-07  4.43163587E-06
  1.18188833E-04  1.46339363E-05  6.10342155E-05  9.69258354E-07  1.11561071E-05
 -8.37344465E-05 -4.08960532E-06  5.42536140E-07 -1.23429354E-05  3.69755566E-06
 -8.96033041E-07  4.69797367E-08  2.30967355E-05  8.95801143E-06 -1.04513118E-06
  3.23851094E-05 -2.04441111E-05  2.32636101E-06  3.05327670E-06  1.75222334E-05
  8.89506192E-06  7.35993219E-04  2.27881806E-05 -1.88020597E-05  2.96447391E-04
 -3.91471329E-04 -2.93724464E-05  1.21295644E-05 -4.29517090E-07  1.43652085E-04
 -8.43428402E-05  1.11971896E-06 -3.36096008E-06 -2.53394207E-04  1.51025215E-05
  4.26874530E-05  2.07419453E-04  6.78898254E-06 -4.06809376E-06 -7.21267615E-07
  5.37026333E-07 -1.81983269E-05 -2.52376247E-05 -5.12550686E-05  5.93082986E-06
 -2.68341950E-06  1.40049312E-04  3.99436309E-05 -6.45725879E-05  1.74934349E-05
 -3.98847847E-06  3.84884589E-05  3.27506900E-05  5.86139515E-07 -4.38481649E-06
  8.99824428E-07  6.79660601E-07  7.34155509E-07 -4.10077086E-07  8.15634562E-06
 -6.38817239E-06  1.20417395E-05 -2.24705781E-05  4.66570052E-06 -5.92386287E-06
  1.77311388E-04 -4.01960743E-05  2.37043675E-04  1.35736497E-03 -1.47164490E-04
 -6.87741515E-04  9.02406461E-04 -8.80734525E-06 -9.46358715E-05 -2.38808765E-06
  7.74139061E-04 -2.01635639E-03 -4.83607180E-05 -3.85166874E-04  3.31315393E-04
 -2.53842308E-05  3.25406747E-05 -3.57068917E-04 -8.79963464E-06 -1.27585964E-04
 -4.79060099E-06  1.03816792E-05 -2.11885153E-04 -1.47577661E-04 -4.59282173E-04
 -1.02341079E-05  5.18985536E-05 -1.05688535E-03 -3.01346003E-04 -4.18130768E-05
  1.27969533E-05  2.76219352E-06  1.28952723E-04  2.29680545E-05  1.19801301E-07
 -2.85642392E-05  2.46201808E-05  3.27670110E-06 -4.97206342E-07 -4.18124440E-06
  2.44451092E-05  1.88029947E-05  1.51580528E-05  2.06736024E-04  1.78602695E-05
  6.71897171E-06 -7.09135663E-05  3.08362499E-04  9.76646058E-01 -9.88647978E-03
  4.35753603E-02  3.68580421E-03 -8.93251839E-04 -9.02224813E-04  1.98181247E-03
  5.50638172E-05  1.07226475E-03 -2.32152646E-03 -6.13005551E-05 -4.27781230E-04
  6.96480807E-04  4.37582550E-05 -4.62133386E-05 -1.13720240E-04 -3.72945140E-06
 -1.93701343E-04  4.81020000E-06  1.03640493E-05 -6.36217259E-05 -5.81421114E-05
  4.08419976E-04  2.15816286E-05 -3.44571899E-05  7.17053736E-04  6.75746401E-04
 -2.05840378E-04 -1.52288845E-05  1.73816025E-05 -7.54890574E-05 -1.22247275E-04
  4.63538252E-06 -3.78474852E-05  5.92598416E-05  2.69159962E-06  1.22077597E-06
 -1.94245374E-05  2.39974115E-05  3.68783492E-06  1.77287536E-05  1.26458750E-04
  1.12586784E-05  9.17467833E-06 -2.48021104E-04  8.97798905E-05  3.75302403E-04
  1.99303089E-03  1.36783773E-03 -1.79790821E-05 -2.00122185E-04  1.86324118E-04
 -7.32225270E-06 -9.14813297E-04  6.01132011E-04 -3.84929298E-05 -4.24222606E-05
  2.63720228E-04 -2.09944740E-05 -2.35819489E-05 -1.59435464E-06 -2.13036849E-06
 -1.77187146E-05  3.97290541E-05 -2.15654834E-04  1.71366558E-05 -1.03773341E-05
  2.82631101E-04 -4.52309302E-04  9.76834481E-01 -9.18696460E-03  4.34652685E-02
  1.37350562E-04 -1.90674762E-03  2.14194929E-03  5.36744255E-04  2.71086023E-05
 -2.13477614E-03 -6.10867416E-04 -2.43328449E-05 -5.54018391E-05  7.58594678E-04
 -2.47608277E-05 -3.97031967E-06 -3.71664297E-04  1.38499575E-05  3.07906964E-05
  1.66222408E-06  2.71491874E-06  3.80028419E-05 -9.00023401E-05  7.64948434E-04
 -1.03289607E-05  3.40332859E-05  2.73861376E-04 -3.04844954E-04 -2.37824902E-04
 -1.70725149E-06 -5.05009994E-06  1.03699315E-04  3.19462564E-04 -4.95247208E-07
  6.39971897E-05  4.89575282E-05 -1.98404945E-06  2.23048630E-06  4.63393842E-05