 Entering Gaussian System, Link 0=g16
 Input=hoono_r1_0p977618.gjf
 Output=hoono_r1_0p977618.log
 Initial command:
 /sw/contrib/gaussian/g16/B01/g16/l1.exe "/scr/Gau-10091.inp" -scrdir="/scr/"
 Entering Link 1 = /sw/contrib/gaussian/g16/B01/g16/l1.exe PID=     10093.
  
 Copyright (c) 1988-2017, Gaussian, Inc.  All Rights Reserved.
  
 This is part of the Gaussian(R) 16 program.  It is based on
 the Gaussian(R) 09 system (copyright 2009, Gaussian, Inc.),
 the Gaussian(R) 03 system (copyright 2003, Gaussian, Inc.),
 the Gaussian(R) 98 system (copyright 1998, Gaussian, Inc.),
 the Gaussian(R) 94 system (copyright 1995, Gaussian, Inc.),
 the Gaussian 92(TM) system (copyright 1992, Gaussian, Inc.),
 the Gaussian 90(TM) system (copyright 1990, Gaussian, Inc.),
 the Gaussian 88(TM) system (copyright 1988, Gaussian, Inc.),
 the Gaussian 86(TM) system (copyright 1986, Carnegie Mellon
 University), and the Gaussian 82(TM) system (copyright 1983,
 Carnegie Mellon University). Gaussian is a federally registered
 trademark of Gaussian, Inc.
  
 This software contains proprietary and confidential information,
 including trade secrets, belonging to Gaussian, Inc.
  
 This software is provided under written license and may be
 used, copied, transmitted, or stored only in accord with that
 written license.
  
 The following legend is applicable only to US Government
 contracts under FAR:
  
                    RESTRICTED RIGHTS LEGEND
  
 Use, reproduction and disclosure by the US Government is
 subject to restrictions as set forth in subparagraphs (a)
 and (c) of the Commercial Computer Software - Restricted
 Rights clause in FAR 52.227-19.
  
 Gaussian, Inc.
 340 Quinnipiac St., Bldg. 40, Wallingford CT 06492
  
  
 ---------------------------------------------------------------
 Warning -- This program may not be used in any manner that
 competes with the business of Gaussian, Inc. or will provide
 assistance to any competitor of Gaussian, Inc.  The licensee
 of this program is prohibited from giving any competitor of
 Gaussian, Inc. access to this program.  By using this program,
 the user acknowledges that Gaussian, Inc. is engaged in the
 business of creating and licensing software in the field of
 computational chemistry and represents and warrants to the
 licensee that it is not a competitor of Gaussian, Inc. and that
 it will not use this program in any manner prohibited above.
 ---------------------------------------------------------------
  

 Cite this work as:
 Gaussian 16, Revision B.01,
 M. J. Frisch, G. W. Trucks, H. B. Schlegel, G. E. Scuseria, 
 M. A. Robb, J. R. Cheeseman, G. Scalmani, V. Barone, 
 G. A. Petersson, H. Nakatsuji, X. Li, M. Caricato, A. V. Marenich, 
 J. Bloino, B. G. Janesko, R. Gomperts, B. Mennucci, H. P. Hratchian, 
 J. V. Ortiz, A. F. Izmaylov, J. L. Sonnenberg, D. Williams-Young, 
 F. Ding, F. Lipparini, F. Egidi, J. Goings, B. Peng, A. Petrone, 
 T. Henderson, D. Ranasinghe, V. G. Zakrzewski, J. Gao, N. Rega, 
 G. Zheng, W. Liang, M. Hada, M. Ehara, K. Toyota, R. Fukuda, 
 J. Hasegawa, M. Ishida, T. Nakajima, Y. Honda, O. Kitao, H. Nakai, 
 T. Vreven, K. Throssell, J. A. Montgomery, Jr., J. E. Peralta, 
 F. Ogliaro, M. J. Bearpark, J. J. Heyd, E. N. Brothers, K. N. Kudin, 
 V. N. Staroverov, T. A. Keith, R. Kobayashi, J. Normand, 
 K. Raghavachari, A. P. Rendell, J. C. Burant, S. S. Iyengar, 
 J. Tomasi, M. Cossi, J. M. Millam, M. Klene, C. Adamo, R. Cammi, 
 J. W. Ochterski, R. L. Martin, K. Morokuma, O. Farkas, 
 J. B. Foresman, and D. J. Fox, Gaussian, Inc., Wallingford CT, 2016.
 
 ******************************************
 Gaussian 16:  ES64L-G16RevB.01 20-Dec-2017
                21-Feb-2022 
 ******************************************
 %nproc=28
 Will use up to   28 processors via shared memory.
 %mem=120GB
 %chk=hoono_r1_0p977618.chk
 ---------------------------------------
 #p freq mp2/aug-cc-pvtz density=current
 ---------------------------------------
 1/10=4,30=1,38=1/1,3;
 2/12=2,17=6,18=5,40=1/2;
 3/5=16,6=1,7=10,11=9,25=1,30=1,71=2,140=1/1,2,3;
 4//1;
 5/5=2,38=5,98=1/2;
 8/6=3,8=1,10=1,19=11,30=-1/1;
 9/15=3,16=-3/6;
 11/6=1,8=1,15=11,17=12,24=-1,27=1,28=-2,29=300,32=6,42=3/1,2,10;
 10/6=2,21=1/2;
 8/6=4,8=1,10=1,19=11,30=-1/11,4;
 10/5=1,20=4/2;
 11/12=2,14=11,16=1,17=2,28=-2,42=3,76=2/2,10,12;
 6/7=2,8=2,9=2,10=2,22=-1/1;
 7/8=1,10=1,12=2,25=1,44=2/1,2,3,16;
 1/10=4,30=1/3;
 99//99;
 Leave Link    1 at Mon Feb 21 19:57:31 2022, MaxMem= 16106127360 cpu:               2.8 elap:               0.1
 (Enter /sw/contrib/gaussian/g16/B01/g16/l101.exe)
 -----
 title
 -----
 Symbolic Z-matrix:
 Charge =  0 Multiplicity = 1
 H
 O                    1    r1
 O                    2    r2       1    a1
 N                    3    r3       2    a2       1    d1       0
 O                    4    r4       3    a3       2    d2       0
       Variables:
  r1                    0.97762                  
  r2                    1.45492                  
  r3                    1.45878                  
  r4                    1.17073                  
  a1                   97.59495                  
  a2                  102.29752                  
  a3                  109.06955                  
  d1                  180.                       
  d2                  180.                       
 
 ITRead=  0  0  0  0  0
 MicOpt= -1 -1 -1 -1 -1
 NAtoms=      5 NQM=        5 NQMF=       0 NMMI=      0 NMMIF=      0
                NMic=       0 NMicF=      0.
                    Isotopes and Nuclear Properties:
 (Nuclear quadrupole moments (NQMom) in fm**2, nuclear magnetic moments (NMagM)
  in nuclear magnetons)

  Atom         1           2           3           4           5
 IAtWgt=           1          16          16          14          16
 AtmWgt=   1.0078250  15.9949146  15.9949146  14.0030740  15.9949146
 NucSpn=           1           0           0           2           0
 AtZEff=  -0.0000000  -0.0000000  -0.0000000  -0.0000000  -0.0000000
 NQMom=    0.0000000   0.0000000   0.0000000   2.0440000   0.0000000
 NMagM=    2.7928460   0.0000000   0.0000000   0.4037610   0.0000000
 AtZNuc=   1.0000000   8.0000000   8.0000000   7.0000000   8.0000000
 Leave Link  101 at Mon Feb 21 19:57:31 2022, MaxMem= 16106127360 cpu:               3.7 elap:               0.2
 (Enter /sw/contrib/gaussian/g16/B01/g16/l103.exe)

 GradGradGradGradGradGradGradGradGradGradGradGradGradGradGradGradGradGrad
 Berny optimization.
 Initialization pass.
                       ----------------------------
                       !    Initial Parameters    !
                       ! (Angstroms and Degrees)  !
 ----------------------                            ----------------------
 !      Name          Value   Derivative information (Atomic Units)     !
 ------------------------------------------------------------------------
 !       r1          0.9776   calculate D2E/DX2 analytically            !
 !       r2          1.4549   calculate D2E/DX2 analytically            !
 !       r3          1.4588   calculate D2E/DX2 analytically            !
 !       r4          1.1707   calculate D2E/DX2 analytically            !
 !       a1         97.5949   calculate D2E/DX2 analytically            !
 !       a2        102.2975   calculate D2E/DX2 analytically            !
 !       a3        109.0696   calculate D2E/DX2 analytically            !
 !       d1        180.0      calculate D2E/DX2 analytically            !
 !       d2        180.0      calculate D2E/DX2 analytically            !
 ------------------------------------------------------------------------
 Trust Radius=3.00D-01 FncErr=1.00D-07 GrdErr=1.00D-07 EigMax=2.50D+02 EigMin=1.00D-04
 Number of steps in this run=      2 maximum allowed number of steps=      2.
 GradGradGradGradGradGradGradGradGradGradGradGradGradGradGradGradGradGrad

 Leave Link  103 at Mon Feb 21 19:57:31 2022, MaxMem= 16106127360 cpu:               0.8 elap:               0.1
 (Enter /sw/contrib/gaussian/g16/B01/g16/l202.exe)
                          Input orientation:                          
 ---------------------------------------------------------------------
 Center     Atomic      Atomic             Coordinates (Angstroms)
 Number     Number       Type             X           Y           Z
 ---------------------------------------------------------------------
      1          1           0        0.000000    0.000000    0.000000
      2          8           0        0.000000    0.000000    0.977619
      3          8           0        1.442156    0.000000    1.169914
      4          7           0        1.561752    0.000000    2.623787
      5          8           0        2.695867    0.000000    2.914282
 ---------------------------------------------------------------------
                    Distance matrix (angstroms):
                    1          2          3          4          5
     1  H    0.000000
     2  O    0.977619   0.000000
     3  O    1.857017   1.454919   0.000000
     4  N    3.053413   2.269127   1.458784   0.000000
     5  O    3.969980   3.319392   2.148165   1.170729   0.000000
 Stoichiometry    HNO3
 Framework group  CS[SG(HNO3)]
 Deg. of freedom     7
 Full point group                 CS      NOp   2
 Largest Abelian subgroup         CS      NOp   2
 Largest concise Abelian subgroup C1      NOp   1
                         Standard orientation:                         
 ---------------------------------------------------------------------
 Center     Atomic      Atomic             Coordinates (Angstroms)
 Number     Number       Type             X           Y           Z
 ---------------------------------------------------------------------
      1          1           0        1.550000    1.695488   -0.000000
      2          8           0        1.454065    0.722587    0.000000
      3          8           0        0.000000    0.672740   -0.000000
      4          7           0       -0.261689   -0.762380    0.000000
      5          8           0       -1.418837   -0.940181   -0.000000
 ---------------------------------------------------------------------
 Rotational constants (GHZ):          54.9184873           5.0098199           4.5910145
 Leave Link  202 at Mon Feb 21 19:57:32 2022, MaxMem= 16106127360 cpu:               2.2 elap:               0.1
 (Enter /sw/contrib/gaussian/g16/B01/g16/l301.exe)
 Standard basis: Aug-CC-pVTZ (5D, 7F)
 Ernie: Thresh=  0.10000D-02 Tol=  0.10000D-05 Strict=F.
 Ernie:  12 primitive shells out of 131 were deleted.
 There are   166 symmetry adapted cartesian basis functions of A'  symmetry.
 There are    79 symmetry adapted cartesian basis functions of A"  symmetry.
 There are   136 symmetry adapted basis functions of A'  symmetry.
 There are    71 symmetry adapted basis functions of A"  symmetry.
   207 basis functions,   315 primitive gaussians,   245 cartesian basis functions
    16 alpha electrons       16 beta electrons
       nuclear repulsion energy       116.8220327208 Hartrees.
 IExCor=    0 DFT=F Ex=HF Corr=None ExCW=0 ScaHFX=  1.000000
 ScaDFX=  1.000000  1.000000  1.000000  1.000000 ScalE2=  1.000000  1.000000
 IRadAn=      5 IRanWt=     -1 IRanGd=            0 ICorTp=0 IEmpDi=  4
 NAtoms=    5 NActive=    5 NUniq=    5 SFac= 1.00D+00 NAtFMM=   60 NAOKFM=F Big=F
 Integral buffers will be    131072 words long.
 Raffenetti 1 integral format.
 Two-electron integral symmetry is turned on.
 Leave Link  301 at Mon Feb 21 19:57:32 2022, MaxMem= 16106127360 cpu:               2.4 elap:               0.1
 (Enter /sw/contrib/gaussian/g16/B01/g16/l302.exe)
 NPDir=0 NMtPBC=     1 NCelOv=     1 NCel=       1 NClECP=     1 NCelD=      1
         NCelK=      1 NCelE2=     1 NClLst=     1 CellRange=     0.0.
 One-electron integrals computed using PRISM.
 One-electron integral symmetry used in STVInt
 NBasis=   207 RedAO= T EigKep=  1.82D-04  NBF=   136    71
 NBsUse=   207 1.00D-06 EigRej= -1.00D+00 NBFU=   136    71
 Leave Link  302 at Mon Feb 21 19:57:32 2022, MaxMem= 16106127360 cpu:               5.6 elap:               0.2
 (Enter /sw/contrib/gaussian/g16/B01/g16/l303.exe)
 DipDrv:  MaxL=1.
 Leave Link  303 at Mon Feb 21 19:57:32 2022, MaxMem= 16106127360 cpu:               1.3 elap:               0.1
 (Enter /sw/contrib/gaussian/g16/B01/g16/l401.exe)
 ExpMin= 2.53D-02 ExpMax= 1.53D+04 ExpMxC= 5.22D+02 IAcc=3 IRadAn=         5 AccDes= 0.00D+00
 Harris functional with IExCor=  205 and IRadAn=       5 diagonalized for initial guess.
 HarFok:  IExCor=  205 AccDes= 0.00D+00 IRadAn=         5 IDoV= 1 UseB2=F ITyADJ=14
 ICtDFT=  3500011 ScaDFX=  1.000000  1.000000  1.000000  1.000000
 FoFCou: FMM=F IPFlag=           0 FMFlag=      100000 FMFlg1=           0
         NFxFlg=           0 DoJE=T BraDBF=F KetDBF=T FulRan=T
         wScrn=  0.000000 ICntrl=       500 IOpCl=  0 I1Cent=   200000004 NGrid=           0
         NMat0=    1 NMatS0=      1 NMatT0=    0 NMatD0=    1 NMtDS0=    0 NMtDT0=    0
 Petite list used in FoFCou.
 Harris En= -279.628548071030    
 JPrj=0 DoOrth=F DoCkMO=F.
 Initial guess orbital symmetries:
       Occupied  (A') (A') (A') (A') (A') (A') (A') (A') (A') (A')
                 (A") (A') (A') (A") (A") (A')
       Virtual   (A") (A') (A') (A') (A') (A') (A") (A') (A') (A')
                 (A") (A') (A") (A') (A') (A") (A') (A") (A') (A')
                 (A') (A') (A') (A') (A') (A") (A') (A") (A') (A')
                 (A") (A') (A") (A') (A') (A") (A') (A") (A') (A')
                 (A") (A') (A") (A') (A") (A') (A') (A') (A") (A")
                 (A') (A') (A') (A') (A") (A') (A") (A') (A") (A')
                 (A') (A') (A") (A') (A') (A") (A') (A") (A') (A')
                 (A") (A') (A') (A") (A") (A') (A') (A") (A') (A')
                 (A') (A") (A') (A") (A') (A") (A') (A") (A') (A')
                 (A') (A") (A') (A") (A') (A") (A") (A') (A') (A")
                 (A') (A') (A") (A') (A') (A') (A') (A") (A") (A')
                 (A") (A') (A') (A') (A") (A') (A') (A') (A") (A')
                 (A") (A') (A') (A") (A") (A') (A') (A") (A") (A')
                 (A') (A') (A') (A") (A") (A') (A") (A') (A') (A')
                 (A") (A') (A") (A') (A') (A") (A') (A') (A') (A')
                 (A") (A') (A') (A") (A') (A") (A') (A") (A') (A")
                 (A') (A") (A') (A") (A') (A") (A") (A") (A') (A')
                 (A") (A') (A") (A') (A") (A') (A") (A") (A') (A')
                 (A') (A') (A') (A') (A') (A') (A') (A') (A') (A')
                 (A')
 The electronic state of the initial guess is 1-A'.
 Leave Link  401 at Mon Feb 21 19:57:32 2022, MaxMem= 16106127360 cpu:               7.2 elap:               0.3
 (Enter /sw/contrib/gaussian/g16/B01/g16/l502.exe)
 Keep R1 ints in memory in symmetry-blocked form, NReq=348887737.
 FoFCou: FMM=F IPFlag=           0 FMFlag=           0 FMFlg1=           0
         NFxFlg=           0 DoJE=F BraDBF=F KetDBF=F FulRan=T
         wScrn=  0.000000 ICntrl=       600 IOpCl=  0 I1Cent=           0 NGrid=           0
         NMat0=    1 NMatS0=  21528 NMatT0=    0 NMatD0=    1 NMtDS0=    0 NMtDT0=    0
 Petite list used in FoFCou.
 Closed shell SCF:
 Using DIIS extrapolation, IDIIS=  1040.
 NGot= 16106127360 LenX= 15988850015 LenY= 15988789549
 Requested convergence on RMS density matrix=1.00D-08 within 128 cycles.
 Requested convergence on MAX density matrix=1.00D-06.
 Requested convergence on             energy=1.00D-06.
 No special actions if energy rises.

 Cycle   1  Pass 1  IDiag  1:
 E= -279.370506120890    
 DIIS: error= 2.76D-02 at cycle   1 NSaved=   1.
 NSaved= 1 IEnMin= 1 EnMin= -279.370506120890     IErMin= 1 ErrMin= 2.76D-02
 ErrMax= 2.76D-02  0.00D+00 EMaxC= 1.00D-01 BMatC= 4.37D-01 BMatP= 4.37D-01
 IDIUse=3 WtCom= 7.24D-01 WtEn= 2.76D-01
 Coeff-Com:  0.100D+01
 Coeff-En:   0.100D+01
 Coeff:      0.100D+01
 Gap=     0.513 Goal=   None    Shift=    0.000
 GapD=    0.513 DampG=2.000 DampE=0.500 DampFc=1.0000 IDamp=-1.
 RMSDP=1.62D-03 MaxDP=9.92D-02              OVMax= 1.13D-01

 Cycle   2  Pass 1  IDiag  1:
 E= -279.452318249710     Delta-E=       -0.081812128820 Rises=F Damp=F
 DIIS: error= 1.77D-02 at cycle   2 NSaved=   2.
 NSaved= 2 IEnMin= 2 EnMin= -279.452318249710     IErMin= 2 ErrMin= 1.77D-02
 ErrMax= 1.77D-02  0.00D+00 EMaxC= 1.00D-01 BMatC= 7.12D-02 BMatP= 4.37D-01
 IDIUse=3 WtCom= 8.23D-01 WtEn= 1.77D-01
 Coeff-Com:  0.194D+00 0.806D+00
 Coeff-En:   0.000D+00 0.100D+01
 Coeff:      0.159D+00 0.841D+00
 Gap=     0.529 Goal=   None    Shift=    0.000
 RMSDP=8.97D-04 MaxDP=3.74D-02 DE=-8.18D-02 OVMax= 6.95D-02

 Cycle   3  Pass 1  IDiag  1:
 E= -279.481124059266     Delta-E=       -0.028805809557 Rises=F Damp=F
 DIIS: error= 1.04D-02 at cycle   3 NSaved=   3.
 NSaved= 3 IEnMin= 3 EnMin= -279.481124059266     IErMin= 3 ErrMin= 1.04D-02
 ErrMax= 1.04D-02  0.00D+00 EMaxC= 1.00D-01 BMatC= 2.86D-02 BMatP= 7.12D-02
 IDIUse=3 WtCom= 8.96D-01 WtEn= 1.04D-01
 Coeff-Com: -0.331D-01 0.379D+00 0.654D+00
 Coeff-En:   0.000D+00 0.242D+00 0.758D+00
 Coeff:     -0.297D-01 0.365D+00 0.665D+00
 Gap=     0.510 Goal=   None    Shift=    0.000
 RMSDP=3.76D-04 MaxDP=1.54D-02 DE=-2.88D-02 OVMax= 3.80D-02

 Cycle   4  Pass 1  IDiag  1:
 E= -279.500134048520     Delta-E=       -0.019009989254 Rises=F Damp=F
 DIIS: error= 1.27D-03 at cycle   4 NSaved=   4.
 NSaved= 4 IEnMin= 4 EnMin= -279.500134048520     IErMin= 4 ErrMin= 1.27D-03
 ErrMax= 1.27D-03  0.00D+00 EMaxC= 1.00D-01 BMatC= 4.88D-04 BMatP= 2.86D-02
 IDIUse=3 WtCom= 9.87D-01 WtEn= 1.27D-02
 Coeff-Com: -0.116D-01 0.567D-01 0.157D+00 0.798D+00
 Coeff-En:   0.000D+00 0.000D+00 0.000D+00 0.100D+01
 Coeff:     -0.114D-01 0.560D-01 0.155D+00 0.801D+00
 Gap=     0.502 Goal=   None    Shift=    0.000
 RMSDP=9.03D-05 MaxDP=2.77D-03 DE=-1.90D-02 OVMax= 1.12D-02

 Cycle   5  Pass 1  IDiag  1:
 E= -279.500808254362     Delta-E=       -0.000674205842 Rises=F Damp=F
 DIIS: error= 7.40D-04 at cycle   5 NSaved=   5.
 NSaved= 5 IEnMin= 5 EnMin= -279.500808254362     IErMin= 5 ErrMin= 7.40D-04
 ErrMax= 7.40D-04  0.00D+00 EMaxC= 1.00D-01 BMatC= 8.74D-05 BMatP= 4.88D-04
 IDIUse=3 WtCom= 9.93D-01 WtEn= 7.40D-03
 Coeff-Com:  0.613D-02-0.727D-01-0.118D+00 0.247D-01 0.116D+01
 Coeff-En:   0.000D+00 0.000D+00 0.000D+00 0.000D+00 0.100D+01
 Coeff:      0.608D-02-0.721D-01-0.117D+00 0.245D-01 0.116D+01
 Gap=     0.502 Goal=   None    Shift=    0.000
 RMSDP=7.61D-05 MaxDP=2.10D-03 DE=-6.74D-04 OVMax= 1.11D-02

 Cycle   6  Pass 1  IDiag  1:
 E= -279.501123222375     Delta-E=       -0.000314968013 Rises=F Damp=F
 DIIS: error= 2.83D-04 at cycle   6 NSaved=   6.
 NSaved= 6 IEnMin= 6 EnMin= -279.501123222375     IErMin= 6 ErrMin= 2.83D-04
 ErrMax= 2.83D-04  0.00D+00 EMaxC= 1.00D-01 BMatC= 1.68D-05 BMatP= 8.74D-05
 IDIUse=3 WtCom= 9.97D-01 WtEn= 2.83D-03
 Coeff-Com:  0.617D-03 0.138D-02 0.408D-02-0.132D+00-0.224D+00 0.135D+01
 Coeff-En:   0.000D+00 0.000D+00 0.000D+00 0.000D+00 0.000D+00 0.100D+01
 Coeff:      0.615D-03 0.138D-02 0.407D-02-0.131D+00-0.224D+00 0.135D+01
 Gap=     0.502 Goal=   None    Shift=    0.000
 RMSDP=4.53D-05 MaxDP=1.25D-03 DE=-3.15D-04 OVMax= 5.56D-03

 Cycle   7  Pass 1  IDiag  1:
 E= -279.501196182687     Delta-E=       -0.000072960311 Rises=F Damp=F
 DIIS: error= 1.25D-04 at cycle   7 NSaved=   7.
 NSaved= 7 IEnMin= 7 EnMin= -279.501196182687     IErMin= 7 ErrMin= 1.25D-04
 ErrMax= 1.25D-04  0.00D+00 EMaxC= 1.00D-01 BMatC= 4.59D-06 BMatP= 1.68D-05
 IDIUse=3 WtCom= 9.99D-01 WtEn= 1.25D-03
 Coeff-Com: -0.937D-03 0.136D-01 0.265D-01-0.259D-01-0.287D+00 0.396D+00
 Coeff-Com:  0.878D+00
 Coeff-En:   0.000D+00 0.000D+00 0.000D+00 0.000D+00 0.000D+00 0.000D+00
 Coeff-En:   0.100D+01
 Coeff:     -0.935D-03 0.136D-01 0.265D-01-0.259D-01-0.287D+00 0.395D+00
 Coeff:      0.879D+00
 Gap=     0.502 Goal=   None    Shift=    0.000
 RMSDP=1.33D-05 MaxDP=3.78D-04 DE=-7.30D-05 OVMax= 1.56D-03

 Cycle   8  Pass 1  IDiag  1:
 E= -279.501205192656     Delta-E=       -0.000009009969 Rises=F Damp=F
 DIIS: error= 5.69D-05 at cycle   8 NSaved=   8.
 NSaved= 8 IEnMin= 8 EnMin= -279.501205192656     IErMin= 8 ErrMin= 5.69D-05
 ErrMax= 5.69D-05  0.00D+00 EMaxC= 1.00D-01 BMatC= 6.12D-07 BMatP= 4.59D-06
 IDIUse=1 WtCom= 1.00D+00 WtEn= 0.00D+00
 Coeff-Com: -0.451D-03 0.348D-02 0.764D-02 0.277D-01-0.416D-01-0.197D+00
 Coeff-Com:  0.166D+00 0.103D+01
 Coeff:     -0.451D-03 0.348D-02 0.764D-02 0.277D-01-0.416D-01-0.197D+00
 Coeff:      0.166D+00 0.103D+01
 Gap=     0.502 Goal=   None    Shift=    0.000
 RMSDP=6.96D-06 MaxDP=2.04D-04 DE=-9.01D-06 OVMax= 7.52D-04

 Cycle   9  Pass 1  IDiag  1:
 E= -279.501206993036     Delta-E=       -0.000001800381 Rises=F Damp=F
 DIIS: error= 1.58D-05 at cycle   9 NSaved=   9.
 NSaved= 9 IEnMin= 9 EnMin= -279.501206993036     IErMin= 9 ErrMin= 1.58D-05
 ErrMax= 1.58D-05  0.00D+00 EMaxC= 1.00D-01 BMatC= 6.92D-08 BMatP= 6.12D-07
 IDIUse=1 WtCom= 1.00D+00 WtEn= 0.00D+00
 Coeff-Com:  0.122D-03-0.172D-02-0.306D-02-0.196D-02 0.340D-01-0.207D-03
 Coeff-Com: -0.164D+00-0.105D+00 0.124D+01
 Coeff:      0.122D-03-0.172D-02-0.306D-02-0.196D-02 0.340D-01-0.207D-03
 Coeff:     -0.164D+00-0.105D+00 0.124D+01
 Gap=     0.502 Goal=   None    Shift=    0.000
 RMSDP=1.94D-06 MaxDP=6.63D-05 DE=-1.80D-06 OVMax= 1.76D-04

 Cycle  10  Pass 1  IDiag  1:
 E= -279.501207153852     Delta-E=       -0.000000160815 Rises=F Damp=F
 DIIS: error= 4.15D-06 at cycle  10 NSaved=  10.
 NSaved=10 IEnMin=10 EnMin= -279.501207153852     IErMin=10 ErrMin= 4.15D-06
 ErrMax= 4.15D-06  0.00D+00 EMaxC= 1.00D-01 BMatC= 5.60D-09 BMatP= 6.92D-08
 IDIUse=1 WtCom= 1.00D+00 WtEn= 0.00D+00
 Coeff-Com:  0.317D-04-0.251D-03-0.337D-03-0.274D-02 0.180D-02 0.197D-01
 Coeff-Com: -0.131D-01-0.755D-01-0.766D-01 0.115D+01
 Coeff:      0.317D-04-0.251D-03-0.337D-03-0.274D-02 0.180D-02 0.197D-01
 Coeff:     -0.131D-01-0.755D-01-0.766D-01 0.115D+01
 Gap=     0.502 Goal=   None    Shift=    0.000
 RMSDP=5.06D-07 MaxDP=2.11D-05 DE=-1.61D-07 OVMax= 4.18D-05

 Cycle  11  Pass 1  IDiag  1:
 E= -279.501207166446     Delta-E=       -0.000000012594 Rises=F Damp=F
 DIIS: error= 2.03D-06 at cycle  11 NSaved=  11.
 NSaved=11 IEnMin=11 EnMin= -279.501207166446     IErMin=11 ErrMin= 2.03D-06
 ErrMax= 2.03D-06  0.00D+00 EMaxC= 1.00D-01 BMatC= 6.65D-10 BMatP= 5.60D-09
 IDIUse=1 WtCom= 1.00D+00 WtEn= 0.00D+00
 Coeff-Com: -0.213D-04 0.245D-03 0.488D-03 0.529D-03-0.430D-02-0.354D-02
 Coeff-Com:  0.208D-01 0.314D-01-0.139D+00-0.179D+00 0.127D+01
 Coeff:     -0.213D-04 0.245D-03 0.488D-03 0.529D-03-0.430D-02-0.354D-02
 Coeff:      0.208D-01 0.314D-01-0.139D+00-0.179D+00 0.127D+01
 Gap=     0.502 Goal=   None    Shift=    0.000
 RMSDP=1.78D-07 MaxDP=6.53D-06 DE=-1.26D-08 OVMax= 1.75D-05

 Cycle  12  Pass 1  IDiag  1:
 E= -279.501207168264     Delta-E=       -0.000000001818 Rises=F Damp=F
 DIIS: error= 5.90D-07 at cycle  12 NSaved=  12.
 NSaved=12 IEnMin=12 EnMin= -279.501207168264     IErMin=12 ErrMin= 5.90D-07
 ErrMax= 5.90D-07  0.00D+00 EMaxC= 1.00D-01 BMatC= 7.19D-11 BMatP= 6.65D-10
 IDIUse=1 WtCom= 1.00D+00 WtEn= 0.00D+00
 Coeff-Com:  0.121D-05-0.289D-04-0.622D-04 0.188D-03 0.106D-02-0.230D-02
 Coeff-Com: -0.407D-02 0.544D-02 0.415D-01-0.113D+00-0.281D+00 0.135D+01
 Coeff:      0.121D-05-0.289D-04-0.622D-04 0.188D-03 0.106D-02-0.230D-02
 Coeff:     -0.407D-02 0.544D-02 0.415D-01-0.113D+00-0.281D+00 0.135D+01
 Gap=     0.502 Goal=   None    Shift=    0.000
 RMSDP=7.17D-08 MaxDP=2.82D-06 DE=-1.82D-09 OVMax= 6.75D-06

 Cycle  13  Pass 1  IDiag  1:
 E= -279.501207168493     Delta-E=       -0.000000000229 Rises=F Damp=F
 DIIS: error= 1.69D-07 at cycle  13 NSaved=  13.
 NSaved=13 IEnMin=13 EnMin= -279.501207168493     IErMin=13 ErrMin= 1.69D-07
 ErrMax= 1.69D-07  0.00D+00 EMaxC= 1.00D-01 BMatC= 4.03D-12 BMatP= 7.19D-11
 IDIUse=1 WtCom= 1.00D+00 WtEn= 0.00D+00
 Coeff-Com:  0.129D-05-0.141D-04-0.226D-04-0.897D-04 0.126D-03 0.757D-03
 Coeff-Com: -0.825D-03-0.328D-02 0.594D-03 0.409D-01-0.349D-01-0.327D+00
 Coeff-Com:  0.132D+01
 Coeff:      0.129D-05-0.141D-04-0.226D-04-0.897D-04 0.126D-03 0.757D-03
 Coeff:     -0.825D-03-0.328D-02 0.594D-03 0.409D-01-0.349D-01-0.327D+00
 Coeff:      0.132D+01
 Gap=     0.502 Goal=   None    Shift=    0.000
 RMSDP=1.91D-08 MaxDP=5.63D-07 DE=-2.29D-10 OVMax= 1.57D-06

 Cycle  14  Pass 1  IDiag  1:
 E= -279.501207168506     Delta-E=       -0.000000000013 Rises=F Damp=F
 DIIS: error= 2.45D-08 at cycle  14 NSaved=  14.
 NSaved=14 IEnMin=14 EnMin= -279.501207168506     IErMin=14 ErrMin= 2.45D-08
 ErrMax= 2.45D-08  0.00D+00 EMaxC= 1.00D-01 BMatC= 1.97D-13 BMatP= 4.03D-12
 IDIUse=1 WtCom= 1.00D+00 WtEn= 0.00D+00
 Coeff-Com: -0.190D-06 0.311D-05 0.556D-05 0.438D-05-0.821D-04 0.454D-04
 Coeff-Com:  0.277D-03 0.230D-03-0.243D-02 0.141D-02 0.170D-01-0.256D-01
 Coeff-Com: -0.200D+00 0.121D+01
 Coeff:     -0.190D-06 0.311D-05 0.556D-05 0.438D-05-0.821D-04 0.454D-04
 Coeff:      0.277D-03 0.230D-03-0.243D-02 0.141D-02 0.170D-01-0.256D-01
 Coeff:     -0.200D+00 0.121D+01
 Gap=     0.502 Goal=   None    Shift=    0.000
 RMSDP=3.79D-09 MaxDP=9.10D-08 DE=-1.28D-11 OVMax= 3.42D-07

 SCF Done:  E(RHF) =  -279.501207169     A.U. after   14 cycles
            NFock= 14  Conv=0.38D-08     -V/T= 2.0024
 KE= 2.788293792947D+02 PE=-8.949681944745D+02 EE= 2.198155752906D+02
 Leave Link  502 at Mon Feb 21 19:57:36 2022, MaxMem= 16106127360 cpu:              57.2 elap:               3.8
 (Enter /sw/contrib/gaussian/g16/B01/g16/l801.exe)
 ExpMin= 2.53D-02 ExpMax= 1.53D+04 ExpMxC= 5.22D+02 IAcc=3 IRadAn=         5 AccDes= 0.00D+00
 HarFok:  IExCor=  205 AccDes= 0.00D+00 IRadAn=         5 IDoV=-2 UseB2=F ITyADJ=14
 ICtDFT= 12500011 ScaDFX=  1.000000  1.000000  1.000000  1.000000
 Largest valence mixing into a core orbital is  2.08D-04
 Largest core mixing into a valence orbital is  3.63D-05
 Range of M.O.s used for correlation:     5   207
 NBasis=   207 NAE=    16 NBE=    16 NFC=     4 NFV=     0
 NROrb=    203 NOA=    12 NOB=    12 NVA=   191 NVB=   191

 **** Warning!!: The largest alpha MO coefficient is  0.17490516D+02

 Leave Link  801 at Mon Feb 21 19:57:36 2022, MaxMem= 16106127360 cpu:               2.9 elap:               0.2
 (Enter /sw/contrib/gaussian/g16/B01/g16/l906.exe)
 Frozen-core derivative calculation, NFC=   4 NFV=   0.
 FulOut=F Deriv=T AODrv=T NAtomX=     5
   MMem=           0  MDisk=          12 MDiskD=          12
  W3Min=      811440 MinDsk=     2425030 NBas6D=         245
 NBas2D=       30762    NTT=       30135    LW2=     7400000
    MDV= 16105574283 MDiskM=      328644 NBas2p=       30702
 Disk-based method using ON**2 memory for 12 occupieds at a time.
 Permanent disk used for amplitudes=    11516536 words.
 Estimated scratch disk usage=   321251614 words.
 IMap=   1   2   3   4   5   6   7   8   9  10  11  12  13  14  15  16
 Actual    scratch disk usage=   310331678 words.
 JobTyp=1 Pass  1:  I=   5 to  16 NPSUse= 28 ParTrn=T ParDer=T DoDerP=T.
 (rs|ai) integrals will be sorted in core.
 Spin components of T(2) and E(2):
     alpha-alpha T2 =       0.3406698269D-01 E2=     -0.1224597037D+00
     alpha-beta  T2 =       0.1871027996D+00 E2=     -0.7005411340D+00
     beta-beta   T2 =       0.3406698269D-01 E2=     -0.1224597037D+00
 The integrals were generated   1 times.
 ANorm=    0.1120373494D+01
 E2 =    -0.9454605414D+00 EUMP2 =    -0.28044666770988D+03
 Leave Link  906 at Mon Feb 21 19:59:14 2022, MaxMem= 16106127360 cpu:            2716.4 elap:              97.3
 (Enter /sw/contrib/gaussian/g16/B01/g16/l1101.exe)
 Using compressed Sx but separate Hx and Fx, NAtomX=     5.
 Will process      6 centers per pass.
 Leave Link 1101 at Mon Feb 21 19:59:14 2022, MaxMem= 16106127360 cpu:               5.2 elap:               0.2
 (Enter /sw/contrib/gaussian/g16/B01/g16/l1102.exe)
 Leave Link 1102 at Mon Feb 21 19:59:14 2022, MaxMem= 16106127360 cpu:               0.5 elap:               0.0
 (Enter /sw/contrib/gaussian/g16/B01/g16/l1110.exe)
 Forming Gx(P) for the SCF density, NAtomX=     5.
 Integral derivatives from FoFJK, PRISM(SPDF).
 Do as many integral derivatives as possible in FoFJK.
 G2DrvN: MDV=   16106126844.
 G2DrvN: will do     6 centers at a time, making    1 passes.
 Calling FoFCou, ICntrl=  3107 FMM=F I1Cent=   0 AccDes= 0.00D+00.
 FoFJK:  IHMeth= 1 ICntrl=    3107 DoSepK=F KAlg= 0 I1Cent=           0 FoldK=F
 IRaf=         0 NMat=       1 IRICut=       1 DoRegI=T DoRafI=F ISym2E= 1 IDoP0=0 IntGTp=1.
 FoFCou: FMM=F IPFlag=           0 FMFlag=      100000 FMFlg1=           0
         NFxFlg=           0 DoJE=F BraDBF=F KetDBF=F FulRan=T
         wScrn=  0.000000 ICntrl=      3107 IOpCl=  0 I1Cent=           0 NGrid=           0
         NMat0=    1 NMatS0=      1 NMatT0=    0 NMatD0=    1 NMtDS0=    0 NMtDT0=    0
 Petite list used in FoFCou.
 End of G2Drv F.D. properties file   721 does not exist.
 End of G2Drv F.D. properties file   722 does not exist.
 End of G2Drv F.D. properties file   788 does not exist.
 Leave Link 1110 at Mon Feb 21 19:59:17 2022, MaxMem= 16106127360 cpu:              84.7 elap:               3.1
 (Enter /sw/contrib/gaussian/g16/B01/g16/l1002.exe)
 Minotr:  Closed shell wavefunction.
          IDoAtm=11111
          Frozen-core window.
          Direct CPHF calculation.
          Differentiating once with respect to electric field.
                with respect to dipole field.
          Differentiating once with respect to nuclear coordinates.
          Requested convergence is 1.0D-08 RMS, and 1.0D-07 maximum.
          Secondary convergence is 1.0D-12 RMS, and 1.0D-12 maximum.
          NewPWx=T KeepS1=T KeepF1=T KeepIn=T MapXYZ=F SortEE=F KeepMc=T.
 Keep R1 ints in memory in symmetry-blocked form, NReq=348888983.
 FoFCou: FMM=F IPFlag=           0 FMFlag=           0 FMFlg1=           0
         NFxFlg=           0 DoJE=F BraDBF=F KetDBF=F FulRan=T
         wScrn=  0.000000 ICntrl=       600 IOpCl=  0 I1Cent=           0 NGrid=           0
         NMat0=    1 NMatS0=  21528 NMatT0=    0 NMatD0=    1 NMtDS0=    0 NMtDT0=    0
 Petite list used in FoFCou.
          MDV=   16106127360 using IRadAn=       1.
          Solving linear equations simultaneously, MaxMat=       0.
          There are    18 degrees of freedom in the 1st order CPHF.  IDoFFX=6 NUNeed=    18.
     15 vectors produced by pass  0 Test12= 1.70D-14 5.56D-09 XBig12= 8.30D+00 1.07D+00.
 AX will form    15 AO Fock derivatives at one time.
     15 vectors produced by pass  1 Test12= 1.70D-14 5.56D-09 XBig12= 1.34D+00 2.62D-01.
     15 vectors produced by pass  2 Test12= 1.70D-14 5.56D-09 XBig12= 1.41D-01 9.73D-02.
     15 vectors produced by pass  3 Test12= 1.70D-14 5.56D-09 XBig12= 4.87D-03 1.07D-02.
     15 vectors produced by pass  4 Test12= 1.70D-14 5.56D-09 XBig12= 9.62D-05 1.88D-03.
     15 vectors produced by pass  5 Test12= 1.70D-14 5.56D-09 XBig12= 1.37D-06 1.73D-04.
     15 vectors produced by pass  6 Test12= 1.70D-14 5.56D-09 XBig12= 1.09D-08 1.53D-05.
     12 vectors produced by pass  7 Test12= 1.70D-14 5.56D-09 XBig12= 7.98D-11 1.33D-06.
      3 vectors produced by pass  8 Test12= 1.70D-14 5.56D-09 XBig12= 5.62D-13 1.17D-07.
      2 vectors produced by pass  9 Test12= 1.70D-14 5.56D-09 XBig12= 3.68D-15 1.02D-08.
 InvSVY:  IOpt=1 It=  1 EMax= 7.77D-16
 Solved reduced A of dimension   122 with    15 vectors.
 FullF1:  Do perturbations      1 to      18.
 Saving first derivative matrices.
 End of Minotr F.D. properties file   721 does not exist.
 End of Minotr F.D. properties file   722 does not exist.
 End of Minotr F.D. properties file   788 does not exist.
 Leave Link 1002 at Mon Feb 21 19:59:20 2022, MaxMem= 16106127360 cpu:              81.9 elap:               3.0
 (Enter /sw/contrib/gaussian/g16/B01/g16/l811.exe)
 MDV= 16106127360.
 Form MO integral derivatives with frozen-active canonical formalism.
 MOERI=1 MOERIx=1 NAtoms=     5 NAtomX=     5.
 Discarding MO integrals.
 MO basis two electron integral derivatives will not be stored on disk.
 IAlg= 3 DoFC=T DoPWx=T Debug=F.
 Frozen-core window:  NFC=   4 NFV=   0.
 Reordered first order wavefunction length =     18678272
 In DefCFB: NBatch=  1 ICI= 16 ICA=191 LFMax= 96
            Large arrays: LIAPS=   619940160 LIARS=   288257200 words.
 In StABat: MaxSiz= 55 MinSiz= 25 NAtomB=  5
 DoIAMN: NPSUse= 28.
 Leave Link  811 at Mon Feb 21 20:00:41 2022, MaxMem= 16106127360 cpu:            2249.9 elap:              80.5
 (Enter /sw/contrib/gaussian/g16/B01/g16/l804.exe)
 Frozen-core window:  NFC=   4 NFV=   0.
 Closed-shell transformation, MDV= 16106127360 ITran=4 ISComp=1.
 Semi-Direct transformation.
 ModeAB=           2 MOrb=            16 LenV=   16104923051
 LASXX=     67341636 LTotXX=    67341636 LenRXX=    67341636
 LTotAB=    68301760 MaxLAS=    99807120 LenRXY=    99807120
 NonZer=   134683272 LenScr=   202817536 LnRSAI=           0
 LnScr1=           0 LExtra=           0 Total=    369966292
 MaxDsk=          -1 SrtSym=           F ITran=            4
 DoSDTr:  NPSUse= 28
 JobTyp=0 Pass  1:  I=   1 to  16.
 (rs|ai) integrals will be sorted in core.
 Complete sort for first half transformation.
 First half transformation complete.
 Begin second half transformation for I=  10.
 Begin second half transformation for I=  10.
 Complete sort for second half transformation.
 Second half transformation complete.
 Spin components of T(2) and E(2):
     alpha-alpha T2 =       0.3406698269D-01 E2=     -0.1224597037D+00
     alpha-beta  T2 =       0.1871027996D+00 E2=     -0.7005411340D+00
     beta-beta   T2 =       0.3406698269D-01 E2=     -0.1224597037D+00
 ANorm=    0.1584447389D+01
 E2 =    -0.9454605414D+00 EUMP2 =    -0.28044666770988D+03
 Leave Link  804 at Mon Feb 21 20:00:57 2022, MaxMem= 16106127360 cpu:             427.3 elap:              15.3
 (Enter /sw/contrib/gaussian/g16/B01/g16/l1002.exe)
 Minotr:  Closed shell wavefunction.
          Computing MP2/KS-MP2 derivatives.
          Using Z-Vector for PSCF gradient.
          Skipping F1 and S1 gradient terms here.
          IDoAtm=11111
          Frozen-core window.
          Using MO integrals in the linear equations.
          Forming densities via direct SCF.
          Differentiating once with respect to electric field.
                with respect to dipole field.
          Differentiating once with respect to nuclear coordinates.
          Using symmetry in CPHF.
          Requested convergence is 1.0D-10 RMS, and 1.0D-09 maximum.
          NewPWx=F KeepS1=T KeepF1=T KeepIn=T MapXYZ=F SortEE=F KeepMc=T.
          MDV=   16106127360 using IRadAn=       5.
          Solving linear equations separately, MaxMat=       0.
          There are     1 degrees of freedom in the 1st order CPHF.  IDoFFX=0 NUNeed=     1.
 FoFJK:  IHMeth= 1 ICntrl=       0 DoSepK=F KAlg= 0 I1Cent=           0 FoldK=F
 IRaf=         0 NMat=       1 IRICut=       1 DoRegI=T DoRafI=F ISym2E= 0 IDoP0=0 IntGTp=1.
 FoFCou: FMM=F IPFlag=           0 FMFlag=      100000 FMFlg1=           0
         NFxFlg=           0 DoJE=F BraDBF=F KetDBF=F FulRan=T
         wScrn=  0.000000 ICntrl=         0 IOpCl=  0 I1Cent=           0 NGrid=           0
         NMat0=    1 NMatS0=      1 NMatT0=    0 NMatD0=    1 NMtDS0=    0 NMtDT0=    0
 Symmetry not used in FoFCou.
 LinEq1:  Iter=  0 NonCon=     1 RMS=5.96D-03 Max=1.33D-01 NDo=     1
 LinEq1:  Iter=  1 NonCon=     1 RMS=1.91D-03 Max=3.82D-02 NDo=     1
 LinEq1:  Iter=  2 NonCon=     1 RMS=8.69D-04 Max=1.40D-02 NDo=     1
 LinEq1:  Iter=  3 NonCon=     1 RMS=3.87D-04 Max=7.80D-03 NDo=     1
 LinEq1:  Iter=  4 NonCon=     1 RMS=1.20D-04 Max=1.91D-03 NDo=     1
 LinEq1:  Iter=  5 NonCon=     1 RMS=4.53D-05 Max=7.22D-04 NDo=     1
 LinEq1:  Iter=  6 NonCon=     1 RMS=2.03D-05 Max=2.40D-04 NDo=     1
 LinEq1:  Iter=  7 NonCon=     1 RMS=8.14D-06 Max=1.59D-04 NDo=     1
 LinEq1:  Iter=  8 NonCon=     1 RMS=3.49D-06 Max=3.43D-05 NDo=     1
 LinEq1:  Iter=  9 NonCon=     1 RMS=9.51D-07 Max=1.32D-05 NDo=     1
 LinEq1:  Iter= 10 NonCon=     1 RMS=1.87D-07 Max=2.02D-06 NDo=     1
 LinEq1:  Iter= 11 NonCon=     1 RMS=3.49D-08 Max=3.61D-07 NDo=     1
 LinEq1:  Iter= 12 NonCon=     1 RMS=8.40D-09 Max=1.31D-07 NDo=     1
 LinEq1:  Iter= 13 NonCon=     1 RMS=1.51D-09 Max=2.63D-08 NDo=     1
 LinEq1:  Iter= 14 NonCon=     1 RMS=2.74D-10 Max=3.84D-09 NDo=     1
 LinEq1:  Iter= 15 NonCon=     0 RMS=4.94D-11 Max=5.58D-10 NDo=     1
 Linear equations converged to 1.000D-10 1.000D-09 after    15 iterations.
 End of Minotr F.D. properties file   721 does not exist.
 End of Minotr F.D. properties file   722 does not exist.
 End of Minotr F.D. properties file   788 does not exist.
 Leave Link 1002 at Mon Feb 21 20:00:59 2022, MaxMem= 16106127360 cpu:              66.4 elap:               2.4
 (Enter /sw/contrib/gaussian/g16/B01/g16/l1102.exe)
 Use density number 2.
 Symmetrizing basis deriv contribution to polar:
 IMax=3 JMax=2 DiffMx= 0.00D+00
 Leave Link 1102 at Mon Feb 21 20:00:59 2022, MaxMem= 16106127360 cpu:               0.8 elap:               0.1
 (Enter /sw/contrib/gaussian/g16/B01/g16/l1110.exe)
 Forming Gx(P) for generalized density number  2 NAtomX=     5.
 Integral derivatives from FoFJK, PRISM(SPDF).
 Do as many integral derivatives as possible in FoFJK.
 G2DrvN: MDV=   16106126844.
 G2DrvN: will do     6 centers at a time, making    1 passes.
 Calling FoFCou, ICntrl=  3107 FMM=F I1Cent=   0 AccDes= 0.00D+00.
 FoFJK:  IHMeth= 1 ICntrl=    3107 DoSepK=F KAlg= 0 I1Cent=           0 FoldK=F
 IRaf=         0 NMat=       1 IRICut=       1 DoRegI=T DoRafI=F ISym2E= 1 IDoP0=0 IntGTp=1.
 FoFCou: FMM=F IPFlag=           0 FMFlag=      100000 FMFlg1=           0
         NFxFlg=           0 DoJE=F BraDBF=F KetDBF=F FulRan=T
         wScrn=  0.000000 ICntrl=      3107 IOpCl=  0 I1Cent=           0 NGrid=           0
         NMat0=    1 NMatS0=      1 NMatT0=    0 NMatD0=    1 NMtDS0=    0 NMtDT0=    0
 Petite list used in FoFCou.
 End of G2Drv F.D. properties file   721 does not exist.
 End of G2Drv F.D. properties file   722 does not exist.
 End of G2Drv F.D. properties file   788 does not exist.
 Leave Link 1110 at Mon Feb 21 20:01:02 2022, MaxMem= 16106127360 cpu:              83.9 elap:               3.0
 (Enter /sw/contrib/gaussian/g16/B01/g16/l1112.exe)
 MP22nd: MDV=   16106127360
 This link is doing NAtomX=     5 total of    18 degrees of freedom.
 Using ON3 I/O method in MakUI.
 Frozen-core window:  NFC=   4 NFV=   0.
 Using Ix for Sx.
 Use MO integrals over full window.
 Using OV2 memory method for fx*t*t/D, MaxI=    16 DoOO2=F NP=  28.
 R2 and R3 integrals will be kept in memory, NReq=   915591705.
 FoFCou: FMM=F IPFlag=           0 FMFlag=           0 FMFlg1=           0
         NFxFlg=           0 DoJE=F BraDBF=F KetDBF=F FulRan=T
         wScrn=  0.000000 ICntrl=       600 IOpCl=  0 I1Cent=           0 NGrid=           0
         NMat0=    1 NMatS0=      1 NMatT0=    0 NMatD0=    1 NMtDS0=    0 NMtDT0=    0
 Symmetry not used in FoFCou.
 DD1Dir will call FoFMem   1 times, MxPair=       272
 NAB=   136 NAA=     0 NBB=     0.
 Symmetry is being used.
 FoFJK:  IHMeth= 1 ICntrl=       0 DoSepK=F KAlg= 0 I1Cent=           0 FoldK=F
 IRaf=         0 NMat=      18 IRICut=      45 DoRegI=T DoRafI=T ISym2E= 2 IDoP0=3 IntGTp=3.
 Discarding MO integrals.
 Leave Link 1112 at Mon Feb 21 20:01:35 2022, MaxMem= 16106127360 cpu:             903.0 elap:              32.6
 (Enter /sw/contrib/gaussian/g16/B01/g16/l601.exe)
 Copying SCF densities to generalized density rwf, IOpCl= 0 IROHF=0.

 **********************************************************************

            Population analysis using the MP2 Density.

 **********************************************************************

 Orbital symmetries:
       Occupied  (A') (A') (A') (A') (A') (A') (A') (A') (A') (A')
                 (A") (A') (A") (A') (A") (A')
       Virtual   (A') (A") (A') (A') (A') (A") (A') (A') (A") (A')
                 (A") (A') (A') (A') (A") (A') (A') (A") (A') (A')
                 (A') (A') (A') (A') (A") (A') (A') (A") (A') (A')
                 (A") (A') (A") (A') (A') (A") (A') (A') (A") (A')
                 (A") (A') (A") (A') (A') (A") (A') (A') (A") (A')
                 (A") (A') (A') (A') (A") (A') (A") (A') (A") (A')
                 (A') (A') (A") (A') (A') (A") (A') (A") (A') (A')
                 (A") (A') (A') (A") (A") (A') (A') (A") (A') (A')
                 (A') (A") (A') (A") (A") (A') (A') (A") (A') (A')
                 (A") (A') (A') (A") (A') (A") (A') (A") (A') (A')
                 (A") (A') (A") (A') (A') (A") (A') (A') (A") (A')
                 (A") (A') (A') (A') (A") (A') (A') (A') (A') (A")
                 (A") (A') (A") (A') (A') (A") (A") (A') (A") (A')
                 (A') (A') (A') (A") (A") (A") (A') (A') (A') (A')
                 (A") (A') (A") (A') (A') (A") (A') (A') (A') (A')
                 (A") (A') (A') (A") (A') (A") (A') (A") (A') (A")
                 (A') (A") (A') (A') (A") (A") (A") (A') (A") (A')
                 (A") (A') (A") (A') (A") (A') (A") (A") (A') (A')
                 (A') (A') (A') (A') (A') (A') (A') (A') (A') (A')
                 (A')
 The electronic state is 1-A'.
 Alpha  occ. eigenvalues --  -20.69065 -20.68413 -20.66065 -15.81266  -1.62383
 Alpha  occ. eigenvalues --   -1.49470  -1.25274  -0.94787  -0.77210  -0.75848
 Alpha  occ. eigenvalues --   -0.71159  -0.67804  -0.62020  -0.58901  -0.48493
 Alpha  occ. eigenvalues --   -0.47227
 Alpha virt. eigenvalues --    0.02946   0.07181   0.08598   0.10174   0.13396
 Alpha virt. eigenvalues --    0.13402   0.14370   0.15422   0.17838   0.19420
 Alpha virt. eigenvalues --    0.19984   0.20636   0.22084   0.23566   0.23746
 Alpha virt. eigenvalues --    0.26583   0.29326   0.30350   0.31014   0.34351
 Alpha virt. eigenvalues --    0.35021   0.38708   0.42083   0.43062   0.52741
 Alpha virt. eigenvalues --    0.52936   0.55853   0.58178   0.62605   0.63831
 Alpha virt. eigenvalues --    0.67458   0.68366   0.70642   0.71078   0.72342
 Alpha virt. eigenvalues --    0.72940   0.74450   0.79179   0.79194   0.81019
 Alpha virt. eigenvalues --    0.81281   0.83048   0.86836   0.90834   0.92166
 Alpha virt. eigenvalues --    0.92618   0.95586   0.97852   0.98345   1.01488
 Alpha virt. eigenvalues --    1.05239   1.05482   1.08159   1.11636   1.14017
 Alpha virt. eigenvalues --    1.18978   1.22023   1.23100   1.33910   1.35095
 Alpha virt. eigenvalues --    1.38636   1.45109   1.48537   1.50755   1.53828
 Alpha virt. eigenvalues --    1.56690   1.58027   1.61232   1.66485   1.67025
 Alpha virt. eigenvalues --    1.70322   1.79281   1.83103   1.83491   1.87858
 Alpha virt. eigenvalues --    1.90904   1.95141   1.99186   2.00431   2.07762
 Alpha virt. eigenvalues --    2.11991   2.13213   2.15015   2.22398   2.26409
 Alpha virt. eigenvalues --    2.26552   2.28957   2.31351   2.34347   2.38463
 Alpha virt. eigenvalues --    2.42440   2.42810   2.45422   2.46268   2.47627
 Alpha virt. eigenvalues --    2.50072   2.59245   2.59626   2.62132   2.62381
 Alpha virt. eigenvalues --    2.63487   2.66916   2.75744   2.82798   2.85533
 Alpha virt. eigenvalues --    2.88383   2.89435   2.92328   2.95816   3.02361
 Alpha virt. eigenvalues --    3.06759   3.12301   3.20488   3.22599   3.31551
 Alpha virt. eigenvalues --    3.34081   3.51742   3.63978   3.83516   3.83832
 Alpha virt. eigenvalues --    4.14102   4.16001   4.18196   4.25678   4.34422
 Alpha virt. eigenvalues --    4.39130   4.46067   4.51590   4.66097   4.70716
 Alpha virt. eigenvalues --    4.80292   4.81420   4.82558   4.89562   5.02330
 Alpha virt. eigenvalues --    5.07747   5.09446   5.13797   5.17450   5.23206
 Alpha virt. eigenvalues --    5.26669   5.30685   5.31141   5.35334   5.60207
 Alpha virt. eigenvalues --    5.67368   5.76718   5.82460   5.95651   6.17057
 Alpha virt. eigenvalues --    6.30855   6.33986   6.39244   6.49363   6.50540
 Alpha virt. eigenvalues --    6.61241   6.66884   6.69937   6.75818   6.76362
 Alpha virt. eigenvalues --    6.83246   6.89837   7.00787   7.05513   7.05611
 Alpha virt. eigenvalues --    7.08886   7.12221   7.14786   7.18013   7.22289
 Alpha virt. eigenvalues --    7.22915   7.29874   7.32513   7.34547   7.39978
 Alpha virt. eigenvalues --    7.42990   7.48457   7.60733   7.61644   7.62528
 Alpha virt. eigenvalues --    7.66329   7.78054   7.88677   8.08883   8.31158
 Alpha virt. eigenvalues --    8.39851   8.54151  13.38863  14.38192  15.04163
 Alpha virt. eigenvalues --   16.15254
          Condensed to atoms (all electrons):
               1          2          3          4          5
     1  H    0.580463   0.131719   0.019057   0.012183  -0.000624
     2  O    0.131719   8.323710  -0.172535  -0.089776   0.015419
     3  O    0.019057  -0.172535   8.468781  -0.129846  -0.038873
     4  N    0.012183  -0.089776  -0.129846   6.972028  -0.055750
     5  O   -0.000624   0.015419  -0.038873  -0.055750   8.273069
 Mulliken charges:
               1
     1  H    0.257201
     2  O   -0.208537
     3  O   -0.146584
     4  N    0.291161
     5  O   -0.193240
 Sum of Mulliken charges =  -0.00000
 Mulliken charges with hydrogens summed into heavy atoms:
               1
     2  O    0.048664
     3  O   -0.146584
     4  N    0.291161
     5  O   -0.193240
 APT charges:
               1
     1  H    0.298702
     2  O   -0.286877
     3  O   -0.496065
     4  N    0.876812
     5  O   -0.392572
 Sum of APT charges =  -0.00000
 APT charges with hydrogens summed into heavy atoms:
               1
     2  O    0.011825
     3  O   -0.496065
     4  N    0.876812
     5  O   -0.392572
 Electronic spatial extent (au):  <R**2>=            252.9944
 Charge=             -0.0000 electrons
 Dipole moment (field-independent basis, Debye):
    X=              0.5128    Y=              1.3718    Z=             -0.0000  Tot=              1.4645
 Quadrupole moment (field-independent basis, Debye-Ang):
   XX=            -22.4729   YY=            -18.5821   ZZ=            -22.0212
   XY=              3.2731   XZ=              0.0000   YZ=              0.0000
 Traceless Quadrupole moment (field-independent basis, Debye-Ang):
   XX=             -1.4475   YY=              2.4433   ZZ=             -0.9958
   XY=              3.2731   XZ=              0.0000   YZ=              0.0000
 Octapole moment (field-independent basis, Debye-Ang**2):
  XXX=              2.8445  YYY=             11.4013  ZZZ=             -0.0000  XYY=              7.9718
  XXY=              6.6018  XXZ=             -0.0000  XZZ=             -1.5929  YZZ=             -0.8660
  YYZ=             -0.0000  XYZ=             -0.0000
 Hexadecapole moment (field-independent basis, Debye-Ang**3):
 XXXX=           -158.5721 YYYY=            -89.6142 ZZZZ=            -18.2596 XXXY=            -36.7080
 XXXZ=             -0.0000 YYYX=            -30.6027 YYYZ=              0.0000 ZZZX=             -0.0000
 ZZZY=              0.0000 XXYY=            -33.9037 XXZZ=            -30.9036 YYZZ=            -20.7084
 XXYZ=              0.0000 YYXZ=              0.0000 ZZXY=            -15.0873
 N-N= 1.168220327208D+02 E-N=-8.957524616438D+02  KE= 2.801827809651D+02
 Symmetry A'   KE= 2.662120024312D+02
 Symmetry A"   KE= 1.397077853394D+01
  Exact polarizability:  34.042   9.512  30.373  -0.000  -0.000  17.949
 Approx polarizability:  29.031   5.117  23.611   0.000  -0.000  15.536
 No NMR shielding tensors so no spin-rotation constants.
 Leave Link  601 at Mon Feb 21 20:01:35 2022, MaxMem= 16106127360 cpu:               6.5 elap:               0.3
 (Enter /sw/contrib/gaussian/g16/B01/g16/l701.exe)
 ... and contract with generalized density number  2.
 Compute integral second derivatives.
 Leave Link  701 at Mon Feb 21 20:01:36 2022, MaxMem= 16106127360 cpu:               9.4 elap:               0.4
 (Enter /sw/contrib/gaussian/g16/B01/g16/l702.exe)
 L702 exits ... SP integral derivatives will be done elsewhere.
 Leave Link  702 at Mon Feb 21 20:01:36 2022, MaxMem= 16106127360 cpu:               1.3 elap:               0.1
 (Enter /sw/contrib/gaussian/g16/B01/g16/l703.exe)
 Integral derivatives from FoFJK, PRISM(SPDF).
 Compute integral second derivatives, UseDBF=F ICtDFT=           0.
 Calling FoFJK, ICntrl=  10100127 FMM=F ISym2X=1 I1Cent= 0 IOpClX= 0 NMat=1 NMatS=1 NMatT=0.
 FoFJK:  IHMeth= 1 ICntrl=10100127 DoSepK=F KAlg= 0 I1Cent=           0 FoldK=F
 IRaf=         0 NMat=       1 IRICut=       1 DoRegI=T DoRafI=F ISym2E= 1 IDoP0=0 IntGTp=1.
 FoFCou: FMM=F IPFlag=           0 FMFlag=      100000 FMFlg1=         800
         NFxFlg=           0 DoJE=F BraDBF=F KetDBF=F FulRan=T
         wScrn=  0.000000 ICntrl=  10100127 IOpCl=  0 I1Cent=           0 NGrid=           0
         NMat0=    1 NMatS0=      1 NMatT0=    0 NMatD0=    1 NMtDS0=    0 NMtDT0=    0
 Petite list used in FoFCou.
 Leave Link  703 at Mon Feb 21 20:01:51 2022, MaxMem= 16106127360 cpu:             424.8 elap:              15.2
 (Enter /sw/contrib/gaussian/g16/B01/g16/l716.exe)
 Dipole        = 2.01751413D-01 5.39697171D-01-5.02817466D-33
 Polarizability= 3.40415316D+01 9.51236065D+00 3.03734891D+01
                -2.10280324D-31-2.19672842D-31 1.79487062D+01
 Full mass-weighted force constant matrix:
 Low frequencies ---  -93.3648   -9.6486   -0.0007    0.0005    0.0015   29.6016
 Low frequencies ---  214.8688  256.5016  348.2831
 Diagonal vibrational polarizability:
       14.0384369      25.1142475      78.7048849
 Harmonic frequencies (cm**-1), IR intensities (KM/Mole), Raman scattering
 activities (A**4/AMU), depolarization ratios for plane and unpolarized
 incident light, reduced masses (AMU), force constants (mDyne/A),
 and normal coordinates:
                      1                      2                      3
                     A"                     A"                     A'
 Frequencies --    193.1091               242.7057               348.2197
 Red. masses --      1.8768                 2.2754                 8.9436
 Frc consts  --      0.0412                 0.0790                 0.6390
 IR Inten    --     82.3030                42.2694                 3.9893
  Atom  AN      X      Y      Z        X      Y      Z        X      Y      Z
     1   1     0.00  -0.00   0.97    -0.00   0.00   0.95     0.51  -0.45  -0.00
     2   8     0.00  -0.00  -0.14    -0.00   0.00   0.08    -0.09  -0.39   0.00
     3   8    -0.00   0.00   0.03     0.00  -0.00  -0.16    -0.15   0.43  -0.00
     4   7    -0.00   0.00   0.18     0.00   0.00  -0.17     0.05   0.27  -0.00
     5   8     0.00  -0.00  -0.10     0.00   0.00   0.17     0.17  -0.26   0.00
                      4                      5                      6
                     A'                     A'                     A'
 Frequencies --    451.5162               788.0891               967.6997
 Red. masses --     12.3252                13.2501                15.2184
 Frc consts  --      1.4804                 4.8487                 8.3966
 IR Inten    --    200.2755               176.2304                21.1271
  Atom  AN      X      Y      Z        X      Y      Z        X      Y      Z
     1   1     0.41   0.19   0.00    -0.30   0.19   0.00    -0.20  -0.04  -0.00
     2   8     0.32   0.20   0.00     0.42   0.09   0.00    -0.52   0.03   0.00
     3   8     0.17   0.44  -0.00    -0.06  -0.28  -0.00     0.75  -0.01  -0.00
     4   7    -0.35  -0.40  -0.00    -0.14   0.63  -0.00    -0.12   0.24  -0.00
     5   8    -0.22  -0.30   0.00    -0.22  -0.37   0.00    -0.11  -0.22   0.00
                      7                      8                      9
                     A'                     A'                     A'
 Frequencies --   1397.3752              1677.5219              3668.0817
 Red. masses --      1.1282                13.0039                 1.0676
 Frc consts  --      1.2979                21.5606                 8.4630
 IR Inten    --    152.1683               138.7639                81.4533
  Atom  AN      X      Y      Z        X      Y      Z        X      Y      Z
     1   1     0.99  -0.05   0.00    -0.37   0.01  -0.00     0.10   0.99  -0.00
     2   8    -0.03   0.05   0.00    -0.00  -0.04  -0.00    -0.01  -0.06  -0.00
     3   8    -0.02  -0.05  -0.00     0.00   0.15   0.00     0.00   0.00   0.00
     4   7     0.02   0.01  -0.00     0.70  -0.05   0.00    -0.00  -0.00   0.00
     5   8    -0.03  -0.01   0.00    -0.59  -0.07  -0.00     0.00   0.00  -0.00

 -------------------
 - Thermochemistry -
 -------------------
 Temperature   298.150 Kelvin.  Pressure   1.00000 Atm.
 Atom     1 has atomic number  1 and mass   1.00783
 Atom     2 has atomic number  8 and mass  15.99491
 Atom     3 has atomic number  8 and mass  15.99491
 Atom     4 has atomic number  7 and mass  14.00307
 Atom     5 has atomic number  8 and mass  15.99491
 Molecular mass:    62.99564 amu.
 Principal axes and moments of inertia in atomic units:
                           1         2         3
     Eigenvalues --    32.86218 360.24074 393.10292
           X            0.81006  -0.58634   0.00000
           Y            0.58634   0.81006   0.00000
           Z            0.00000  -0.00000   1.00000
 This molecule is an asymmetric top.
 Rotational symmetry number  1.
 Rotational temperatures (Kelvin)      2.63567     0.24043     0.22033
 Rotational constants (GHZ):          54.91849     5.00982     4.59101
 Zero-point vibrational energy      58224.2 (Joules/Mol)
                                   13.91591 (Kcal/Mol)
 Warning -- explicit consideration of   4 degrees of freedom as
           vibrations may cause significant error
 Vibrational temperatures:    277.84   349.20   501.01   649.63  1133.88
          (Kelvin)           1392.30  2010.51  2413.58  5277.55
 
 Zero-point correction=                           0.022176 (Hartree/Particle)
 Thermal correction to Energy=                    0.026837
 Thermal correction to Enthalpy=                  0.027781
 Thermal correction to Gibbs Free Energy=        -0.004382
 Sum of electronic and zero-point Energies=           -280.424491
 Sum of electronic and thermal Energies=              -280.419831
 Sum of electronic and thermal Enthalpies=            -280.418887
 Sum of electronic and thermal Free Energies=         -280.451050
 
                     E (Thermal)             CV                S
                      KCal/Mol        Cal/Mol-Kelvin    Cal/Mol-Kelvin
 Total                   16.840             13.753             67.692
 Electronic               0.000              0.000              0.000
 Translational            0.889              2.981             38.341
 Rotational               0.889              2.981             23.058
 Vibrational             15.063              7.792              6.294
 Vibration     1          0.635              1.849              2.198
 Vibration     2          0.659              1.775              1.783
 Vibration     3          0.726              1.579              1.174
 Vibration     4          0.810              1.358              0.791
                       Q            Log10(Q)             Ln(Q)
 Total Bot       0.103632D+03          2.015493          4.640845
 Total V=0       0.164408D+13         12.215924         28.128205
 Vib (Bot)       0.215939D-09         -9.665670        -22.256027
 Vib (Bot)    1  0.103523D+01          0.015037          0.034623
 Vib (Bot)    2  0.806894D+00         -0.093184         -0.214563
 Vib (Bot)    3  0.530447D+00         -0.275358         -0.634035
 Vib (Bot)    4  0.379335D+00         -0.420977         -0.969336
 Vib (V=0)       0.342579D+01          0.534761          1.231333
 Vib (V=0)    1  0.164965D+01          0.217392          0.500564
 Vib (V=0)    2  0.144925D+01          0.161144          0.371047
 Vib (V=0)    3  0.122895D+01          0.089536          0.206163
 Vib (V=0)    4  0.112761D+01          0.052159          0.120101
 Electronic      0.100000D+01          0.000000          0.000000
 Translational   0.196526D+08          7.293420         16.793719
 Rotational      0.244199D+05          4.387743         10.103152
 
                                                                title
                                                             IR Spectrum
 
     3                                                                    1         1                                                
     6                                                                    6         3              9     7           4  3   2 1      
     6                                                                    7         9              6     8           5  4   4 9      
     8                                                                    8         7              8     8           2  8   3 3      
 
     X                                                                    X         X              X     X           X  X   X X      
     X                                                                    X         X              X     X           X      X X      
     X                                                                    X         X                    X           X      X X      
     X                                                                    X         X                    X           X      X X      
     X                                                                    X         X                    X           X        X      
     X                                                                    X         X                    X           X        X      
     X                                                                    X         X                    X           X        X      
     X                                                                    X         X                    X           X        X      
                                                                          X         X                    X           X               
                                                                          X         X                    X           X               
                                                                          X         X                    X           X               
                                                                          X         X                    X           X               
                                                                          X         X                    X           X               
                                                                          X         X                    X           X               
                                                                                    X                    X           X               
                                                                                                         X           X               
                                                                                                         X           X               
                                                                                                         X           X               
                                                                                                                     X               
                                                                                                                     X               
 
 ***** Axes restored to original set *****
 -------------------------------------------------------------------
 Center     Atomic                   Forces (Hartrees/Bohr)
 Number     Number              X              Y              Z
 -------------------------------------------------------------------
      1        1           0.000153463    0.000000000    0.008127249
      2        8          -0.000095759   -0.000000000   -0.007967243
      3        8           0.000012863   -0.000000000   -0.000019557
      4        7          -0.000499769   -0.000000000   -0.000236135
      5        8           0.000429203    0.000000000    0.000095685
 -------------------------------------------------------------------
 Cartesian Forces:  Max     0.008127249 RMS     0.002944614
 -----------------------------------------------------------------------------------------------
                       Internal Coordinate Forces (Hartree/Bohr or radian)
  Cent   Atom   N1       Length/X         N2         Alpha/Y        N3         Beta/Z          J
 -----------------------------------------------------------------------------------------------
      1  H 
      2  O        1  -0.008127(     1)
      3  O        2  -0.000078(     2)      1  -0.000284(     5)
      4  N        3  -0.000146(     3)      2  -0.000132(     6)      1  -0.000000(     8)     0
      5  O        4   0.000440(     4)      3  -0.000031(     7)      2   0.000000(     9)     0
 -----------------------------------------------------------------------------------------------
 Internal  Forces:  Max     0.008127249 RMS     0.002715621
 Force constants in Cartesian coordinates: 
                1             2             3             4             5 
      1  0.676641D-01
      2  0.000000D+00  0.207147D-02
      3  0.522112D-02  0.000000D+00  0.482808D+00
      4 -0.392751D-01  0.000000D+00 -0.160167D-01  0.276588D+00
      5  0.000000D+00 -0.134760D-02  0.000000D+00  0.000000D+00  0.642295D-02
      6  0.476317D-01  0.000000D+00 -0.478951D+00  0.337430D-01  0.000000D+00
      7 -0.180269D-01  0.000000D+00  0.123413D-01 -0.220449D+00  0.000000D+00
      8  0.000000D+00  0.950499D-03  0.000000D+00  0.000000D+00 -0.647142D-02
      9 -0.524978D-01  0.000000D+00 -0.569963D-03 -0.198734D-01  0.000000D+00
     10 -0.914049D-02  0.000000D+00 -0.486384D-02 -0.171780D-01  0.000000D+00
     11  0.000000D+00 -0.269996D-02  0.000000D+00  0.000000D+00 -0.495530D-02
     12  0.534406D-02  0.000000D+00 -0.466488D-02  0.114706D-01  0.000000D+00
     13 -0.122156D-02  0.000000D+00  0.331811D-02  0.313932D-03  0.000000D+00
     14  0.000000D+00  0.102558D-02  0.000000D+00  0.000000D+00  0.635137D-02
     15 -0.569910D-02  0.000000D+00  0.137782D-02 -0.932345D-02  0.000000D+00
                6             7             8             9            10 
      6  0.564680D+00
      7 -0.208658D-01  0.341472D+00
      8  0.000000D+00  0.000000D+00  0.417272D-02
      9 -0.782369D-01  0.357167D-01  0.000000D+00  0.180844D+00
     10 -0.524286D-01 -0.781997D-01  0.000000D+00  0.174914D+00  0.828587D+00
     11  0.000000D+00  0.000000D+00  0.851690D-02  0.000000D+00  0.000000D+00
     12  0.171536D-01  0.632018D-01  0.000000D+00 -0.816788D-01 -0.179246D-01
     13 -0.808036D-02 -0.247966D-01  0.000000D+00 -0.138259D+00 -0.724069D+00
     14  0.000000D+00  0.000000D+00 -0.716870D-02  0.000000D+00  0.000000D+00
     15 -0.246460D-01 -0.903942D-01  0.000000D+00 -0.203583D-01 -0.996967D-01
               11            12            13            14            15 
     11  0.854861D-02
     12  0.000000D+00  0.186311D+00
     13  0.000000D+00 -0.620918D-01  0.749773D+00
     14 -0.941024D-02  0.000000D+00  0.000000D+00  0.920199D-02
     15  0.000000D+00 -0.117121D+00  0.205113D+00  0.000000D+00  0.160748D+00
 Force constants in internal coordinates: 
                1             2             3             4             5 
      1  0.482808D+00
      2 -0.101911D-01  0.281118D+00
      3  0.340272D-02  0.253447D-02  0.117084D+00
      4 -0.355622D-02  0.593922D-02  0.153057D+00  0.812114D+00
      5  0.979916D-02  0.648918D-01  0.222324D-02  0.479864D-02  0.215924D+00
      6  0.463529D-02  0.590935D-01  0.407577D-01  0.218345D-01  0.311193D-01
      7 -0.113140D-02  0.376650D-01  0.323013D-01  0.846831D-01  0.213272D-01
      8  0.000000D+00  0.000000D+00  0.000000D+00  0.000000D+00  0.000000D+00
      9  0.000000D+00  0.000000D+00  0.000000D+00  0.000000D+00  0.000000D+00
                6             7             8             9 
      6  0.282286D+00
      7  0.959333D-01  0.482626D+00
      8  0.000000D+00  0.000000D+00 -0.776802D-02
      9  0.000000D+00  0.000000D+00 -0.392639D-02  0.411097D-01
 Leave Link  716 at Mon Feb 21 20:01:51 2022, MaxMem= 16106127360 cpu:               1.1 elap:               0.1
 (Enter /sw/contrib/gaussian/g16/B01/g16/l103.exe)

 GradGradGradGradGradGradGradGradGradGradGradGradGradGradGradGradGradGrad
 Berny optimization.
 Search for a local minimum.
 Step number   1 out of a maximum of    2
 All quantities printed in internal units (Hartrees-Bohrs-Radians)
 Second derivative matrix not updated -- analytic derivatives used.
 The second derivative matrix:
                          r1        r2        r3        r4        a1
           r1           0.48281
           r2          -0.01019   0.28112
           r3           0.00340   0.00253   0.11708
           r4          -0.00356   0.00594   0.15306   0.81211
           a1           0.00980   0.06489   0.00222   0.00480   0.21592
           a2           0.00464   0.05909   0.04076   0.02183   0.03112
           a3          -0.00113   0.03766   0.03230   0.08468   0.02133
           d1           0.00000  -0.00000  -0.00000  -0.00000  -0.00000
           d2          -0.00000   0.00000   0.00000   0.00000   0.00000
                          a2        a3        d1        d2
           a2           0.28229
           a3           0.09593   0.48263
           d1          -0.00000  -0.00000  -0.00777
           d2          -0.00000  -0.00000  -0.00393   0.04111
 ITU=  0
     Eigenvalues ---   -0.00808   0.04142   0.07822   0.17501   0.22472
     Eigenvalues ---    0.32440   0.48357   0.51705   0.87100
 Eigenvalue     1 is  -8.08D-03 should be greater than     0.000000 Eigenvector:
                          d1        d2        a3        a2        r3
   1                    0.99683   0.07957   0.00000   0.00000  -0.00000
                          r4        a1        r2        r1
   1                    0.00000  -0.00000   0.00000  -0.00000
 Angle between quadratic step and forces=   6.20 degrees.
 Linear search not attempted -- first point.
 Variable       Old X    -DE/DX   Delta X   Delta X   Delta X     New X
                                 (Linear)    (Quad)   (Total)
    r1        1.84743  -0.00813   0.00000  -0.01683  -0.01683   1.83060
    r2        2.74940  -0.00008   0.00000  -0.00086  -0.00086   2.74854
    r3        2.75670  -0.00015   0.00000  -0.00189  -0.00189   2.75481
    r4        2.21236   0.00044   0.00000   0.00083   0.00083   2.21319
    a1        1.70335  -0.00028   0.00000  -0.00032  -0.00032   1.70303
    a2        1.78543  -0.00013   0.00000   0.00027   0.00027   1.78569
    a3        1.90362  -0.00003   0.00000  -0.00009  -0.00009   1.90353
    d1        3.14159  -0.00000   0.00000   0.00000   0.00000   3.14159
    d2        3.14159   0.00000   0.00000   0.00000   0.00000   3.14159
         Item               Value     Threshold  Converged?
 Maximum Force            0.008127     0.000450     NO 
 RMS     Force            0.002716     0.000300     NO 
 Maximum Displacement     0.016828     0.001800     NO 
 RMS     Displacement     0.005660     0.001200     NO 
 Predicted change in Energy=-6.876759D-05
                       ----------------------------
                       ! Non-Optimized Parameters !
                       ! (Angstroms and Degrees)  !
 ----------------------                            ----------------------
 !      Name          Value   Derivative information (Atomic Units)     !
 ------------------------------------------------------------------------
 !       r1          0.9687   -DE/DX =   -0.0081                        !
 !       r2          1.4545   -DE/DX =   -0.0001                        !
 !       r3          1.4578   -DE/DX =   -0.0001                        !
 !       r4          1.1712   -DE/DX =    0.0004                        !
 !       a1         97.5767   -DE/DX =   -0.0003                        !
 !       a2        102.3127   -DE/DX =   -0.0001                        !
 !       a3        109.0641   -DE/DX =    0.0                           !
 !       d1        180.0      -DE/DX =    0.0                           !
 !       d2        180.0      -DE/DX =    0.0                           !
 ------------------------------------------------------------------------
 GradGradGradGradGradGradGradGradGradGradGradGradGradGradGradGradGradGrad

 Leave Link  103 at Mon Feb 21 20:01:51 2022, MaxMem= 16106127360 cpu:               1.0 elap:               0.1
 (Enter /sw/contrib/gaussian/g16/B01/g16/l9999.exe)

 ----------------------------------------------------------------------

 Electric dipole moment (input orientation):
 (Debye = 10**-18 statcoulomb cm , SI units = C m)
                  (au)            (Debye)         (10**-30 SI)
   Tot        0.576174D+00      0.146449D+01      0.488501D+01
   x         -0.147817D+00     -0.375712D+00     -0.125324D+01
   y          0.000000D+00      0.000000D+00      0.000000D+00
   z         -0.556890D+00     -0.141547D+01     -0.472151D+01

 Dipole polarizability, Alpha (input orientation).
 (esu units = cm**3 , SI units = C**2 m**2 J**-1)
 Alpha(0;0):
               (au)            (10**-24 esu)      (10**-40 SI)
   iso        0.274546D+02      0.406835D+01      0.452665D+01
   aniso      0.220195D+02      0.326296D+01      0.363053D+01
   xx         0.321483D+02      0.476389D+01      0.530054D+01
   yx         0.000000D+00      0.000000D+00      0.000000D+00
   yy         0.179487D+02      0.265972D+01      0.295934D+01
   zx         0.968737D+01      0.143552D+01      0.159723D+01
   zy         0.000000D+00      0.000000D+00      0.000000D+00
   zz         0.322667D+02      0.478143D+01      0.532006D+01

 ----------------------------------------------------------------------

 Dipole orientation:
     1          0.00000000          0.00000000         -0.00000000
     8         -0.47395589          0.00000000         -1.78560092
     8          2.06688585          0.00000000         -2.83599051
     7          1.58047828          0.00000000         -5.54944136
     8          3.51108401          0.00000000         -6.62985079

 Electric dipole moment (dipole orientation):
 (Debye = 10**-18 statcoulomb cm , SI units = C m)
                  (au)            (Debye)         (10**-30 SI)
   Tot        0.576174D+00      0.146449D+01      0.488501D+01
   x          0.000000D+00      0.000000D+00      0.000000D+00
   y          0.000000D+00      0.000000D+00      0.000000D+00
   z          0.576174D+00      0.146449D+01      0.488501D+01

 Dipole polarizability, Alpha (dipole orientation).
 (esu units = cm**3 , SI units = C**2 m**2 J**-1)
 Alpha(0;0):
               (au)            (10**-24 esu)      (10**-40 SI)
   iso        0.274546D+02      0.406835D+01      0.452665D+01
   aniso      0.220195D+02      0.326296D+01      0.363053D+01
   xx         0.273519D+02      0.405313D+01      0.450972D+01
   yx         0.000000D+00      0.000000D+00      0.000000D+00
   yy         0.179487D+02      0.265972D+01      0.295934D+01
   zx        -0.838282D+01     -0.124221D+01     -0.138214D+01
   zy         0.000000D+00      0.000000D+00      0.000000D+00
   zz         0.370631D+02      0.549219D+01      0.611088D+01

 ----------------------------------------------------------------------
 1\1\GINC-N2109\Freq\RMP2-FC\Aug-CC-pVTZ\H1N1O3\CGAVINH\21-Feb-2022\1\\
 #p freq mp2/aug-cc-pvtz density=current\\title\\0,1\H\O,1,r1\O,2,r2,1,
 a1\N,3,r3,2,a2,1,d1,0\O,4,r4,3,a3,2,d2,0\\r1=0.97761889\r2=1.45491931\
 r3=1.45878406\r4=1.17072885\a1=97.59494903\a2=102.29752444\a3=109.0695
 5123\d1=180.\d2=180.\\Version=ES64L-G16RevB.01\State=1-A'\HF=-279.5012
 072\MP2=-280.4466677\RMSD=3.792e-09\RMSF=2.945e-03\ZeroPoint=0.0221764
 \Thermal=0.0268366\Dipole=-0.1478166,0.,-0.5568904\DipoleDeriv=0.26741
 27,0.,0.0480345,0.,0.3543601,0.,0.0804457,0.,0.2743322,-0.3280541,0.,-
 0.2079458,0.,-0.3126216,0.,-0.1077651,0.,-0.2199556,-0.0463257,0.,0.15
 06547,0.,-0.0869726,0.,-0.754144,0.,-1.3548954,0.8941947,0.,0.9088598,
 0.,0.0659001,0.,0.9235123,0.,1.6703399,-0.7872276,0.,-0.8996032,0.,-0.
 0206659,0.,-0.1420489,0.,-0.3698211\Polar=32.1483045,0.,17.9487062,9.6
 873698,0.,32.2667163\Quadrupole=-1.5236064,-0.7403771,2.2639835,0.,2.1
 040736,0.\PG=CS [SG(H1N1O3)]\NImag=0\\0.06766408,0.,0.00207147,0.00522
 112,0.,0.48280769,-0.03927513,0.,-0.01601673,0.27658785,0.,-0.00134760
 ,0.,0.,0.00642295,0.04763174,0.,-0.47895066,0.03374300,0.,0.56468005,-
 0.01802690,0.,0.01234134,-0.22044864,0.,-0.02086576,0.34147177,0.,0.00
 095050,0.,0.,-0.00647142,0.,0.,0.00417272,-0.05249782,0.,-0.00056996,-
 0.01987337,0.,-0.07823693,0.03571674,0.,0.18084399,-0.00914049,0.,-0.0
 0486384,-0.01717801,0.,-0.05242862,-0.07819968,0.,0.17491380,0.8285871
 9,0.,-0.00269996,0.,0.,-0.00495530,0.,0.,0.00851690,0.,0.,0.00854861,0
 .00534406,0.,-0.00466488,0.01147055,0.,0.01715359,0.06320185,0.,-0.081
 67881,-0.01792462,0.,0.18631123,-0.00122156,0.,0.00331811,0.00031393,0
 .,-0.00808036,-0.02479656,0.,-0.13825935,-0.72406901,0.,-0.06209184,0.
 74977319,0.,0.00102558,0.,0.,0.00635137,0.,0.,-0.00716870,0.,0.,-0.009
 41024,0.,0.,0.00920199,-0.00569910,0.,0.00137782,-0.00932345,0.,-0.024
 64605,-0.09039417,0.,-0.02035829,-0.09969673,0.,-0.11712113,0.20511345
 ,0.,0.16074765\\-0.00015346,0.,-0.00812725,0.00009576,0.,0.00796724,-0
 .00001286,0.,0.00001956,0.00049977,0.,0.00023613,-0.00042920,0.,-0.000
 09568\\\@


 DO NOT LET SELFISH MEN OR GREEDY INTERESTS SKIN YOUR COUNTRY OF ITS
 BEAUTY, ITS RICHES, OR ITS ROMANCE. -- THEODORE ROOSEVELT
 Job cpu time:       0 days  1 hours 59 minutes 11.4 seconds.
 Elapsed time:       0 days  0 hours  4 minutes 19.0 seconds.
 File lengths (MBytes):  RWF=   7239 Int=      0 D2E=      0 Chk=      8 Scr=      1
 Normal termination of Gaussian 16 at Mon Feb 21 20:01:52 2022.
