title                                                                   
Freq      RMP2-FC                                                     Aug-CC-pVTZ         
Number of atoms                            I                5
Info1-9                                    I   N=           9
          33          24           0           0           0         100
           6           2           1
Full Title                                 C   N=           1
title       
Route                                      C   N=           4
#p freq mp2/aug-cc-pvtz density=current         
Charge                                     I                0
Multiplicity                               I                1
Number of electrons                        I               32
Number of alpha electrons                  I               16
Number of beta electrons                   I               16
Number of basis functions                  I              207
Number of independent functions            I              207
Number of point charges in /Mol/           I                0
Number of translation vectors              I                0
Atomic numbers                             I   N=           5
           1           8           8           7           8
Nuclear charges                            R   N=           5
  1.00000000E+00  8.00000000E+00  8.00000000E+00  7.00000000E+00  8.00000000E+00
Current cartesian coordinates              R   N=          15
 -1.02552810E+00 -2.14957992E+00  1.27829302E-01 -2.41267481E+00 -9.15507238E-01
 -1.45614929E-02 -1.02571678E+00  1.39645792E+00  3.97805102E-03  1.55991754E+00
  1.04127979E+00  4.96297824E-03  2.20165476E+00 -1.12337301E+00 -9.73782688E-03
Number of symbols in /Mol/                 I                0
Force Field                                I                0
Atom Types                                 C   N=           5
                                                            
Int Atom Types                             I   N=           5
           0           0           0           0           0
MM charges                                 R   N=           5
  0.00000000E+00  0.00000000E+00  0.00000000E+00  0.00000000E+00  0.00000000E+00
Integer atomic weights                     I   N=           5
           1          16          16          14          16
Real atomic weights                        R   N=           5
  1.00782504E+00  1.59949146E+01  1.59949146E+01  1.40030740E+01  1.59949146E+01
Atom fragment info                         I   N=           5
           0           0           0           0           0
Atom residue num                           I   N=           5
           0           0           0           0           0
Nuclear spins                              I   N=           5
           1           0           0           2           0
Nuclear ZEff                               R   N=           5
 -1.00000000E+00 -5.60000000E+00 -5.60000000E+00 -4.55000000E+00 -5.60000000E+00
Nuclear ZNuc                               R   N=           5
  1.00000000E+00  8.00000000E+00  8.00000000E+00  7.00000000E+00  8.00000000E+00
Nuclear QMom                               R   N=           5
  0.00000000E+00  0.00000000E+00  0.00000000E+00  2.04400000E+00  0.00000000E+00
Nuclear GFac                               R   N=           5
  2.79284600E+00  0.00000000E+00  0.00000000E+00  4.03761000E-01  0.00000000E+00
MicOpt                                     I   N=           5
          -1          -1          -1          -1          -1
Number of residues                         I                0
Number of secondary structures             I                0
SymInf integers                            I   N=          26
           1           1           1           1           1           0
           0           0           0           0           0           0
           0           0           0           0           0           0
           0           0           0           0           0           0
           0           0
RotTr to input orientation                 R   N=          12
  6.63304540E-01  7.13551193E-02 -7.44939954E-01  7.48044785E-01 -3.48126077E-02
  6.62734549E-01  2.13562004E-02 -9.96843282E-01 -7.64681856E-02  2.28548955E+00
  1.25769978E-01  6.70418899E-01
Number of contracted shells                I               65
Number of primitive shells                 I              119
Pure/Cartesian d shells                    I                0
Pure/Cartesian f shells                    I                0
Highest angular momentum                   I                3
Largest degree of contraction              I                7
Shell types                                I   N=          65
           0           0           0           0           1           1
           1          -2          -2           0           0           0
           0           0           1           1           1           1
          -2          -2          -2          -3          -3           0
           0           0           0           0           1           1
           1           1          -2          -2          -2          -3
          -3           0           0           0           0           0
           1           1           1           1          -2          -2
          -2          -3          -3           0           0           0
           0           0           1           1           1           1
          -2          -2          -2          -3          -3
Number of primitives per shell             I   N=          65
           3           1           1           1           1           1
           1           1           1           7           6           1
           1           1           3           1           1           1
           1           1           1           1           1           7
           6           1           1           1           3           1
           1           1           1           1           1           1
           1           7           6           1           1           1
           3           1           1           1           1           1
           1           1           1           7           6           1
           1           1           3           1           1           1
           1           1           1           1           1
Shell to atom map                          I   N=          65
           1           1           1           1           1           1
           1           1           1           2           2           2
           2           2           2           2           2           2
           2           2           2           2           2           3
           3           3           3           3           3           3
           3           3           3           3           3           3
           3           4           4           4           4           4
           4           4           4           4           4           4
           4           4           4           5           5           5
           5           5           5           5           5           5
           5           5           5           5           5
Primitive exponents                        R   N=         119
  3.38700000E+01  5.09500000E+00  1.15900000E+00  3.25800000E-01  1.02700000E-01
  2.52600000E-02  1.40700000E+00  3.88000000E-01  1.02000000E-01  1.05700000E+00
  2.47000000E-01  1.53300000E+04  2.29900000E+03  5.22400000E+02  1.47300000E+02
  4.75500000E+01  1.67600000E+01  6.20700000E+00  5.22400000E+02  1.47300000E+02
  4.75500000E+01  1.67600000E+01  6.20700000E+00  6.88200000E-01  1.75200000E+00
  2.38400000E-01  7.37600000E-02  3.44600000E+01  7.74900000E+00  2.28000000E+00
  7.15600000E-01  2.14000000E-01  5.97400000E-02  2.31400000E+00  6.45000000E-01
  2.14000000E-01  1.42800000E+00  5.00000000E-01  1.53300000E+04  2.29900000E+03
  5.22400000E+02  1.47300000E+02  4.75500000E+01  1.67600000E+01  6.20700000E+00
  5.22400000E+02  1.47300000E+02  4.75500000E+01  1.67600000E+01  6.20700000E+00
  6.88200000E-01  1.75200000E+00  2.38400000E-01  7.37600000E-02  3.44600000E+01
  7.74900000E+00  2.28000000E+00  7.15600000E-01  2.14000000E-01  5.97400000E-02
  2.31400000E+00  6.45000000E-01  2.14000000E-01  1.42800000E+00  5.00000000E-01
  1.14200000E+04  1.71200000E+03  3.89300000E+02  1.10000000E+02  3.55700000E+01
  1.25400000E+01  4.64400000E+00  3.89300000E+02  1.10000000E+02  3.55700000E+01
  1.25400000E+01  4.64400000E+00  5.11800000E-01  1.29300000E+00  1.78700000E-01
  5.76000000E-02  2.66300000E+01  5.94800000E+00  1.74200000E+00  5.55000000E-01
  1.72500000E-01  4.91000000E-02  1.65400000E+00  4.69000000E-01  1.51000000E-01
  1.09300000E+00  3.64000000E-01  1.53300000E+04  2.29900000E+03  5.22400000E+02
  1.47300000E+02  4.75500000E+01  1.67600000E+01  6.20700000E+00  5.22400000E+02
  1.47300000E+02  4.75500000E+01  1.67600000E+01  6.20700000E+00  6.88200000E-01
  1.75200000E+00  2.38400000E-01  7.37600000E-02  3.44600000E+01  7.74900000E+00
  2.28000000E+00  7.15600000E-01  2.14000000E-01  5.97400000E-02  2.31400000E+00
  6.45000000E-01  2.14000000E-01  1.42800000E+00  5.00000000E-01
Contraction coefficients                   R   N=         119
  2.54948632E-02  1.90362766E-01  8.52162022E-01  1.00000000E+00  1.00000000E+00
  1.00000000E+00  1.00000000E+00  1.00000000E+00  1.00000000E+00  1.00000000E+00
  1.00000000E+00  5.19808943E-04  4.02025621E-03  2.07128267E-02  8.10105536E-02
  2.35962985E-01  4.42653446E-01  3.57064423E-01 -4.42115008E-05 -1.22591041E-03
 -1.05517725E-02 -6.74452633E-02 -1.71198607E-01  1.07329856E+00  1.00000000E+00
  1.00000000E+00  1.00000000E+00  4.11634896E-02  2.57762836E-01  8.02419274E-01
  1.00000000E+00  1.00000000E+00  1.00000000E+00  1.00000000E+00  1.00000000E+00
  1.00000000E+00  1.00000000E+00  1.00000000E+00  5.19808943E-04  4.02025621E-03
  2.07128267E-02  8.10105536E-02  2.35962985E-01  4.42653446E-01  3.57064423E-01
 -4.42115008E-05 -1.22591041E-03 -1.05517725E-02 -6.74452633E-02 -1.71198607E-01
  1.07329856E+00  1.00000000E+00  1.00000000E+00  1.00000000E+00  4.11634896E-02
  2.57762836E-01  8.02419274E-01  1.00000000E+00  1.00000000E+00  1.00000000E+00
  1.00000000E+00  1.00000000E+00  1.00000000E+00  1.00000000E+00  1.00000000E+00
  5.34563860E-04  4.13435660E-03  2.12335358E-02  8.25006224E-02  2.38138871E-01
  4.42551547E-01  3.53757422E-01 -4.89867350E-05 -1.19527323E-03 -1.03490714E-02
 -6.48680190E-02 -1.71552477E-01  1.07289568E+00  1.00000000E+00  1.00000000E+00
  1.00000000E+00  3.98072123E-02  2.49002660E-01  8.10479727E-01  1.00000000E+00
  1.00000000E+00  1.00000000E+00  1.00000000E+00  1.00000000E+00  1.00000000E+00
  1.00000000E+00  1.00000000E+00  5.19808943E-04  4.02025621E-03  2.07128267E-02
  8.10105536E-02  2.35962985E-01  4.42653446E-01  3.57064423E-01 -4.42115008E-05
 -1.22591041E-03 -1.05517725E-02 -6.74452633E-02 -1.71198607E-01  1.07329856E+00
  1.00000000E+00  1.00000000E+00  1.00000000E+00  4.11634896E-02  2.57762836E-01
  8.02419274E-01  1.00000000E+00  1.00000000E+00  1.00000000E+00  1.00000000E+00
  1.00000000E+00  1.00000000E+00  1.00000000E+00  1.00000000E+00
Coordinates of each shell                  R   N=         195
 -1.02552810E+00 -2.14957992E+00  1.27829302E-01 -1.02552810E+00 -2.14957992E+00
  1.27829302E-01 -1.02552810E+00 -2.14957992E+00  1.27829302E-01 -1.02552810E+00
 -2.14957992E+00  1.27829302E-01 -1.02552810E+00 -2.14957992E+00  1.27829302E-01
 -1.02552810E+00 -2.14957992E+00  1.27829302E-01 -1.02552810E+00 -2.14957992E+00
  1.27829302E-01 -1.02552810E+00 -2.14957992E+00  1.27829302E-01 -1.02552810E+00
 -2.14957992E+00  1.27829302E-01 -2.41267481E+00 -9.15507238E-01 -1.45614929E-02
 -2.41267481E+00 -9.15507238E-01 -1.45614929E-02 -2.41267481E+00 -9.15507238E-01
 -1.45614929E-02 -2.41267481E+00 -9.15507238E-01 -1.45614929E-02 -2.41267481E+00
 -9.15507238E-01 -1.45614929E-02 -2.41267481E+00 -9.15507238E-01 -1.45614929E-02
 -2.41267481E+00 -9.15507238E-01 -1.45614929E-02 -2.41267481E+00 -9.15507238E-01
 -1.45614929E-02 -2.41267481E+00 -9.15507238E-01 -1.45614929E-02 -2.41267481E+00
 -9.15507238E-01 -1.45614929E-02 -2.41267481E+00 -9.15507238E-01 -1.45614929E-02
 -2.41267481E+00 -9.15507238E-01 -1.45614929E-02 -2.41267481E+00 -9.15507238E-01
 -1.45614929E-02 -2.41267481E+00 -9.15507238E-01 -1.45614929E-02 -1.02571678E+00
  1.39645792E+00  3.97805102E-03 -1.02571678E+00  1.39645792E+00  3.97805102E-03
 -1.02571678E+00  1.39645792E+00  3.97805102E-03 -1.02571678E+00  1.39645792E+00
  3.97805102E-03 -1.02571678E+00  1.39645792E+00  3.97805102E-03 -1.02571678E+00
  1.39645792E+00  3.97805102E-03 -1.02571678E+00  1.39645792E+00  3.97805102E-03
 -1.02571678E+00  1.39645792E+00  3.97805102E-03 -1.02571678E+00  1.39645792E+00
  3.97805102E-03 -1.02571678E+00  1.39645792E+00  3.97805102E-03 -1.02571678E+00
  1.39645792E+00  3.97805102E-03 -1.02571678E+00  1.39645792E+00  3.97805102E-03
 -1.02571678E+00  1.39645792E+00  3.97805102E-03 -1.02571678E+00  1.39645792E+00
  3.97805102E-03  1.55991754E+00  1.04127979E+00  4.96297824E-03  1.55991754E+00
  1.04127979E+00  4.96297824E-03  1.55991754E+00  1.04127979E+00  4.96297824E-03
  1.55991754E+00  1.04127979E+00  4.96297824E-03  1.55991754E+00  1.04127979E+00
  4.96297824E-03  1.55991754E+00  1.04127979E+00  4.96297824E-03  1.55991754E+00
  1.04127979E+00  4.96297824E-03  1.55991754E+00  1.04127979E+00  4.96297824E-03
  1.55991754E+00  1.04127979E+00  4.96297824E-03  1.55991754E+00  1.04127979E+00
  4.96297824E-03  1.55991754E+00  1.04127979E+00  4.96297824E-03  1.55991754E+00
  1.04127979E+00  4.96297824E-03  1.55991754E+00  1.04127979E+00  4.96297824E-03
  1.55991754E+00  1.04127979E+00  4.96297824E-03  2.20165476E+00 -1.12337301E+00
 -9.73782688E-03  2.20165476E+00 -1.12337301E+00 -9.73782688E-03  2.20165476E+00
 -1.12337301E+00 -9.73782688E-03  2.20165476E+00 -1.12337301E+00 -9.73782688E-03
  2.20165476E+00 -1.12337301E+00 -9.73782688E-03  2.20165476E+00 -1.12337301E+00
 -9.73782688E-03  2.20165476E+00 -1.12337301E+00 -9.73782688E-03  2.20165476E+00
 -1.12337301E+00 -9.73782688E-03  2.20165476E+00 -1.12337301E+00 -9.73782688E-03
  2.20165476E+00 -1.12337301E+00 -9.73782688E-03  2.20165476E+00 -1.12337301E+00
 -9.73782688E-03  2.20165476E+00 -1.12337301E+00 -9.73782688E-03  2.20165476E+00
 -1.12337301E+00 -9.73782688E-03  2.20165476E+00 -1.12337301E+00 -9.73782688E-03
Num ILSW                                   I              100
ILSW                                       I   N=         100
           0           0           0           0           2           0
           0           0           0           0           0          -1
           5           0           0           0           2           0
           0           0           0           0           1           0
           1           0           0           0           0           0
           0           0      100000           0          -1           0
           0           0           0           0           0           0
           0           0           0           1           1           0
           0 -2000000000           1           0           0           0
           0           0           4          52           0           0
           0           0           0           0           0           0
           0           0           0           5           4           1
           0           0           0           0           0           0
           0           0           0           0           0           0
           0           0           0           0           0           0
           0           0           0           0           0           0
           0           0           0           0
Num RLSW                                   I               52
RLSW                                       R   N=          52
  1.00000000E+00  1.00000000E+00  1.00000000E+00  1.00000000E+00  1.00000000E+00
  0.00000000E+00  0.00000000E+00  1.00000000E+00  0.00000000E+00  0.00000000E+00
  0.00000000E+00  0.00000000E+00  1.00000000E+00  0.00000000E+00  0.00000000E+00
  0.00000000E+00  0.00000000E+00  1.00000000E+00  0.00000000E+00  0.00000000E+00
  0.00000000E+00  0.00000000E+00  1.00000000E+00  0.00000000E+00  0.00000000E+00
  0.00000000E+00  0.00000000E+00  1.00000000E+00  0.00000000E+00  0.00000000E+00
  0.00000000E+00  0.00000000E+00  1.00000000E+00  0.00000000E+00  0.00000000E+00
  0.00000000E+00  0.00000000E+00  0.00000000E+00  1.00000000E+00  1.00000000E+00
  0.00000000E+00  1.00000000E+00  0.00000000E+00  0.00000000E+00  0.00000000E+00
  0.00000000E+00  0.00000000E+00  0.00000000E+00  0.00000000E+00  0.00000000E+00
  0.00000000E+00  0.00000000E+00
MxBond                                     I                2
NBond                                      I   N=           5
           1           2           2           2           1
IBond                                      I   N=          10
           2           0           1           3           2           4
           3           5           4           0
RBond                                      R   N=          10
  1.00000000E+00  0.00000000E+00  1.00000000E+00  1.00000000E+00  1.00000000E+00
  1.00000000E+00  1.00000000E+00  2.00000000E+00  2.00000000E+00  0.00000000E+00
Virial Ratio                               R      2.002228378634042E+00
SCF Energy                                 R     -2.795063936096432E+02
MP2 Energy                                 R     -2.804551724919562E+02
Total Energy                               R     -2.804551724919562E+02
Post-SCF wavefunction norm                 R      1.583725093603462E+00
RMS Force                                  R      5.325489404260716E-04
RMS Density                                R      9.883297288919208E-09
NImag                                      I                0
Job Status                                 I                1
Nuclear derivative order                   I                2
External E-field                           R   N=          35
  0.00000000E+00  0.00000000E+00  0.00000000E+00  0.00000000E+00  0.00000000E+00
  0.00000000E+00  0.00000000E+00  0.00000000E+00  0.00000000E+00  0.00000000E+00
  0.00000000E+00  0.00000000E+00  0.00000000E+00  0.00000000E+00  0.00000000E+00
  0.00000000E+00  0.00000000E+00  0.00000000E+00  0.00000000E+00  0.00000000E+00
  0.00000000E+00  0.00000000E+00  0.00000000E+00  0.00000000E+00  0.00000000E+00
  0.00000000E+00  0.00000000E+00  0.00000000E+00  0.00000000E+00  0.00000000E+00
  0.00000000E+00  0.00000000E+00  0.00000000E+00  0.00000000E+00  0.00000000E+00
IOpCl                                      I                0
IROHF                                      I                0
Alpha Orbital Energies                     R   N=         207
 -2.07197491E+01 -2.06871016E+01 -2.06683906E+01 -1.58258856E+01 -1.64414508E+00
 -1.50512444E+00 -1.29374340E+00 -9.60273990E-01 -8.34390421E-01 -7.58831840E-01
 -7.40030226E-01 -6.37802728E-01 -6.19137661E-01 -6.17387343E-01 -5.04601088E-01
 -4.97564039E-01  3.50230582E-02  6.03535748E-02  9.51178426E-02  1.00394399E-01
  1.19414486E-01  1.22628397E-01  1.49583726E-01  1.51968242E-01  1.77129704E-01
  1.80743848E-01  1.89470391E-01  2.11399926E-01  2.16794810E-01  2.42428504E-01
  2.46300906E-01  2.68986248E-01  3.06780054E-01  3.22508416E-01  3.38188092E-01
  3.43884348E-01  3.46944528E-01  3.92639542E-01  4.46683108E-01  4.87435480E-01
  5.07019718E-01  5.18498935E-01  5.44813884E-01  5.61372201E-01  5.98905920E-01
  6.20314762E-01  6.38233597E-01  6.89740927E-01  7.14457007E-01  7.26516807E-01
  7.43241114E-01  7.61920607E-01  7.69315330E-01  7.93704829E-01  8.06362969E-01
  8.40186541E-01  8.43721870E-01  8.52734073E-01  8.86812378E-01  9.07449763E-01
  9.29736958E-01  9.50257202E-01  9.54102190E-01  1.01795360E+00  1.03332768E+00
  1.06023787E+00  1.06535118E+00  1.09611180E+00  1.14252323E+00  1.15583647E+00
  1.17067304E+00  1.21833997E+00  1.23086869E+00  1.24628205E+00  1.35081130E+00
  1.36127043E+00  1.37044306E+00  1.46421884E+00  1.49168684E+00  1.50586921E+00
  1.53919549E+00  1.58651168E+00  1.59928105E+00  1.61377893E+00  1.62922159E+00
  1.69526198E+00  1.73948229E+00  1.80166673E+00  1.82951234E+00  1.88932974E+00
  1.89496756E+00  1.92930697E+00  1.97765455E+00  1.99209038E+00  2.05134820E+00
  2.12336136E+00  2.12981031E+00  2.16687787E+00  2.18881767E+00  2.24291241E+00
  2.26048562E+00  2.29623869E+00  2.35150933E+00  2.36573066E+00  2.38742773E+00
  2.40155310E+00  2.43273556E+00  2.46724046E+00  2.48088353E+00  2.52892342E+00
  2.53511047E+00  2.54930199E+00  2.56239460E+00  2.61601938E+00  2.63018839E+00
  2.66799980E+00  2.67386959E+00  2.75426244E+00  2.80953767E+00  2.81925199E+00
  2.84235532E+00  2.91851470E+00  2.98432198E+00  3.04527333E+00  3.05158721E+00
  3.11292439E+00  3.12122681E+00  3.17149712E+00  3.21181223E+00  3.30586018E+00
  3.33439132E+00  3.36065115E+00  3.47677090E+00  3.67830199E+00  3.86634480E+00
  3.93058809E+00  4.17373997E+00  4.22013516E+00  4.23660223E+00  4.27256060E+00
  4.37187098E+00  4.49993734E+00  4.52486293E+00  4.55531258E+00  4.60192916E+00
  4.69404819E+00  4.81003421E+00  4.89693001E+00  4.91671662E+00  4.94274108E+00
  4.99734142E+00  5.00661833E+00  5.10634935E+00  5.13247360E+00  5.18140292E+00
  5.25014719E+00  5.25940675E+00  5.31698640E+00  5.34541124E+00  5.35624271E+00
  5.54747289E+00  5.64474416E+00  5.70535987E+00  5.88908840E+00  5.99709298E+00
  6.26633742E+00  6.29630661E+00  6.35985577E+00  6.37644864E+00  6.59951680E+00
  6.65383670E+00  6.66624772E+00  6.69100229E+00  6.72607211E+00  6.78768001E+00
  6.81022057E+00  6.85367783E+00  6.96693101E+00  7.01865756E+00  7.06745721E+00
  7.08253661E+00  7.13921566E+00  7.17112291E+00  7.17903114E+00  7.20309255E+00
  7.24572642E+00  7.24811162E+00  7.27282006E+00  7.34918647E+00  7.39419891E+00
  7.42732919E+00  7.44298598E+00  7.46225950E+00  7.55995980E+00  7.66199022E+00
  7.66652891E+00  7.79605705E+00  7.88387371E+00  7.95216118E+00  8.05922445E+00
  8.30629665E+00  8.49844772E+00  8.65135624E+00  1.36188614E+01  1.47628804E+01
  1.50976928E+01  1.57602472E+01
Alpha MO coefficients                      R   N=       42849
  6.46426220E-05 -4.46026880E-05 -1.08037327E-03  1.22966031E-05  1.64634112E-05
  6.41886926E-05  3.64123858E-06  2.42442140E-04 -1.88131479E-04 -1.07268486E-05
  2.07354533E-04 -2.75063306E-04 -1.59489706E-05  4.30146572E-05 -5.32232016E-06
 -4.07831974E-06  5.02148355E-06 -2.75456700E-05  2.24427353E-04 -2.98004950E-05
 -1.39906126E-05 -2.03276487E-04  2.44683511E-05  3.08026643E-03 -9.69376016E-05
 -9.90071805E-05  3.54495942E-03  2.46506430E-03 -5.11657702E-05 -1.03769183E-04
 -2.09764408E-06  4.18594439E-04  6.62233812E-04  1.62371839E-05  9.52450629E-04
  2.06507899E-03  6.50273318E-05  4.07376662E-04  3.49434605E-04  2.31398990E-05
  2.03214342E-05 -1.39941797E-06  6.28235743E-07  3.92872103E-05 -2.16994107E-05
 -4.42645281E-04  1.26329997E-05  2.92847624E-06 -5.02699031E-04  6.06215091E-04
 -3.65394437E-04  1.14443212E-05  7.08255054E-06 -5.35480353E-04  7.38689691E-04
  3.44292847E-07 -2.87263758E-05 -8.59764687E-05 -1.58543985E-06  1.51674739E-06
 -1.11436530E-04 -8.96202974E-06 -1.15683004E-05 -1.37443954E-04 -1.64094746E-04
 -2.19878900E-06  8.28145734E-06 -3.37946070E-04  6.28170225E-05  9.76903785E-01
 -9.17355265E-03  4.34071973E-02  4.91317651E-04 -2.20624618E-03  9.08935239E-04
 -1.99722762E-03 -9.81602189E-06 -1.07627902E-03  2.00572978E-03  7.37153811E-06
  2.14737267E-03  9.85587469E-04  2.28589391E-05  1.20936641E-04  2.08656597E-04
  1.30540219E-06  7.12938057E-06 -2.26310117E-07 -4.04381931E-07  3.46717378E-05
 -1.60978575E-05  8.27414467E-04 -2.68615864E-06 -5.98530310E-06 -3.05464114E-04
 -4.01671495E-04 -1.39256760E-04  5.95310584E-06 -4.42238889E-06  1.76478206E-04
 -6.27890452E-04  2.35577887E-08  5.21431267E-05 -6.01087319E-05 -3.09365998E-07
  3.85277792E-07 -4.84946652E-05 -7.07626713E-06 -3.72575950E-06 -7.48748698E-05
 -5.42070882E-05 -8.80696165E-07  1.99122646E-06 -4.68348426E-04  1.95217048E-04
  1.04480787E-04  4.58223934E-04 -3.23510699E-04 -8.25287689E-04  3.65409143E-04
  9.47919218E-05 -5.44805980E-05  6.40086791E-07 -1.21974688E-03  4.82039948E-04
 -1.24744771E-06  1.01054849E-03 -7.92665108E-05 -5.38853120E-06 -2.84243150E-04
  5.46208477E-05  2.68376916E-07 -5.24607996E-05 -3.35463270E-07 -2.88308469E-07
  9.46023391E-05 -9.36792995E-06 -4.15979041E-04  5.06888910E-06 -1.90241094E-06
  1.04438174E-03 -2.86069216E-04  2.57790717E-05  4.81590825E-06 -3.02599041E-06
 -6.60565075E-05 -3.12544146E-04  3.17810456E-07  1.30649398E-04 -4.51363707E-05
 -7.57491994E-07 -9.92269507E-07 -1.31768782E-04  5.68259626E-05  2.11179050E-06
  7.24537376E-05  1.11641689E-04 -3.11917905E-06  2.76665418E-06 -4.89099251E-04
 -1.83310931E-04 -7.03553476E-04  4.69949535E-05 -7.01624014E-05  1.98674886E-04
 -1.93294519E-04  4.76933389E-05 -1.62163849E-05  8.11258101E-07 -2.85692803E-04
  1.03851567E-04 -4.62196700E-06 -6.16211248E-04 -5.06979072E-05  2.89059192E-05
  2.14955202E-04  7.59557068E-05  2.89924882E-06 -1.30834952E-05  7.48711816E-07
  2.80314158E-07  1.55942642E-05 -1.16993730E-06 -1.66434511E-06 -2.78772172E-06
 -6.21989411E-07 -3.95041691E-05 -1.60865253E-04 -1.92548482E-05 -2.72449236E-05
 -9.63359152E-06 -8.97061378E-05 -1.54378625E-04  2.26525200E-06  1.04689342E-05
 -3.62852467E-06 -2.02709998E-06 -1.63666538E-06 -1.56373479E-05  1.71282563E-05
 -7.86855198E-06 -6.95442036E-05  2.46429096E-05  7.33078160E-06  4.80900393E-06
  1.48660327E-04 -1.13851515E-04  4.02709840E-05  7.04890439E-05 -1.38662354E-04
 -3.07653652E-05 -2.09886517E-05 -1.88564179E-06 -6.12343945E-07 -2.26438167E-04
 -8.67898423E-05 -3.29550581E-06 -1.09564750E-04 -5.65745286E-05  8.20271260E-06
  1.35148983E-05  3.67606871E-06  2.19767208E-06  1.04293207E-05 -1.73816180E-05
  2.51520366E-05 -1.87925449E-06  1.55497154E-06  2.49304194E-05 -1.11258889E-04
 -2.61596632E-04  2.63989522E-05 -1.53824346E-05 -5.53717749E-04  1.71864116E-04
 -1.39237280E-05  6.74809255E-06  8.44184726E-07  2.45881491E-05 -3.39011062E-05
 -6.10021367E-06 -2.37806999E-04 -9.08606972E-06 -1.16842037E-05  1.07193788E-05
  6.37330669E-05 -2.94479595E-06 -1.38365304E-06 -5.45947179E-07 -7.73464925E-07
 -1.33009340E-05 -4.52938362E-06  2.10430380E-05  1.13549082E-07  5.00164511E-06
  1.16433247E-04  1.56132044E-05  6.13961577E-05  1.82286479E-06  7.61949734E-06
 -9.06472593E-05 -3.53439911E-06  1.33175475E-06 -1.24011436E-05  3.57490988E-06
 -1.22802018E-06  2.75456841E-07  2.31629861E-05  8.97086148E-06 -3.08149852E-06
  3.29428236E-05 -1.97993512E-05  7.25672709E-06  3.61774933E-06  1.55037716E-05
  1.03304038E-05  7.31739816E-04  2.26325602E-05 -1.88054569E-05  2.92948503E-04
 -3.97495056E-04 -2.94458632E-05  1.19947012E-05  4.12421941E-07  1.44222112E-04
 -8.33829344E-05 -1.97241372E-06 -8.10644405E-06 -2.58203273E-04  7.88607265E-06
  3.99277578E-05  2.07972036E-04  4.86254282E-06 -4.03852111E-06 -5.43050206E-07
 -1.80767176E-07 -1.82043349E-05 -2.51645790E-05 -5.12024970E-05  2.60327978E-06
  1.65746669E-06  1.40310235E-04  3.92379077E-05 -6.43289220E-05  7.24242755E-06
 -1.70131890E-06  3.44347270E-05  3.21911844E-05  7.15461420E-07 -4.51667712E-06
  8.66518488E-07  1.72708199E-07  1.16664594E-07 -3.93454421E-07  8.19456659E-06
 -2.48806176E-06  1.23933031E-05 -2.22955444E-05  2.46577827E-06 -2.84842863E-06
  1.76667309E-04 -4.07690915E-05  2.37263823E-04  1.35861193E-03 -1.47381450E-04
 -6.69656000E-04  9.09504763E-04 -8.93300307E-06 -9.46381154E-05 -1.46725079E-07
  7.72304137E-04 -2.01800278E-03 -1.49785756E-05 -3.91163305E-04  3.28621495E-04
 -1.17808338E-05  3.14413915E-05 -3.57616348E-04 -2.37358446E-06 -1.27729788E-04
 -1.32135101E-06  2.77352298E-06 -2.12247415E-04 -1.47224411E-04 -4.61372522E-04
  2.63495756E-06  1.17875412E-05 -1.05835921E-03 -3.01294113E-04 -4.29732139E-05
  5.21154115E-06  8.24675292E-07  1.28850239E-04  2.34194630E-05  5.14486181E-07
 -2.86412803E-05  2.48063510E-05  3.66646796E-07 -6.55272557E-07 -4.12082501E-06
  2.46009177E-05  4.34617051E-06  1.55323561E-05  2.07560994E-04  2.10253449E-06
  1.41698954E-06 -7.00349955E-05  3.09230946E-04  9.76646061E-01 -9.88652799E-03
  4.35754875E-02  3.68151815E-03 -8.97651577E-04 -8.99834929E-04  1.98385550E-03
  1.98981544E-05  1.07025080E-03 -2.32377002E-03 -2.17887845E-05 -4.26295224E-04
  6.91641181E-04  2.16473984E-05 -4.56712036E-05 -1.14354636E-04 -6.13062263E-07
 -1.94085822E-04  9.25470636E-07  3.41590439E-06 -6.37224334E-05 -5.78473428E-05
  4.09212194E-04  4.06861888E-06 -1.17792015E-05  7.18845041E-04  6.75114242E-04
 -2.06071996E-04 -1.18089734E-05  5.40846877E-06 -7.50766655E-05 -1.19788373E-04
  2.23199562E-06 -3.78139114E-05  5.94791708E-05 -5.20730314E-07  4.78937467E-07
 -1.94543370E-05  2.42595050E-05 -2.89238273E-06  1.74086895E-05  1.26868996E-04
  8.49494503E-06  3.65308361E-06 -2.47643068E-04  9.03831146E-05  3.75754139E-04
  1.98721872E-03  1.35410735E-03 -1.68919726E-05 -2.00166860E-04  1.86293381E-04
 -1.74583673E-05 -9.08200416E-04  5.97026682E-04 -9.49374377E-05 -4.40422359E-05
  2.58329519E-04 -3.51788745E-05 -2.33498548E-05 -2.44588849E-06 -8.16260224E-07
 -1.75612953E-05  3.97257734E-05 -2.12487664E-04  3.42679139E-05 -3.72882421E-05
  2.82095461E-04 -4.48237727E-04  9.76834809E-01 -9.18583900E-03  4.34649865E-02
  1.42327948E-04 -1.90043570E-03  2.13782275E-03  5.38571121E-04  1.32370865E-04
 -2.13105148E-03 -6.13526951E-04 -1.21441007E-04 -4.74369218E-05  7.51888948E-04
 -5.35197504E-05 -1.88903434E-06 -3.69820281E-04  1.21421205E-06  3.10055505E-05
  8.92262973E-07 -2.14533169E-06  3.80296927E-05 -8.99532329E-05  7.60452609E-04
 -5.77549875E-05  4.30420790E-05  2.75054775E-04 -3.06835581E-04 -2.39098163E-04
  1.82690183E-07  2.26714782E-05  1.07463608E-04  3.17391942E-04  4.24145024E-06
  6.36653189E-05  4.90146824E-05 -2.90994202E-06  2.44142354E-07  4.62794279E-05