 Entering Gaussian System, Link 0=g16
 Input=hoono_a2_114p3355.gjf
 Output=hoono_a2_114p3355.log
 Initial command:
 /sw/contrib/gaussian/g16/B01/g16/l1.exe "/scr/Gau-25689.inp" -scrdir="/scr/"
 Entering Link 1 = /sw/contrib/gaussian/g16/B01/g16/l1.exe PID=     25690.
  
 Copyright (c) 1988-2017, Gaussian, Inc.  All Rights Reserved.
  
 This is part of the Gaussian(R) 16 program.  It is based on
 the Gaussian(R) 09 system (copyright 2009, Gaussian, Inc.),
 the Gaussian(R) 03 system (copyright 2003, Gaussian, Inc.),
 the Gaussian(R) 98 system (copyright 1998, Gaussian, Inc.),
 the Gaussian(R) 94 system (copyright 1995, Gaussian, Inc.),
 the Gaussian 92(TM) system (copyright 1992, Gaussian, Inc.),
 the Gaussian 90(TM) system (copyright 1990, Gaussian, Inc.),
 the Gaussian 88(TM) system (copyright 1988, Gaussian, Inc.),
 the Gaussian 86(TM) system (copyright 1986, Carnegie Mellon
 University), and the Gaussian 82(TM) system (copyright 1983,
 Carnegie Mellon University). Gaussian is a federally registered
 trademark of Gaussian, Inc.
  
 This software contains proprietary and confidential information,
 including trade secrets, belonging to Gaussian, Inc.
  
 This software is provided under written license and may be
 used, copied, transmitted, or stored only in accord with that
 written license.
  
 The following legend is applicable only to US Government
 contracts under FAR:
  
                    RESTRICTED RIGHTS LEGEND
  
 Use, reproduction and disclosure by the US Government is
 subject to restrictions as set forth in subparagraphs (a)
 and (c) of the Commercial Computer Software - Restricted
 Rights clause in FAR 52.227-19.
  
 Gaussian, Inc.
 340 Quinnipiac St., Bldg. 40, Wallingford CT 06492
  
  
 ---------------------------------------------------------------
 Warning -- This program may not be used in any manner that
 competes with the business of Gaussian, Inc. or will provide
 assistance to any competitor of Gaussian, Inc.  The licensee
 of this program is prohibited from giving any competitor of
 Gaussian, Inc. access to this program.  By using this program,
 the user acknowledges that Gaussian, Inc. is engaged in the
 business of creating and licensing software in the field of
 computational chemistry and represents and warrants to the
 licensee that it is not a competitor of Gaussian, Inc. and that
 it will not use this program in any manner prohibited above.
 ---------------------------------------------------------------
  

 Cite this work as:
 Gaussian 16, Revision B.01,
 M. J. Frisch, G. W. Trucks, H. B. Schlegel, G. E. Scuseria, 
 M. A. Robb, J. R. Cheeseman, G. Scalmani, V. Barone, 
 G. A. Petersson, H. Nakatsuji, X. Li, M. Caricato, A. V. Marenich, 
 J. Bloino, B. G. Janesko, R. Gomperts, B. Mennucci, H. P. Hratchian, 
 J. V. Ortiz, A. F. Izmaylov, J. L. Sonnenberg, D. Williams-Young, 
 F. Ding, F. Lipparini, F. Egidi, J. Goings, B. Peng, A. Petrone, 
 T. Henderson, D. Ranasinghe, V. G. Zakrzewski, J. Gao, N. Rega, 
 G. Zheng, W. Liang, M. Hada, M. Ehara, K. Toyota, R. Fukuda, 
 J. Hasegawa, M. Ishida, T. Nakajima, Y. Honda, O. Kitao, H. Nakai, 
 T. Vreven, K. Throssell, J. A. Montgomery, Jr., J. E. Peralta, 
 F. Ogliaro, M. J. Bearpark, J. J. Heyd, E. N. Brothers, K. N. Kudin, 
 V. N. Staroverov, T. A. Keith, R. Kobayashi, J. Normand, 
 K. Raghavachari, A. P. Rendell, J. C. Burant, S. S. Iyengar, 
 J. Tomasi, M. Cossi, J. M. Millam, M. Klene, C. Adamo, R. Cammi, 
 J. W. Ochterski, R. L. Martin, K. Morokuma, O. Farkas, 
 J. B. Foresman, and D. J. Fox, Gaussian, Inc., Wallingford CT, 2016.
 
 ******************************************
 Gaussian 16:  ES64L-G16RevB.01 20-Dec-2017
                 6-Mar-2022 
 ******************************************
 %nproc=28
 Will use up to   28 processors via shared memory.
 %mem=120GB
 %chk=hoono_a2_114p3355.chk
 ---------------------------------------
 #p freq mp2/aug-cc-pvtz density=current
 ---------------------------------------
 1/10=4,30=1,38=1/1,3;
 2/12=2,17=6,18=5,40=1/2;
 3/5=16,6=1,7=10,11=9,25=1,30=1,71=2,140=1/1,2,3;
 4//1;
 5/5=2,38=5,98=1/2;
 8/6=3,8=1,10=1,19=11,30=-1/1;
 9/15=3,16=-3/6;
 11/6=1,8=1,15=11,17=12,24=-1,27=1,28=-2,29=300,32=6,42=3/1,2,10;
 10/6=2,21=1/2;
 8/6=4,8=1,10=1,19=11,30=-1/11,4;
 10/5=1,20=4/2;
 11/12=2,14=11,16=1,17=2,28=-2,42=3,76=2/2,10,12;
 6/7=2,8=2,9=2,10=2,22=-1/1;
 7/8=1,10=1,12=2,25=1,44=2/1,2,3,16;
 1/10=4,30=1/3;
 99//99;
 Leave Link    1 at Sun Mar  6 19:30:11 2022, MaxMem= 16106127360 cpu:               1.9 elap:               0.1
 (Enter /sw/contrib/gaussian/g16/B01/g16/l101.exe)
 -----
 title
 -----
 Symbolic Z-matrix:
 Charge =  0 Multiplicity = 1
 H
 O                    1    r1
 O                    2    r2       1    a1
 N                    3    r3       2    a2       1    d1       0
 O                    4    r4       3    a3       2    d2       0
       Variables:
  r1                    0.98538                  
  r2                    1.42674                  
  r3                    1.38111                  
  r4                    1.19479                  
  a1                  100.63551                  
  a2                  114.33554                  
  a3                  114.33392                  
  d1                    0.                       
  d2                    0.                       
 
 ITRead=  0  0  0  0  0
 MicOpt= -1 -1 -1 -1 -1
 NAtoms=      5 NQM=        5 NQMF=       0 NMMI=      0 NMMIF=      0
                NMic=       0 NMicF=      0.
                    Isotopes and Nuclear Properties:
 (Nuclear quadrupole moments (NQMom) in fm**2, nuclear magnetic moments (NMagM)
  in nuclear magnetons)

  Atom         1           2           3           4           5
 IAtWgt=           1          16          16          14          16
 AtmWgt=   1.0078250  15.9949146  15.9949146  14.0030740  15.9949146
 NucSpn=           1           0           0           2           0
 AtZEff=  -0.0000000  -0.0000000  -0.0000000  -0.0000000  -0.0000000
 NQMom=    0.0000000   0.0000000   0.0000000   2.0440000   0.0000000
 NMagM=    2.7928460   0.0000000   0.0000000   0.4037610   0.0000000
 AtZNuc=   1.0000000   8.0000000   8.0000000   7.0000000   8.0000000
 Leave Link  101 at Sun Mar  6 19:30:11 2022, MaxMem= 16106127360 cpu:               3.2 elap:               0.1
 (Enter /sw/contrib/gaussian/g16/B01/g16/l103.exe)

 GradGradGradGradGradGradGradGradGradGradGradGradGradGradGradGradGradGrad
 Berny optimization.
 Initialization pass.
                       ----------------------------
                       !    Initial Parameters    !
                       ! (Angstroms and Degrees)  !
 ----------------------                            ----------------------
 !      Name          Value   Derivative information (Atomic Units)     !
 ------------------------------------------------------------------------
 !       r1          0.9854   calculate D2E/DX2 analytically            !
 !       r2          1.4267   calculate D2E/DX2 analytically            !
 !       r3          1.3811   calculate D2E/DX2 analytically            !
 !       r4          1.1948   calculate D2E/DX2 analytically            !
 !       a1        100.6355   calculate D2E/DX2 analytically            !
 !       a2        114.3355   calculate D2E/DX2 analytically            !
 !       a3        114.3339   calculate D2E/DX2 analytically            !
 !       d1          0.0      calculate D2E/DX2 analytically            !
 !       d2          0.0      calculate D2E/DX2 analytically            !
 ------------------------------------------------------------------------
 Trust Radius=3.00D-01 FncErr=1.00D-07 GrdErr=1.00D-07 EigMax=2.50D+02 EigMin=1.00D-04
 Number of steps in this run=      2 maximum allowed number of steps=      2.
 GradGradGradGradGradGradGradGradGradGradGradGradGradGradGradGradGradGrad

 Leave Link  103 at Sun Mar  6 19:30:11 2022, MaxMem= 16106127360 cpu:               0.6 elap:               0.0
 (Enter /sw/contrib/gaussian/g16/B01/g16/l202.exe)
                          Input orientation:                          
 ---------------------------------------------------------------------
 Center     Atomic      Atomic             Coordinates (Angstroms)
 Number     Number       Type             X           Y           Z
 ---------------------------------------------------------------------
      1          1           0        0.000000    0.000000    0.000000
      2          8           0        0.000000    0.000000    0.985377
      3          8           0        1.402227    0.000000    1.248696
      4          7           0        2.193826    0.000000    0.116958
      5          8           0        1.583924    0.000000   -0.910436
 ---------------------------------------------------------------------
                    Distance matrix (angstroms):
                    1          2          3          4          5
     1  H    0.000000
     2  O    0.985377   0.000000
     3  O    1.877627   1.426737   0.000000
     4  N    2.196942   2.359454   1.381108   0.000000
     5  O    1.826940   2.470409   2.166763   1.194788   0.000000
 Stoichiometry    HNO3
 Framework group  CS[SG(HNO3)]
 Deg. of freedom     7
 Full point group                 CS      NOp   2
 Largest Abelian subgroup         CS      NOp   2
 Largest concise Abelian subgroup C1      NOp   1
                         Standard orientation:                         
 ---------------------------------------------------------------------
 Center     Atomic      Atomic             Coordinates (Angstroms)
 Number     Number       Type             X           Y           Z
 ---------------------------------------------------------------------
      1          1           0        1.134389   -0.586855    0.000000
      2          8           0        1.324874    0.379935    0.000000
      3          8           0       -0.000000    0.909355    0.000000
      4          7           0       -0.995446   -0.048009    0.000000
      5          8           0       -0.595657   -1.173925    0.000000
 ---------------------------------------------------------------------
 Rotational constants (GHZ):          21.5796170           7.9667468           5.8186295
 Leave Link  202 at Sun Mar  6 19:30:11 2022, MaxMem= 16106127360 cpu:               3.5 elap:               0.2
 (Enter /sw/contrib/gaussian/g16/B01/g16/l301.exe)
 Standard basis: Aug-CC-pVTZ (5D, 7F)
 Ernie: Thresh=  0.10000D-02 Tol=  0.10000D-05 Strict=F.
 Ernie:  12 primitive shells out of 131 were deleted.
 There are   166 symmetry adapted cartesian basis functions of A'  symmetry.
 There are    79 symmetry adapted cartesian basis functions of A"  symmetry.
 There are   136 symmetry adapted basis functions of A'  symmetry.
 There are    71 symmetry adapted basis functions of A"  symmetry.
   207 basis functions,   315 primitive gaussians,   245 cartesian basis functions
    16 alpha electrons       16 beta electrons
       nuclear repulsion energy       122.4503690882 Hartrees.
 IExCor=    0 DFT=F Ex=HF Corr=None ExCW=0 ScaHFX=  1.000000
 ScaDFX=  1.000000  1.000000  1.000000  1.000000 ScalE2=  1.000000  1.000000
 IRadAn=      5 IRanWt=     -1 IRanGd=            0 ICorTp=0 IEmpDi=  4
 NAtoms=    5 NActive=    5 NUniq=    5 SFac= 1.00D+00 NAtFMM=   60 NAOKFM=F Big=F
 Integral buffers will be    131072 words long.
 Raffenetti 1 integral format.
 Two-electron integral symmetry is turned on.
 Leave Link  301 at Sun Mar  6 19:30:11 2022, MaxMem= 16106127360 cpu:               1.4 elap:               0.1
 (Enter /sw/contrib/gaussian/g16/B01/g16/l302.exe)
 NPDir=0 NMtPBC=     1 NCelOv=     1 NCel=       1 NClECP=     1 NCelD=      1
         NCelK=      1 NCelE2=     1 NClLst=     1 CellRange=     0.0.
 One-electron integrals computed using PRISM.
 One-electron integral symmetry used in STVInt
 NBasis=   207 RedAO= T EigKep=  1.31D-04  NBF=   136    71
 NBsUse=   207 1.00D-06 EigRej= -1.00D+00 NBFU=   136    71
 Leave Link  302 at Sun Mar  6 19:30:11 2022, MaxMem= 16106127360 cpu:               4.7 elap:               0.2
 (Enter /sw/contrib/gaussian/g16/B01/g16/l303.exe)
 DipDrv:  MaxL=1.
 Leave Link  303 at Sun Mar  6 19:30:12 2022, MaxMem= 16106127360 cpu:               0.9 elap:               0.1
 (Enter /sw/contrib/gaussian/g16/B01/g16/l401.exe)
 ExpMin= 2.53D-02 ExpMax= 1.53D+04 ExpMxC= 5.22D+02 IAcc=3 IRadAn=         5 AccDes= 0.00D+00
 Harris functional with IExCor=  205 and IRadAn=       5 diagonalized for initial guess.
 HarFok:  IExCor=  205 AccDes= 0.00D+00 IRadAn=         5 IDoV= 1 UseB2=F ITyADJ=14
 ICtDFT=  3500011 ScaDFX=  1.000000  1.000000  1.000000  1.000000
 FoFCou: FMM=F IPFlag=           0 FMFlag=      100000 FMFlg1=           0
         NFxFlg=           0 DoJE=T BraDBF=F KetDBF=T FulRan=T
         wScrn=  0.000000 ICntrl=       500 IOpCl=  0 I1Cent=   200000004 NGrid=           0
         NMat0=    1 NMatS0=      1 NMatT0=    0 NMatD0=    1 NMtDS0=    0 NMtDT0=    0
 Petite list used in FoFCou.
 Harris En= -279.644584977736    
 JPrj=0 DoOrth=F DoCkMO=F.
 Initial guess orbital symmetries:
       Occupied  (A') (A') (A') (A') (A') (A') (A') (A') (A') (A')
                 (A") (A') (A") (A') (A") (A')
       Virtual   (A") (A') (A') (A') (A') (A") (A') (A') (A') (A')
                 (A") (A') (A") (A') (A') (A") (A') (A') (A") (A')
                 (A') (A') (A') (A') (A") (A') (A') (A') (A") (A')
                 (A') (A") (A") (A') (A') (A") (A') (A") (A') (A")
                 (A') (A") (A') (A") (A') (A') (A') (A') (A") (A')
                 (A') (A") (A') (A") (A') (A") (A') (A') (A') (A")
                 (A') (A') (A") (A') (A') (A') (A") (A") (A') (A')
                 (A") (A') (A") (A") (A') (A') (A") (A') (A') (A')
                 (A") (A') (A') (A") (A') (A") (A") (A') (A') (A')
                 (A') (A") (A') (A") (A') (A') (A") (A') (A") (A')
                 (A") (A') (A') (A") (A") (A') (A') (A') (A") (A')
                 (A") (A') (A') (A') (A") (A') (A') (A') (A") (A')
                 (A") (A') (A') (A") (A") (A") (A") (A') (A') (A')
                 (A') (A') (A') (A") (A') (A") (A') (A") (A') (A')
                 (A") (A') (A") (A') (A') (A") (A') (A') (A') (A")
                 (A') (A') (A') (A") (A') (A") (A") (A') (A") (A')
                 (A') (A") (A") (A') (A") (A') (A') (A") (A") (A')
                 (A") (A") (A") (A') (A') (A") (A') (A') (A') (A")
                 (A') (A') (A') (A') (A') (A') (A') (A') (A') (A')
                 (A')
 The electronic state of the initial guess is 1-A'.
 Leave Link  401 at Sun Mar  6 19:30:12 2022, MaxMem= 16106127360 cpu:               7.0 elap:               0.3
 (Enter /sw/contrib/gaussian/g16/B01/g16/l502.exe)
 Keep R1 ints in memory in symmetry-blocked form, NReq=348887737.
 FoFCou: FMM=F IPFlag=           0 FMFlag=           0 FMFlg1=           0
         NFxFlg=           0 DoJE=F BraDBF=F KetDBF=F FulRan=T
         wScrn=  0.000000 ICntrl=       600 IOpCl=  0 I1Cent=           0 NGrid=           0
         NMat0=    1 NMatS0=  21528 NMatT0=    0 NMatD0=    1 NMtDS0=    0 NMtDT0=    0
 Petite list used in FoFCou.
 Closed shell SCF:
 Using DIIS extrapolation, IDIIS=  1040.
 NGot= 16106127360 LenX= 15988850015 LenY= 15988789549
 Requested convergence on RMS density matrix=1.00D-08 within 128 cycles.
 Requested convergence on MAX density matrix=1.00D-06.
 Requested convergence on             energy=1.00D-06.
 No special actions if energy rises.

 Cycle   1  Pass 1  IDiag  1:
 E= -279.364498856058    
 DIIS: error= 2.76D-02 at cycle   1 NSaved=   1.
 NSaved= 1 IEnMin= 1 EnMin= -279.364498856058     IErMin= 1 ErrMin= 2.76D-02
 ErrMax= 2.76D-02  0.00D+00 EMaxC= 1.00D-01 BMatC= 4.50D-01 BMatP= 4.50D-01
 IDIUse=3 WtCom= 7.24D-01 WtEn= 2.76D-01
 Coeff-Com:  0.100D+01
 Coeff-En:   0.100D+01
 Coeff:      0.100D+01
 Gap=     0.498 Goal=   None    Shift=    0.000
 GapD=    0.498 DampG=2.000 DampE=0.500 DampFc=1.0000 IDamp=-1.
 RMSDP=1.67D-03 MaxDP=8.76D-02              OVMax= 1.22D-01

 Cycle   2  Pass 1  IDiag  1:
 E= -279.446429879651     Delta-E=       -0.081931023592 Rises=F Damp=F
 DIIS: error= 1.91D-02 at cycle   2 NSaved=   2.
 NSaved= 2 IEnMin= 2 EnMin= -279.446429879651     IErMin= 2 ErrMin= 1.91D-02
 ErrMax= 1.91D-02  0.00D+00 EMaxC= 1.00D-01 BMatC= 8.58D-02 BMatP= 4.50D-01
 IDIUse=3 WtCom= 8.09D-01 WtEn= 1.91D-01
 Coeff-Com:  0.218D+00 0.782D+00
 Coeff-En:   0.766D-01 0.923D+00
 Coeff:      0.191D+00 0.809D+00
 Gap=     0.560 Goal=   None    Shift=    0.000
 RMSDP=9.64D-04 MaxDP=3.64D-02 DE=-8.19D-02 OVMax= 9.12D-02

 Cycle   3  Pass 1  IDiag  1:
 E= -279.484166592148     Delta-E=       -0.037736712497 Rises=F Damp=F
 DIIS: error= 1.10D-02 at cycle   3 NSaved=   3.
 NSaved= 3 IEnMin= 3 EnMin= -279.484166592148     IErMin= 3 ErrMin= 1.10D-02
 ErrMax= 1.10D-02  0.00D+00 EMaxC= 1.00D-01 BMatC= 3.09D-02 BMatP= 8.58D-02
 IDIUse=3 WtCom= 8.90D-01 WtEn= 1.10D-01
 Coeff-Com: -0.348D-01 0.365D+00 0.670D+00
 Coeff-En:   0.000D+00 0.218D+00 0.782D+00
 Coeff:     -0.310D-01 0.348D+00 0.683D+00
 Gap=     0.540 Goal=   None    Shift=    0.000
 RMSDP=4.09D-04 MaxDP=1.58D-02 DE=-3.77D-02 OVMax= 3.91D-02

 Cycle   4  Pass 1  IDiag  1:
 E= -279.505284417869     Delta-E=       -0.021117825721 Rises=F Damp=F
 DIIS: error= 1.60D-03 at cycle   4 NSaved=   4.
 NSaved= 4 IEnMin= 4 EnMin= -279.505284417869     IErMin= 4 ErrMin= 1.60D-03
 ErrMax= 1.60D-03  0.00D+00 EMaxC= 1.00D-01 BMatC= 5.91D-04 BMatP= 3.09D-02
 IDIUse=3 WtCom= 9.84D-01 WtEn= 1.60D-02
 Coeff-Com: -0.118D-01 0.461D-01 0.152D+00 0.814D+00
 Coeff-En:   0.000D+00 0.000D+00 0.000D+00 0.100D+01
 Coeff:     -0.116D-01 0.453D-01 0.149D+00 0.817D+00
 Gap=     0.527 Goal=   None    Shift=    0.000
 RMSDP=9.88D-05 MaxDP=2.31D-03 DE=-2.11D-02 OVMax= 1.18D-02

 Cycle   5  Pass 1  IDiag  1:
 E= -279.506091579307     Delta-E=       -0.000807161438 Rises=F Damp=F
 DIIS: error= 1.08D-03 at cycle   5 NSaved=   5.
 NSaved= 5 IEnMin= 5 EnMin= -279.506091579307     IErMin= 5 ErrMin= 1.08D-03
 ErrMax= 1.08D-03  0.00D+00 EMaxC= 1.00D-01 BMatC= 1.02D-04 BMatP= 5.91D-04
 IDIUse=3 WtCom= 9.89D-01 WtEn= 1.08D-02
 Coeff-Com:  0.537D-02-0.659D-01-0.110D+00 0.620D-01 0.111D+01
 Coeff-En:   0.000D+00 0.000D+00 0.000D+00 0.000D+00 0.100D+01
 Coeff:      0.531D-02-0.652D-01-0.109D+00 0.613D-01 0.111D+01
 Gap=     0.531 Goal=   None    Shift=    0.000
 RMSDP=7.96D-05 MaxDP=2.12D-03 DE=-8.07D-04 OVMax= 1.29D-02

 Cycle   6  Pass 1  IDiag  1:
 E= -279.506452547201     Delta-E=       -0.000360967893 Rises=F Damp=F
 DIIS: error= 3.27D-04 at cycle   6 NSaved=   6.
 NSaved= 6 IEnMin= 6 EnMin= -279.506452547201     IErMin= 6 ErrMin= 3.27D-04
 ErrMax= 3.27D-04  0.00D+00 EMaxC= 1.00D-01 BMatC= 2.42D-05 BMatP= 1.02D-04
 IDIUse=3 WtCom= 9.97D-01 WtEn= 3.27D-03
 Coeff-Com:  0.188D-02-0.705D-02-0.177D-01-0.185D+00 0.169D-01 0.119D+01
 Coeff-En:   0.000D+00 0.000D+00 0.000D+00 0.000D+00 0.000D+00 0.100D+01
 Coeff:      0.187D-02-0.702D-02-0.176D-01-0.184D+00 0.168D-01 0.119D+01
 Gap=     0.531 Goal=   None    Shift=    0.000
 RMSDP=4.67D-05 MaxDP=1.08D-03 DE=-3.61D-04 OVMax= 6.09D-03

 Cycle   7  Pass 1  IDiag  1:
 E= -279.506538656975     Delta-E=       -0.000086109775 Rises=F Damp=F
 DIIS: error= 1.37D-04 at cycle   7 NSaved=   7.
 NSaved= 7 IEnMin= 7 EnMin= -279.506538656975     IErMin= 7 ErrMin= 1.37D-04
 ErrMax= 1.37D-04  0.00D+00 EMaxC= 1.00D-01 BMatC= 3.62D-06 BMatP= 2.42D-05
 IDIUse=3 WtCom= 9.99D-01 WtEn= 1.37D-03
 Coeff-Com: -0.109D-02 0.115D-01 0.251D-01 0.162D-01-0.183D+00-0.149D+00
 Coeff-Com:  0.128D+01
 Coeff-En:   0.000D+00 0.000D+00 0.000D+00 0.000D+00 0.000D+00 0.000D+00
 Coeff-En:   0.100D+01
 Coeff:     -0.109D-02 0.115D-01 0.251D-01 0.162D-01-0.183D+00-0.149D+00
 Coeff:      0.128D+01
 Gap=     0.532 Goal=   None    Shift=    0.000
 RMSDP=1.76D-05 MaxDP=5.13D-04 DE=-8.61D-05 OVMax= 2.34D-03

 Cycle   8  Pass 1  IDiag  1:
 E= -279.506550811916     Delta-E=       -0.000012154941 Rises=F Damp=F
 DIIS: error= 4.74D-05 at cycle   8 NSaved=   8.
 NSaved= 8 IEnMin= 8 EnMin= -279.506550811916     IErMin= 8 ErrMin= 4.74D-05
 ErrMax= 4.74D-05  0.00D+00 EMaxC= 1.00D-01 BMatC= 6.04D-07 BMatP= 3.62D-06
 IDIUse=1 WtCom= 1.00D+00 WtEn= 0.00D+00
 Coeff-Com: -0.562D-03 0.411D-02 0.976D-02 0.252D-01-0.581D-01-0.192D+00
 Coeff-Com:  0.352D+00 0.860D+00
 Coeff:     -0.562D-03 0.411D-02 0.976D-02 0.252D-01-0.581D-01-0.192D+00
 Coeff:      0.352D+00 0.860D+00
 Gap=     0.532 Goal=   None    Shift=    0.000
 RMSDP=5.48D-06 MaxDP=1.55D-04 DE=-1.22D-05 OVMax= 6.58D-04

 Cycle   9  Pass 1  IDiag  1:
 E= -279.506552210539     Delta-E=       -0.000001398622 Rises=F Damp=F
 DIIS: error= 2.55D-05 at cycle   9 NSaved=   9.
 NSaved= 9 IEnMin= 9 EnMin= -279.506552210539     IErMin= 9 ErrMin= 2.55D-05
 ErrMax= 2.55D-05  0.00D+00 EMaxC= 1.00D-01 BMatC= 1.18D-07 BMatP= 6.04D-07
 IDIUse=1 WtCom= 1.00D+00 WtEn= 0.00D+00
 Coeff-Com:  0.243D-03-0.258D-02-0.536D-02-0.564D-02 0.473D-01 0.495D-01
 Coeff-Com: -0.340D+00 0.305D-01 0.123D+01
 Coeff:      0.243D-03-0.258D-02-0.536D-02-0.564D-02 0.473D-01 0.495D-01
 Coeff:     -0.340D+00 0.305D-01 0.123D+01
 Gap=     0.532 Goal=   None    Shift=    0.000
 RMSDP=2.48D-06 MaxDP=6.65D-05 DE=-1.40D-06 OVMax= 2.60D-04

 Cycle  10  Pass 1  IDiag  1:
 E= -279.506552477818     Delta-E=       -0.000000267279 Rises=F Damp=F
 DIIS: error= 5.99D-06 at cycle  10 NSaved=  10.
 NSaved=10 IEnMin=10 EnMin= -279.506552477818     IErMin=10 ErrMin= 5.99D-06
 ErrMax= 5.99D-06  0.00D+00 EMaxC= 1.00D-01 BMatC= 8.41D-09 BMatP= 1.18D-07
 IDIUse=1 WtCom= 1.00D+00 WtEn= 0.00D+00
 Coeff-Com: -0.396D-04 0.511D-03 0.124D-02-0.187D-02-0.112D-01 0.480D-02
 Coeff-Com:  0.750D-01-0.535D-01-0.447D+00 0.143D+01
 Coeff:     -0.396D-04 0.511D-03 0.124D-02-0.187D-02-0.112D-01 0.480D-02
 Coeff:      0.750D-01-0.535D-01-0.447D+00 0.143D+01
 Gap=     0.532 Goal=   None    Shift=    0.000
 RMSDP=7.17D-07 MaxDP=2.64D-05 DE=-2.67D-07 OVMax= 7.55D-05

 Cycle  11  Pass 1  IDiag  1:
 E= -279.506552503123     Delta-E=       -0.000000025305 Rises=F Damp=F
 DIIS: error= 2.24D-06 at cycle  11 NSaved=  11.
 NSaved=11 IEnMin=11 EnMin= -279.506552503123     IErMin=11 ErrMin= 2.24D-06
 ErrMax= 2.24D-06  0.00D+00 EMaxC= 1.00D-01 BMatC= 8.08D-10 BMatP= 8.41D-09
 IDIUse=1 WtCom= 1.00D+00 WtEn= 0.00D+00
 Coeff-Com: -0.148D-04 0.144D-03 0.293D-03 0.958D-03-0.175D-02-0.722D-02
 Coeff-Com:  0.157D-01 0.211D-01-0.311D-01-0.369D+00 0.137D+01
 Coeff:     -0.148D-04 0.144D-03 0.293D-03 0.958D-03-0.175D-02-0.722D-02
 Coeff:      0.157D-01 0.211D-01-0.311D-01-0.369D+00 0.137D+01
 Gap=     0.532 Goal=   None    Shift=    0.000
 RMSDP=2.44D-07 MaxDP=9.01D-06 DE=-2.53D-08 OVMax= 2.84D-05

 Cycle  12  Pass 1  IDiag  1:
 E= -279.506552506070     Delta-E=       -0.000000002947 Rises=F Damp=F
 DIIS: error= 6.58D-07 at cycle  12 NSaved=  12.
 NSaved=12 IEnMin=12 EnMin= -279.506552506070     IErMin=12 ErrMin= 6.58D-07
 ErrMax= 6.58D-07  0.00D+00 EMaxC= 1.00D-01 BMatC= 8.01D-11 BMatP= 8.08D-10
 IDIUse=1 WtCom= 1.00D+00 WtEn= 0.00D+00
 Coeff-Com:  0.295D-05-0.478D-04-0.101D-03 0.877D-04 0.111D-02-0.410D-03
 Coeff-Com: -0.744D-02 0.521D-02 0.391D-01-0.922D-01-0.216D+00 0.127D+01
 Coeff:      0.295D-05-0.478D-04-0.101D-03 0.877D-04 0.111D-02-0.410D-03
 Coeff:     -0.744D-02 0.521D-02 0.391D-01-0.922D-01-0.216D+00 0.127D+01
 Gap=     0.532 Goal=   None    Shift=    0.000
 RMSDP=8.16D-08 MaxDP=2.64D-06 DE=-2.95D-09 OVMax= 9.38D-06

 Cycle  13  Pass 1  IDiag  1:
 E= -279.506552506348     Delta-E=       -0.000000000279 Rises=F Damp=F
 DIIS: error= 1.53D-07 at cycle  13 NSaved=  13.
 NSaved=13 IEnMin=13 EnMin= -279.506552506348     IErMin=13 ErrMin= 1.53D-07
 ErrMax= 1.53D-07  0.00D+00 EMaxC= 1.00D-01 BMatC= 6.33D-12 BMatP= 8.01D-11
 IDIUse=1 WtCom= 1.00D+00 WtEn= 0.00D+00
 Coeff-Com:  0.111D-05-0.985D-05-0.129D-04-0.118D-03 0.881D-05 0.881D-03
 Coeff-Com: -0.710D-03-0.249D-02-0.336D-02 0.544D-01-0.121D+00-0.153D+00
 Coeff-Com:  0.123D+01
 Coeff:      0.111D-05-0.985D-05-0.129D-04-0.118D-03 0.881D-05 0.881D-03
 Coeff:     -0.710D-03-0.249D-02-0.336D-02 0.544D-01-0.121D+00-0.153D+00
 Coeff:      0.123D+01
 Gap=     0.532 Goal=   None    Shift=    0.000
 RMSDP=2.08D-08 MaxDP=6.08D-07 DE=-2.79D-10 OVMax= 1.99D-06

 Cycle  14  Pass 1  IDiag  1:
 E= -279.506552506367     Delta-E=       -0.000000000018 Rises=F Damp=F
 DIIS: error= 4.03D-08 at cycle  14 NSaved=  14.
 NSaved=14 IEnMin=14 EnMin= -279.506552506367     IErMin=14 ErrMin= 4.03D-08
 ErrMax= 4.03D-08  0.00D+00 EMaxC= 1.00D-01 BMatC= 4.48D-13 BMatP= 6.33D-12
 IDIUse=1 WtCom= 1.00D+00 WtEn= 0.00D+00
 Coeff-Com: -0.314D-06 0.451D-05 0.883D-05-0.178D-05-0.108D-03 0.405D-04
 Coeff-Com:  0.627D-03-0.254D-03-0.336D-02 0.690D-02 0.168D-01-0.875D-01
 Coeff-Com: -0.131D-01 0.108D+01
 Coeff:     -0.314D-06 0.451D-05 0.883D-05-0.178D-05-0.108D-03 0.405D-04
 Coeff:      0.627D-03-0.254D-03-0.336D-02 0.690D-02 0.168D-01-0.875D-01
 Coeff:     -0.131D-01 0.108D+01
 Gap=     0.532 Goal=   None    Shift=    0.000
 RMSDP=4.08D-09 MaxDP=1.01D-07 DE=-1.84D-11 OVMax= 4.53D-07

 SCF Done:  E(RHF) =  -279.506552506     A.U. after   14 cycles
            NFock= 14  Conv=0.41D-08     -V/T= 2.0023
 KE= 2.788772988922D+02 PE=-9.057729762402D+02 EE= 2.249387557534D+02
 Leave Link  502 at Sun Mar  6 19:30:16 2022, MaxMem= 16106127360 cpu:              57.6 elap:               3.8
 (Enter /sw/contrib/gaussian/g16/B01/g16/l801.exe)
 ExpMin= 2.53D-02 ExpMax= 1.53D+04 ExpMxC= 5.22D+02 IAcc=3 IRadAn=         5 AccDes= 0.00D+00
 HarFok:  IExCor=  205 AccDes= 0.00D+00 IRadAn=         5 IDoV=-2 UseB2=F ITyADJ=14
 ICtDFT= 12500011 ScaDFX=  1.000000  1.000000  1.000000  1.000000
 Largest valence mixing into a core orbital is  2.07D-04
 Largest core mixing into a valence orbital is  3.10D-05
 Range of M.O.s used for correlation:     5   207
 NBasis=   207 NAE=    16 NBE=    16 NFC=     4 NFV=     0
 NROrb=    203 NOA=    12 NOB=    12 NVA=   191 NVB=   191

 **** Warning!!: The largest alpha MO coefficient is  0.15901559D+02

 Leave Link  801 at Sun Mar  6 19:30:16 2022, MaxMem= 16106127360 cpu:               2.2 elap:               0.1
 (Enter /sw/contrib/gaussian/g16/B01/g16/l906.exe)
 Frozen-core derivative calculation, NFC=   4 NFV=   0.
 FulOut=F Deriv=T AODrv=T NAtomX=     5
   MMem=           0  MDisk=          12 MDiskD=          12
  W3Min=      811440 MinDsk=     2425030 NBas6D=         245
 NBas2D=       30762    NTT=       30135    LW2=     7400000
    MDV= 16105571616 MDiskM=      328644 NBas2p=       30759
 Disk-based method using ON**2 memory for 12 occupieds at a time.
 Permanent disk used for amplitudes=    11516536 words.
 Estimated scratch disk usage=   321863743 words.
 IMap=   1   2   3   4   5   6   7   8   9  10  11  12  13  14  15  16
 Actual    scratch disk usage=   310892607 words.
 JobTyp=1 Pass  1:  I=   5 to  16 NPSUse= 28 ParTrn=T ParDer=T DoDerP=T.
 (rs|ai) integrals will be sorted in core.
 Spin components of T(2) and E(2):
     alpha-alpha T2 =       0.3478957777D-01 E2=     -0.1244763939D+00
     alpha-beta  T2 =       0.1845899064D+00 E2=     -0.6996302462D+00
     beta-beta   T2 =       0.3478957777D-01 E2=     -0.1244763939D+00
 The integrals were generated   1 times.
 ANorm=    0.1119896898D+01
 E2 =    -0.9485830339D+00 EUMP2 =    -0.28045513554030D+03
 Leave Link  906 at Sun Mar  6 19:31:53 2022, MaxMem= 16106127360 cpu:            2713.3 elap:              97.0
 (Enter /sw/contrib/gaussian/g16/B01/g16/l1101.exe)
 Using compressed Sx but separate Hx and Fx, NAtomX=     5.
 Will process      6 centers per pass.
 Leave Link 1101 at Sun Mar  6 19:31:53 2022, MaxMem= 16106127360 cpu:               5.3 elap:               0.2
 (Enter /sw/contrib/gaussian/g16/B01/g16/l1102.exe)
 Leave Link 1102 at Sun Mar  6 19:31:53 2022, MaxMem= 16106127360 cpu:               0.5 elap:               0.0
 (Enter /sw/contrib/gaussian/g16/B01/g16/l1110.exe)
 Forming Gx(P) for the SCF density, NAtomX=     5.
 Integral derivatives from FoFJK, PRISM(SPDF).
 Do as many integral derivatives as possible in FoFJK.
 G2DrvN: MDV=   16106126844.
 G2DrvN: will do     6 centers at a time, making    1 passes.
 Calling FoFCou, ICntrl=  3107 FMM=F I1Cent=   0 AccDes= 0.00D+00.
 FoFJK:  IHMeth= 1 ICntrl=    3107 DoSepK=F KAlg= 0 I1Cent=           0 FoldK=F
 IRaf=         0 NMat=       1 IRICut=       1 DoRegI=T DoRafI=F ISym2E= 1 IDoP0=0 IntGTp=1.
 FoFCou: FMM=F IPFlag=           0 FMFlag=      100000 FMFlg1=           0
         NFxFlg=           0 DoJE=F BraDBF=F KetDBF=F FulRan=T
         wScrn=  0.000000 ICntrl=      3107 IOpCl=  0 I1Cent=           0 NGrid=           0
         NMat0=    1 NMatS0=      1 NMatT0=    0 NMatD0=    1 NMtDS0=    0 NMtDT0=    0
 Petite list used in FoFCou.
 End of G2Drv F.D. properties file   721 does not exist.
 End of G2Drv F.D. properties file   722 does not exist.
 End of G2Drv F.D. properties file   788 does not exist.
 Leave Link 1110 at Sun Mar  6 19:31:56 2022, MaxMem= 16106127360 cpu:              87.0 elap:               3.1
 (Enter /sw/contrib/gaussian/g16/B01/g16/l1002.exe)
 Minotr:  Closed shell wavefunction.
          IDoAtm=11111
          Frozen-core window.
          Direct CPHF calculation.
          Differentiating once with respect to electric field.
                with respect to dipole field.
          Differentiating once with respect to nuclear coordinates.
          Requested convergence is 1.0D-08 RMS, and 1.0D-07 maximum.
          Secondary convergence is 1.0D-12 RMS, and 1.0D-12 maximum.
          NewPWx=T KeepS1=T KeepF1=T KeepIn=T MapXYZ=F SortEE=F KeepMc=T.
 Keep R1 ints in memory in symmetry-blocked form, NReq=348888983.
 FoFCou: FMM=F IPFlag=           0 FMFlag=           0 FMFlg1=           0
         NFxFlg=           0 DoJE=F BraDBF=F KetDBF=F FulRan=T
         wScrn=  0.000000 ICntrl=       600 IOpCl=  0 I1Cent=           0 NGrid=           0
         NMat0=    1 NMatS0=  21528 NMatT0=    0 NMatD0=    1 NMtDS0=    0 NMtDT0=    0
 Petite list used in FoFCou.
          MDV=   16106127360 using IRadAn=       1.
          Solving linear equations simultaneously, MaxMat=       0.
          There are    18 degrees of freedom in the 1st order CPHF.  IDoFFX=6 NUNeed=    18.
     15 vectors produced by pass  0 Test12= 1.70D-14 5.56D-09 XBig12= 7.91D+00 1.24D+00.
 AX will form    15 AO Fock derivatives at one time.
     15 vectors produced by pass  1 Test12= 1.70D-14 5.56D-09 XBig12= 1.35D+00 2.22D-01.
     15 vectors produced by pass  2 Test12= 1.70D-14 5.56D-09 XBig12= 6.80D-02 5.87D-02.
     15 vectors produced by pass  3 Test12= 1.70D-14 5.56D-09 XBig12= 2.00D-03 1.09D-02.
     15 vectors produced by pass  4 Test12= 1.70D-14 5.56D-09 XBig12= 4.51D-05 1.22D-03.
     15 vectors produced by pass  5 Test12= 1.70D-14 5.56D-09 XBig12= 6.47D-07 1.17D-04.
     15 vectors produced by pass  6 Test12= 1.70D-14 5.56D-09 XBig12= 4.89D-09 1.16D-05.
     14 vectors produced by pass  7 Test12= 1.70D-14 5.56D-09 XBig12= 3.57D-11 8.67D-07.
      3 vectors produced by pass  8 Test12= 1.70D-14 5.56D-09 XBig12= 2.44D-13 6.24D-08.
      1 vectors produced by pass  9 Test12= 1.70D-14 5.56D-09 XBig12= 1.67D-15 6.79D-09.
 InvSVY:  IOpt=1 It=  1 EMax= 1.11D-15
 Solved reduced A of dimension   123 with    15 vectors.
 FullF1:  Do perturbations      1 to      18.
 Saving first derivative matrices.
 End of Minotr F.D. properties file   721 does not exist.
 End of Minotr F.D. properties file   722 does not exist.
 End of Minotr F.D. properties file   788 does not exist.
 Leave Link 1002 at Sun Mar  6 19:31:59 2022, MaxMem= 16106127360 cpu:              78.4 elap:               2.9
 (Enter /sw/contrib/gaussian/g16/B01/g16/l811.exe)
 MDV= 16106127360.
 Form MO integral derivatives with frozen-active canonical formalism.
 MOERI=1 MOERIx=1 NAtoms=     5 NAtomX=     5.
 Discarding MO integrals.
 MO basis two electron integral derivatives will not be stored on disk.
 IAlg= 3 DoFC=T DoPWx=T Debug=F.
 Frozen-core window:  NFC=   4 NFV=   0.
 Reordered first order wavefunction length =     18678272
 In DefCFB: NBatch=  1 ICI= 16 ICA=191 LFMax= 96
            Large arrays: LIAPS=   619940160 LIARS=   288257200 words.
 In StABat: MaxSiz= 55 MinSiz= 25 NAtomB=  5
 DoIAMN: NPSUse= 28.
 Leave Link  811 at Sun Mar  6 19:33:20 2022, MaxMem= 16106127360 cpu:            2256.1 elap:              80.7
 (Enter /sw/contrib/gaussian/g16/B01/g16/l804.exe)
 Frozen-core window:  NFC=   4 NFV=   0.
 Closed-shell transformation, MDV= 16106127360 ITran=4 ISComp=1.
 Semi-Direct transformation.
 ModeAB=           2 MOrb=            16 LenV=   16104919995
 LASXX=     67341636 LTotXX=    67341636 LenRXX=    67341636
 LTotAB=    68301760 MaxLAS=    99807120 LenRXY=    99807120
 NonZer=   134683272 LenScr=   202817536 LnRSAI=           0
 LnScr1=           0 LExtra=           0 Total=    369966292
 MaxDsk=          -1 SrtSym=           F ITran=            4
 DoSDTr:  NPSUse= 28
 JobTyp=0 Pass  1:  I=   1 to  16.
 (rs|ai) integrals will be sorted in core.
 Complete sort for first half transformation.
 First half transformation complete.
 Begin second half transformation for I=  10.
 Begin second half transformation for I=  10.
 Complete sort for second half transformation.
 Second half transformation complete.
 Spin components of T(2) and E(2):
     alpha-alpha T2 =       0.3478957777D-01 E2=     -0.1244763939D+00
     alpha-beta  T2 =       0.1845899064D+00 E2=     -0.6996302462D+00
     beta-beta   T2 =       0.3478957777D-01 E2=     -0.1244763939D+00
 ANorm=    0.1583773381D+01
 E2 =    -0.9485830339D+00 EUMP2 =    -0.28045513554030D+03
 Leave Link  804 at Sun Mar  6 19:33:36 2022, MaxMem= 16106127360 cpu:             439.1 elap:              15.7
 (Enter /sw/contrib/gaussian/g16/B01/g16/l1002.exe)
 Minotr:  Closed shell wavefunction.
          Computing MP2/KS-MP2 derivatives.
          Using Z-Vector for PSCF gradient.
          Skipping F1 and S1 gradient terms here.
          IDoAtm=11111
          Frozen-core window.
          Using MO integrals in the linear equations.
          Forming densities via direct SCF.
          Differentiating once with respect to electric field.
                with respect to dipole field.
          Differentiating once with respect to nuclear coordinates.
          Using symmetry in CPHF.
          Requested convergence is 1.0D-10 RMS, and 1.0D-09 maximum.
          NewPWx=F KeepS1=T KeepF1=T KeepIn=T MapXYZ=F SortEE=F KeepMc=T.
          MDV=   16106127360 using IRadAn=       5.
          Solving linear equations separately, MaxMat=       0.
          There are     1 degrees of freedom in the 1st order CPHF.  IDoFFX=0 NUNeed=     1.
 FoFJK:  IHMeth= 1 ICntrl=       0 DoSepK=F KAlg= 0 I1Cent=           0 FoldK=F
 IRaf=         0 NMat=       1 IRICut=       1 DoRegI=T DoRafI=F ISym2E= 0 IDoP0=0 IntGTp=1.
 FoFCou: FMM=F IPFlag=           0 FMFlag=      100000 FMFlg1=           0
         NFxFlg=           0 DoJE=F BraDBF=F KetDBF=F FulRan=T
         wScrn=  0.000000 ICntrl=         0 IOpCl=  0 I1Cent=           0 NGrid=           0
         NMat0=    1 NMatS0=      1 NMatT0=    0 NMatD0=    1 NMtDS0=    0 NMtDT0=    0
 Symmetry not used in FoFCou.
 LinEq1:  Iter=  0 NonCon=     1 RMS=6.59D-03 Max=1.69D-01 NDo=     1
 LinEq1:  Iter=  1 NonCon=     1 RMS=2.00D-03 Max=3.08D-02 NDo=     1
 LinEq1:  Iter=  2 NonCon=     1 RMS=8.86D-04 Max=1.44D-02 NDo=     1
 LinEq1:  Iter=  3 NonCon=     1 RMS=3.80D-04 Max=8.19D-03 NDo=     1
 LinEq1:  Iter=  4 NonCon=     1 RMS=1.38D-04 Max=1.77D-03 NDo=     1
 LinEq1:  Iter=  5 NonCon=     1 RMS=7.67D-05 Max=1.38D-03 NDo=     1
 LinEq1:  Iter=  6 NonCon=     1 RMS=2.44D-05 Max=3.70D-04 NDo=     1
 LinEq1:  Iter=  7 NonCon=     1 RMS=8.05D-06 Max=1.07D-04 NDo=     1
 LinEq1:  Iter=  8 NonCon=     1 RMS=3.96D-06 Max=6.18D-05 NDo=     1
 LinEq1:  Iter=  9 NonCon=     1 RMS=1.04D-06 Max=1.26D-05 NDo=     1
 LinEq1:  Iter= 10 NonCon=     1 RMS=2.29D-07 Max=3.12D-06 NDo=     1
 LinEq1:  Iter= 11 NonCon=     1 RMS=4.91D-08 Max=8.55D-07 NDo=     1
 LinEq1:  Iter= 12 NonCon=     1 RMS=1.15D-08 Max=1.82D-07 NDo=     1
 LinEq1:  Iter= 13 NonCon=     1 RMS=2.03D-09 Max=2.48D-08 NDo=     1
 LinEq1:  Iter= 14 NonCon=     1 RMS=4.17D-10 Max=5.65D-09 NDo=     1
 LinEq1:  Iter= 15 NonCon=     0 RMS=8.60D-11 Max=8.07D-10 NDo=     1
 Linear equations converged to 1.000D-10 1.000D-09 after    15 iterations.
 End of Minotr F.D. properties file   721 does not exist.
 End of Minotr F.D. properties file   722 does not exist.
 End of Minotr F.D. properties file   788 does not exist.
 Leave Link 1002 at Sun Mar  6 19:33:38 2022, MaxMem= 16106127360 cpu:              64.6 elap:               2.4
 (Enter /sw/contrib/gaussian/g16/B01/g16/l1102.exe)
 Use density number 2.
 Symmetrizing basis deriv contribution to polar:
 IMax=3 JMax=2 DiffMx= 0.00D+00
 Leave Link 1102 at Sun Mar  6 19:33:38 2022, MaxMem= 16106127360 cpu:               0.8 elap:               0.1
 (Enter /sw/contrib/gaussian/g16/B01/g16/l1110.exe)
 Forming Gx(P) for generalized density number  2 NAtomX=     5.
 Integral derivatives from FoFJK, PRISM(SPDF).
 Do as many integral derivatives as possible in FoFJK.
 G2DrvN: MDV=   16106126844.
 G2DrvN: will do     6 centers at a time, making    1 passes.
 Calling FoFCou, ICntrl=  3107 FMM=F I1Cent=   0 AccDes= 0.00D+00.
 FoFJK:  IHMeth= 1 ICntrl=    3107 DoSepK=F KAlg= 0 I1Cent=           0 FoldK=F
 IRaf=         0 NMat=       1 IRICut=       1 DoRegI=T DoRafI=F ISym2E= 1 IDoP0=0 IntGTp=1.
 FoFCou: FMM=F IPFlag=           0 FMFlag=      100000 FMFlg1=           0
         NFxFlg=           0 DoJE=F BraDBF=F KetDBF=F FulRan=T
         wScrn=  0.000000 ICntrl=      3107 IOpCl=  0 I1Cent=           0 NGrid=           0
         NMat0=    1 NMatS0=      1 NMatT0=    0 NMatD0=    1 NMtDS0=    0 NMtDT0=    0
 Petite list used in FoFCou.
 End of G2Drv F.D. properties file   721 does not exist.
 End of G2Drv F.D. properties file   722 does not exist.
 End of G2Drv F.D. properties file   788 does not exist.
 Leave Link 1110 at Sun Mar  6 19:33:41 2022, MaxMem= 16106127360 cpu:              87.3 elap:               3.2
 (Enter /sw/contrib/gaussian/g16/B01/g16/l1112.exe)
 MP22nd: MDV=   16106127360
 This link is doing NAtomX=     5 total of    18 degrees of freedom.
 Using ON3 I/O method in MakUI.
 Frozen-core window:  NFC=   4 NFV=   0.
 Using Ix for Sx.
 Use MO integrals over full window.
 Using OV2 memory method for fx*t*t/D, MaxI=    16 DoOO2=F NP=  28.
 R2 and R3 integrals will be kept in memory, NReq=   915591705.
 FoFCou: FMM=F IPFlag=           0 FMFlag=           0 FMFlg1=           0
         NFxFlg=           0 DoJE=F BraDBF=F KetDBF=F FulRan=T
         wScrn=  0.000000 ICntrl=       600 IOpCl=  0 I1Cent=           0 NGrid=           0
         NMat0=    1 NMatS0=      1 NMatT0=    0 NMatD0=    1 NMtDS0=    0 NMtDT0=    0
 Symmetry not used in FoFCou.
 DD1Dir will call FoFMem   1 times, MxPair=       272
 NAB=   136 NAA=     0 NBB=     0.
 Symmetry is being used.
 FoFJK:  IHMeth= 1 ICntrl=       0 DoSepK=F KAlg= 0 I1Cent=           0 FoldK=F
 IRaf=         0 NMat=      18 IRICut=      45 DoRegI=T DoRafI=T ISym2E= 2 IDoP0=3 IntGTp=3.
 Discarding MO integrals.
 Leave Link 1112 at Sun Mar  6 19:34:16 2022, MaxMem= 16106127360 cpu:             953.9 elap:              34.4
 (Enter /sw/contrib/gaussian/g16/B01/g16/l601.exe)
 Copying SCF densities to generalized density rwf, IOpCl= 0 IROHF=0.

 **********************************************************************

            Population analysis using the MP2 Density.

 **********************************************************************

 Orbital symmetries:
       Occupied  (A') (A') (A') (A') (A') (A') (A') (A') (A') (A')
                 (A") (A') (A") (A') (A') (A")
       Virtual   (A') (A") (A') (A') (A") (A') (A') (A') (A") (A')
                 (A") (A') (A') (A') (A") (A') (A') (A") (A') (A')
                 (A') (A') (A') (A') (A") (A') (A') (A") (A') (A')
                 (A') (A") (A") (A') (A') (A') (A") (A') (A") (A')
                 (A") (A") (A') (A') (A") (A') (A') (A") (A') (A')
                 (A') (A") (A') (A') (A") (A') (A") (A') (A") (A')
                 (A') (A') (A") (A') (A') (A') (A") (A") (A') (A')
                 (A") (A') (A") (A") (A') (A') (A") (A') (A') (A')
                 (A") (A') (A') (A") (A') (A") (A") (A') (A') (A')
                 (A') (A') (A") (A") (A') (A') (A") (A") (A') (A')
                 (A") (A') (A") (A') (A") (A') (A') (A") (A') (A')
                 (A") (A') (A') (A') (A") (A') (A') (A') (A") (A')
                 (A") (A") (A') (A') (A") (A') (A") (A") (A') (A')
                 (A') (A') (A") (A') (A') (A") (A") (A') (A') (A')
                 (A") (A") (A') (A') (A') (A") (A') (A') (A') (A")
                 (A') (A') (A') (A") (A") (A') (A") (A') (A') (A")
                 (A') (A") (A') (A") (A") (A') (A') (A") (A") (A")
                 (A') (A") (A") (A') (A') (A") (A') (A') (A') (A")
                 (A') (A') (A') (A') (A') (A') (A') (A') (A') (A')
                 (A')
 The electronic state is 1-A'.
 Alpha  occ. eigenvalues --  -20.71834 -20.68656 -20.66987 -15.82606  -1.64265
 Alpha  occ. eigenvalues --   -1.50530  -1.29384  -0.96015  -0.83243  -0.75831
 Alpha  occ. eigenvalues --   -0.73905  -0.63922  -0.61880  -0.61745  -0.50392
 Alpha  occ. eigenvalues --   -0.49713
 Alpha virt. eigenvalues --    0.03483   0.06077   0.09517   0.10081   0.11973
 Alpha virt. eigenvalues --    0.12246   0.14872   0.15143   0.17763   0.18065
 Alpha virt. eigenvalues --    0.18993   0.21105   0.21668   0.24094   0.24650
 Alpha virt. eigenvalues --    0.26897   0.31107   0.31509   0.33791   0.34502
 Alpha virt. eigenvalues --    0.34776   0.39137   0.44696   0.48789   0.50478
 Alpha virt. eigenvalues --    0.51933   0.54485   0.56147   0.60027   0.62055
 Alpha virt. eigenvalues --    0.63828   0.68874   0.71751   0.72494   0.74171
 Alpha virt. eigenvalues --    0.76146   0.76639   0.79550   0.80475   0.84152
 Alpha virt. eigenvalues --    0.84352   0.85140   0.88506   0.90687   0.92896
 Alpha virt. eigenvalues --    0.94769   0.95359   1.01865   1.02961   1.05483
 Alpha virt. eigenvalues --    1.06469   1.09208   1.14044   1.15596   1.16927
 Alpha virt. eigenvalues --    1.22180   1.22539   1.24700   1.34719   1.36663
 Alpha virt. eigenvalues --    1.37568   1.46712   1.48499   1.50632   1.53943
 Alpha virt. eigenvalues --    1.59268   1.59784   1.60542   1.62527   1.69589
 Alpha virt. eigenvalues --    1.74044   1.80234   1.83108   1.88859   1.89160
 Alpha virt. eigenvalues --    1.92625   1.97830   1.98757   2.05093   2.12724
 Alpha virt. eigenvalues --    2.12767   2.16368   2.18397   2.24155   2.25713
 Alpha virt. eigenvalues --    2.29562   2.34595   2.36102   2.38846   2.39926
 Alpha virt. eigenvalues --    2.43133   2.46771   2.47520   2.52613   2.53373
 Alpha virt. eigenvalues --    2.54891   2.55769   2.61286   2.62693   2.66899
 Alpha virt. eigenvalues --    2.67035   2.75417   2.80904   2.81119   2.84284
 Alpha virt. eigenvalues --    2.91440   2.98508   3.04537   3.04569   3.11659
 Alpha virt. eigenvalues --    3.11999   3.16080   3.21294   3.30754   3.33229
 Alpha virt. eigenvalues --    3.36784   3.47224   3.68347   3.86839   3.91846
 Alpha virt. eigenvalues --    4.17756   4.21575   4.22161   4.25906   4.36483
 Alpha virt. eigenvalues --    4.50158   4.50345   4.55658   4.59645   4.69859
 Alpha virt. eigenvalues --    4.81414   4.90180   4.91310   4.93750   4.99962
 Alpha virt. eigenvalues --    5.00682   5.10896   5.12892   5.18171   5.24791
 Alpha virt. eigenvalues --    5.25822   5.31762   5.32456   5.35016   5.55247
 Alpha virt. eigenvalues --    5.64560   5.70308   5.88681   6.00023   6.26754
 Alpha virt. eigenvalues --    6.29689   6.36089   6.37920   6.59630   6.64889
 Alpha virt. eigenvalues --    6.65705   6.68547   6.72901   6.80010   6.80484
 Alpha virt. eigenvalues --    6.84817   6.96727   7.02040   7.06610   7.08117
 Alpha virt. eigenvalues --    7.13470   7.16271   7.17475   7.20231   7.24508
 Alpha virt. eigenvalues --    7.24829   7.26968   7.34458   7.38802   7.42430
 Alpha virt. eigenvalues --    7.44318   7.46339   7.55480   7.65763   7.66527
 Alpha virt. eigenvalues --    7.79588   7.88032   7.94592   8.04733   8.30007
 Alpha virt. eigenvalues --    8.49459   8.65537  13.60404  14.78731  15.08069
 Alpha virt. eigenvalues --   15.72038
          Condensed to atoms (all electrons):
               1          2          3          4          5
     1  H    0.574780   0.126405   0.024578  -0.001329  -0.005392
     2  O    0.126405   8.387499  -0.234318  -0.000761  -0.006229
     3  O    0.024578  -0.234318   8.374712  -0.167357  -0.035826
     4  N   -0.001329  -0.000761  -0.167357   7.132976  -0.115361
     5  O   -0.005392  -0.006229  -0.035826  -0.115361   8.361215
 Mulliken charges:
               1
     1  H    0.280959
     2  O   -0.272596
     3  O    0.038211
     4  N    0.151833
     5  O   -0.198407
 Sum of Mulliken charges =  -0.00000
 Mulliken charges with hydrogens summed into heavy atoms:
               1
     2  O    0.008363
     3  O    0.038211
     4  N    0.151833
     5  O   -0.198407
 APT charges:
               1
     1  H    0.268298
     2  O   -0.303245
     3  O   -0.308427
     4  N    0.646888
     5  O   -0.303514
 Sum of APT charges =  -0.00000
 APT charges with hydrogens summed into heavy atoms:
               1
     2  O   -0.034947
     3  O   -0.308427
     4  N    0.646888
     5  O   -0.303514
 Electronic spatial extent (au):  <R**2>=            208.7900
 Charge=             -0.0000 electrons
 Dipole moment (field-independent basis, Debye):
    X=              0.0896    Y=             -1.1051    Z=              0.0000  Tot=              1.1088
 Quadrupole moment (field-independent basis, Debye-Ang):
   XX=            -23.2803   YY=            -23.0242   ZZ=            -21.9374
   XY=             -2.0007   XZ=              0.0000   YZ=              0.0000
 Traceless Quadrupole moment (field-independent basis, Debye-Ang):
   XX=             -0.5330   YY=             -0.2769   ZZ=              0.8099
   XY=             -2.0007   XZ=              0.0000   YZ=              0.0000
 Octapole moment (field-independent basis, Debye-Ang**2):
  XXX=              2.6982  YYY=              0.3123  ZZZ=              0.0000  XYY=              2.3631
  XXY=             -2.8789  XXZ=              0.0000  XZZ=             -0.5893  YZZ=             -0.7142
  YYZ=              0.0000  XYZ=              0.0000
 Hexadecapole moment (field-independent basis, Debye-Ang**3):
 XXXX=           -128.2289 YYYY=            -95.2323 ZZZZ=            -18.0477 XXXY=            -22.3397
 XXXZ=              0.0000 YYYX=            -20.4368 YYYZ=              0.0000 ZZZX=              0.0000
 ZZZY=              0.0000 XXYY=            -36.0239 XXZZ=            -24.6024 YYZZ=            -18.6395
 XXYZ=              0.0000 YYXZ=              0.0000 ZZXY=             -6.1375
 N-N= 1.224503690882D+02 E-N=-9.064636062118D+02  KE= 2.801961975958D+02
 Symmetry A'   KE= 2.663417949116D+02
 Symmetry A"   KE= 1.385440268418D+01
  Exact polarizability:  31.154   4.260  29.940   0.000   0.000  17.642
 Approx polarizability:  24.707   0.626  27.648  -0.000  -0.000  15.528
 No NMR shielding tensors so no spin-rotation constants.
 Leave Link  601 at Sun Mar  6 19:34:16 2022, MaxMem= 16106127360 cpu:               4.6 elap:               0.2
 (Enter /sw/contrib/gaussian/g16/B01/g16/l701.exe)
 ... and contract with generalized density number  2.
 Compute integral second derivatives.
 Leave Link  701 at Sun Mar  6 19:34:16 2022, MaxMem= 16106127360 cpu:               6.1 elap:               0.2
 (Enter /sw/contrib/gaussian/g16/B01/g16/l702.exe)
 L702 exits ... SP integral derivatives will be done elsewhere.
 Leave Link  702 at Sun Mar  6 19:34:16 2022, MaxMem= 16106127360 cpu:               0.8 elap:               0.0
 (Enter /sw/contrib/gaussian/g16/B01/g16/l703.exe)
 Integral derivatives from FoFJK, PRISM(SPDF).
 Compute integral second derivatives, UseDBF=F ICtDFT=           0.
 Calling FoFJK, ICntrl=  10100127 FMM=F ISym2X=1 I1Cent= 0 IOpClX= 0 NMat=1 NMatS=1 NMatT=0.
 FoFJK:  IHMeth= 1 ICntrl=10100127 DoSepK=F KAlg= 0 I1Cent=           0 FoldK=F
 IRaf=         0 NMat=       1 IRICut=       1 DoRegI=T DoRafI=F ISym2E= 1 IDoP0=0 IntGTp=1.
 FoFCou: FMM=F IPFlag=           0 FMFlag=      100000 FMFlg1=         800
         NFxFlg=           0 DoJE=F BraDBF=F KetDBF=F FulRan=T
         wScrn=  0.000000 ICntrl=  10100127 IOpCl=  0 I1Cent=           0 NGrid=           0
         NMat0=    1 NMatS0=      1 NMatT0=    0 NMatD0=    1 NMtDS0=    0 NMtDT0=    0
 Petite list used in FoFCou.
 Leave Link  703 at Sun Mar  6 19:34:32 2022, MaxMem= 16106127360 cpu:             447.3 elap:              16.0
 (Enter /sw/contrib/gaussian/g16/B01/g16/l716.exe)
 Dipole        = 3.52490446D-02-4.34795595D-01 0.00000000D+00
 Polarizability= 3.11542623D+01 4.26016287D+00 2.99403110D+01
                 0.00000000D+00 0.00000000D+00 1.76416069D+01
 Full mass-weighted force constant matrix:
 Low frequencies ---  -46.7904   -0.0015   -0.0008   -0.0007   22.3965   41.2850
 Low frequencies ---  354.3635  372.3288  518.0977
 Diagonal vibrational polarizability:
        7.3508929      10.0938295      16.2150036
 Harmonic frequencies (cm**-1), IR intensities (KM/Mole), Raman scattering
 activities (A**4/AMU), depolarization ratios for plane and unpolarized
 incident light, reduced masses (AMU), force constants (mDyne/A),
 and normal coordinates:
                      1                      2                      3
                     A"                     A'                     A"
 Frequencies --    354.2792               372.3287               518.0676
 Red. masses --      1.5475                 7.0055                 2.9560
 Frc consts  --      0.1144                 0.5722                 0.4674
 IR Inten    --     63.5837                 7.7219                25.7523
  Atom  AN      X      Y      Z        X      Y      Z        X      Y      Z
     1   1    -0.00  -0.00   0.98    -0.73  -0.26  -0.00     0.00  -0.00   0.93
     2   8    -0.00  -0.00  -0.11    -0.32  -0.31   0.00    -0.00  -0.00   0.06
     3   8    -0.00   0.00   0.12    -0.07   0.09  -0.00    -0.00   0.00  -0.19
     4   7     0.00   0.00  -0.11     0.05   0.09   0.00     0.00   0.00   0.27
     5   8     0.00   0.00   0.03     0.39   0.16  -0.00     0.00   0.00  -0.17
                      4                      5                      6
                     A'                     A'                     A'
 Frequencies --    713.3150               835.2152               971.2290
 Red. masses --     13.2282                12.2166                 9.5716
 Frc consts  --      3.9656                 5.0211                 5.3196
 IR Inten    --    220.9278                28.4982                12.9959
  Atom  AN      X      Y      Z        X      Y      Z        X      Y      Z
     1   1    -0.37  -0.00  -0.00     0.45  -0.15  -0.00    -0.64  -0.01  -0.00
     2   8     0.01  -0.08   0.00     0.52  -0.19   0.00     0.21  -0.16  -0.00
     3   8     0.37   0.58  -0.00    -0.38  -0.04  -0.00    -0.36   0.40   0.00
     4   7    -0.42  -0.46  -0.00    -0.43  -0.05   0.00     0.37   0.04  -0.00
     5   8     0.02  -0.10   0.00     0.21   0.28  -0.00    -0.13  -0.27   0.00
                      7                      8                      9
                     A'                     A'                     A'
 Frequencies --   1430.8199              1566.0893              3495.7265
 Red. masses --      1.2867                 7.1491                 1.0640
 Frc consts  --      1.5520                10.3308                 7.6603
 IR Inten    --     78.0178               153.0594                38.9646
  Atom  AN      X      Y      Z        X      Y      Z        X      Y      Z
     1   1     0.97  -0.19  -0.00    -0.73   0.15   0.00     0.14   0.99   0.00
     2   8    -0.06  -0.05  -0.00     0.02   0.02   0.00    -0.01  -0.06  -0.00
     3   8    -0.03   0.06   0.00    -0.04  -0.06  -0.00     0.00  -0.00   0.00
     4   7     0.06  -0.05  -0.00     0.26  -0.43   0.00    -0.00   0.00   0.00
     5   8    -0.02   0.04   0.00    -0.16   0.40  -0.00     0.00  -0.00  -0.00

 -------------------
 - Thermochemistry -
 -------------------
 Temperature   298.150 Kelvin.  Pressure   1.00000 Atm.
 Atom     1 has atomic number  1 and mass   1.00783
 Atom     2 has atomic number  8 and mass  15.99491
 Atom     3 has atomic number  8 and mass  15.99491
 Atom     4 has atomic number  7 and mass  14.00307
 Atom     5 has atomic number  8 and mass  15.99491
 Molecular mass:    62.99564 amu.
 Principal axes and moments of inertia in atomic units:
                           1         2         3
     Eigenvalues --    83.63175 226.53428 310.16603
           X            0.79802  -0.60263   0.00000
           Y            0.60263   0.79802   0.00000
           Z            0.00000   0.00000   1.00000
 This molecule is an asymmetric top.
 Rotational symmetry number  1.
 Rotational temperatures (Kelvin)      1.03566     0.38234     0.27925
 Rotational constants (GHZ):          21.57962     7.96675     5.81863
 Zero-point vibrational energy      61350.9 (Joules/Mol)
                                   14.66322 (Kcal/Mol)
 Warning -- explicit consideration of   3 degrees of freedom as
           vibrations may cause significant error
 Vibrational temperatures:    509.73   535.70   745.38  1026.30  1201.69
          (Kelvin)           1397.38  2058.63  2253.25  5029.57
 
 Zero-point correction=                           0.023367 (Hartree/Particle)
 Thermal correction to Energy=                    0.027332
 Thermal correction to Enthalpy=                  0.028277
 Thermal correction to Gibbs Free Energy=        -0.002637
 Sum of electronic and zero-point Energies=           -280.431768
 Sum of electronic and thermal Energies=              -280.427803
 Sum of electronic and thermal Enthalpies=            -280.426859
 Sum of electronic and thermal Free Energies=         -280.457772
 
                     E (Thermal)             CV                S
                      KCal/Mol        Cal/Mol-Kelvin    Cal/Mol-Kelvin
 Total                   17.151             12.230             65.063
 Electronic               0.000              0.000              0.000
 Translational            0.889              2.981             38.341
 Rotational               0.889              2.981             23.290
 Vibrational             15.374              6.268              3.433
 Vibration     1          0.730              1.566              1.147
 Vibration     2          0.744              1.529              1.070
 Vibration     3          0.873              1.210              0.614
                       Q            Log10(Q)             Ln(Q)
 Total Bot       0.163236D+02          1.212817          2.792614
 Total V=0       0.914179D+12         11.961031         27.541292
 Vib (Bot)       0.302693D-10        -10.518998        -24.220888
 Vib (Bot)    1  0.519322D+00         -0.284564         -0.655232
 Vib (Bot)    2  0.488194D+00         -0.311407         -0.717042
 Vib (Bot)    3  0.312120D+00         -0.505678         -1.164367
 Vib (V=0)       0.169518D+01          0.229216          0.527790
 Vib (V=0)    1  0.122090D+01          0.086680          0.199587
 Vib (V=0)    2  0.119881D+01          0.078750          0.181328
 Vib (V=0)    3  0.108942D+01          0.037196          0.085648
 Electronic      0.100000D+01          0.000000          0.000000
 Translational   0.196526D+08          7.293420         16.793719
 Rotational      0.274407D+05          4.438395         10.219783
 
                                                                title
                                                             IR Spectrum
 
     3                                                                      1    1                                                   
     4                                                                      5    4               9    8    7      5    33            
     9                                                                      6    3               7    3    1      1    75            
     6                                                                      6    1               1    5    3      8    24            
 
     X                                                                      X    X               X    X    X      X    XX            
     X                                                                      X    X                    X    X      X     X            
     X                                                                      X    X                    X    X            X            
     X                                                                      X    X                         X            X            
                                                                            X    X                         X            X            
                                                                            X    X                         X            X            
                                                                            X    X                         X                         
                                                                            X                              X                         
                                                                            X                              X                         
                                                                            X                              X                         
                                                                            X                              X                         
                                                                            X                              X                         
                                                                            X                              X                         
                                                                            X                              X                         
                                                                                                           X                         
                                                                                                           X                         
                                                                                                           X                         
                                                                                                           X                         
                                                                                                           X                         
                                                                                                           X                         
 
 ***** Axes restored to original set *****
 -------------------------------------------------------------------
 Center     Atomic                   Forces (Hartrees/Bohr)
 Number     Number              X              Y              Z
 -------------------------------------------------------------------
      1        1          -0.000111523   -0.000000000    0.000222888
      2        8           0.001060246   -0.000000000   -0.003930339
      3        8           0.002999445   -0.000000000    0.004047453
      4        7          -0.003463139   -0.000000000   -0.000508805
      5        8          -0.000485029   -0.000000000    0.000168804
 -------------------------------------------------------------------
 Cartesian Forces:  Max     0.004047453 RMS     0.001906626
 -----------------------------------------------------------------------------------------------
                       Internal Coordinate Forces (Hartree/Bohr or radian)
  Cent   Atom   N1       Length/X         N2         Alpha/Y        N3         Beta/Z          J
 -----------------------------------------------------------------------------------------------
      1  H 
      2  O        1  -0.000223(     1)
      3  O        2  -0.000248(     2)      1   0.000207(     5)
      4  N        3  -0.001984(     3)      2  -0.010089(     6)      1   0.000000(     8)     0
      5  O        4   0.000102(     4)      3  -0.001136(     7)      2   0.000000(     9)     0
 -----------------------------------------------------------------------------------------------
 Internal  Forces:  Max     0.010088688 RMS     0.003450846
 Force constants in Cartesian coordinates: 
                1             2             3             4             5 
      1  0.711122D-01
      2  0.000000D+00  0.600591D-02
      3  0.233618D-01  0.000000D+00  0.438738D+00
      4 -0.517099D-01  0.000000D+00 -0.481803D-02  0.278869D+00
      5  0.000000D+00 -0.262636D-02  0.000000D+00  0.000000D+00  0.123450D-01
      6  0.332517D-01  0.000000D+00 -0.423392D+00 -0.820229D-02  0.000000D+00
      7 -0.253073D-01  0.000000D+00 -0.152029D-01 -0.172099D+00  0.000000D+00
      8  0.000000D+00 -0.394431D-02  0.000000D+00  0.000000D+00 -0.178155D-01
      9 -0.453696D-01  0.000000D+00 -0.189248D-01  0.893653D-02  0.000000D+00
     10 -0.437213D-02  0.000000D+00  0.618409D-02 -0.819118D-01  0.000000D+00
     11  0.000000D+00  0.769857D-02  0.000000D+00  0.000000D+00  0.190124D-01
     12 -0.178339D-01  0.000000D+00  0.108064D-01  0.784780D-02  0.000000D+00
     13  0.102771D-01  0.000000D+00 -0.952498D-02  0.268512D-01  0.000000D+00
     14  0.000000D+00 -0.713380D-02  0.000000D+00  0.000000D+00 -0.109155D-01
     15  0.659001D-02  0.000000D+00 -0.722738D-02 -0.376401D-02  0.000000D+00
                6             7             8             9            10 
      6  0.522052D+00
      7 -0.912573D-01  0.303936D+00
      8  0.000000D+00  0.000000D+00  0.389245D-01
      9 -0.986553D-01  0.816066D-01  0.000000D+00  0.321691D+00
     10  0.393845D-01 -0.143675D+00  0.000000D+00 -0.388411D-01  0.539207D+00
     11  0.000000D+00  0.000000D+00 -0.475175D-01  0.000000D+00  0.000000D+00
     12 -0.666840D-02  0.125663D-01  0.000000D+00 -0.286028D-01  0.244868D+00
     13  0.268234D-01  0.371449D-01  0.000000D+00 -0.633234D-02 -0.309248D+00
     14  0.000000D+00  0.000000D+00  0.303528D-01  0.000000D+00  0.000000D+00
     15  0.666439D-02  0.122873D-01  0.000000D+00 -0.175508D+00 -0.251595D+00
               11            12            13            14            15 
     11  0.582183D-01
     12  0.000000D+00  0.459974D+00
     13  0.000000D+00 -0.247448D+00  0.234974D+00
     14 -0.374117D-01  0.000000D+00  0.000000D+00  0.251082D-01
     15  0.000000D+00 -0.435510D+00  0.236482D+00  0.000000D+00  0.611581D+00
 Force constants in internal coordinates: 
                1             2             3             4             5 
      1  0.438738D+00
      2  0.210574D-01  0.257861D+00
      3  0.484765D-02  0.158141D-01  0.202422D+00
      4 -0.110770D-01  0.225559D-01  0.148658D+00  0.721053D+00
      5  0.433903D-01  0.549647D-01 -0.234589D-01  0.203206D-01  0.246157D+00
      6  0.119540D-01  0.140841D-01  0.753595D-01  0.884484D-02 -0.152077D-01
      7  0.101628D-01 -0.739631D-01  0.111069D+00  0.118075D+00 -0.230118D-01
      8  0.000000D+00  0.000000D+00  0.000000D+00  0.000000D+00  0.000000D+00
      9  0.000000D+00  0.000000D+00  0.000000D+00  0.000000D+00  0.000000D+00
                6             7             8             9 
      6  0.469344D+00
      7  0.334529D-01  0.640011D+00
      8  0.000000D+00  0.000000D+00  0.196769D-01
      9  0.000000D+00  0.000000D+00  0.268587D-01  0.106882D+00
 Leave Link  716 at Sun Mar  6 19:34:33 2022, MaxMem= 16106127360 cpu:               0.7 elap:               0.0
 (Enter /sw/contrib/gaussian/g16/B01/g16/l103.exe)

 GradGradGradGradGradGradGradGradGradGradGradGradGradGradGradGradGradGrad
 Berny optimization.
 Search for a local minimum.
 Step number   1 out of a maximum of    2
 All quantities printed in internal units (Hartrees-Bohrs-Radians)
 Second derivative matrix not updated -- analytic derivatives used.
 The second derivative matrix:
                          r1        r2        r3        r4        a1
           r1           0.43874
           r2           0.02106   0.25786
           r3           0.00485   0.01581   0.20242
           r4          -0.01108   0.02256   0.14866   0.72105
           a1           0.04339   0.05496  -0.02346   0.02032   0.24616
           a2           0.01195   0.01408   0.07536   0.00884  -0.01521
           a3           0.01016  -0.07396   0.11107   0.11808  -0.02301
           d1           0.00000   0.00000   0.00000   0.00000   0.00000
           d2           0.00000   0.00000   0.00000   0.00000   0.00000
                          a2        a3        d1        d2
           a2           0.46934
           a3           0.03345   0.64001
           d1           0.00000   0.00000   0.01968
           d2           0.00000   0.00000   0.02686   0.10688
 ITU=  0
     Eigenvalues ---    0.01207   0.11449   0.12553   0.20171   0.27277
     Eigenvalues ---    0.44847   0.48132   0.58170   0.86408
 Angle between quadratic step and forces=   8.38 degrees.
 Linear search not attempted -- first point.
 Variable       Old X    -DE/DX   Delta X   Delta X   Delta X     New X
                                 (Linear)    (Quad)   (Total)
    r1        1.86209  -0.00022   0.00000   0.00021   0.00021   1.86230
    r2        2.69614  -0.00025   0.00000   0.00033   0.00033   2.69647
    r3        2.60992  -0.00198   0.00000  -0.00261  -0.00261   2.60730
    r4        2.25782   0.00010   0.00000   0.00103   0.00103   2.25885
    a1        1.75642   0.00021   0.00000  -0.00094  -0.00094   1.75548
    a2        1.99553  -0.01009   0.00000  -0.02111  -0.02111   1.97442
    a3        1.99550  -0.00114   0.00000  -0.00041  -0.00041   1.99510
    d1        0.00000   0.00000   0.00000   0.00000   0.00000   0.00000
    d2        0.00000   0.00000   0.00000   0.00000   0.00000   0.00000
         Item               Value     Threshold  Converged?
 Maximum Force            0.010089     0.000450     NO 
 RMS     Force            0.003451     0.000300     NO 
 Maximum Displacement     0.021112     0.001800     NO 
 RMS     Displacement     0.007109     0.001200     NO 
 Predicted change in Energy=-1.092098D-04
                       ----------------------------
                       ! Non-Optimized Parameters !
                       ! (Angstroms and Degrees)  !
 ----------------------                            ----------------------
 !      Name          Value   Derivative information (Atomic Units)     !
 ------------------------------------------------------------------------
 !       r1          0.9855   -DE/DX =   -0.0002                        !
 !       r2          1.4269   -DE/DX =   -0.0002                        !
 !       r3          1.3797   -DE/DX =   -0.002                         !
 !       r4          1.1953   -DE/DX =    0.0001                        !
 !       a1        100.5815   -DE/DX =    0.0002                        !
 !       a2        113.1259   -DE/DX =   -0.0101                        !
 !       a3        114.3106   -DE/DX =   -0.0011                        !
 !       d1          0.0      -DE/DX =    0.0                           !
 !       d2          0.0      -DE/DX =    0.0                           !
 ------------------------------------------------------------------------
 GradGradGradGradGradGradGradGradGradGradGradGradGradGradGradGradGradGrad

 Leave Link  103 at Sun Mar  6 19:34:33 2022, MaxMem= 16106127360 cpu:               0.5 elap:               0.0
 (Enter /sw/contrib/gaussian/g16/B01/g16/l9999.exe)

 ----------------------------------------------------------------------

 Electric dipole moment (input orientation):
 (Debye = 10**-18 statcoulomb cm , SI units = C m)
                  (au)            (Debye)         (10**-30 SI)
   Tot        0.436222D+00      0.110877D+01      0.369844D+01
   x         -0.118636D+00     -0.301542D+00     -0.100583D+01
   y          0.000000D+00      0.000000D+00      0.000000D+00
   z         -0.419780D+00     -0.106697D+01     -0.355904D+01

 Dipole polarizability, Alpha (input orientation).
 (esu units = cm**3 , SI units = C**2 m**2 J**-1)
 Alpha(0;0):
               (au)            (10**-24 esu)      (10**-40 SI)
   iso        0.262454D+02      0.388917D+01      0.432728D+01
   aniso      0.149033D+02      0.220844D+01      0.245722D+01
   xx         0.294929D+02      0.437039D+01      0.486272D+01
   yx         0.000000D+00      0.000000D+00      0.000000D+00
   yy         0.176416D+02      0.261422D+01      0.290871D+01
   zx        -0.417201D+01     -0.618228D+00     -0.687871D+00
   zy         0.000000D+00      0.000000D+00      0.000000D+00
   zz         0.316017D+02      0.468289D+01      0.521042D+01

 ----------------------------------------------------------------------

 Dipole orientation:
     1          0.00000000         -0.00000000         -0.00000000
     8         -0.50641722          0.00000000         -1.79190628
     8          1.90820264         -0.00000000         -2.99140205
     7          3.92936133         -0.00000000         -1.34016772
     8          3.34826739          0.00000000          0.84159634

 Electric dipole moment (dipole orientation):
 (Debye = 10**-18 statcoulomb cm , SI units = C m)
                  (au)            (Debye)         (10**-30 SI)
   Tot        0.436222D+00      0.110877D+01      0.369844D+01
   x          0.000000D+00      0.000000D+00      0.000000D+00
   y          0.000000D+00      0.000000D+00      0.000000D+00
   z          0.436222D+00      0.110877D+01      0.369844D+01

 Dipole polarizability, Alpha (dipole orientation).
 (esu units = cm**3 , SI units = C**2 m**2 J**-1)
 Alpha(0;0):
               (au)            (10**-24 esu)      (10**-40 SI)
   iso        0.262454D+02      0.388917D+01      0.432728D+01
   aniso      0.149033D+02      0.220844D+01      0.245722D+01
   xx         0.318326D+02      0.471710D+01      0.524848D+01
   yx         0.000000D+00      0.000000D+00      0.000000D+00
   yy         0.176416D+02      0.261422D+01      0.290871D+01
   zx         0.410676D+01      0.608559D+00      0.677113D+00
   zy         0.000000D+00      0.000000D+00      0.000000D+00
   zz         0.292620D+02      0.433618D+01      0.482465D+01

 ----------------------------------------------------------------------
 1\1\GINC-N2218\Freq\RMP2-FC\Aug-CC-pVTZ\H1N1O3\CGAVINH\06-Mar-2022\1\\
 #p freq mp2/aug-cc-pvtz density=current\\title\\0,1\H\O,1,r1\O,2,r2,1,
 a1\N,3,r3,2,a2,1,d1,0\O,4,r4,3,a3,2,d2,0\\r1=0.98537664\r2=1.42673666\
 r3=1.38110764\r4=1.19478846\a1=100.6355057\a2=114.33554353\a3=114.3339
 2022\d1=0.\d2=0.\\Version=ES64L-G16RevB.01\State=1-A'\HF=-279.5065525\
 MP2=-280.4551355\RMSD=4.083e-09\RMSF=1.907e-03\ZeroPoint=0.0233673\The
 rmal=0.0273325\Dipole=-0.1186356,0.,-0.4197801\DipoleDeriv=0.3136805,0
 .,0.0422865,0.,0.3000546,0.,-0.0167224,0.,0.1911579,-0.5388322,0.,0.27
 88988,0.,-0.2526491,0.,-0.1138364,0.,-0.1182527,-0.004819,0.,0.3527738
 ,0.,-0.0150395,0.,0.457718,0.,-0.905423,0.214936,0.,-0.1695148,0.,0.01
 56989,0.,-0.7001299,0.,1.7100291,0.0150347,0.,-0.5044443,0.,-0.0480649
 ,0.,0.3729708,0.,-0.8775112\Polar=29.4928801,0.,17.6416069,-4.172006,0
 .,31.6016932\Quadrupole=0.175086,0.6021313,-0.7772174,0.,1.4124153,0.\
 PG=CS [SG(H1N1O3)]\NImag=0\\0.07111225,0.,0.00600591,0.02336181,0.,0.4
 3873826,-0.05170991,0.,-0.00481803,0.27886904,0.,-0.00262636,0.,0.,0.0
 1234505,0.03325171,0.,-0.42339247,-0.00820229,0.,0.52205181,-0.0253073
 1,0.,-0.01520289,-0.17209853,0.,-0.09125731,0.30393595,0.,-0.00394431,
 0.,0.,-0.01781551,0.,0.,0.03892453,-0.04536964,0.,-0.01892479,0.008936
 53,0.,-0.09865532,0.08160657,0.,0.32169082,-0.00437213,0.,0.00618409,-
 0.08191179,0.,0.03938446,-0.14367502,0.,-0.03884113,0.53920659,0.,0.00
 769857,0.,0.,0.01901235,0.,0.,-0.04751754,0.,0.,0.05821833,-0.01783390
 ,0.,0.01080637,0.00784780,0.,-0.00666840,0.01256629,0.,-0.02860281,0.2
 4486796,0.,0.45997448,0.01027711,0.,-0.00952498,0.02685119,0.,0.026823
 42,0.03714491,0.,-0.00633234,-0.30924765,0.,-0.24744815,0.23497444,0.,
 -0.00713380,0.,0.,-0.01091553,0.,0.,0.03035284,0.,0.,-0.03741171,0.,0.
 ,0.02510820,0.00659001,0.,-0.00722738,-0.00376401,0.,0.00666439,0.0122
 8733,0.,-0.17550790,-0.25159538,0.,-0.43550964,0.23648205,0.,0.6115805
 3\\0.00011152,0.,-0.00022289,-0.00106025,0.,0.00393034,-0.00299944,0.,
 -0.00404745,0.00346314,0.,0.00050881,0.00048503,0.,-0.00016880\\\@


 THE ONLY TROUBLE WITH A SURE THING IS THE UNCERTAINTY.
     -- FROM A TEABAG (BELONGING TO W.H.?)
 Job cpu time:       0 days  2 hours  0 minutes 30.8 seconds.
 Elapsed time:       0 days  0 hours  4 minutes 21.6 seconds.
 File lengths (MBytes):  RWF=   7239 Int=      0 D2E=      0 Chk=      8 Scr=      1
 Normal termination of Gaussian 16 at Sun Mar  6 19:34:34 2022.
