title                                                                   
Freq      RMP2-FC                                                     Aug-CC-pVTZ         
Number of atoms                            I                5
Info1-9                                    I   N=           9
          33          24           0           0           0         100
           6           2           1
Full Title                                 C   N=           1
title       
Route                                      C   N=           4
#p freq mp2/aug-cc-pvtz density=current         
Charge                                     I                0
Multiplicity                               I                1
Number of electrons                        I               32
Number of alpha electrons                  I               16
Number of beta electrons                   I               16
Number of basis functions                  I              207
Number of independent functions            I              207
Number of point charges in /Mol/           I                0
Number of translation vectors              I                0
Atomic numbers                             I   N=           5
           1           8           8           7           8
Nuclear charges                            R   N=           5
  1.00000000E+00  8.00000000E+00  8.00000000E+00  7.00000000E+00  8.00000000E+00
Current cartesian coordinates              R   N=          15
  1.02039892E+00 -2.15163446E+00  3.11460462E-02  2.41291686E+00 -9.15713087E-01
  3.24117090E-03  1.02600138E+00  1.39630502E+00 -1.14877848E-02 -1.55951882E+00
  1.04144072E+00  1.70417857E-02 -2.20188914E+00 -1.12289825E+00 -1.05582043E-02
Number of symbols in /Mol/                 I                0
Force Field                                I                0
Atom Types                                 C   N=           5
                                                            
Int Atom Types                             I   N=           5
           0           0           0           0           0
MM charges                                 R   N=           5
  0.00000000E+00  0.00000000E+00  0.00000000E+00  0.00000000E+00  0.00000000E+00
Integer atomic weights                     I   N=           5
           1          16          16          14          16
Real atomic weights                        R   N=           5
  1.00782504E+00  1.59949146E+01  1.59949146E+01  1.40030740E+01  1.59949146E+01
Atom fragment info                         I   N=           5
           0           0           0           0           0
Atom residue num                           I   N=           5
           0           0           0           0           0
Nuclear spins                              I   N=           5
           1           0           0           2           0
Nuclear ZEff                               R   N=           5
 -1.00000000E+00 -5.60000000E+00 -5.60000000E+00 -4.55000000E+00 -5.60000000E+00
Nuclear ZNuc                               R   N=           5
  1.00000000E+00  8.00000000E+00  8.00000000E+00  7.00000000E+00  8.00000000E+00
Nuclear QMom                               R   N=           5
  0.00000000E+00  0.00000000E+00  0.00000000E+00  2.04400000E+00  0.00000000E+00
Nuclear GFac                               R   N=           5
  2.79284600E+00  0.00000000E+00  0.00000000E+00  4.03761000E-01  0.00000000E+00
MicOpt                                     I   N=           5
          -1          -1          -1          -1          -1
Number of residues                         I                0
Number of secondary structures             I                0
SymInf integers                            I   N=          26
           1           1           1           1           1           0
           0           0           0           0           0           0
           0           0           0           0           0           0
           0           0           0           0           0           0
           0           0
RotTr to input orientation                 R   N=          12
 -6.63830152E-01  9.38603589E-03  7.47824466E-01  7.47878331E-01  1.20002887E-02
  6.63727350E-01 -2.74434077E-03  9.99883941E-01 -1.49857663E-02  2.28661784E+00
 -1.48996975E-02  6.65486111E-01
Number of contracted shells                I               65
Number of primitive shells                 I              119
Pure/Cartesian d shells                    I                0
Pure/Cartesian f shells                    I                0
Highest angular momentum                   I                3
Largest degree of contraction              I                7
Shell types                                I   N=          65
           0           0           0           0           1           1
           1          -2          -2           0           0           0
           0           0           1           1           1           1
          -2          -2          -2          -3          -3           0
           0           0           0           0           1           1
           1           1          -2          -2          -2          -3
          -3           0           0           0           0           0
           1           1           1           1          -2          -2
          -2          -3          -3           0           0           0
           0           0           1           1           1           1
          -2          -2          -2          -3          -3
Number of primitives per shell             I   N=          65
           3           1           1           1           1           1
           1           1           1           7           6           1
           1           1           3           1           1           1
           1           1           1           1           1           7
           6           1           1           1           3           1
           1           1           1           1           1           1
           1           7           6           1           1           1
           3           1           1           1           1           1
           1           1           1           7           6           1
           1           1           3           1           1           1
           1           1           1           1           1
Shell to atom map                          I   N=          65
           1           1           1           1           1           1
           1           1           1           2           2           2
           2           2           2           2           2           2
           2           2           2           2           2           3
           3           3           3           3           3           3
           3           3           3           3           3           3
           3           4           4           4           4           4
           4           4           4           4           4           4
           4           4           4           5           5           5
           5           5           5           5           5           5
           5           5           5           5           5
Primitive exponents                        R   N=         119
  3.38700000E+01  5.09500000E+00  1.15900000E+00  3.25800000E-01  1.02700000E-01
  2.52600000E-02  1.40700000E+00  3.88000000E-01  1.02000000E-01  1.05700000E+00
  2.47000000E-01  1.53300000E+04  2.29900000E+03  5.22400000E+02  1.47300000E+02
  4.75500000E+01  1.67600000E+01  6.20700000E+00  5.22400000E+02  1.47300000E+02
  4.75500000E+01  1.67600000E+01  6.20700000E+00  6.88200000E-01  1.75200000E+00
  2.38400000E-01  7.37600000E-02  3.44600000E+01  7.74900000E+00  2.28000000E+00
  7.15600000E-01  2.14000000E-01  5.97400000E-02  2.31400000E+00  6.45000000E-01
  2.14000000E-01  1.42800000E+00  5.00000000E-01  1.53300000E+04  2.29900000E+03
  5.22400000E+02  1.47300000E+02  4.75500000E+01  1.67600000E+01  6.20700000E+00
  5.22400000E+02  1.47300000E+02  4.75500000E+01  1.67600000E+01  6.20700000E+00
  6.88200000E-01  1.75200000E+00  2.38400000E-01  7.37600000E-02  3.44600000E+01
  7.74900000E+00  2.28000000E+00  7.15600000E-01  2.14000000E-01  5.97400000E-02
  2.31400000E+00  6.45000000E-01  2.14000000E-01  1.42800000E+00  5.00000000E-01
  1.14200000E+04  1.71200000E+03  3.89300000E+02  1.10000000E+02  3.55700000E+01
  1.25400000E+01  4.64400000E+00  3.89300000E+02  1.10000000E+02  3.55700000E+01
  1.25400000E+01  4.64400000E+00  5.11800000E-01  1.29300000E+00  1.78700000E-01
  5.76000000E-02  2.66300000E+01  5.94800000E+00  1.74200000E+00  5.55000000E-01
  1.72500000E-01  4.91000000E-02  1.65400000E+00  4.69000000E-01  1.51000000E-01
  1.09300000E+00  3.64000000E-01  1.53300000E+04  2.29900000E+03  5.22400000E+02
  1.47300000E+02  4.75500000E+01  1.67600000E+01  6.20700000E+00  5.22400000E+02
  1.47300000E+02  4.75500000E+01  1.67600000E+01  6.20700000E+00  6.88200000E-01
  1.75200000E+00  2.38400000E-01  7.37600000E-02  3.44600000E+01  7.74900000E+00
  2.28000000E+00  7.15600000E-01  2.14000000E-01  5.97400000E-02  2.31400000E+00
  6.45000000E-01  2.14000000E-01  1.42800000E+00  5.00000000E-01
Contraction coefficients                   R   N=         119
  2.54948632E-02  1.90362766E-01  8.52162022E-01  1.00000000E+00  1.00000000E+00
  1.00000000E+00  1.00000000E+00  1.00000000E+00  1.00000000E+00  1.00000000E+00
  1.00000000E+00  5.19808943E-04  4.02025621E-03  2.07128267E-02  8.10105536E-02
  2.35962985E-01  4.42653446E-01  3.57064423E-01 -4.42115008E-05 -1.22591041E-03
 -1.05517725E-02 -6.74452633E-02 -1.71198607E-01  1.07329856E+00  1.00000000E+00
  1.00000000E+00  1.00000000E+00  4.11634896E-02  2.57762836E-01  8.02419274E-01
  1.00000000E+00  1.00000000E+00  1.00000000E+00  1.00000000E+00  1.00000000E+00
  1.00000000E+00  1.00000000E+00  1.00000000E+00  5.19808943E-04  4.02025621E-03
  2.07128267E-02  8.10105536E-02  2.35962985E-01  4.42653446E-01  3.57064423E-01
 -4.42115008E-05 -1.22591041E-03 -1.05517725E-02 -6.74452633E-02 -1.71198607E-01
  1.07329856E+00  1.00000000E+00  1.00000000E+00  1.00000000E+00  4.11634896E-02
  2.57762836E-01  8.02419274E-01  1.00000000E+00  1.00000000E+00  1.00000000E+00
  1.00000000E+00  1.00000000E+00  1.00000000E+00  1.00000000E+00  1.00000000E+00
  5.34563860E-04  4.13435660E-03  2.12335358E-02  8.25006224E-02  2.38138871E-01
  4.42551547E-01  3.53757422E-01 -4.89867350E-05 -1.19527323E-03 -1.03490714E-02
 -6.48680190E-02 -1.71552477E-01  1.07289568E+00  1.00000000E+00  1.00000000E+00
  1.00000000E+00  3.98072123E-02  2.49002660E-01  8.10479727E-01  1.00000000E+00
  1.00000000E+00  1.00000000E+00  1.00000000E+00  1.00000000E+00  1.00000000E+00
  1.00000000E+00  1.00000000E+00  5.19808943E-04  4.02025621E-03  2.07128267E-02
  8.10105536E-02  2.35962985E-01  4.42653446E-01  3.57064423E-01 -4.42115008E-05
 -1.22591041E-03 -1.05517725E-02 -6.74452633E-02 -1.71198607E-01  1.07329856E+00
  1.00000000E+00  1.00000000E+00  1.00000000E+00  4.11634896E-02  2.57762836E-01
  8.02419274E-01  1.00000000E+00  1.00000000E+00  1.00000000E+00  1.00000000E+00
  1.00000000E+00  1.00000000E+00  1.00000000E+00  1.00000000E+00
Coordinates of each shell                  R   N=         195
  1.02039892E+00 -2.15163446E+00  3.11460462E-02  1.02039892E+00 -2.15163446E+00
  3.11460462E-02  1.02039892E+00 -2.15163446E+00  3.11460462E-02  1.02039892E+00
 -2.15163446E+00  3.11460462E-02  1.02039892E+00 -2.15163446E+00  3.11460462E-02
  1.02039892E+00 -2.15163446E+00  3.11460462E-02  1.02039892E+00 -2.15163446E+00
  3.11460462E-02  1.02039892E+00 -2.15163446E+00  3.11460462E-02  1.02039892E+00
 -2.15163446E+00  3.11460462E-02  2.41291686E+00 -9.15713087E-01  3.24117090E-03
  2.41291686E+00 -9.15713087E-01  3.24117090E-03  2.41291686E+00 -9.15713087E-01
  3.24117090E-03  2.41291686E+00 -9.15713087E-01  3.24117090E-03  2.41291686E+00
 -9.15713087E-01  3.24117090E-03  2.41291686E+00 -9.15713087E-01  3.24117090E-03
  2.41291686E+00 -9.15713087E-01  3.24117090E-03  2.41291686E+00 -9.15713087E-01
  3.24117090E-03  2.41291686E+00 -9.15713087E-01  3.24117090E-03  2.41291686E+00
 -9.15713087E-01  3.24117090E-03  2.41291686E+00 -9.15713087E-01  3.24117090E-03
  2.41291686E+00 -9.15713087E-01  3.24117090E-03  2.41291686E+00 -9.15713087E-01
  3.24117090E-03  2.41291686E+00 -9.15713087E-01  3.24117090E-03  1.02600138E+00
  1.39630502E+00 -1.14877848E-02  1.02600138E+00  1.39630502E+00 -1.14877848E-02
  1.02600138E+00  1.39630502E+00 -1.14877848E-02  1.02600138E+00  1.39630502E+00
 -1.14877848E-02  1.02600138E+00  1.39630502E+00 -1.14877848E-02  1.02600138E+00
  1.39630502E+00 -1.14877848E-02  1.02600138E+00  1.39630502E+00 -1.14877848E-02
  1.02600138E+00  1.39630502E+00 -1.14877848E-02  1.02600138E+00  1.39630502E+00
 -1.14877848E-02  1.02600138E+00  1.39630502E+00 -1.14877848E-02  1.02600138E+00
  1.39630502E+00 -1.14877848E-02  1.02600138E+00  1.39630502E+00 -1.14877848E-02
  1.02600138E+00  1.39630502E+00 -1.14877848E-02  1.02600138E+00  1.39630502E+00
 -1.14877848E-02 -1.55951882E+00  1.04144072E+00  1.70417857E-02 -1.55951882E+00
  1.04144072E+00  1.70417857E-02 -1.55951882E+00  1.04144072E+00  1.70417857E-02
 -1.55951882E+00  1.04144072E+00  1.70417857E-02 -1.55951882E+00  1.04144072E+00
  1.70417857E-02 -1.55951882E+00  1.04144072E+00  1.70417857E-02 -1.55951882E+00
  1.04144072E+00  1.70417857E-02 -1.55951882E+00  1.04144072E+00  1.70417857E-02
 -1.55951882E+00  1.04144072E+00  1.70417857E-02 -1.55951882E+00  1.04144072E+00
  1.70417857E-02 -1.55951882E+00  1.04144072E+00  1.70417857E-02 -1.55951882E+00
  1.04144072E+00  1.70417857E-02 -1.55951882E+00  1.04144072E+00  1.70417857E-02
 -1.55951882E+00  1.04144072E+00  1.70417857E-02 -2.20188914E+00 -1.12289825E+00
 -1.05582043E-02 -2.20188914E+00 -1.12289825E+00 -1.05582043E-02 -2.20188914E+00
 -1.12289825E+00 -1.05582043E-02 -2.20188914E+00 -1.12289825E+00 -1.05582043E-02
 -2.20188914E+00 -1.12289825E+00 -1.05582043E-02 -2.20188914E+00 -1.12289825E+00
 -1.05582043E-02 -2.20188914E+00 -1.12289825E+00 -1.05582043E-02 -2.20188914E+00
 -1.12289825E+00 -1.05582043E-02 -2.20188914E+00 -1.12289825E+00 -1.05582043E-02
 -2.20188914E+00 -1.12289825E+00 -1.05582043E-02 -2.20188914E+00 -1.12289825E+00
 -1.05582043E-02 -2.20188914E+00 -1.12289825E+00 -1.05582043E-02 -2.20188914E+00
 -1.12289825E+00 -1.05582043E-02 -2.20188914E+00 -1.12289825E+00 -1.05582043E-02
Num ILSW                                   I              100
ILSW                                       I   N=         100
           0           0           0           0           2           0
           0           0           0           0           0          -1
           5           0           0           0           2           0
           0           0           0           0           1           0
           1           0           0           0           0           0
           0           0      100000           0          -1           0
           0           0           0           0           0           0
           0           0           0           1           1           0
           0 -2000000000           1           0           0           0
           0           0           4          52           0           0
           0           0           0           0           0           0
           0           0           0           5           4           1
           0           0           0           0           0           0
           0           0           0           0           0           0
           0           0           0           0           0           0
           0           0           0           0           0           0
           0           0           0           0
Num RLSW                                   I               52
RLSW                                       R   N=          52
  1.00000000E+00  1.00000000E+00  1.00000000E+00  1.00000000E+00  1.00000000E+00
  0.00000000E+00  0.00000000E+00  1.00000000E+00  0.00000000E+00  0.00000000E+00
  0.00000000E+00  0.00000000E+00  1.00000000E+00  0.00000000E+00  0.00000000E+00
  0.00000000E+00  0.00000000E+00  1.00000000E+00  0.00000000E+00  0.00000000E+00
  0.00000000E+00  0.00000000E+00  1.00000000E+00  0.00000000E+00  0.00000000E+00
  0.00000000E+00  0.00000000E+00  1.00000000E+00  0.00000000E+00  0.00000000E+00
  0.00000000E+00  0.00000000E+00  1.00000000E+00  0.00000000E+00  0.00000000E+00
  0.00000000E+00  0.00000000E+00  0.00000000E+00  1.00000000E+00  1.00000000E+00
  0.00000000E+00  1.00000000E+00  0.00000000E+00  0.00000000E+00  0.00000000E+00
  0.00000000E+00  0.00000000E+00  0.00000000E+00  0.00000000E+00  0.00000000E+00
  0.00000000E+00  0.00000000E+00
MxBond                                     I                2
NBond                                      I   N=           5
           1           2           2           2           1
IBond                                      I   N=          10
           2           0           1           3           2           4
           3           5           4           0
RBond                                      R   N=          10
  1.00000000E+00  0.00000000E+00  1.00000000E+00  1.00000000E+00  1.00000000E+00
  1.00000000E+00  1.00000000E+00  2.00000000E+00  2.00000000E+00  0.00000000E+00
Virial Ratio                               R      2.002227402857115E+00
SCF Energy                                 R     -2.795063976102121E+02
MP2 Energy                                 R     -2.804551946798280E+02
Total Energy                               R     -2.804551946798280E+02
Post-SCF wavefunction norm                 R      1.583727672098949E+00
RMS Force                                  R      8.858205242281614E-04
RMS Density                                R      6.895250441291062E-09
NImag                                      I                0
Job Status                                 I                1
Nuclear derivative order                   I                2
External E-field                           R   N=          35
  0.00000000E+00  0.00000000E+00  0.00000000E+00  0.00000000E+00  0.00000000E+00
  0.00000000E+00  0.00000000E+00  0.00000000E+00  0.00000000E+00  0.00000000E+00
  0.00000000E+00  0.00000000E+00  0.00000000E+00  0.00000000E+00  0.00000000E+00
  0.00000000E+00  0.00000000E+00  0.00000000E+00  0.00000000E+00  0.00000000E+00
  0.00000000E+00  0.00000000E+00  0.00000000E+00  0.00000000E+00  0.00000000E+00
  0.00000000E+00  0.00000000E+00  0.00000000E+00  0.00000000E+00  0.00000000E+00
  0.00000000E+00  0.00000000E+00  0.00000000E+00  0.00000000E+00  0.00000000E+00
IOpCl                                      I                0
IROHF                                      I                0
Alpha Orbital Energies                     R   N=         207
 -2.07197788E+01 -2.06872587E+01 -2.06682987E+01 -1.58260134E+01 -1.64428096E+00
 -1.50515821E+00 -1.29376707E+00 -9.60354560E-01 -8.34670242E-01 -7.58928523E-01
 -7.39954376E-01 -6.37401364E-01 -6.18915114E-01 -6.18217993E-01 -5.04734716E-01
 -4.97454605E-01  3.50637262E-02  6.02213718E-02  9.51178686E-02  1.00379602E-01
  1.19553566E-01  1.22730447E-01  1.49355029E-01  1.52043863E-01  1.77481725E-01
  1.80392156E-01  1.89744266E-01  2.11046996E-01  2.16725997E-01  2.42534036E-01
  2.46344758E-01  2.68992572E-01  3.12363520E-01  3.17076538E-01  3.38059757E-01
  3.43851099E-01  3.46790089E-01  3.92605666E-01  4.48833719E-01  4.88422627E-01
  5.05253655E-01  5.18508673E-01  5.44956733E-01  5.61178157E-01  5.99074069E-01
  6.20254487E-01  6.38605372E-01  6.89646986E-01  7.16992136E-01  7.24349462E-01
  7.43187761E-01  7.63723022E-01  7.67265943E-01  7.95496766E-01  8.06393325E-01
  8.40062733E-01  8.43163620E-01  8.51778237E-01  8.85383228E-01  9.07801326E-01
  9.30520201E-01  9.48087501E-01  9.54140713E-01  1.01821348E+00  1.03241338E+00
  1.06255939E+00  1.06590527E+00  1.09550413E+00  1.14412714E+00  1.15630808E+00
  1.16972651E+00  1.22234630E+00  1.22718644E+00  1.24600888E+00  1.35303425E+00
  1.36140101E+00  1.37155542E+00  1.46849861E+00  1.48547765E+00  1.50478832E+00
  1.54192385E+00  1.59519699E+00  1.59759311E+00  1.60710659E+00  1.62883214E+00
  1.69565688E+00  1.74063047E+00  1.80110022E+00  1.82985180E+00  1.88788257E+00
  1.89644659E+00  1.92935977E+00  1.97917467E+00  1.98964858E+00  2.05208193E+00
  2.12391321E+00  2.13047761E+00  2.16554831E+00  2.18791535E+00  2.24259433E+00
  2.26067886E+00  2.29434881E+00  2.35218725E+00  2.36631337E+00  2.38649325E+00
  2.40226412E+00  2.43368559E+00  2.46899213E+00  2.47965128E+00  2.52921919E+00
  2.53854548E+00  2.54934024E+00  2.55900706E+00  2.61607296E+00  2.63008575E+00
  2.67220142E+00  2.67429393E+00  2.75451464E+00  2.80935760E+00  2.81801307E+00
  2.84077723E+00  2.91874757E+00  2.98542064E+00  3.04709560E+00  3.05105103E+00
  3.11552075E+00  3.11816146E+00  3.17367728E+00  3.21331741E+00  3.30830408E+00
  3.33227053E+00  3.36106734E+00  3.47785251E+00  3.67819630E+00  3.86960706E+00
  3.93061728E+00  4.18406092E+00  4.22169867E+00  4.22686788E+00  4.26852075E+00
  4.36976647E+00  4.50014804E+00  4.52841987E+00  4.55609510E+00  4.59900646E+00
  4.69389666E+00  4.81006721E+00  4.89776578E+00  4.91530359E+00  4.94124318E+00
  4.99871216E+00  5.00576379E+00  5.10754518E+00  5.13315180E+00  5.17965466E+00
  5.25031977E+00  5.25872528E+00  5.31811111E+00  5.34708317E+00  5.35629968E+00
  5.54713767E+00  5.64491102E+00  5.70610409E+00  5.88929852E+00  5.99750832E+00
  6.26473231E+00  6.29601973E+00  6.36116787E+00  6.37681934E+00  6.59822670E+00
  6.65935521E+00  6.65974444E+00  6.68993516E+00  6.72627668E+00  6.79667290E+00
  6.80542139E+00  6.85103980E+00  6.96798129E+00  7.02067553E+00  7.06633625E+00
  7.08017032E+00  7.13874583E+00  7.17395894E+00  7.17710433E+00  7.20352432E+00
  7.24526549E+00  7.24821997E+00  7.27141280E+00  7.34935256E+00  7.39426139E+00
  7.42834770E+00  7.44251634E+00  7.46317044E+00  7.55964928E+00  7.66352156E+00
  7.66773513E+00  7.79458783E+00  7.88339813E+00  7.95285683E+00  8.06511960E+00
  8.30679828E+00  8.50027889E+00  8.65225922E+00  1.36191276E+01  1.47623353E+01
  1.51055546E+01  1.57649374E+01
Alpha MO coefficients                      R   N=       42849
  6.44069224E-05 -2.26285880E-05 -1.11397416E-03  1.27987835E-05 -1.65924222E-05
  6.44202863E-05  4.21117780E-08 -2.42920231E-04 -1.79740320E-04 -4.34123071E-06
 -2.07893103E-04 -2.81816441E-04 -3.99694263E-06  4.23220505E-05  3.91170442E-07
 -7.07640401E-07  4.24365416E-06  2.77003630E-05  2.28628049E-04  3.82948475E-06
 -2.02942254E-06 -2.11882196E-04 -2.44318403E-05  3.07283973E-03 -9.55611140E-05
 -9.93454068E-05  3.54401587E-03  2.48207333E-03  5.11735698E-05 -1.03728338E-04
  6.10833992E-07 -4.18570427E-04  6.62225266E-04 -3.37489986E-06 -9.36431398E-04
  2.06660108E-03 -7.78652035E-06 -4.10702631E-04  3.50148530E-04  1.32296166E-06
  2.04743921E-05  2.93707580E-08  1.03909021E-06  3.94596017E-05  2.17051873E-05
 -4.43265560E-04  2.81064675E-06 -1.17690322E-05 -5.03788750E-04 -6.06805912E-04
 -3.64044099E-04  5.41776820E-06 -1.09188750E-05 -5.45546698E-04 -7.41102402E-04
  1.56567428E-06  2.86288570E-05 -8.61075180E-05  1.06491833E-06  8.86293147E-07
  1.11258316E-04 -8.93867192E-06  1.93239230E-06  1.37453575E-04 -1.63822214E-04
  1.64882833E-06  6.22062707E-06  3.39190819E-04  6.37036087E-05  9.76903830E-01
 -9.17364208E-03  4.34070936E-02  4.95483038E-04 -2.20962827E-03 -9.09460000E-04
 -1.99699134E-03  2.33051060E-05  1.07633157E-03  2.00553679E-03 -2.56364844E-05
 -2.15421119E-03  9.81856680E-04  1.58530810E-05 -1.22717227E-04  2.10943545E-04
 -2.93478508E-06  7.12961957E-06  8.89557691E-07  1.09334924E-06  3.46581236E-05
  1.59983487E-05  8.27081211E-04  7.93323304E-06  1.00956829E-05 -3.05345737E-04
  4.02097340E-04 -1.38770371E-04 -1.39642289E-05 -6.70889527E-06  1.73871407E-04
  6.31661910E-04  2.72141167E-06 -5.20990958E-05 -6.01332474E-05 -4.80602230E-07
  1.28754949E-07  4.84377516E-05 -7.02859313E-06 -8.28884832E-07  7.47607749E-05
 -5.40223194E-05 -3.38274682E-06  1.93940931E-06  4.68884201E-04  1.95128394E-04
  1.04429204E-04  4.57934333E-04 -3.23567112E-04 -8.29225107E-04  3.53026792E-04
 -9.48449109E-05 -5.44120458E-05  1.27306117E-06  1.22033681E-03  4.82142047E-04
 -1.15887753E-05 -1.00770448E-03 -7.69129919E-05 -3.77997683E-06  2.82683062E-04
  5.53124661E-05 -3.93407522E-06 -5.24917505E-05 -1.67591768E-06 -6.52393972E-07
  9.47030371E-05  9.56476417E-06 -4.15613268E-04 -2.41373760E-05 -4.65068205E-06
  1.04337717E-03  2.84253423E-04  2.70755889E-05 -1.82271952E-06  1.59208844E-06
 -6.77436499E-05  3.11177872E-04  3.16472993E-06 -1.30534297E-04 -4.49567799E-05
 -4.88997300E-06 -8.38333453E-07  1.31686624E-04  5.68947613E-05  5.99605173E-06
 -7.21865966E-05  1.11305894E-04 -1.25776247E-05  3.67356923E-06  4.87515198E-04
 -1.83238181E-04 -7.06607999E-04  4.57770113E-05 -7.03146150E-05  2.12128121E-04
 -1.78857457E-04 -4.78533084E-05 -1.62718834E-05  9.62164624E-07  2.86114068E-04
  1.04348666E-04 -5.50933874E-06  6.20563650E-04 -5.30626115E-05  9.25046714E-06
 -2.12868915E-04  7.87155088E-05  3.72787903E-06 -1.29521686E-05 -1.00635335E-06
  2.82312232E-07  1.55317699E-05  1.37300086E-06 -2.20865456E-06  5.34945056E-06
 -2.35911732E-06 -3.92684657E-05  1.59633944E-04 -2.20579817E-05  1.56035824E-05
 -2.50820933E-07 -9.06129801E-05  1.49981794E-04  9.78771290E-07 -1.01405314E-05
 -3.80541353E-06 -9.46737265E-07 -2.93959161E-07  1.59138692E-05  1.72714790E-05
 -4.71355064E-06  6.84675153E-05  2.52197975E-05  4.79580938E-06  4.61882226E-06
 -1.49045415E-04 -1.15040311E-04  4.00034601E-05  6.30102731E-05 -1.15802532E-04
 -2.98824019E-05  2.17537361E-05 -2.16446640E-06  2.48053498E-07  2.28000638E-04
 -9.33360075E-05  1.09932527E-06  1.14529035E-04 -5.53346456E-05  3.51126180E-06
  1.32616580E-05 -6.35224466E-07  7.11800107E-07  1.20649860E-05  1.65745075E-05
  2.17657555E-05  3.24863104E-06  3.27078379E-07  3.21125867E-05  1.10526392E-04
 -2.59169817E-04  2.61740932E-05 -1.51912136E-05 -5.52054959E-04  1.59228001E-04
  1.40301595E-05  6.63146571E-06  2.16436895E-07 -2.53057476E-05 -3.36171129E-05
 -1.00771108E-06  2.26243744E-04 -3.22350445E-06 -1.81980849E-06 -7.97494758E-06
  6.67383827E-05 -3.44094480E-06 -1.44959823E-06  4.87635045E-08 -3.01346097E-07
 -1.36432399E-05  4.47715447E-06  2.12918160E-05  2.18408023E-07  2.23591111E-06
  1.18747813E-04 -1.50998737E-05  6.17592853E-05 -5.05053431E-07  5.63739783E-06
 -8.31302393E-05  4.54625388E-06  2.73960722E-07  1.23183594E-05  3.67376281E-06
 -4.50635888E-07 -2.82724082E-08 -2.32381953E-05  9.03587780E-06 -5.13880908E-07
 -3.26029868E-05 -2.07215880E-05  1.18832037E-06 -1.53446399E-06 -1.76494217E-05
  8.81060590E-06  7.34607586E-04  2.26746606E-05 -1.89514387E-05  2.99214342E-04
 -3.92424530E-04  2.94321276E-05  1.21732658E-05 -2.16676548E-07 -1.43989442E-04
 -8.45648709E-05  5.68932126E-07  2.50425973E-06 -2.55813923E-04  7.55305002E-06
 -4.22490643E-05  2.07488349E-04  3.38628197E-06 -4.05222120E-06  3.60729727E-07
  2.68684575E-07 -1.82372861E-05  2.52371597E-05 -5.14833879E-05 -2.96884727E-06
 -1.34519294E-06  1.40291484E-04 -3.98678804E-05 -6.49410220E-05 -8.77117484E-06
 -2.00076750E-06  3.85112387E-05 -3.15567899E-05  2.93602567E-07  4.38196104E-06
  9.02749003E-07  3.39590929E-07 -3.69008485E-07  3.65900985E-07  8.19086840E-06
 -3.20045417E-06 -1.18106030E-05 -2.24271913E-05  2.34338056E-06  2.97038693E-06
 -1.77449511E-04 -4.05898578E-05  2.37095430E-04  1.35768501E-03 -1.47092057E-04
 -6.94776541E-04  9.04442474E-04  8.85266398E-06 -9.46563159E-05 -1.19442539E-06
 -7.73235668E-04 -2.01709696E-03 -2.41839859E-05  3.84667063E-04  3.36241331E-04
 -1.26818227E-05 -3.22178911E-05 -3.57364766E-04 -4.40267602E-06 -1.27752499E-04
  2.39338215E-06  5.19466606E-06 -2.12078546E-04  1.47433094E-04 -4.59936508E-04
  5.10109141E-06  2.59627178E-05 -1.05828617E-03  3.00241501E-04 -4.19175261E-05
 -6.40483467E-06  1.36367026E-06  1.29706332E-04 -2.16778118E-05  5.87224969E-08
  2.86016725E-05  2.47127211E-05  1.64083196E-06  2.52061896E-07  4.00316713E-06
  2.44822449E-05  9.41659770E-06 -1.53698587E-05  2.07329666E-04  8.94419051E-06
 -3.35532899E-06  7.02192840E-05  3.09185911E-04  9.76645997E-01 -9.88631666E-03
  4.35754277E-02  3.68963413E-03 -8.94532978E-04  9.01612375E-04  1.98270052E-03
  2.75466487E-05 -1.07121399E-03 -2.32264764E-03 -3.06573427E-05  4.26628727E-04
  7.00543254E-04  2.19251589E-05  4.61929310E-05 -1.14040873E-04 -1.87514708E-06
 -1.93845052E-04 -2.40121827E-06  5.17805127E-06 -6.37073441E-05  5.80269058E-05
  4.08803036E-04 -1.07894015E-05 -1.72384600E-05  7.17970084E-04 -6.75583052E-04
 -2.05865043E-04  7.61954102E-06  8.72435443E-06 -7.67492340E-05  1.23367724E-04
  2.31990318E-06  3.78013758E-05  5.94704999E-05  1.34807470E-06 -6.11923473E-07
  1.93980462E-05  2.39680324E-05  1.84350060E-06 -1.75804130E-05  1.26548670E-04
  5.63362152E-06 -4.58263074E-06  2.48099719E-04  9.04281781E-05  3.75031172E-04
  1.99541939E-03  1.37581473E-03 -1.84748624E-05  2.00078694E-04  1.86246009E-04
 -3.65928281E-06  9.15295528E-04  6.02361530E-04 -1.92844789E-05  3.96344406E-05
  2.66110141E-04 -1.05701061E-05 -2.36828929E-05  7.96003213E-07 -1.07322484E-06
 -1.78514685E-05 -3.97877606E-05 -2.16564044E-04 -8.56877423E-06 -5.19870044E-06
  2.83210519E-04  4.52988520E-04  9.76834436E-01 -9.18703022E-03  4.34654078E-02
  1.34819947E-04 -1.91063175E-03 -2.14183820E-03  5.37255033E-04  1.35548346E-05
  2.13477906E-03 -6.11175496E-04 -1.21716284E-05  5.83659620E-05  7.59778036E-04
 -1.24440203E-05  4.21616823E-06 -3.73592357E-04  6.97081881E-06  3.07292098E-05
 -8.31664700E-07  1.35979116E-06  3.80845345E-05  8.99892882E-05  7.65791996E-04
  5.16948503E-06  1.70226021E-05  2.74123744E-04  3.04826420E-04 -2.37924514E-04
  8.70331248E-07 -2.56107870E-06  1.02446760E-04 -3.19332599E-04 -2.51536513E-07
 -6.40200690E-05  4.90339429E-05 -9.93665557E-07 -1.11430124E-06 -4.63434018E-05