 Entering Gaussian System, Link 0=g16
 Input=hoono_a1_96p15612.gjf
 Output=hoono_a1_96p15612.log
 Initial command:
 /sw/contrib/gaussian/g16/B01/g16/l1.exe "/scr/Gau-25258.inp" -scrdir="/scr/"
 Entering Link 1 = /sw/contrib/gaussian/g16/B01/g16/l1.exe PID=     25259.
  
 Copyright (c) 1988-2017, Gaussian, Inc.  All Rights Reserved.
  
 This is part of the Gaussian(R) 16 program.  It is based on
 the Gaussian(R) 09 system (copyright 2009, Gaussian, Inc.),
 the Gaussian(R) 03 system (copyright 2003, Gaussian, Inc.),
 the Gaussian(R) 98 system (copyright 1998, Gaussian, Inc.),
 the Gaussian(R) 94 system (copyright 1995, Gaussian, Inc.),
 the Gaussian 92(TM) system (copyright 1992, Gaussian, Inc.),
 the Gaussian 90(TM) system (copyright 1990, Gaussian, Inc.),
 the Gaussian 88(TM) system (copyright 1988, Gaussian, Inc.),
 the Gaussian 86(TM) system (copyright 1986, Carnegie Mellon
 University), and the Gaussian 82(TM) system (copyright 1983,
 Carnegie Mellon University). Gaussian is a federally registered
 trademark of Gaussian, Inc.
  
 This software contains proprietary and confidential information,
 including trade secrets, belonging to Gaussian, Inc.
  
 This software is provided under written license and may be
 used, copied, transmitted, or stored only in accord with that
 written license.
  
 The following legend is applicable only to US Government
 contracts under FAR:
  
                    RESTRICTED RIGHTS LEGEND
  
 Use, reproduction and disclosure by the US Government is
 subject to restrictions as set forth in subparagraphs (a)
 and (c) of the Commercial Computer Software - Restricted
 Rights clause in FAR 52.227-19.
  
 Gaussian, Inc.
 340 Quinnipiac St., Bldg. 40, Wallingford CT 06492
  
  
 ---------------------------------------------------------------
 Warning -- This program may not be used in any manner that
 competes with the business of Gaussian, Inc. or will provide
 assistance to any competitor of Gaussian, Inc.  The licensee
 of this program is prohibited from giving any competitor of
 Gaussian, Inc. access to this program.  By using this program,
 the user acknowledges that Gaussian, Inc. is engaged in the
 business of creating and licensing software in the field of
 computational chemistry and represents and warrants to the
 licensee that it is not a competitor of Gaussian, Inc. and that
 it will not use this program in any manner prohibited above.
 ---------------------------------------------------------------
  

 Cite this work as:
 Gaussian 16, Revision B.01,
 M. J. Frisch, G. W. Trucks, H. B. Schlegel, G. E. Scuseria, 
 M. A. Robb, J. R. Cheeseman, G. Scalmani, V. Barone, 
 G. A. Petersson, H. Nakatsuji, X. Li, M. Caricato, A. V. Marenich, 
 J. Bloino, B. G. Janesko, R. Gomperts, B. Mennucci, H. P. Hratchian, 
 J. V. Ortiz, A. F. Izmaylov, J. L. Sonnenberg, D. Williams-Young, 
 F. Ding, F. Lipparini, F. Egidi, J. Goings, B. Peng, A. Petrone, 
 T. Henderson, D. Ranasinghe, V. G. Zakrzewski, J. Gao, N. Rega, 
 G. Zheng, W. Liang, M. Hada, M. Ehara, K. Toyota, R. Fukuda, 
 J. Hasegawa, M. Ishida, T. Nakajima, Y. Honda, O. Kitao, H. Nakai, 
 T. Vreven, K. Throssell, J. A. Montgomery, Jr., J. E. Peralta, 
 F. Ogliaro, M. J. Bearpark, J. J. Heyd, E. N. Brothers, K. N. Kudin, 
 V. N. Staroverov, T. A. Keith, R. Kobayashi, J. Normand, 
 K. Raghavachari, A. P. Rendell, J. C. Burant, S. S. Iyengar, 
 J. Tomasi, M. Cossi, J. M. Millam, M. Klene, C. Adamo, R. Cammi, 
 J. W. Ochterski, R. L. Martin, K. Morokuma, O. Farkas, 
 J. B. Foresman, and D. J. Fox, Gaussian, Inc., Wallingford CT, 2016.
 
 ******************************************
 Gaussian 16:  ES64L-G16RevB.01 20-Dec-2017
                21-Feb-2022 
 ******************************************
 %nproc=28
 Will use up to   28 processors via shared memory.
 %mem=120GB
 %chk=hoono_a1_96p15612.chk
 ---------------------------------------
 #p freq mp2/aug-cc-pvtz density=current
 ---------------------------------------
 1/10=4,30=1,38=1/1,3;
 2/12=2,17=6,18=5,40=1/2;
 3/5=16,6=1,7=10,11=9,25=1,30=1,71=2,140=1/1,2,3;
 4//1;
 5/5=2,38=5,98=1/2;
 8/6=3,8=1,10=1,19=11,30=-1/1;
 9/15=3,16=-3/6;
 11/6=1,8=1,15=11,17=12,24=-1,27=1,28=-2,29=300,32=6,42=3/1,2,10;
 10/6=2,21=1/2;
 8/6=4,8=1,10=1,19=11,30=-1/11,4;
 10/5=1,20=4/2;
 11/12=2,14=11,16=1,17=2,28=-2,42=3,76=2/2,10,12;
 6/7=2,8=2,9=2,10=2,22=-1/1;
 7/8=1,10=1,12=2,25=1,44=2/1,2,3,16;
 1/10=4,30=1/3;
 99//99;
 Leave Link    1 at Mon Feb 21 20:36:59 2022, MaxMem= 16106127360 cpu:               2.7 elap:               0.1
 (Enter /sw/contrib/gaussian/g16/B01/g16/l101.exe)
 -----
 title
 -----
 Symbolic Z-matrix:
 Charge =  0 Multiplicity = 1
 H
 O                    1    r1
 O                    2    r2       1    a1
 N                    3    r3       2    a2       1    d1       0
 O                    4    r4       3    a3       2    d2       0
       Variables:
  r1                    0.96898                  
  r2                    1.45492                  
  r3                    1.45878                  
  r4                    1.17073                  
  a1                   96.15612                  
  a2                  102.29752                  
  a3                  109.06955                  
  d1                  180.                       
  d2                  180.                       
 
 ITRead=  0  0  0  0  0
 MicOpt= -1 -1 -1 -1 -1
 NAtoms=      5 NQM=        5 NQMF=       0 NMMI=      0 NMMIF=      0
                NMic=       0 NMicF=      0.
                    Isotopes and Nuclear Properties:
 (Nuclear quadrupole moments (NQMom) in fm**2, nuclear magnetic moments (NMagM)
  in nuclear magnetons)

  Atom         1           2           3           4           5
 IAtWgt=           1          16          16          14          16
 AtmWgt=   1.0078250  15.9949146  15.9949146  14.0030740  15.9949146
 NucSpn=           1           0           0           2           0
 AtZEff=  -0.0000000  -0.0000000  -0.0000000  -0.0000000  -0.0000000
 NQMom=    0.0000000   0.0000000   0.0000000   2.0440000   0.0000000
 NMagM=    2.7928460   0.0000000   0.0000000   0.4037610   0.0000000
 AtZNuc=   1.0000000   8.0000000   8.0000000   7.0000000   8.0000000
 Leave Link  101 at Mon Feb 21 20:36:59 2022, MaxMem= 16106127360 cpu:               2.8 elap:               0.1
 (Enter /sw/contrib/gaussian/g16/B01/g16/l103.exe)

 GradGradGradGradGradGradGradGradGradGradGradGradGradGradGradGradGradGrad
 Berny optimization.
 Initialization pass.
                       ----------------------------
                       !    Initial Parameters    !
                       ! (Angstroms and Degrees)  !
 ----------------------                            ----------------------
 !      Name          Value   Derivative information (Atomic Units)     !
 ------------------------------------------------------------------------
 !       r1          0.969    calculate D2E/DX2 analytically            !
 !       r2          1.4549   calculate D2E/DX2 analytically            !
 !       r3          1.4588   calculate D2E/DX2 analytically            !
 !       r4          1.1707   calculate D2E/DX2 analytically            !
 !       a1         96.1561   calculate D2E/DX2 analytically            !
 !       a2        102.2975   calculate D2E/DX2 analytically            !
 !       a3        109.0696   calculate D2E/DX2 analytically            !
 !       d1        180.0      calculate D2E/DX2 analytically            !
 !       d2        180.0      calculate D2E/DX2 analytically            !
 ------------------------------------------------------------------------
 Trust Radius=3.00D-01 FncErr=1.00D-07 GrdErr=1.00D-07 EigMax=2.50D+02 EigMin=1.00D-04
 Number of steps in this run=      2 maximum allowed number of steps=      2.
 GradGradGradGradGradGradGradGradGradGradGradGradGradGradGradGradGradGrad

 Leave Link  103 at Mon Feb 21 20:36:59 2022, MaxMem= 16106127360 cpu:               0.8 elap:               0.1
 (Enter /sw/contrib/gaussian/g16/B01/g16/l202.exe)
                          Input orientation:                          
 ---------------------------------------------------------------------
 Center     Atomic      Atomic             Coordinates (Angstroms)
 Number     Number       Type             X           Y           Z
 ---------------------------------------------------------------------
      1          1           0        0.000000    0.000000    0.000000
      2          8           0        0.000000    0.000000    0.968976
      3          8           0        1.446529    0.000000    1.124998
      4          7           0        1.602594    0.000000    2.575410
      5          8           0        2.743646    0.000000    2.837336
 ---------------------------------------------------------------------
                    Distance matrix (angstroms):
                    1          2          3          4          5
     1  H    0.000000
     2  O    0.968976   0.000000
     3  O    1.832503   1.454919   0.000000
     4  N    3.033322   2.269127   1.458784   0.000000
     5  O    3.946907   3.319392   2.148165   1.170729   0.000000
 Stoichiometry    HNO3
 Framework group  CS[SG(HNO3)]
 Deg. of freedom     7
 Full point group                 CS      NOp   2
 Largest Abelian subgroup         CS      NOp   2
 Largest concise Abelian subgroup C1      NOp   1
                         Standard orientation:                         
 ---------------------------------------------------------------------
 Center     Atomic      Atomic             Coordinates (Angstroms)
 Number     Number       Type             X           Y           Z
 ---------------------------------------------------------------------
      1          1           0        1.523723    1.690950    0.000000
      2          8           0        1.454006    0.724485    0.000000
      3          8           0       -0.000000    0.672944    0.000000
      4          7           0       -0.260016   -0.762480   -0.000000
      5          8           0       -1.416957   -0.941629   -0.000000
 ---------------------------------------------------------------------
 Rotational constants (GHZ):          54.8644682           5.0153210           4.5952553
 Leave Link  202 at Mon Feb 21 20:36:59 2022, MaxMem= 16106127360 cpu:               3.7 elap:               0.2
 (Enter /sw/contrib/gaussian/g16/B01/g16/l301.exe)
 Standard basis: Aug-CC-pVTZ (5D, 7F)
 Ernie: Thresh=  0.10000D-02 Tol=  0.10000D-05 Strict=F.
 Ernie:  12 primitive shells out of 131 were deleted.
 There are   166 symmetry adapted cartesian basis functions of A'  symmetry.
 There are    79 symmetry adapted cartesian basis functions of A"  symmetry.
 There are   136 symmetry adapted basis functions of A'  symmetry.
 There are    71 symmetry adapted basis functions of A"  symmetry.
   207 basis functions,   315 primitive gaussians,   245 cartesian basis functions
    16 alpha electrons       16 beta electrons
       nuclear repulsion energy       116.9054242137 Hartrees.
 IExCor=    0 DFT=F Ex=HF Corr=None ExCW=0 ScaHFX=  1.000000
 ScaDFX=  1.000000  1.000000  1.000000  1.000000 ScalE2=  1.000000  1.000000
 IRadAn=      5 IRanWt=     -1 IRanGd=            0 ICorTp=0 IEmpDi=  4
 NAtoms=    5 NActive=    5 NUniq=    5 SFac= 1.00D+00 NAtFMM=   60 NAOKFM=F Big=F
 Integral buffers will be    131072 words long.
 Raffenetti 1 integral format.
 Two-electron integral symmetry is turned on.
 Leave Link  301 at Mon Feb 21 20:36:59 2022, MaxMem= 16106127360 cpu:               1.7 elap:               0.1
 (Enter /sw/contrib/gaussian/g16/B01/g16/l302.exe)
 NPDir=0 NMtPBC=     1 NCelOv=     1 NCel=       1 NClECP=     1 NCelD=      1
         NCelK=      1 NCelE2=     1 NClLst=     1 CellRange=     0.0.
 One-electron integrals computed using PRISM.
 One-electron integral symmetry used in STVInt
 NBasis=   207 RedAO= T EigKep=  1.81D-04  NBF=   136    71
 NBsUse=   207 1.00D-06 EigRej= -1.00D+00 NBFU=   136    71
 Leave Link  302 at Mon Feb 21 20:37:00 2022, MaxMem= 16106127360 cpu:               4.4 elap:               0.2
 (Enter /sw/contrib/gaussian/g16/B01/g16/l303.exe)
 DipDrv:  MaxL=1.
 Leave Link  303 at Mon Feb 21 20:37:00 2022, MaxMem= 16106127360 cpu:               0.7 elap:               0.1
 (Enter /sw/contrib/gaussian/g16/B01/g16/l401.exe)
 ExpMin= 2.53D-02 ExpMax= 1.53D+04 ExpMxC= 5.22D+02 IAcc=3 IRadAn=         5 AccDes= 0.00D+00
 Harris functional with IExCor=  205 and IRadAn=       5 diagonalized for initial guess.
 HarFok:  IExCor=  205 AccDes= 0.00D+00 IRadAn=         5 IDoV= 1 UseB2=F ITyADJ=14
 ICtDFT=  3500011 ScaDFX=  1.000000  1.000000  1.000000  1.000000
 FoFCou: FMM=F IPFlag=           0 FMFlag=      100000 FMFlg1=           0
         NFxFlg=           0 DoJE=T BraDBF=F KetDBF=T FulRan=T
         wScrn=  0.000000 ICntrl=       500 IOpCl=  0 I1Cent=   200000004 NGrid=           0
         NMat0=    1 NMatS0=      1 NMatT0=    0 NMatD0=    1 NMtDS0=    0 NMtDT0=    0
 Petite list used in FoFCou.
 Harris En= -279.628332754910    
 JPrj=0 DoOrth=F DoCkMO=F.
 Initial guess orbital symmetries:
       Occupied  (A') (A') (A') (A') (A') (A') (A') (A') (A') (A')
                 (A") (A') (A') (A") (A") (A')
       Virtual   (A") (A') (A') (A') (A') (A') (A") (A') (A') (A')
                 (A") (A') (A") (A') (A') (A") (A') (A") (A') (A')
                 (A') (A') (A') (A') (A') (A") (A') (A") (A') (A')
                 (A") (A') (A") (A') (A') (A") (A') (A") (A') (A')
                 (A") (A') (A") (A') (A") (A') (A') (A') (A") (A")
                 (A') (A') (A') (A') (A") (A') (A") (A') (A") (A')
                 (A') (A') (A") (A') (A') (A") (A') (A") (A') (A')
                 (A") (A') (A') (A") (A") (A') (A') (A") (A') (A')
                 (A') (A") (A') (A") (A') (A") (A') (A") (A') (A')
                 (A') (A") (A') (A") (A') (A") (A") (A') (A') (A")
                 (A') (A') (A") (A') (A') (A') (A") (A') (A") (A')
                 (A") (A') (A') (A') (A") (A') (A') (A') (A") (A')
                 (A") (A') (A') (A") (A") (A') (A') (A") (A") (A')
                 (A') (A') (A') (A") (A") (A') (A") (A') (A') (A')
                 (A') (A") (A") (A') (A') (A") (A') (A') (A') (A')
                 (A") (A') (A') (A") (A') (A") (A') (A") (A") (A')
                 (A') (A") (A') (A") (A') (A") (A") (A") (A') (A')
                 (A") (A') (A") (A') (A") (A') (A") (A") (A') (A')
                 (A') (A') (A') (A') (A') (A') (A') (A') (A') (A')
                 (A')
 The electronic state of the initial guess is 1-A'.
 Leave Link  401 at Mon Feb 21 20:37:00 2022, MaxMem= 16106127360 cpu:               6.8 elap:               0.3
 (Enter /sw/contrib/gaussian/g16/B01/g16/l502.exe)
 Keep R1 ints in memory in symmetry-blocked form, NReq=348887737.
 FoFCou: FMM=F IPFlag=           0 FMFlag=           0 FMFlg1=           0
         NFxFlg=           0 DoJE=F BraDBF=F KetDBF=F FulRan=T
         wScrn=  0.000000 ICntrl=       600 IOpCl=  0 I1Cent=           0 NGrid=           0
         NMat0=    1 NMatS0=  21528 NMatT0=    0 NMatD0=    1 NMtDS0=    0 NMtDT0=    0
 Petite list used in FoFCou.
 Closed shell SCF:
 Using DIIS extrapolation, IDIIS=  1040.
 NGot= 16106127360 LenX= 15988850015 LenY= 15988789549
 Requested convergence on RMS density matrix=1.00D-08 within 128 cycles.
 Requested convergence on MAX density matrix=1.00D-06.
 Requested convergence on             energy=1.00D-06.
 No special actions if energy rises.

 Cycle   1  Pass 1  IDiag  1:
 E= -279.370207680751    
 DIIS: error= 2.78D-02 at cycle   1 NSaved=   1.
 NSaved= 1 IEnMin= 1 EnMin= -279.370207680751     IErMin= 1 ErrMin= 2.78D-02
 ErrMax= 2.78D-02  0.00D+00 EMaxC= 1.00D-01 BMatC= 4.38D-01 BMatP= 4.38D-01
 IDIUse=3 WtCom= 7.22D-01 WtEn= 2.78D-01
 Coeff-Com:  0.100D+01
 Coeff-En:   0.100D+01
 Coeff:      0.100D+01
 Gap=     0.513 Goal=   None    Shift=    0.000
 GapD=    0.513 DampG=2.000 DampE=0.500 DampFc=1.0000 IDamp=-1.
 RMSDP=1.62D-03 MaxDP=9.94D-02              OVMax= 1.13D-01

 Cycle   2  Pass 1  IDiag  1:
 E= -279.452076683751     Delta-E=       -0.081869003000 Rises=F Damp=F
 DIIS: error= 1.79D-02 at cycle   2 NSaved=   2.
 NSaved= 2 IEnMin= 2 EnMin= -279.452076683751     IErMin= 2 ErrMin= 1.79D-02
 ErrMax= 1.79D-02  0.00D+00 EMaxC= 1.00D-01 BMatC= 7.19D-02 BMatP= 4.38D-01
 IDIUse=3 WtCom= 8.21D-01 WtEn= 1.79D-01
 Coeff-Com:  0.195D+00 0.805D+00
 Coeff-En:   0.000D+00 0.100D+01
 Coeff:      0.160D+00 0.840D+00
 Gap=     0.530 Goal=   None    Shift=    0.000
 RMSDP=9.01D-04 MaxDP=3.74D-02 DE=-8.19D-02 OVMax= 6.93D-02

 Cycle   3  Pass 1  IDiag  1:
 E= -279.481214450176     Delta-E=       -0.029137766425 Rises=F Damp=F
 DIIS: error= 1.04D-02 at cycle   3 NSaved=   3.
 NSaved= 3 IEnMin= 3 EnMin= -279.481214450176     IErMin= 3 ErrMin= 1.04D-02
 ErrMax= 1.04D-02  0.00D+00 EMaxC= 1.00D-01 BMatC= 2.88D-02 BMatP= 7.19D-02
 IDIUse=3 WtCom= 8.96D-01 WtEn= 1.04D-01
 Coeff-Com: -0.330D-01 0.378D+00 0.655D+00
 Coeff-En:   0.000D+00 0.241D+00 0.759D+00
 Coeff:     -0.296D-01 0.364D+00 0.666D+00
 Gap=     0.510 Goal=   None    Shift=    0.000
 RMSDP=3.77D-04 MaxDP=1.54D-02 DE=-2.91D-02 OVMax= 3.82D-02

 Cycle   4  Pass 1  IDiag  1:
 E= -279.500337660622     Delta-E=       -0.019123210447 Rises=F Damp=F
 DIIS: error= 1.28D-03 at cycle   4 NSaved=   4.
 NSaved= 4 IEnMin= 4 EnMin= -279.500337660622     IErMin= 4 ErrMin= 1.28D-03
 ErrMax= 1.28D-03  0.00D+00 EMaxC= 1.00D-01 BMatC= 4.94D-04 BMatP= 2.88D-02
 IDIUse=3 WtCom= 9.87D-01 WtEn= 1.28D-02
 Coeff-Com: -0.117D-01 0.573D-01 0.158D+00 0.796D+00
 Coeff-En:   0.000D+00 0.000D+00 0.000D+00 0.100D+01
 Coeff:     -0.115D-01 0.566D-01 0.156D+00 0.799D+00
 Gap=     0.502 Goal=   None    Shift=    0.000
 RMSDP=9.05D-05 MaxDP=2.78D-03 DE=-1.91D-02 OVMax= 1.12D-02

 Cycle   5  Pass 1  IDiag  1:
 E= -279.501015309687     Delta-E=       -0.000677649064 Rises=F Damp=F
 DIIS: error= 7.25D-04 at cycle   5 NSaved=   5.
 NSaved= 5 IEnMin= 5 EnMin= -279.501015309687     IErMin= 5 ErrMin= 7.25D-04
 ErrMax= 7.25D-04  0.00D+00 EMaxC= 1.00D-01 BMatC= 8.74D-05 BMatP= 4.94D-04
 IDIUse=3 WtCom= 9.93D-01 WtEn= 7.25D-03
 Coeff-Com:  0.614D-02-0.725D-01-0.118D+00 0.209D-01 0.116D+01
 Coeff-En:   0.000D+00 0.000D+00 0.000D+00 0.000D+00 0.100D+01
 Coeff:      0.610D-02-0.719D-01-0.117D+00 0.207D-01 0.116D+01
 Gap=     0.502 Goal=   None    Shift=    0.000
 RMSDP=7.64D-05 MaxDP=2.10D-03 DE=-6.78D-04 OVMax= 1.11D-02

 Cycle   6  Pass 1  IDiag  1:
 E= -279.501331251046     Delta-E=       -0.000315941359 Rises=F Damp=F
 DIIS: error= 2.91D-04 at cycle   6 NSaved=   6.
 NSaved= 6 IEnMin= 6 EnMin= -279.501331251046     IErMin= 6 ErrMin= 2.91D-04
 ErrMax= 2.91D-04  0.00D+00 EMaxC= 1.00D-01 BMatC= 1.68D-05 BMatP= 8.74D-05
 IDIUse=3 WtCom= 9.97D-01 WtEn= 2.91D-03
 Coeff-Com:  0.633D-03 0.112D-02 0.368D-02-0.129D+00-0.224D+00 0.135D+01
 Coeff-En:   0.000D+00 0.000D+00 0.000D+00 0.000D+00 0.000D+00 0.100D+01
 Coeff:      0.632D-03 0.112D-02 0.367D-02-0.129D+00-0.223D+00 0.135D+01
 Gap=     0.502 Goal=   None    Shift=    0.000
 RMSDP=4.53D-05 MaxDP=1.25D-03 DE=-3.16D-04 OVMax= 5.54D-03

 Cycle   7  Pass 1  IDiag  1:
 E= -279.501404044281     Delta-E=       -0.000072793235 Rises=F Damp=F
 DIIS: error= 1.26D-04 at cycle   7 NSaved=   7.
 NSaved= 7 IEnMin= 7 EnMin= -279.501404044281     IErMin= 7 ErrMin= 1.26D-04
 ErrMax= 1.26D-04  0.00D+00 EMaxC= 1.00D-01 BMatC= 4.68D-06 BMatP= 1.68D-05
 IDIUse=3 WtCom= 9.99D-01 WtEn= 1.26D-03
 Coeff-Com: -0.942D-03 0.137D-01 0.266D-01-0.257D-01-0.291D+00 0.406D+00
 Coeff-Com:  0.872D+00
 Coeff-En:   0.000D+00 0.000D+00 0.000D+00 0.000D+00 0.000D+00 0.000D+00
 Coeff-En:   0.100D+01
 Coeff:     -0.941D-03 0.136D-01 0.266D-01-0.257D-01-0.291D+00 0.405D+00
 Coeff:      0.872D+00
 Gap=     0.502 Goal=   None    Shift=    0.000
 RMSDP=1.34D-05 MaxDP=3.79D-04 DE=-7.28D-05 OVMax= 1.56D-03

 Cycle   8  Pass 1  IDiag  1:
 E= -279.501413129499     Delta-E=       -0.000009085217 Rises=F Damp=F
 DIIS: error= 5.69D-05 at cycle   8 NSaved=   8.
 NSaved= 8 IEnMin= 8 EnMin= -279.501413129499     IErMin= 8 ErrMin= 5.69D-05
 ErrMax= 5.69D-05  0.00D+00 EMaxC= 1.00D-01 BMatC= 6.07D-07 BMatP= 4.68D-06
 IDIUse=1 WtCom= 1.00D+00 WtEn= 0.00D+00
 Coeff-Com: -0.450D-03 0.346D-02 0.762D-02 0.275D-01-0.412D-01-0.196D+00
 Coeff-Com:  0.156D+00 0.104D+01
 Coeff:     -0.450D-03 0.346D-02 0.762D-02 0.275D-01-0.412D-01-0.196D+00
 Coeff:      0.156D+00 0.104D+01
 Gap=     0.502 Goal=   None    Shift=    0.000
 RMSDP=7.00D-06 MaxDP=2.05D-04 DE=-9.09D-06 OVMax= 7.55D-04

 Cycle   9  Pass 1  IDiag  1:
 E= -279.501414939406     Delta-E=       -0.000001809907 Rises=F Damp=F
 DIIS: error= 1.55D-05 at cycle   9 NSaved=   9.
 NSaved= 9 IEnMin= 9 EnMin= -279.501414939406     IErMin= 9 ErrMin= 1.55D-05
 ErrMax= 1.55D-05  0.00D+00 EMaxC= 1.00D-01 BMatC= 6.88D-08 BMatP= 6.07D-07
 IDIUse=1 WtCom= 1.00D+00 WtEn= 0.00D+00
 Coeff-Com:  0.123D-03-0.172D-02-0.307D-02-0.204D-02 0.342D-01-0.287D-03
 Coeff-Com: -0.162D+00-0.110D+00 0.124D+01
 Coeff:      0.123D-03-0.172D-02-0.307D-02-0.204D-02 0.342D-01-0.287D-03
 Coeff:     -0.162D+00-0.110D+00 0.124D+01
 Gap=     0.502 Goal=   None    Shift=    0.000
 RMSDP=1.94D-06 MaxDP=6.63D-05 DE=-1.81D-06 OVMax= 1.76D-04

 Cycle  10  Pass 1  IDiag  1:
 E= -279.501415099584     Delta-E=       -0.000000160179 Rises=F Damp=F
 DIIS: error= 4.31D-06 at cycle  10 NSaved=  10.
 NSaved=10 IEnMin=10 EnMin= -279.501415099584     IErMin=10 ErrMin= 4.31D-06
 ErrMax= 4.31D-06  0.00D+00 EMaxC= 1.00D-01 BMatC= 5.57D-09 BMatP= 6.88D-08
 IDIUse=1 WtCom= 1.00D+00 WtEn= 0.00D+00
 Coeff-Com:  0.309D-04-0.242D-03-0.321D-03-0.270D-02 0.161D-02 0.195D-01
 Coeff-Com: -0.119D-01-0.751D-01-0.807D-01 0.115D+01
 Coeff:      0.309D-04-0.242D-03-0.321D-03-0.270D-02 0.161D-02 0.195D-01
 Coeff:     -0.119D-01-0.751D-01-0.807D-01 0.115D+01
 Gap=     0.502 Goal=   None    Shift=    0.000
 RMSDP=5.05D-07 MaxDP=2.11D-05 DE=-1.60D-07 OVMax= 4.19D-05

 Cycle  11  Pass 1  IDiag  1:
 E= -279.501415112143     Delta-E=       -0.000000012558 Rises=F Damp=F
 DIIS: error= 2.04D-06 at cycle  11 NSaved=  11.
 NSaved=11 IEnMin=11 EnMin= -279.501415112143     IErMin=11 ErrMin= 2.04D-06
 ErrMax= 2.04D-06  0.00D+00 EMaxC= 1.00D-01 BMatC= 6.62D-10 BMatP= 5.57D-09
 IDIUse=1 WtCom= 1.00D+00 WtEn= 0.00D+00
 Coeff-Com: -0.213D-04 0.245D-03 0.488D-03 0.528D-03-0.430D-02-0.346D-02
 Coeff-Com:  0.202D-01 0.320D-01-0.139D+00-0.179D+00 0.127D+01
 Coeff:     -0.213D-04 0.245D-03 0.488D-03 0.528D-03-0.430D-02-0.346D-02
 Coeff:      0.202D-01 0.320D-01-0.139D+00-0.179D+00 0.127D+01
 Gap=     0.502 Goal=   None    Shift=    0.000
 RMSDP=1.78D-07 MaxDP=6.54D-06 DE=-1.26D-08 OVMax= 1.74D-05

 Cycle  12  Pass 1  IDiag  1:
 E= -279.501415113955     Delta-E=       -0.000000001812 Rises=F Damp=F
 DIIS: error= 5.90D-07 at cycle  12 NSaved=  12.
 NSaved=12 IEnMin=12 EnMin= -279.501415113955     IErMin=12 ErrMin= 5.90D-07
 ErrMax= 5.90D-07  0.00D+00 EMaxC= 1.00D-01 BMatC= 7.17D-11 BMatP= 6.62D-10
 IDIUse=1 WtCom= 1.00D+00 WtEn= 0.00D+00
 Coeff-Com:  0.124D-05-0.292D-04-0.630D-04 0.184D-03 0.108D-02-0.230D-02
 Coeff-Com: -0.409D-02 0.538D-02 0.417D-01-0.114D+00-0.279D+00 0.135D+01
 Coeff:      0.124D-05-0.292D-04-0.630D-04 0.184D-03 0.108D-02-0.230D-02
 Coeff:     -0.409D-02 0.538D-02 0.417D-01-0.114D+00-0.279D+00 0.135D+01
 Gap=     0.502 Goal=   None    Shift=    0.000
 RMSDP=7.17D-08 MaxDP=2.83D-06 DE=-1.81D-09 OVMax= 6.69D-06

 Cycle  13  Pass 1  IDiag  1:
 E= -279.501415114184     Delta-E=       -0.000000000229 Rises=F Damp=F
 DIIS: error= 1.67D-07 at cycle  13 NSaved=  13.
 NSaved=13 IEnMin=13 EnMin= -279.501415114184     IErMin=13 ErrMin= 1.67D-07
 ErrMax= 1.67D-07  0.00D+00 EMaxC= 1.00D-01 BMatC= 4.01D-12 BMatP= 7.17D-11
 IDIUse=1 WtCom= 1.00D+00 WtEn= 0.00D+00
 Coeff-Com:  0.128D-05-0.140D-04-0.224D-04-0.887D-04 0.122D-03 0.750D-03
 Coeff-Com: -0.777D-03-0.330D-02 0.530D-03 0.411D-01-0.355D-01-0.326D+00
 Coeff-Com:  0.132D+01
 Coeff:      0.128D-05-0.140D-04-0.224D-04-0.887D-04 0.122D-03 0.750D-03
 Coeff:     -0.777D-03-0.330D-02 0.530D-03 0.411D-01-0.355D-01-0.326D+00
 Coeff:      0.132D+01
 Gap=     0.502 Goal=   None    Shift=    0.000
 RMSDP=1.91D-08 MaxDP=5.60D-07 DE=-2.29D-10 OVMax= 1.56D-06

 Cycle  14  Pass 1  IDiag  1:
 E= -279.501415114197     Delta-E=       -0.000000000014 Rises=F Damp=F
 DIIS: error= 2.43D-08 at cycle  14 NSaved=  14.
 NSaved=14 IEnMin=14 EnMin= -279.501415114197     IErMin=14 ErrMin= 2.43D-08
 ErrMax= 2.43D-08  0.00D+00 EMaxC= 1.00D-01 BMatC= 1.95D-13 BMatP= 4.01D-12
 IDIUse=1 WtCom= 1.00D+00 WtEn= 0.00D+00
 Coeff-Com: -0.188D-06 0.309D-05 0.553D-05 0.445D-05-0.820D-04 0.462D-04
 Coeff-Com:  0.271D-03 0.232D-03-0.243D-02 0.144D-02 0.169D-01-0.256D-01
 Coeff-Com: -0.199D+00 0.121D+01
 Coeff:     -0.188D-06 0.309D-05 0.553D-05 0.445D-05-0.820D-04 0.462D-04
 Coeff:      0.271D-03 0.232D-03-0.243D-02 0.144D-02 0.169D-01-0.256D-01
 Coeff:     -0.199D+00 0.121D+01
 Gap=     0.502 Goal=   None    Shift=    0.000
 RMSDP=3.78D-09 MaxDP=9.10D-08 DE=-1.35D-11 OVMax= 3.39D-07

 SCF Done:  E(RHF) =  -279.501415114     A.U. after   14 cycles
            NFock= 14  Conv=0.38D-08     -V/T= 2.0023
 KE= 2.788507078500D+02 PE=-8.951373608588D+02 EE= 2.198798136809D+02
 Leave Link  502 at Mon Feb 21 20:37:04 2022, MaxMem= 16106127360 cpu:              56.0 elap:               3.7
 (Enter /sw/contrib/gaussian/g16/B01/g16/l801.exe)
 ExpMin= 2.53D-02 ExpMax= 1.53D+04 ExpMxC= 5.22D+02 IAcc=3 IRadAn=         5 AccDes= 0.00D+00
 HarFok:  IExCor=  205 AccDes= 0.00D+00 IRadAn=         5 IDoV=-2 UseB2=F ITyADJ=14
 ICtDFT= 12500011 ScaDFX=  1.000000  1.000000  1.000000  1.000000
 Largest valence mixing into a core orbital is  2.08D-04
 Largest core mixing into a valence orbital is  3.63D-05
 Range of M.O.s used for correlation:     5   207
 NBasis=   207 NAE=    16 NBE=    16 NFC=     4 NFV=     0
 NROrb=    203 NOA=    12 NOB=    12 NVA=   191 NVB=   191

 **** Warning!!: The largest alpha MO coefficient is  0.17361104D+02

 Leave Link  801 at Mon Feb 21 20:37:04 2022, MaxMem= 16106127360 cpu:               2.1 elap:               0.1
 (Enter /sw/contrib/gaussian/g16/B01/g16/l906.exe)
 Frozen-core derivative calculation, NFC=   4 NFV=   0.
 FulOut=F Deriv=T AODrv=T NAtomX=     5
   MMem=           0  MDisk=          12 MDiskD=          12
  W3Min=      811440 MinDsk=     2425030 NBas6D=         245
 NBas2D=       30762    NTT=       30135    LW2=     7400000
    MDV= 16105574283 MDiskM=      328644 NBas2p=       30702
 Disk-based method using ON**2 memory for 12 occupieds at a time.
 Permanent disk used for amplitudes=    11516536 words.
 Estimated scratch disk usage=   321251614 words.
 IMap=   1   2   3   4   5   6   7   8   9  10  11  12  13  14  15  16
 Actual    scratch disk usage=   310331678 words.
 JobTyp=1 Pass  1:  I=   5 to  16 NPSUse= 28 ParTrn=T ParDer=T DoDerP=T.
 (rs|ai) integrals will be sorted in core.
 Spin components of T(2) and E(2):
     alpha-alpha T2 =       0.3403998983D-01 E2=     -0.1224430211D+00
     alpha-beta  T2 =       0.1869122354D+00 E2=     -0.7003679112D+00
     beta-beta   T2 =       0.3403998983D-01 E2=     -0.1224430211D+00
 The integrals were generated   1 times.
 ANorm=    0.1120264351D+01
 E2 =    -0.9452539535D+00 EUMP2 =    -0.28044666906773D+03
 Leave Link  906 at Mon Feb 21 20:38:41 2022, MaxMem= 16106127360 cpu:            2705.8 elap:              96.8
 (Enter /sw/contrib/gaussian/g16/B01/g16/l1101.exe)
 Using compressed Sx but separate Hx and Fx, NAtomX=     5.
 Will process      6 centers per pass.
 Leave Link 1101 at Mon Feb 21 20:38:41 2022, MaxMem= 16106127360 cpu:               6.4 elap:               0.3
 (Enter /sw/contrib/gaussian/g16/B01/g16/l1102.exe)
 Leave Link 1102 at Mon Feb 21 20:38:41 2022, MaxMem= 16106127360 cpu:               0.7 elap:               0.0
 (Enter /sw/contrib/gaussian/g16/B01/g16/l1110.exe)
 Forming Gx(P) for the SCF density, NAtomX=     5.
 Integral derivatives from FoFJK, PRISM(SPDF).
 Do as many integral derivatives as possible in FoFJK.
 G2DrvN: MDV=   16106126844.
 G2DrvN: will do     6 centers at a time, making    1 passes.
 Calling FoFCou, ICntrl=  3107 FMM=F I1Cent=   0 AccDes= 0.00D+00.
 FoFJK:  IHMeth= 1 ICntrl=    3107 DoSepK=F KAlg= 0 I1Cent=           0 FoldK=F
 IRaf=         0 NMat=       1 IRICut=       1 DoRegI=T DoRafI=F ISym2E= 1 IDoP0=0 IntGTp=1.
 FoFCou: FMM=F IPFlag=           0 FMFlag=      100000 FMFlg1=           0
         NFxFlg=           0 DoJE=F BraDBF=F KetDBF=F FulRan=T
         wScrn=  0.000000 ICntrl=      3107 IOpCl=  0 I1Cent=           0 NGrid=           0
         NMat0=    1 NMatS0=      1 NMatT0=    0 NMatD0=    1 NMtDS0=    0 NMtDT0=    0
 Petite list used in FoFCou.
 End of G2Drv F.D. properties file   721 does not exist.
 End of G2Drv F.D. properties file   722 does not exist.
 End of G2Drv F.D. properties file   788 does not exist.
 Leave Link 1110 at Mon Feb 21 20:38:44 2022, MaxMem= 16106127360 cpu:              84.2 elap:               3.1
 (Enter /sw/contrib/gaussian/g16/B01/g16/l1002.exe)
 Minotr:  Closed shell wavefunction.
          IDoAtm=11111
          Frozen-core window.
          Direct CPHF calculation.
          Differentiating once with respect to electric field.
                with respect to dipole field.
          Differentiating once with respect to nuclear coordinates.
          Requested convergence is 1.0D-08 RMS, and 1.0D-07 maximum.
          Secondary convergence is 1.0D-12 RMS, and 1.0D-12 maximum.
          NewPWx=T KeepS1=T KeepF1=T KeepIn=T MapXYZ=F SortEE=F KeepMc=T.
 Keep R1 ints in memory in symmetry-blocked form, NReq=348888983.
 FoFCou: FMM=F IPFlag=           0 FMFlag=           0 FMFlg1=           0
         NFxFlg=           0 DoJE=F BraDBF=F KetDBF=F FulRan=T
         wScrn=  0.000000 ICntrl=       600 IOpCl=  0 I1Cent=           0 NGrid=           0
         NMat0=    1 NMatS0=  21528 NMatT0=    0 NMatD0=    1 NMtDS0=    0 NMtDT0=    0
 Petite list used in FoFCou.
          MDV=   16106127360 using IRadAn=       1.
          Solving linear equations simultaneously, MaxMat=       0.
          There are    18 degrees of freedom in the 1st order CPHF.  IDoFFX=6 NUNeed=    18.
     15 vectors produced by pass  0 Test12= 1.70D-14 5.56D-09 XBig12= 8.28D+00 1.07D+00.
 AX will form    15 AO Fock derivatives at one time.
     15 vectors produced by pass  1 Test12= 1.70D-14 5.56D-09 XBig12= 1.34D+00 2.66D-01.
     15 vectors produced by pass  2 Test12= 1.70D-14 5.56D-09 XBig12= 1.40D-01 9.71D-02.
     15 vectors produced by pass  3 Test12= 1.70D-14 5.56D-09 XBig12= 4.92D-03 1.10D-02.
     15 vectors produced by pass  4 Test12= 1.70D-14 5.56D-09 XBig12= 9.90D-05 1.94D-03.
     15 vectors produced by pass  5 Test12= 1.70D-14 5.56D-09 XBig12= 1.42D-06 1.83D-04.
     15 vectors produced by pass  6 Test12= 1.70D-14 5.56D-09 XBig12= 1.12D-08 1.46D-05.
     12 vectors produced by pass  7 Test12= 1.70D-14 5.56D-09 XBig12= 8.21D-11 1.32D-06.
      3 vectors produced by pass  8 Test12= 1.70D-14 5.56D-09 XBig12= 5.68D-13 1.20D-07.
      2 vectors produced by pass  9 Test12= 1.70D-14 5.56D-09 XBig12= 3.71D-15 1.05D-08.
 InvSVY:  IOpt=1 It=  1 EMax= 9.99D-16
 Solved reduced A of dimension   122 with    15 vectors.
 FullF1:  Do perturbations      1 to      18.
 Saving first derivative matrices.
 End of Minotr F.D. properties file   721 does not exist.
 End of Minotr F.D. properties file   722 does not exist.
 End of Minotr F.D. properties file   788 does not exist.
 Leave Link 1002 at Mon Feb 21 20:38:47 2022, MaxMem= 16106127360 cpu:              78.6 elap:               2.8
 (Enter /sw/contrib/gaussian/g16/B01/g16/l811.exe)
 MDV= 16106127360.
 Form MO integral derivatives with frozen-active canonical formalism.
 MOERI=1 MOERIx=1 NAtoms=     5 NAtomX=     5.
 Discarding MO integrals.
 MO basis two electron integral derivatives will not be stored on disk.
 IAlg= 3 DoFC=T DoPWx=T Debug=F.
 Frozen-core window:  NFC=   4 NFV=   0.
 Reordered first order wavefunction length =     18678272
 In DefCFB: NBatch=  1 ICI= 16 ICA=191 LFMax= 96
            Large arrays: LIAPS=   619940160 LIARS=   288257200 words.
 In StABat: MaxSiz= 55 MinSiz= 25 NAtomB=  5
 DoIAMN: NPSUse= 28.
 Leave Link  811 at Mon Feb 21 20:40:07 2022, MaxMem= 16106127360 cpu:            2224.7 elap:              79.6
 (Enter /sw/contrib/gaussian/g16/B01/g16/l804.exe)
 Frozen-core window:  NFC=   4 NFV=   0.
 Closed-shell transformation, MDV= 16106127360 ITran=4 ISComp=1.
 Semi-Direct transformation.
 ModeAB=           2 MOrb=            16 LenV=   16104923037
 LASXX=     67341636 LTotXX=    67341636 LenRXX=    67341636
 LTotAB=    68301760 MaxLAS=    99807120 LenRXY=    99807120
 NonZer=   134683272 LenScr=   202817536 LnRSAI=           0
 LnScr1=           0 LExtra=           0 Total=    369966292
 MaxDsk=          -1 SrtSym=           F ITran=            4
 DoSDTr:  NPSUse= 28
 JobTyp=0 Pass  1:  I=   1 to  16.
 (rs|ai) integrals will be sorted in core.
 Complete sort for first half transformation.
 First half transformation complete.
 Begin second half transformation for I=  10.
 Begin second half transformation for I=  10.
 Complete sort for second half transformation.
 Second half transformation complete.
 Spin components of T(2) and E(2):
     alpha-alpha T2 =       0.3403998983D-01 E2=     -0.1224430211D+00
     alpha-beta  T2 =       0.1869122354D+00 E2=     -0.7003679112D+00
     beta-beta   T2 =       0.3403998983D-01 E2=     -0.1224430211D+00
 ANorm=    0.1584293038D+01
 E2 =    -0.9452539535D+00 EUMP2 =    -0.28044666906773D+03
 Leave Link  804 at Mon Feb 21 20:40:22 2022, MaxMem= 16106127360 cpu:             423.7 elap:              15.2
 (Enter /sw/contrib/gaussian/g16/B01/g16/l1002.exe)
 Minotr:  Closed shell wavefunction.
          Computing MP2/KS-MP2 derivatives.
          Using Z-Vector for PSCF gradient.
          Skipping F1 and S1 gradient terms here.
          IDoAtm=11111
          Frozen-core window.
          Using MO integrals in the linear equations.
          Forming densities via direct SCF.
          Differentiating once with respect to electric field.
                with respect to dipole field.
          Differentiating once with respect to nuclear coordinates.
          Using symmetry in CPHF.
          Requested convergence is 1.0D-10 RMS, and 1.0D-09 maximum.
          NewPWx=F KeepS1=T KeepF1=T KeepIn=T MapXYZ=F SortEE=F KeepMc=T.
          MDV=   16106127360 using IRadAn=       5.
          Solving linear equations separately, MaxMat=       0.
          There are     1 degrees of freedom in the 1st order CPHF.  IDoFFX=0 NUNeed=     1.
 FoFJK:  IHMeth= 1 ICntrl=       0 DoSepK=F KAlg= 0 I1Cent=           0 FoldK=F
 IRaf=         0 NMat=       1 IRICut=       1 DoRegI=T DoRafI=F ISym2E= 0 IDoP0=0 IntGTp=1.
 FoFCou: FMM=F IPFlag=           0 FMFlag=      100000 FMFlg1=           0
         NFxFlg=           0 DoJE=F BraDBF=F KetDBF=F FulRan=T
         wScrn=  0.000000 ICntrl=         0 IOpCl=  0 I1Cent=           0 NGrid=           0
         NMat0=    1 NMatS0=      1 NMatT0=    0 NMatD0=    1 NMtDS0=    0 NMtDT0=    0
 Symmetry not used in FoFCou.
 LinEq1:  Iter=  0 NonCon=     1 RMS=5.96D-03 Max=1.32D-01 NDo=     1
 LinEq1:  Iter=  1 NonCon=     1 RMS=1.90D-03 Max=3.82D-02 NDo=     1
 LinEq1:  Iter=  2 NonCon=     1 RMS=8.68D-04 Max=1.43D-02 NDo=     1
 LinEq1:  Iter=  3 NonCon=     1 RMS=3.86D-04 Max=7.77D-03 NDo=     1
 LinEq1:  Iter=  4 NonCon=     1 RMS=1.19D-04 Max=1.91D-03 NDo=     1
 LinEq1:  Iter=  5 NonCon=     1 RMS=4.50D-05 Max=7.19D-04 NDo=     1
 LinEq1:  Iter=  6 NonCon=     1 RMS=2.02D-05 Max=2.35D-04 NDo=     1
 LinEq1:  Iter=  7 NonCon=     1 RMS=8.12D-06 Max=1.59D-04 NDo=     1
 LinEq1:  Iter=  8 NonCon=     1 RMS=3.47D-06 Max=3.40D-05 NDo=     1
 LinEq1:  Iter=  9 NonCon=     1 RMS=9.45D-07 Max=1.31D-05 NDo=     1
 LinEq1:  Iter= 10 NonCon=     1 RMS=1.86D-07 Max=2.03D-06 NDo=     1
 LinEq1:  Iter= 11 NonCon=     1 RMS=3.47D-08 Max=3.55D-07 NDo=     1
 LinEq1:  Iter= 12 NonCon=     1 RMS=8.35D-09 Max=1.28D-07 NDo=     1
 LinEq1:  Iter= 13 NonCon=     1 RMS=1.50D-09 Max=2.55D-08 NDo=     1
 LinEq1:  Iter= 14 NonCon=     1 RMS=2.72D-10 Max=3.83D-09 NDo=     1
 LinEq1:  Iter= 15 NonCon=     0 RMS=4.93D-11 Max=5.54D-10 NDo=     1
 Linear equations converged to 1.000D-10 1.000D-09 after    15 iterations.
 End of Minotr F.D. properties file   721 does not exist.
 End of Minotr F.D. properties file   722 does not exist.
 End of Minotr F.D. properties file   788 does not exist.
 Leave Link 1002 at Mon Feb 21 20:40:24 2022, MaxMem= 16106127360 cpu:              64.6 elap:               2.4
 (Enter /sw/contrib/gaussian/g16/B01/g16/l1102.exe)
 Use density number 2.
 Symmetrizing basis deriv contribution to polar:
 IMax=3 JMax=2 DiffMx= 0.00D+00
 Leave Link 1102 at Mon Feb 21 20:40:24 2022, MaxMem= 16106127360 cpu:               0.7 elap:               0.1
 (Enter /sw/contrib/gaussian/g16/B01/g16/l1110.exe)
 Forming Gx(P) for generalized density number  2 NAtomX=     5.
 Integral derivatives from FoFJK, PRISM(SPDF).
 Do as many integral derivatives as possible in FoFJK.
 G2DrvN: MDV=   16106126844.
 G2DrvN: will do     6 centers at a time, making    1 passes.
 Calling FoFCou, ICntrl=  3107 FMM=F I1Cent=   0 AccDes= 0.00D+00.
 FoFJK:  IHMeth= 1 ICntrl=    3107 DoSepK=F KAlg= 0 I1Cent=           0 FoldK=F
 IRaf=         0 NMat=       1 IRICut=       1 DoRegI=T DoRafI=F ISym2E= 1 IDoP0=0 IntGTp=1.
 FoFCou: FMM=F IPFlag=           0 FMFlag=      100000 FMFlg1=           0
         NFxFlg=           0 DoJE=F BraDBF=F KetDBF=F FulRan=T
         wScrn=  0.000000 ICntrl=      3107 IOpCl=  0 I1Cent=           0 NGrid=           0
         NMat0=    1 NMatS0=      1 NMatT0=    0 NMatD0=    1 NMtDS0=    0 NMtDT0=    0
 Petite list used in FoFCou.
 End of G2Drv F.D. properties file   721 does not exist.
 End of G2Drv F.D. properties file   722 does not exist.
 End of G2Drv F.D. properties file   788 does not exist.
 Leave Link 1110 at Mon Feb 21 20:40:27 2022, MaxMem= 16106127360 cpu:              83.6 elap:               3.0
 (Enter /sw/contrib/gaussian/g16/B01/g16/l1112.exe)
 MP22nd: MDV=   16106127360
 This link is doing NAtomX=     5 total of    18 degrees of freedom.
 Using ON3 I/O method in MakUI.
 Frozen-core window:  NFC=   4 NFV=   0.
 Using Ix for Sx.
 Use MO integrals over full window.
 Using OV2 memory method for fx*t*t/D, MaxI=    16 DoOO2=F NP=  28.
 R2 and R3 integrals will be kept in memory, NReq=   915591705.
 FoFCou: FMM=F IPFlag=           0 FMFlag=           0 FMFlg1=           0
         NFxFlg=           0 DoJE=F BraDBF=F KetDBF=F FulRan=T
         wScrn=  0.000000 ICntrl=       600 IOpCl=  0 I1Cent=           0 NGrid=           0
         NMat0=    1 NMatS0=      1 NMatT0=    0 NMatD0=    1 NMtDS0=    0 NMtDT0=    0
 Symmetry not used in FoFCou.
 DD1Dir will call FoFMem   1 times, MxPair=       272
 NAB=   136 NAA=     0 NBB=     0.
 Symmetry is being used.
 FoFJK:  IHMeth= 1 ICntrl=       0 DoSepK=F KAlg= 0 I1Cent=           0 FoldK=F
 IRaf=         0 NMat=      18 IRICut=      45 DoRegI=T DoRafI=T ISym2E= 2 IDoP0=3 IntGTp=3.
 Discarding MO integrals.
 Leave Link 1112 at Mon Feb 21 20:41:04 2022, MaxMem= 16106127360 cpu:            1017.6 elap:              36.8
 (Enter /sw/contrib/gaussian/g16/B01/g16/l601.exe)
 Copying SCF densities to generalized density rwf, IOpCl= 0 IROHF=0.

 **********************************************************************

            Population analysis using the MP2 Density.

 **********************************************************************

 Orbital symmetries:
       Occupied  (A') (A') (A') (A') (A') (A') (A') (A') (A') (A')
                 (A") (A') (A") (A') (A") (A')
       Virtual   (A') (A") (A') (A') (A") (A') (A') (A') (A") (A')
                 (A") (A') (A') (A') (A") (A') (A') (A") (A') (A')
                 (A') (A') (A') (A') (A") (A') (A') (A") (A') (A')
                 (A") (A') (A") (A') (A') (A") (A') (A') (A") (A')
                 (A") (A') (A") (A') (A') (A") (A') (A') (A") (A')
                 (A") (A') (A') (A') (A") (A') (A") (A') (A") (A')
                 (A') (A') (A") (A') (A') (A") (A') (A") (A') (A')
                 (A") (A') (A') (A") (A") (A') (A') (A") (A') (A')
                 (A') (A") (A') (A") (A') (A") (A') (A") (A') (A')
                 (A") (A') (A') (A") (A') (A") (A') (A") (A') (A')
                 (A") (A') (A") (A') (A') (A") (A') (A') (A") (A')
                 (A") (A') (A') (A') (A") (A') (A') (A') (A") (A')
                 (A") (A') (A") (A') (A') (A") (A") (A') (A") (A')
                 (A') (A') (A') (A") (A") (A") (A') (A') (A') (A')
                 (A") (A') (A") (A') (A') (A") (A') (A') (A') (A')
                 (A") (A') (A') (A") (A') (A") (A') (A") (A') (A")
                 (A') (A") (A') (A') (A") (A") (A") (A') (A") (A')
                 (A") (A') (A") (A') (A") (A') (A") (A") (A') (A')
                 (A') (A') (A') (A') (A') (A') (A') (A') (A') (A')
                 (A')
 The electronic state is 1-A'.
 Alpha  occ. eigenvalues --  -20.69072 -20.68427 -20.66054 -15.81280  -1.62410
 Alpha  occ. eigenvalues --   -1.49665  -1.25419  -0.94815  -0.77351  -0.75825
 Alpha  occ. eigenvalues --   -0.71196  -0.67897  -0.62071  -0.59076  -0.48540
 Alpha  occ. eigenvalues --   -0.47252
 Alpha virt. eigenvalues --    0.02979   0.07161   0.08593   0.10167   0.13388
 Alpha virt. eigenvalues --    0.13405   0.14410   0.15461   0.17821   0.19403
 Alpha virt. eigenvalues --    0.19968   0.20640   0.22074   0.23537   0.23736
 Alpha virt. eigenvalues --    0.26542   0.29344   0.30375   0.31089   0.34331
 Alpha virt. eigenvalues --    0.34997   0.38728   0.42315   0.43120   0.52757
 Alpha virt. eigenvalues --    0.52935   0.55821   0.58127   0.62607   0.63816
 Alpha virt. eigenvalues --    0.67460   0.68473   0.70648   0.71025   0.72697
 Alpha virt. eigenvalues --    0.72870   0.74446   0.79291   0.79383   0.81131
 Alpha virt. eigenvalues --    0.81231   0.82970   0.86784   0.90860   0.92113
 Alpha virt. eigenvalues --    0.92714   0.95514   0.97677   0.98570   1.01720
 Alpha virt. eigenvalues --    1.05166   1.05454   1.08259   1.11750   1.14316
 Alpha virt. eigenvalues --    1.19000   1.22086   1.23462   1.33931   1.35159
 Alpha virt. eigenvalues --    1.38573   1.45589   1.48726   1.50675   1.53747
 Alpha virt. eigenvalues --    1.56665   1.57958   1.61121   1.66292   1.67044
 Alpha virt. eigenvalues --    1.70315   1.79647   1.83081   1.83570   1.87759
 Alpha virt. eigenvalues --    1.91091   1.95524   1.99354   2.00435   2.07876
 Alpha virt. eigenvalues --    2.12499   2.13206   2.14969   2.22605   2.26309
 Alpha virt. eigenvalues --    2.26427   2.29064   2.31392   2.34279   2.38655
 Alpha virt. eigenvalues --    2.42687   2.43251   2.45350   2.46253   2.47891
 Alpha virt. eigenvalues --    2.49987   2.59034   2.59841   2.62090   2.62495
 Alpha virt. eigenvalues --    2.63504   2.66595   2.75790   2.82687   2.84851
 Alpha virt. eigenvalues --    2.88052   2.89266   2.92699   2.95505   3.02432
 Alpha virt. eigenvalues --    3.06882   3.12057   3.20790   3.22435   3.31487
 Alpha virt. eigenvalues --    3.34251   3.51876   3.63897   3.83746   3.84179
 Alpha virt. eigenvalues --    4.14660   4.16928   4.18353   4.25839   4.34634
 Alpha virt. eigenvalues --    4.39548   4.46205   4.52550   4.65965   4.72624
 Alpha virt. eigenvalues --    4.80341   4.82439   4.82785   4.89563   5.02442
 Alpha virt. eigenvalues --    5.07712   5.10262   5.13893   5.17460   5.24854
 Alpha virt. eigenvalues --    5.27068   5.30685   5.32869   5.35719   5.60323
 Alpha virt. eigenvalues --    5.67355   5.76599   5.83887   5.95788   6.17298
 Alpha virt. eigenvalues --    6.31073   6.33412   6.39350   6.49376   6.50524
 Alpha virt. eigenvalues --    6.61476   6.66801   6.70188   6.76051   6.76168
 Alpha virt. eigenvalues --    6.83420   6.89889   7.02230   7.05103   7.05676
 Alpha virt. eigenvalues --    7.08933   7.12507   7.14408   7.18201   7.22638
 Alpha virt. eigenvalues --    7.24163   7.30396   7.32463   7.34926   7.39974
 Alpha virt. eigenvalues --    7.44445   7.48474   7.60732   7.62029   7.62647
 Alpha virt. eigenvalues --    7.66654   7.79448   7.88703   8.09387   8.31781
 Alpha virt. eigenvalues --    8.39836   8.54314  13.38936  14.38996  15.17925
 Alpha virt. eigenvalues --   16.15364
          Condensed to atoms (all electrons):
               1          2          3          4          5
     1  H    0.587206   0.129407   0.019519   0.012147  -0.000567
     2  O    0.129407   8.322353  -0.175888  -0.089552   0.015414
     3  O    0.019519  -0.175888   8.474311  -0.131040  -0.038573
     4  N    0.012147  -0.089552  -0.131040   6.972765  -0.055482
     5  O   -0.000567   0.015414  -0.038573  -0.055482   8.272594
 Mulliken charges:
               1
     1  H    0.252288
     2  O   -0.201734
     3  O   -0.148329
     4  N    0.291162
     5  O   -0.193386
 Sum of Mulliken charges =  -0.00000
 Mulliken charges with hydrogens summed into heavy atoms:
               1
     2  O    0.050554
     3  O   -0.148329
     4  N    0.291162
     5  O   -0.193386
 APT charges:
               1
     1  H    0.299618
     2  O   -0.286626
     3  O   -0.496627
     4  N    0.875691
     5  O   -0.392056
 Sum of APT charges =  -0.00000
 APT charges with hydrogens summed into heavy atoms:
               1
     2  O    0.012992
     3  O   -0.496627
     4  N    0.875691
     5  O   -0.392056
 Electronic spatial extent (au):  <R**2>=            252.7308
 Charge=             -0.0000 electrons
 Dipole moment (field-independent basis, Debye):
    X=              0.4749    Y=              1.3581    Z=              0.0000  Tot=              1.4387
 Quadrupole moment (field-independent basis, Debye-Ang):
   XX=            -22.5890   YY=            -18.6012   ZZ=            -22.0079
   XY=              3.1701   XZ=              0.0000   YZ=             -0.0000
 Traceless Quadrupole moment (field-independent basis, Debye-Ang):
   XX=             -1.5230   YY=              2.4648   ZZ=             -0.9418
   XY=              3.1701   XZ=              0.0000   YZ=             -0.0000
 Octapole moment (field-independent basis, Debye-Ang**2):
  XXX=              2.5533  YYY=             11.3617  ZZZ=             -0.0000  XYY=              7.7824
  XXY=              6.3238  XXZ=              0.0000  XZZ=             -1.5758  YZZ=             -0.8549
  YYZ=              0.0000  XYZ=              0.0000
 Hexadecapole moment (field-independent basis, Debye-Ang**3):
 XXXX=           -158.6490 YYYY=            -89.7993 ZZZZ=            -18.2343 XXXY=            -37.2786
 XXXZ=             -0.0000 YYYX=            -30.9089 YYYZ=             -0.0000 ZZZX=             -0.0000
 ZZZY=             -0.0000 XXYY=            -34.3689 XXZZ=            -30.7898 YYZZ=            -20.7038
 XXYZ=             -0.0000 YYXZ=             -0.0000 ZZXY=            -15.0511
 N-N= 1.169054242137D+02 E-N=-8.959213148791D+02  KE= 2.802028498451D+02
 Symmetry A'   KE= 2.662306038993D+02
 Symmetry A"   KE= 1.397224594587D+01
  Exact polarizability:  33.921   9.425  30.251   0.000   0.000  17.915
 Approx polarizability:  28.998   5.068  23.535   0.000   0.000  15.515
 No NMR shielding tensors so no spin-rotation constants.
 Leave Link  601 at Mon Feb 21 20:41:05 2022, MaxMem= 16106127360 cpu:               6.7 elap:               0.3
 (Enter /sw/contrib/gaussian/g16/B01/g16/l701.exe)
 ... and contract with generalized density number  2.
 Compute integral second derivatives.
 Leave Link  701 at Mon Feb 21 20:41:05 2022, MaxMem= 16106127360 cpu:               6.6 elap:               0.3
 (Enter /sw/contrib/gaussian/g16/B01/g16/l702.exe)
 L702 exits ... SP integral derivatives will be done elsewhere.
 Leave Link  702 at Mon Feb 21 20:41:05 2022, MaxMem= 16106127360 cpu:               0.5 elap:               0.0
 (Enter /sw/contrib/gaussian/g16/B01/g16/l703.exe)
 Integral derivatives from FoFJK, PRISM(SPDF).
 Compute integral second derivatives, UseDBF=F ICtDFT=           0.
 Calling FoFJK, ICntrl=  10100127 FMM=F ISym2X=1 I1Cent= 0 IOpClX= 0 NMat=1 NMatS=1 NMatT=0.
 FoFJK:  IHMeth= 1 ICntrl=10100127 DoSepK=F KAlg= 0 I1Cent=           0 FoldK=F
 IRaf=         0 NMat=       1 IRICut=       1 DoRegI=T DoRafI=F ISym2E= 1 IDoP0=0 IntGTp=1.
 FoFCou: FMM=F IPFlag=           0 FMFlag=      100000 FMFlg1=         800
         NFxFlg=           0 DoJE=F BraDBF=F KetDBF=F FulRan=T
         wScrn=  0.000000 ICntrl=  10100127 IOpCl=  0 I1Cent=           0 NGrid=           0
         NMat0=    1 NMatS0=      1 NMatT0=    0 NMatD0=    1 NMtDS0=    0 NMtDT0=    0
 Petite list used in FoFCou.
 Leave Link  703 at Mon Feb 21 20:41:20 2022, MaxMem= 16106127360 cpu:             421.8 elap:              15.1
 (Enter /sw/contrib/gaussian/g16/B01/g16/l716.exe)
 Dipole        = 1.86837693D-01 5.34303060D-01 8.35788573D-32
 Polarizability= 3.39209276D+01 9.42496747D+00 3.02514939D+01
                 3.29340437D-31 5.55088638D-30 1.79145036D+01
 Full mass-weighted force constant matrix:
 Low frequencies --- -259.9886  -24.4404  -19.3445    0.0005    0.0009    0.0014
 Low frequencies ---   67.0840  226.3516  338.9458
 ******    1 imaginary frequencies (negative Signs) ****** 
 Diagonal vibrational polarizability:
       13.9597027      25.1021036      50.1687843
 Harmonic frequencies (cm**-1), IR intensities (KM/Mole), Raman scattering
 activities (A**4/AMU), depolarization ratios for plane and unpolarized
 incident light, reduced masses (AMU), force constants (mDyne/A),
 and normal coordinates:
                      1                      2                      3
                     A"                     A"                     A'
 Frequencies --   -258.0769               226.3172               338.9426
 Red. masses --      1.1214                12.3929                 8.6872
 Frc consts  --      0.0440                 0.3740                 0.5880
 IR Inten    --    124.0660                 0.0760                 5.2026
  Atom  AN      X      Y      Z        X      Y      Z        X      Y      Z
     1   1     0.00  -0.00   1.00    -0.00   0.00  -0.44     0.55  -0.43  -0.00
     2   8    -0.00  -0.00  -0.06     0.00   0.00  -0.35    -0.09  -0.38  -0.00
     3   8    -0.00   0.00  -0.05     0.00  -0.00   0.35    -0.15   0.44   0.00
     4   7    -0.00   0.00   0.05    -0.00  -0.00   0.58     0.04   0.25   0.00
     5   8     0.00  -0.00   0.00    -0.00  -0.00  -0.48     0.16  -0.26  -0.00
                      4                      5                      6
                     A'                     A'                     A'
 Frequencies --    452.6182               786.6558               969.2942
 Red. masses --     12.4511                12.9173                15.7050
 Frc consts  --      1.5029                 4.7097                 8.6936
 IR Inten    --    198.4214               169.8130                23.5915
  Atom  AN      X      Y      Z        X      Y      Z        X      Y      Z
     1   1     0.39   0.20   0.00    -0.35   0.17   0.00    -0.09  -0.03   0.00
     2   8     0.33   0.21   0.00     0.42   0.08   0.00    -0.53   0.03   0.00
     3   8     0.18   0.44  -0.00    -0.06  -0.27  -0.00     0.76  -0.02  -0.00
     4   7    -0.35  -0.41  -0.00    -0.14   0.62  -0.00    -0.12   0.24  -0.00
     5   8    -0.22  -0.30   0.00    -0.21  -0.37   0.00    -0.12  -0.22   0.00
                      7                      8                      9
                     A'                     A'                     A'
 Frequencies --   1380.1021              1677.6620              3778.2093
 Red. masses --      1.1304                13.0322                 1.0671
 Frc consts  --      1.2686                21.6110                 8.9753
 IR Inten    --    158.7750               138.2591                80.8104
  Atom  AN      X      Y      Z        X      Y      Z        X      Y      Z
     1   1     1.00  -0.03  -0.00    -0.36  -0.00   0.00     0.08   0.99  -0.00
     2   8    -0.03   0.05   0.00    -0.00  -0.04  -0.00    -0.01  -0.06   0.00
     3   8    -0.02  -0.05   0.00     0.00   0.15  -0.00     0.00   0.00   0.00
     4   7     0.02   0.01  -0.00     0.70  -0.05   0.00    -0.00  -0.00  -0.00
     5   8    -0.03  -0.01  -0.00    -0.59  -0.07   0.00     0.00   0.00  -0.00

 -------------------
 - Thermochemistry -
 -------------------
 Temperature   298.150 Kelvin.  Pressure   1.00000 Atm.
 Atom     1 has atomic number  1 and mass   1.00783
 Atom     2 has atomic number  8 and mass  15.99491
 Atom     3 has atomic number  8 and mass  15.99491
 Atom     4 has atomic number  7 and mass  14.00307
 Atom     5 has atomic number  8 and mass  15.99491
 Molecular mass:    62.99564 amu.
 Principal axes and moments of inertia in atomic units:
                           1         2         3
     Eigenvalues --    32.89454 359.84560 392.74014
           X            0.80932  -0.58737   0.00000
           Y            0.58737   0.80932   0.00000
           Z            0.00000  -0.00000   1.00000
 This molecule is an asymmetric top.
 Rotational symmetry number  1.
 Rotational temperatures (Kelvin)      2.63308     0.24070     0.22054
 Rotational constants (GHZ):          54.86447     5.01532     4.59526
    1 imaginary frequencies ignored.
 Zero-point vibrational energy      57479.4 (Joules/Mol)
                                   13.73790 (Kcal/Mol)
 Warning -- explicit consideration of   3 degrees of freedom as
           vibrations may cause significant error
 Vibrational temperatures:    325.62   487.66   651.22  1131.82  1394.60
          (Kelvin)           1985.66  2413.78  5436.00
 
 Zero-point correction=                           0.021893 (Hartree/Particle)
 Thermal correction to Energy=                    0.026015
 Thermal correction to Enthalpy=                  0.026960
 Thermal correction to Gibbs Free Energy=        -0.004237
 Sum of electronic and zero-point Energies=           -280.424776
 Sum of electronic and thermal Energies=              -280.420654
 Sum of electronic and thermal Enthalpies=            -280.419709
 Sum of electronic and thermal Free Energies=         -280.450906
 
                     E (Thermal)             CV                S
                      KCal/Mol        Cal/Mol-Kelvin    Cal/Mol-Kelvin
 Total                   16.325             11.953             65.660
 Electronic               0.000              0.000              0.000
 Translational            0.889              2.981             38.341
 Rotational               0.889              2.981             23.057
 Vibrational             14.547              5.992              4.262
 Vibration     1          0.650              1.801              1.908
 Vibration     2          0.719              1.598              1.217
 Vibration     3          0.811              1.355              0.788
                       Q            Log10(Q)             Ln(Q)
 Total Bot       0.889366D+02          1.949081          4.487924
 Total V=0       0.104480D+13         12.019032         27.674845
 Vib (Bot)       0.185414D-09         -9.731857        -22.408429
 Vib (Bot)    1  0.871667D+00         -0.059649         -0.137348
 Vib (Bot)    2  0.548201D+00         -0.261060         -0.601113
 Vib (Bot)    3  0.378072D+00         -0.422426         -0.972671
 Vib (V=0)       0.217818D+01          0.338094          0.778491
 Vib (V=0)    1  0.150489D+01          0.177505          0.408720
 Vib (V=0)    2  0.124197D+01          0.094112          0.216702
 Vib (V=0)    3  0.112685D+01          0.051865          0.119424
 Electronic      0.100000D+01          0.000000          0.000000
 Translational   0.196526D+08          7.293420         16.793719
 Rotational      0.244072D+05          4.387518         10.102634
 
                                                                title
                                                             IR Spectrum
 
     3                                                                      1         1                                              
     7                                                                      6         3             9     7          4   3   2       
     7                                                                      7         8             6     8          5   3   2       
     8                                                                      8         0             9     7          3   9   6       
 
     X                                                                      X         X             X     X          X   X   X       
     X                                                                      X         X             X     X          X               
     X                                                                      X         X                   X          X               
     X                                                                      X         X                   X          X               
     X                                                                      X         X                   X          X               
     X                                                                      X         X                   X          X               
     X                                                                      X         X                   X          X               
     X                                                                      X         X                   X          X               
                                                                            X         X                   X          X               
                                                                            X         X                   X          X               
                                                                            X         X                   X          X               
                                                                            X         X                   X          X               
                                                                            X         X                   X          X               
                                                                            X         X                   X          X               
                                                                                      X                   X          X               
                                                                                      X                   X          X               
                                                                                                          X          X               
                                                                                                                     X               
                                                                                                                     X               
                                                                                                                     X               
 
 ***** Axes restored to original set *****
 -------------------------------------------------------------------
 Center     Atomic                   Forces (Hartrees/Bohr)
 Number     Number              X              Y              Z
 -------------------------------------------------------------------
      1        1          -0.002934381   -0.000000000   -0.000259792
      2        8           0.001733379    0.000000000   -0.002104780
      3        8           0.000762553   -0.000000000    0.002433020
      4        7           0.000002827    0.000000000   -0.000393606
      5        8           0.000435622    0.000000000    0.000325159
 -------------------------------------------------------------------
 Cartesian Forces:  Max     0.002934381 RMS     0.001240008
 -----------------------------------------------------------------------------------------------
                       Internal Coordinate Forces (Hartree/Bohr or radian)
  Cent   Atom   N1       Length/X         N2         Alpha/Y        N3         Beta/Z          J
 -----------------------------------------------------------------------------------------------
      1  H 
      2  O        1   0.000260(     1)
      3  O        2   0.001448(     2)      1   0.005373(     5)
      4  N        3  -0.000021(     3)      2   0.000736(     6)      1  -0.000000(     8)     0
      5  O        4   0.000497(     4)      3   0.000486(     7)      2   0.000000(     9)     0
 -----------------------------------------------------------------------------------------------
 Internal  Forces:  Max     0.005373151 RMS     0.001887377
 Force constants in Cartesian coordinates: 
                1             2             3             4             5 
      1  0.657763D-01
      2  0.000000D+00 -0.219963D-02
      3  0.765695D-02  0.000000D+00  0.512313D+00
      4 -0.333545D-01  0.000000D+00 -0.179480D-01  0.272924D+00
      5  0.000000D+00  0.171026D-02  0.000000D+00  0.000000D+00  0.413213D-02
      6  0.463421D-01  0.000000D+00 -0.507551D+00  0.329139D-01  0.000000D+00
      7 -0.217884D-01  0.000000D+00  0.120349D-01 -0.221396D+00  0.000000D+00
      8  0.000000D+00  0.208997D-02  0.000000D+00  0.000000D+00 -0.722318D-02
      9 -0.533908D-01  0.000000D+00 -0.138441D-02 -0.180784D-01  0.000000D+00
     10 -0.945349D-02  0.000000D+00 -0.508562D-02 -0.177956D-01  0.000000D+00
     11  0.000000D+00 -0.256012D-02  0.000000D+00  0.000000D+00 -0.503298D-02
     12  0.505102D-02  0.000000D+00 -0.469158D-02  0.131617D-01  0.000000D+00
     13 -0.117993D-02  0.000000D+00  0.334175D-02 -0.377386D-03  0.000000D+00
     14  0.000000D+00  0.959527D-03  0.000000D+00  0.000000D+00  0.641377D-02
     15 -0.565926D-02  0.000000D+00  0.131441D-02 -0.100492D-01  0.000000D+00
                6             7             8             9            10 
      6  0.589911D+00
      7 -0.191468D-01  0.346075D+00
      8  0.000000D+00  0.000000D+00  0.390773D-02
      9 -0.757872D-01  0.350865D-01  0.000000D+00  0.179222D+00
     10 -0.517153D-01 -0.725232D-01  0.000000D+00  0.174538D+00  0.827444D+00
     11  0.000000D+00  0.000000D+00  0.825420D-02  0.000000D+00  0.000000D+00
     12  0.174453D-01  0.620877D-01  0.000000D+00 -0.874679D-01 -0.331913D-01
     13 -0.839385D-02 -0.303665D-01  0.000000D+00 -0.138155D+00 -0.727672D+00
     14  0.000000D+00  0.000000D+00 -0.702872D-02  0.000000D+00  0.000000D+00
     15 -0.240185D-01 -0.900623D-01  0.000000D+00 -0.145827D-01 -0.845458D-01
               11            12            13            14            15 
     11  0.887561D-02
     12  0.000000D+00  0.188431D+00
     13  0.000000D+00 -0.471091D-01  0.759595D+00
     14 -0.953671D-02  0.000000D+00  0.000000D+00  0.919213D-02
     15  0.000000D+00 -0.113717D+00  0.190317D+00  0.000000D+00  0.151004D+00
 Force constants in internal coordinates: 
                1             2             3             4             5 
      1  0.512313D+00
      2 -0.972106D-02  0.284571D+00
      3  0.354436D-02  0.235896D-02  0.117645D+00
      4 -0.355111D-02  0.607602D-02  0.152931D+00  0.812133D+00
      5  0.110863D-01  0.696286D-01  0.319054D-02  0.442421D-02  0.221020D+00
      6  0.496392D-02  0.592076D-01  0.417669D-01  0.214373D-01  0.317625D-01
      7 -0.118017D-02  0.378919D-01  0.321719D-01  0.850801D-01  0.212767D-01
      8  0.000000D+00  0.000000D+00  0.000000D+00  0.000000D+00  0.000000D+00
      9  0.000000D+00  0.000000D+00  0.000000D+00  0.000000D+00  0.000000D+00
                6             7             8             9 
      6  0.282913D+00
      7  0.959523D-01  0.483047D+00
      8  0.000000D+00  0.000000D+00 -0.739234D-02
      9  0.000000D+00  0.000000D+00 -0.365183D-02  0.410215D-01
 Leave Link  716 at Mon Feb 21 20:41:20 2022, MaxMem= 16106127360 cpu:               0.7 elap:               0.0
 (Enter /sw/contrib/gaussian/g16/B01/g16/l103.exe)

 GradGradGradGradGradGradGradGradGradGradGradGradGradGradGradGradGradGrad
 Berny optimization.
 Search for a local minimum.
 Step number   1 out of a maximum of    2
 All quantities printed in internal units (Hartrees-Bohrs-Radians)
 Second derivative matrix not updated -- analytic derivatives used.
 The second derivative matrix:
                          r1        r2        r3        r4        a1
           r1           0.51231
           r2          -0.00972   0.28457
           r3           0.00354   0.00236   0.11764
           r4          -0.00355   0.00608   0.15293   0.81213
           a1           0.01109   0.06963   0.00319   0.00442   0.22102
           a2           0.00496   0.05921   0.04177   0.02144   0.03176
           a3          -0.00118   0.03789   0.03217   0.08508   0.02128
           d1           0.00000  -0.00000   0.00000   0.00000  -0.00000
           d2          -0.00000  -0.00000   0.00000   0.00000  -0.00000
                          a2        a3        d1        d2
           a2           0.28291
           a3           0.09595   0.48305
           d1          -0.00000  -0.00000  -0.00739
           d2          -0.00000  -0.00000  -0.00365   0.04102
 ITU=  0
     Eigenvalues ---   -0.00767   0.04130   0.07841   0.17533   0.22700
     Eigenvalues ---    0.33031   0.51284   0.51855   0.87119
 Eigenvalue     1 is  -7.67D-03 should be greater than     0.000000 Eigenvector:
                          d1        d2        r3        a3        a2
   1                    0.99720   0.07479  -0.00000   0.00000   0.00000
                          r4        a1        r2        r1
   1                    0.00000  -0.00000   0.00000   0.00000
 Angle between quadratic step and forces=  20.16 degrees.
 Linear search not attempted -- first point.
 Variable       Old X    -DE/DX   Delta X   Delta X   Delta X     New X
                                 (Linear)    (Quad)   (Total)
    r1        1.83110   0.00026   0.00000  -0.00003  -0.00003   1.83107
    r2        2.74940   0.00145   0.00000  -0.00099  -0.00099   2.74841
    r3        2.75670  -0.00002   0.00000  -0.00205  -0.00205   2.75465
    r4        2.21236   0.00050   0.00000   0.00087   0.00087   2.21323
    a1        1.67824   0.00537   0.00000   0.02460   0.02460   1.70284
    a2        1.78543   0.00074   0.00000   0.00031   0.00031   1.78574
    a3        1.90362   0.00049   0.00000  -0.00008  -0.00008   1.90354
    d1        3.14159  -0.00000   0.00000  -0.00000   0.00000   3.14159
    d2        3.14159   0.00000   0.00000  -0.00000   0.00000   3.14159
         Item               Value     Threshold  Converged?
 Maximum Force            0.005373     0.000450     NO 
 RMS     Force            0.001887     0.000300     NO 
 Maximum Displacement     0.024598     0.001800     NO 
 RMS     Displacement     0.008240     0.001200     NO 
 Predicted change in Energy=-6.570053D-05
                       ----------------------------
                       ! Non-Optimized Parameters !
                       ! (Angstroms and Degrees)  !
 ----------------------                            ----------------------
 !      Name          Value   Derivative information (Atomic Units)     !
 ------------------------------------------------------------------------
 !       r1          0.969    -DE/DX =    0.0003                        !
 !       r2          1.4544   -DE/DX =    0.0014                        !
 !       r3          1.4577   -DE/DX =    0.0                           !
 !       r4          1.1712   -DE/DX =    0.0005                        !
 !       a1         97.5655   -DE/DX =    0.0054                        !
 !       a2        102.3154   -DE/DX =    0.0007                        !
 !       a3        109.065    -DE/DX =    0.0005                        !
 !       d1        180.0      -DE/DX =    0.0                           !
 !       d2        180.0      -DE/DX =    0.0                           !
 ------------------------------------------------------------------------
 GradGradGradGradGradGradGradGradGradGradGradGradGradGradGradGradGradGrad

 Leave Link  103 at Mon Feb 21 20:41:20 2022, MaxMem= 16106127360 cpu:               0.6 elap:               0.0
 (Enter /sw/contrib/gaussian/g16/B01/g16/l9999.exe)

 ----------------------------------------------------------------------

 Electric dipole moment (input orientation):
 (Debye = 10**-18 statcoulomb cm , SI units = C m)
                  (au)            (Debye)         (10**-30 SI)
   Tot        0.566028D+00      0.143870D+01      0.479899D+01
   x         -0.147911D+00     -0.375951D+00     -0.125404D+01
   y          0.000000D+00      0.000000D+00      0.000000D+00
   z         -0.546361D+00     -0.138871D+01     -0.463224D+01

 Dipole polarizability, Alpha (input orientation).
 (esu units = cm**3 , SI units = C**2 m**2 J**-1)
 Alpha(0;0):
               (au)            (10**-24 esu)      (10**-40 SI)
   iso        0.273623D+02      0.405468D+01      0.451144D+01
   aniso      0.218501D+02      0.323785D+01      0.360259D+01
   xx         0.325492D+02      0.482329D+01      0.536664D+01
   yx         0.000000D+00      0.000000D+00      0.000000D+00
   yy         0.179145D+02      0.265466D+01      0.295370D+01
   zx         0.959072D+01      0.142120D+01      0.158130D+01
   zy         0.000000D+00      0.000000D+00      0.000000D+00
   zz         0.316232D+02      0.468608D+01      0.521396D+01

 ----------------------------------------------------------------------

 Dipole orientation:
     1          0.00000000          0.00000000         -0.00000000
     8         -0.47848993          0.00000000         -1.76747527
     8          2.08302936         -0.00000000         -2.76638164
     7          1.65147311         -0.00000000         -5.48909482
     8          3.60348638         -0.00000000         -6.53032832

 Electric dipole moment (dipole orientation):
 (Debye = 10**-18 statcoulomb cm , SI units = C m)
                  (au)            (Debye)         (10**-30 SI)
   Tot        0.566028D+00      0.143870D+01      0.479899D+01
   x          0.000000D+00      0.000000D+00      0.000000D+00
   y          0.000000D+00      0.000000D+00      0.000000D+00
   z          0.566028D+00      0.143870D+01      0.479899D+01

 Dipole polarizability, Alpha (dipole orientation).
 (esu units = cm**3 , SI units = C**2 m**2 J**-1)
 Alpha(0;0):
               (au)            (10**-24 esu)      (10**-40 SI)
   iso        0.273623D+02      0.405468D+01      0.451144D+01
   aniso      0.218501D+02      0.323785D+01      0.360259D+01
   xx         0.276478D+02      0.409698D+01      0.455850D+01
   yx         0.000000D+00      0.000000D+00      0.000000D+00
   yy         0.179145D+02      0.265466D+01      0.295370D+01
   zx        -0.851449D+01     -0.126172D+01     -0.140385D+01
   zy         0.000000D+00      0.000000D+00      0.000000D+00
   zz         0.365246D+02      0.541239D+01      0.602210D+01

 ----------------------------------------------------------------------
 1\1\GINC-N2109\Freq\RMP2-FC\Aug-CC-pVTZ\H1N1O3\CGAVINH\21-Feb-2022\1\\
 #p freq mp2/aug-cc-pvtz density=current\\title\\0,1\H\O,1,r1\O,2,r2,1,
 a1\N,3,r3,2,a2,1,d1,0\O,4,r4,3,a3,2,d2,0\\r1=0.96897556\r2=1.45491931\
 r3=1.45878406\r4=1.17072885\a1=96.15612217\a2=102.29752444\a3=109.0695
 5123\d1=180.\d2=180.\\Version=ES64L-G16RevB.01\State=1-A'\HF=-279.5014
 151\MP2=-280.4466691\RMSD=3.776e-09\RMSF=1.240e-03\ZeroPoint=0.0218927
 \Thermal=0.0260154\Dipole=-0.1479106,0.,-0.5463612\DipoleDeriv=0.27195
 83,0.,0.0535108,0.,0.3538366,0.,0.0794041,0.,0.2730583,-0.3381331,0.,-
 0.2082604,0.,-0.3112096,0.,-0.1003516,0.,-0.2105357,-0.0616571,0.,0.11
 59031,0.,-0.0880116,0.,-0.787796,0.,-1.3402121,0.9405563,0.,0.9261952,
 0.,0.0661483,0.,0.9384971,0.,1.6203682,-0.8127244,0.,-0.8873486,0.,-0.
 0207637,0.,-0.1297536,0.,-0.3426787\Polar=32.5492026,0.,17.9145036,9.5
 907161,0.,31.6232188\Quadrupole=-1.4552178,-0.7002354,2.1554532,0.,2.1
 197307,0.\PG=CS [SG(H1N1O3)]\NImag=1\\0.06577634,0.,-0.00219963,0.0076
 5695,0.,0.51231255,-0.03335451,0.,-0.01794798,0.27292385,0.,0.00171026
 ,0.,0.,0.00413213,0.04634206,0.,-0.50755097,0.03291385,0.,0.58991134,-
 0.02178840,0.,0.01203490,-0.22139637,0.,-0.01914678,0.34607452,0.,0.00
 208997,0.,0.,-0.00722318,0.,0.,0.00390773,-0.05339077,0.,-0.00138441,-
 0.01807844,0.,-0.07578723,0.03508650,0.,0.17922223,-0.00945349,0.,-0.0
 0508562,-0.01779558,0.,-0.05171529,-0.07252320,0.,0.17453808,0.8274438
 6,0.,-0.00256012,0.,0.,-0.00503298,0.,0.,0.00825420,0.,0.,0.00887561,0
 .00505102,0.,-0.00469158,0.01316175,0.,0.01744533,0.06208769,0.,-0.087
 46793,-0.03319135,0.,0.18843117,-0.00117993,0.,0.00334175,-0.00037739,
 0.,-0.00839385,-0.03036654,0.,-0.13815538,-0.72767159,0.,-0.04710911,0
 .75959545,0.,0.00095953,0.,0.,0.00641377,0.,0.,-0.00702872,0.,0.,-0.00
 953671,0.,0.,0.00919213,-0.00565926,0.,0.00131441,-0.01004918,0.,-0.02
 401846,-0.09006231,0.,-0.01458266,-0.08454583,0.,-0.11371698,0.1903165
 8,0.,0.15100370\\0.00293438,0.,0.00025979,-0.00173338,0.,0.00210478,-0
 .00076255,0.,-0.00243302,-0.00000283,0.,0.00039361,-0.00043562,0.,-0.0
 0032516\\\@


 THE 2ND LAW OF THERMODYNAMICS HAS THE SAME
 DEGREE OF TRUTH AS THE STATEMENT THAT IF YOU THROW
 A TUMBLERFULL OF WATER INTO THE SEA, YOU CANNOT GET
 THE SAME TUMBLERFULL OF WATER OUT AGAIN.
          - J.C. MAXWELL, LETTER TO LORD RAYLEIGH, DECEMBER 6,1870
 Job cpu time:       0 days  2 hours  0 minutes 11.1 seconds.
 Elapsed time:       0 days  0 hours  4 minutes 20.9 seconds.
 File lengths (MBytes):  RWF=   7239 Int=      0 D2E=      0 Chk=      8 Scr=      1
 Normal termination of Gaussian 16 at Mon Feb 21 20:41:21 2022.
