title                                                                   
Freq      RMP2-FC                                                     Aug-CC-pVTZ         
Number of atoms                            I                5
Info1-9                                    I   N=           9
          33          24           0           0           0         100
           6           2           1
Full Title                                 C   N=           1
title       
Route                                      C   N=           4
#p freq mp2/aug-cc-pvtz density=current         
Charge                                     I                0
Multiplicity                               I                1
Number of electrons                        I               32
Number of alpha electrons                  I               16
Number of beta electrons                   I               16
Number of basis functions                  I              207
Number of independent functions            I              207
Number of point charges in /Mol/           I                0
Number of translation vectors              I                0
Atomic numbers                             I   N=           5
           1           8           8           7           8
Nuclear charges                            R   N=           5
  1.00000000E+00  8.00000000E+00  8.00000000E+00  7.00000000E+00  8.00000000E+00
Current cartesian coordinates              R   N=          15
  2.09335415E+00 -1.12745283E+00  0.00000000E+00  2.48556794E+00  6.92864416E-01
  0.00000000E+00 -1.45643432E-16  1.73743669E+00  0.00000000E+00 -1.87528163E+00
 -7.77702134E-02  0.00000000E+00 -1.10636578E+00 -2.22132056E+00  0.00000000E+00
Number of symbols in /Mol/                 I                0
Force Field                                I                0
Atom Types                                 C   N=           5
                                                            
Int Atom Types                             I   N=           5
           0           0           0           0           0
MM charges                                 R   N=           5
  0.00000000E+00  0.00000000E+00  0.00000000E+00  0.00000000E+00  0.00000000E+00
Integer atomic weights                     I   N=           5
           1          16          16          14          16
Real atomic weights                        R   N=           5
  1.00782504E+00  1.59949146E+01  1.59949146E+01  1.40030740E+01  1.59949146E+01
Atom fragment info                         I   N=           5
           0           0           0           0           0
Atom residue num                           I   N=           5
           0           0           0           0           0
Nuclear spins                              I   N=           5
           1           0           0           2           0
Nuclear ZEff                               R   N=           5
 -1.00000000E+00 -5.60000000E+00 -5.60000000E+00 -4.55000000E+00 -5.60000000E+00
Nuclear ZNuc                               R   N=           5
  1.00000000E+00  8.00000000E+00  8.00000000E+00  7.00000000E+00  8.00000000E+00
Nuclear QMom                               R   N=           5
  0.00000000E+00  0.00000000E+00  0.00000000E+00  2.04400000E+00  0.00000000E+00
Nuclear GFac                               R   N=           5
  2.79284600E+00  0.00000000E+00  0.00000000E+00  4.03761000E-01  0.00000000E+00
MicOpt                                     I   N=           5
          -1          -1          -1          -1          -1
Number of residues                         I                0
Number of secondary structures             I                0
SymInf integers                            I   N=          26
           1           2           1           1           1           1
           1          -1           0           0           0           0
           0           0           0           0           0           0
           0           0           0           0           0           0
           0           0
RotTr to input orientation                 R   N=          12
 -9.77565700E-01  0.00000000E+00  2.10630726E-01  2.10630726E-01  0.00000000E+00
  9.77565700E-01  0.00000000E+00  1.00000000E+00  0.00000000E+00  2.28386742E+00
  0.00000000E+00  6.61234513E-01
Number of contracted shells                I               65
Number of primitive shells                 I              119
Pure/Cartesian d shells                    I                0
Pure/Cartesian f shells                    I                0
Highest angular momentum                   I                3
Largest degree of contraction              I                7
Shell types                                I   N=          65
           0           0           0           0           1           1
           1          -2          -2           0           0           0
           0           0           1           1           1           1
          -2          -2          -2          -3          -3           0
           0           0           0           0           1           1
           1           1          -2          -2          -2          -3
          -3           0           0           0           0           0
           1           1           1           1          -2          -2
          -2          -3          -3           0           0           0
           0           0           1           1           1           1
          -2          -2          -2          -3          -3
Number of primitives per shell             I   N=          65
           3           1           1           1           1           1
           1           1           1           7           6           1
           1           1           3           1           1           1
           1           1           1           1           1           7
           6           1           1           1           3           1
           1           1           1           1           1           1
           1           7           6           1           1           1
           3           1           1           1           1           1
           1           1           1           7           6           1
           1           1           3           1           1           1
           1           1           1           1           1
Shell to atom map                          I   N=          65
           1           1           1           1           1           1
           1           1           1           2           2           2
           2           2           2           2           2           2
           2           2           2           2           2           3
           3           3           3           3           3           3
           3           3           3           3           3           3
           3           4           4           4           4           4
           4           4           4           4           4           4
           4           4           4           5           5           5
           5           5           5           5           5           5
           5           5           5           5           5
Primitive exponents                        R   N=         119
  3.38700000E+01  5.09500000E+00  1.15900000E+00  3.25800000E-01  1.02700000E-01
  2.52600000E-02  1.40700000E+00  3.88000000E-01  1.02000000E-01  1.05700000E+00
  2.47000000E-01  1.53300000E+04  2.29900000E+03  5.22400000E+02  1.47300000E+02
  4.75500000E+01  1.67600000E+01  6.20700000E+00  5.22400000E+02  1.47300000E+02
  4.75500000E+01  1.67600000E+01  6.20700000E+00  6.88200000E-01  1.75200000E+00
  2.38400000E-01  7.37600000E-02  3.44600000E+01  7.74900000E+00  2.28000000E+00
  7.15600000E-01  2.14000000E-01  5.97400000E-02  2.31400000E+00  6.45000000E-01
  2.14000000E-01  1.42800000E+00  5.00000000E-01  1.53300000E+04  2.29900000E+03
  5.22400000E+02  1.47300000E+02  4.75500000E+01  1.67600000E+01  6.20700000E+00
  5.22400000E+02  1.47300000E+02  4.75500000E+01  1.67600000E+01  6.20700000E+00
  6.88200000E-01  1.75200000E+00  2.38400000E-01  7.37600000E-02  3.44600000E+01
  7.74900000E+00  2.28000000E+00  7.15600000E-01  2.14000000E-01  5.97400000E-02
  2.31400000E+00  6.45000000E-01  2.14000000E-01  1.42800000E+00  5.00000000E-01
  1.14200000E+04  1.71200000E+03  3.89300000E+02  1.10000000E+02  3.55700000E+01
  1.25400000E+01  4.64400000E+00  3.89300000E+02  1.10000000E+02  3.55700000E+01
  1.25400000E+01  4.64400000E+00  5.11800000E-01  1.29300000E+00  1.78700000E-01
  5.76000000E-02  2.66300000E+01  5.94800000E+00  1.74200000E+00  5.55000000E-01
  1.72500000E-01  4.91000000E-02  1.65400000E+00  4.69000000E-01  1.51000000E-01
  1.09300000E+00  3.64000000E-01  1.53300000E+04  2.29900000E+03  5.22400000E+02
  1.47300000E+02  4.75500000E+01  1.67600000E+01  6.20700000E+00  5.22400000E+02
  1.47300000E+02  4.75500000E+01  1.67600000E+01  6.20700000E+00  6.88200000E-01
  1.75200000E+00  2.38400000E-01  7.37600000E-02  3.44600000E+01  7.74900000E+00
  2.28000000E+00  7.15600000E-01  2.14000000E-01  5.97400000E-02  2.31400000E+00
  6.45000000E-01  2.14000000E-01  1.42800000E+00  5.00000000E-01
Contraction coefficients                   R   N=         119
  2.54948632E-02  1.90362766E-01  8.52162022E-01  1.00000000E+00  1.00000000E+00
  1.00000000E+00  1.00000000E+00  1.00000000E+00  1.00000000E+00  1.00000000E+00
  1.00000000E+00  5.19808943E-04  4.02025621E-03  2.07128267E-02  8.10105536E-02
  2.35962985E-01  4.42653446E-01  3.57064423E-01 -4.42115008E-05 -1.22591041E-03
 -1.05517725E-02 -6.74452633E-02 -1.71198607E-01  1.07329856E+00  1.00000000E+00
  1.00000000E+00  1.00000000E+00  4.11634896E-02  2.57762836E-01  8.02419274E-01
  1.00000000E+00  1.00000000E+00  1.00000000E+00  1.00000000E+00  1.00000000E+00
  1.00000000E+00  1.00000000E+00  1.00000000E+00  5.19808943E-04  4.02025621E-03
  2.07128267E-02  8.10105536E-02  2.35962985E-01  4.42653446E-01  3.57064423E-01
 -4.42115008E-05 -1.22591041E-03 -1.05517725E-02 -6.74452633E-02 -1.71198607E-01
  1.07329856E+00  1.00000000E+00  1.00000000E+00  1.00000000E+00  4.11634896E-02
  2.57762836E-01  8.02419274E-01  1.00000000E+00  1.00000000E+00  1.00000000E+00
  1.00000000E+00  1.00000000E+00  1.00000000E+00  1.00000000E+00  1.00000000E+00
  5.34563860E-04  4.13435660E-03  2.12335358E-02  8.25006224E-02  2.38138871E-01
  4.42551547E-01  3.53757422E-01 -4.89867350E-05 -1.19527323E-03 -1.03490714E-02
 -6.48680190E-02 -1.71552477E-01  1.07289568E+00  1.00000000E+00  1.00000000E+00
  1.00000000E+00  3.98072123E-02  2.49002660E-01  8.10479727E-01  1.00000000E+00
  1.00000000E+00  1.00000000E+00  1.00000000E+00  1.00000000E+00  1.00000000E+00
  1.00000000E+00  1.00000000E+00  5.19808943E-04  4.02025621E-03  2.07128267E-02
  8.10105536E-02  2.35962985E-01  4.42653446E-01  3.57064423E-01 -4.42115008E-05
 -1.22591041E-03 -1.05517725E-02 -6.74452633E-02 -1.71198607E-01  1.07329856E+00
  1.00000000E+00  1.00000000E+00  1.00000000E+00  4.11634896E-02  2.57762836E-01
  8.02419274E-01  1.00000000E+00  1.00000000E+00  1.00000000E+00  1.00000000E+00
  1.00000000E+00  1.00000000E+00  1.00000000E+00  1.00000000E+00
Coordinates of each shell                  R   N=         195
  2.09335415E+00 -1.12745283E+00  0.00000000E+00  2.09335415E+00 -1.12745283E+00
  0.00000000E+00  2.09335415E+00 -1.12745283E+00  0.00000000E+00  2.09335415E+00
 -1.12745283E+00  0.00000000E+00  2.09335415E+00 -1.12745283E+00  0.00000000E+00
  2.09335415E+00 -1.12745283E+00  0.00000000E+00  2.09335415E+00 -1.12745283E+00
  0.00000000E+00  2.09335415E+00 -1.12745283E+00  0.00000000E+00  2.09335415E+00
 -1.12745283E+00  0.00000000E+00  2.48556794E+00  6.92864416E-01  0.00000000E+00
  2.48556794E+00  6.92864416E-01  0.00000000E+00  2.48556794E+00  6.92864416E-01
  0.00000000E+00  2.48556794E+00  6.92864416E-01  0.00000000E+00  2.48556794E+00
  6.92864416E-01  0.00000000E+00  2.48556794E+00  6.92864416E-01  0.00000000E+00
  2.48556794E+00  6.92864416E-01  0.00000000E+00  2.48556794E+00  6.92864416E-01
  0.00000000E+00  2.48556794E+00  6.92864416E-01  0.00000000E+00  2.48556794E+00
  6.92864416E-01  0.00000000E+00  2.48556794E+00  6.92864416E-01  0.00000000E+00
  2.48556794E+00  6.92864416E-01  0.00000000E+00  2.48556794E+00  6.92864416E-01
  0.00000000E+00  2.48556794E+00  6.92864416E-01  0.00000000E+00 -7.38165546E-17
  1.73743669E+00  0.00000000E+00 -7.38165546E-17  1.73743669E+00  0.00000000E+00
 -7.38165546E-17  1.73743669E+00  0.00000000E+00 -7.38165546E-17  1.73743669E+00
  0.00000000E+00 -7.38165546E-17  1.73743669E+00  0.00000000E+00 -7.38165546E-17
  1.73743669E+00  0.00000000E+00 -7.38165546E-17  1.73743669E+00  0.00000000E+00
 -7.38165546E-17  1.73743669E+00  0.00000000E+00 -7.38165546E-17  1.73743669E+00
  0.00000000E+00 -7.38165546E-17  1.73743669E+00  0.00000000E+00 -7.38165546E-17
  1.73743669E+00  0.00000000E+00 -7.38165546E-17  1.73743669E+00  0.00000000E+00
 -7.38165546E-17  1.73743669E+00  0.00000000E+00 -7.38165546E-17  1.73743669E+00
  0.00000000E+00 -1.87528163E+00 -7.77702134E-02  0.00000000E+00 -1.87528163E+00
 -7.77702134E-02  0.00000000E+00 -1.87528163E+00 -7.77702134E-02  0.00000000E+00
 -1.87528163E+00 -7.77702134E-02  0.00000000E+00 -1.87528163E+00 -7.77702134E-02
  0.00000000E+00 -1.87528163E+00 -7.77702134E-02  0.00000000E+00 -1.87528163E+00
 -7.77702134E-02  0.00000000E+00 -1.87528163E+00 -7.77702134E-02  0.00000000E+00
 -1.87528163E+00 -7.77702134E-02  0.00000000E+00 -1.87528163E+00 -7.77702134E-02
  0.00000000E+00 -1.87528163E+00 -7.77702134E-02  0.00000000E+00 -1.87528163E+00
 -7.77702134E-02  0.00000000E+00 -1.87528163E+00 -7.77702134E-02  0.00000000E+00
 -1.87528163E+00 -7.77702134E-02  0.00000000E+00 -1.10636578E+00 -2.22132056E+00
  0.00000000E+00 -1.10636578E+00 -2.22132056E+00  0.00000000E+00 -1.10636578E+00
 -2.22132056E+00  0.00000000E+00 -1.10636578E+00 -2.22132056E+00  0.00000000E+00
 -1.10636578E+00 -2.22132056E+00  0.00000000E+00 -1.10636578E+00 -2.22132056E+00
  0.00000000E+00 -1.10636578E+00 -2.22132056E+00  0.00000000E+00 -1.10636578E+00
 -2.22132056E+00  0.00000000E+00 -1.10636578E+00 -2.22132056E+00  0.00000000E+00
 -1.10636578E+00 -2.22132056E+00  0.00000000E+00 -1.10636578E+00 -2.22132056E+00
  0.00000000E+00 -1.10636578E+00 -2.22132056E+00  0.00000000E+00 -1.10636578E+00
 -2.22132056E+00  0.00000000E+00 -1.10636578E+00 -2.22132056E+00  0.00000000E+00
Num ILSW                                   I              100
ILSW                                       I   N=         100
           0           0           0           0           2           0
           0           0           0           0           0          -1
           5           0           0           0           2           0
           0           0           0           0           1           0
           1           0           0           0           0           0
           0           0      100000           0          -1           0
           0           0           0           0           0           0
           0           0           0           1           1           0
           0 -2000000000           1           0           0           0
           0           0           4          52           0           0
           0           0           0           0           0           0
           0           0           0           5           4           1
           0           0           0           0           0           0
           0           0           0           0           0           0
           0           0           0           0           0           0
           0           0           0           0           0           0
           0           0           0           0
Num RLSW                                   I               52
RLSW                                       R   N=          52
  1.00000000E+00  1.00000000E+00  1.00000000E+00  1.00000000E+00  1.00000000E+00
  0.00000000E+00  0.00000000E+00  1.00000000E+00  0.00000000E+00  0.00000000E+00
  0.00000000E+00  0.00000000E+00  1.00000000E+00  0.00000000E+00  0.00000000E+00
  0.00000000E+00  0.00000000E+00  1.00000000E+00  0.00000000E+00  0.00000000E+00
  0.00000000E+00  0.00000000E+00  1.00000000E+00  0.00000000E+00  0.00000000E+00
  0.00000000E+00  0.00000000E+00  1.00000000E+00  0.00000000E+00  0.00000000E+00
  0.00000000E+00  0.00000000E+00  1.00000000E+00  0.00000000E+00  0.00000000E+00
  0.00000000E+00  0.00000000E+00  0.00000000E+00  1.00000000E+00  1.00000000E+00
  0.00000000E+00  1.00000000E+00  0.00000000E+00  0.00000000E+00  0.00000000E+00
  0.00000000E+00  0.00000000E+00  0.00000000E+00  0.00000000E+00  0.00000000E+00
  0.00000000E+00  0.00000000E+00
MxBond                                     I                2
NBond                                      I   N=           5
           1           2           2           2           1
IBond                                      I   N=          10
           2           0           1           3           2           4
           3           5           4           0
RBond                                      R   N=          10
  1.00000000E+00  0.00000000E+00  1.00000000E+00  1.00000000E+00  1.00000000E+00
  1.00000000E+00  1.00000000E+00  2.00000000E+00  2.00000000E+00  0.00000000E+00
Virial Ratio                               R      2.002381654813396E+00
SCF Energy                                 R     -2.795045276728932E+02
MP2 Energy                                 R     -2.804551127209472E+02
Total Energy                               R     -2.804551127209472E+02
Post-SCF wavefunction norm                 R      1.584754479366010E+00
RMS Force                                  R      4.566621001810528E-03
RMS Density                                R      5.099760666340901E-09
NImag                                      I                0
Job Status                                 I                1
Nuclear derivative order                   I                2
External E-field                           R   N=          35
  0.00000000E+00  0.00000000E+00  0.00000000E+00  0.00000000E+00  0.00000000E+00
  0.00000000E+00  0.00000000E+00  0.00000000E+00  0.00000000E+00  0.00000000E+00
  0.00000000E+00  0.00000000E+00  0.00000000E+00  0.00000000E+00  0.00000000E+00
  0.00000000E+00  0.00000000E+00  0.00000000E+00  0.00000000E+00  0.00000000E+00
  0.00000000E+00  0.00000000E+00  0.00000000E+00  0.00000000E+00  0.00000000E+00
  0.00000000E+00  0.00000000E+00  0.00000000E+00  0.00000000E+00  0.00000000E+00
  0.00000000E+00  0.00000000E+00  0.00000000E+00  0.00000000E+00  0.00000000E+00
IOpCl                                      I                0
IROHF                                      I                0
Alpha Orbital Energies                     R   N=         207
 -2.07221439E+01 -2.06867381E+01 -2.06691924E+01 -1.58276918E+01 -1.63880425E+00
 -1.50256519E+00 -1.29478736E+00 -9.61907329E-01 -8.32562695E-01 -7.56782306E-01
 -7.38498227E-01 -6.37289545E-01 -6.18532533E-01 -6.15984883E-01 -5.06536032E-01
 -4.98161546E-01  3.51319897E-02  5.70732598E-02  9.50437720E-02  1.00317467E-01
  1.19950780E-01  1.22503102E-01  1.49325008E-01  1.52016953E-01  1.77227577E-01
  1.80417042E-01  1.89763780E-01  2.11010541E-01  2.16651871E-01  2.41553358E-01
  2.46166267E-01  2.68759796E-01  3.12606091E-01  3.16897716E-01  3.38064846E-01
  3.42637421E-01  3.46085494E-01  3.92167665E-01  4.49149113E-01  4.87999946E-01
  5.05008931E-01  5.17732026E-01  5.44539480E-01  5.61572945E-01  5.95239857E-01
  6.18497111E-01  6.37293719E-01  6.91126572E-01  7.17308388E-01  7.23880859E-01
  7.41360317E-01  7.64269662E-01  7.67378317E-01  7.95427836E-01  8.05702666E-01
  8.38522947E-01  8.42538040E-01  8.51431712E-01  8.84187544E-01  9.07221751E-01
  9.29795556E-01  9.45704047E-01  9.54228168E-01  1.01799634E+00  1.03252541E+00
  1.06332305E+00  1.06585343E+00  1.09497746E+00  1.14412484E+00  1.15638550E+00
  1.16794188E+00  1.22134967E+00  1.22693567E+00  1.24530635E+00  1.35455331E+00
  1.36089667E+00  1.37027087E+00  1.46820828E+00  1.48472380E+00  1.50460162E+00
  1.54276235E+00  1.59616411E+00  1.59684854E+00  1.60430467E+00  1.62790962E+00
  1.69357788E+00  1.74041299E+00  1.79921533E+00  1.82978059E+00  1.88515632E+00
  1.89491586E+00  1.93081255E+00  1.97822951E+00  1.98928993E+00  2.05454367E+00
  2.12162712E+00  2.12987867E+00  2.16509122E+00  2.18881461E+00  2.24329859E+00
  2.25997486E+00  2.29352753E+00  2.35167456E+00  2.36537830E+00  2.38515075E+00
  2.39878607E+00  2.43234651E+00  2.47044904E+00  2.47869755E+00  2.52997490E+00
  2.53704659E+00  2.54690974E+00  2.55562021E+00  2.61240379E+00  2.62969495E+00
  2.66912144E+00  2.66984092E+00  2.75152256E+00  2.80756150E+00  2.81440792E+00
  2.83927045E+00  2.91783015E+00  2.98205301E+00  3.04280906E+00  3.04933611E+00
  3.11425464E+00  3.11925862E+00  3.17226404E+00  3.21305834E+00  3.30633134E+00
  3.33219521E+00  3.35972972E+00  3.47631886E+00  3.66950133E+00  3.86849254E+00
  3.93114078E+00  4.18409030E+00  4.22099504E+00  4.22251280E+00  4.25100766E+00
  4.36883239E+00  4.49606515E+00  4.52828279E+00  4.54629170E+00  4.59786407E+00
  4.69084095E+00  4.80560555E+00  4.89679231E+00  4.91460056E+00  4.93733246E+00
  5.00032871E+00  5.00624561E+00  5.10465527E+00  5.12589673E+00  5.17908347E+00
  5.24111500E+00  5.25702527E+00  5.31539894E+00  5.34318790E+00  5.35721739E+00
  5.55487067E+00  5.62979788E+00  5.70043949E+00  5.89274157E+00  5.98893697E+00
  6.26337087E+00  6.29403586E+00  6.35904276E+00  6.37517232E+00  6.59680100E+00
  6.65780093E+00  6.65818005E+00  6.68822176E+00  6.72212213E+00  6.80073969E+00
  6.80382496E+00  6.84372301E+00  6.96453824E+00  7.02027505E+00  7.06515614E+00
  7.07780258E+00  7.13355029E+00  7.16985955E+00  7.17082218E+00  7.20001250E+00
  7.23426771E+00  7.24561124E+00  7.26103384E+00  7.34565145E+00  7.38657714E+00
  7.42396396E+00  7.43893966E+00  7.45323110E+00  7.54305613E+00  7.66212946E+00
  7.66317281E+00  7.79000591E+00  7.88034181E+00  7.94789676E+00  8.05359443E+00
  8.30610702E+00  8.49941761E+00  8.64775328E+00  1.35960656E+01  1.46842125E+01
  1.50672598E+01  1.55344714E+01
Alpha MO coefficients                      R   N=       42849
  6.47138928E-05 -1.71349521E-05 -1.14441640E-03  1.07835349E-05 -5.15148963E-05
  4.21742957E-05  0.00000000E+00 -9.09158517E-05 -2.89735509E-04  0.00000000E+00
  1.71720342E-06 -3.57096381E-04  0.00000000E+00  4.20687847E-05  0.00000000E+00
  0.00000000E+00 -2.46203581E-05  1.30331338E-05  2.31567003E-04  0.00000000E+00
  0.00000000E+00 -4.03205176E-05 -2.13280900E-04  2.98812389E-03 -9.33719782E-05
 -1.03057246E-04  3.55022398E-03  2.49877331E-03  1.02755822E-04 -5.31436963E-05
  0.00000000E+00 -7.29599293E-04  2.85349698E-04  0.00000000E+00 -1.97063091E-03
  1.11713300E-03  0.00000000E+00 -5.40030724E-04  3.80161828E-05  0.00000000E+00
  2.04644841E-05  0.00000000E+00  0.00000000E+00 -8.87412332E-06  4.41138964E-05
 -4.43177491E-04  0.00000000E+00  0.00000000E+00  4.27232642E-04 -6.62311133E-04
 -3.62005065E-04  0.00000000E+00  0.00000000E+00  5.42257442E-04 -7.48361331E-04
  0.00000000E+00  7.41073556E-05 -5.24520406E-05  0.00000000E+00  0.00000000E+00
 -2.70105125E-05  1.07990208E-04  0.00000000E+00  2.07158492E-04 -5.10660777E-05
  0.00000000E+00  0.00000000E+00 -1.69753295E-04  3.00391988E-04  9.76907215E-01
 -9.17239473E-03  4.34021777E-02  4.65971607E-04 -2.22591341E-03  4.41356587E-04
 -2.15519324E-03  0.00000000E+00 -3.09568862E-04  2.26081044E-03  0.00000000E+00
 -2.30937433E-03 -4.80787106E-04  0.00000000E+00 -2.24108986E-04  1.00404113E-04
  0.00000000E+00  6.70810627E-06  0.00000000E+00  0.00000000E+00 -3.98811723E-06
  3.69717438E-05  8.27864944E-04  0.00000000E+00  0.00000000E+00 -4.75291116E-04
 -1.73804133E-04 -1.38680625E-04  0.00000000E+00  0.00000000E+00 -5.54840944E-04
  3.55150918E-04  0.00000000E+00 -6.89023570E-06 -7.96026916E-05  0.00000000E+00
  0.00000000E+00 -9.11459790E-06  4.83733722E-05  0.00000000E+00  9.23669313E-05
  8.82034768E-07  0.00000000E+00  0.00000000E+00 -3.35094204E-04  3.81745191E-04
  1.06551641E-04  4.70387809E-04 -3.24157451E-04 -7.63019227E-04  3.77673147E-04
 -4.46327136E-05 -1.00217081E-04  0.00000000E+00  7.04419565E-04  1.10092490E-03
  0.00000000E+00 -7.44135610E-04 -6.52106527E-04  0.00000000E+00  1.96812923E-04
  2.08015635E-04  0.00000000E+00 -5.29966284E-05  0.00000000E+00  0.00000000E+00
  1.90608062E-05  9.25488290E-05 -4.18299746E-04  0.00000000E+00  0.00000000E+00
  3.59511080E-05  1.08264821E-03  2.26122584E-05  0.00000000E+00  0.00000000E+00
 -3.18387242E-04  3.30988565E-05  0.00000000E+00 -7.88128973E-05 -1.13622077E-04
  0.00000000E+00  0.00000000E+00 -9.73395090E-05  1.07839615E-04  0.00000000E+00
 -1.24979580E-04  4.43890182E-05  0.00000000E+00  0.00000000E+00  1.16600476E-05
  5.22499475E-04 -6.40236340E-04  4.06511958E-05 -6.76071008E-05  1.83875809E-04
 -1.98327164E-04 -2.95395470E-05 -4.10782848E-05  0.00000000E+00  1.69771398E-04
  2.44444096E-04  0.00000000E+00  5.44657322E-04  2.98803003E-04  0.00000000E+00
 -2.12512872E-04 -6.53344887E-05  0.00000000E+00 -1.25067781E-05  0.00000000E+00
  0.00000000E+00  3.74880924E-06  1.39715787E-05 -3.03592984E-06  0.00000000E+00
  0.00000000E+00 -1.63110584E-04  1.90576936E-05 -1.94828374E-05  0.00000000E+00
  0.00000000E+00 -1.63176118E-04 -3.26046721E-05  0.00000000E+00 -6.63329923E-06
 -9.52308720E-06  0.00000000E+00  0.00000000E+00 -2.26410017E-05  8.75322713E-06
  0.00000000E+00  3.93366711E-05  6.04836597E-05  0.00000000E+00  0.00000000E+00
  1.52830176E-04 -1.04970756E-04  4.06926878E-05  6.47989434E-05 -1.38923983E-04
 -3.40786213E-05  1.78537425E-05  1.13249281E-05  0.00000000E+00  2.41081707E-04
  6.74322894E-05  0.00000000E+00  1.30457055E-04  2.28323136E-05  0.00000000E+00
  1.30039607E-05  0.00000000E+00  0.00000000E+00 -1.32188659E-05  1.60130419E-05
  2.49526580E-05  0.00000000E+00  0.00000000E+00 -1.05023998E-04  6.23737310E-05
 -2.85232003E-04  2.86409171E-05 -1.76659991E-05 -5.65755577E-04  1.70077606E-04
  8.60185616E-06  1.32973164E-05  0.00000000E+00 -6.51587120E-06 -3.85422068E-05
  0.00000000E+00  2.04775668E-04  1.34072114E-04  0.00000000E+00 -4.79552538E-05
  4.65825740E-05  0.00000000E+00 -1.45943764E-06  0.00000000E+00  0.00000000E+00
 -8.58111372E-06 -1.17704623E-05  2.04177018E-05  0.00000000E+00  0.00000000E+00
  5.46452323E-05  1.07142777E-04  6.11175817E-05  0.00000000E+00  0.00000000E+00
 -3.88833918E-05 -8.56774961E-05  0.00000000E+00  8.15550905E-06  9.87510086E-06
  0.00000000E+00  0.00000000E+00 -1.46677378E-06 -2.47693214E-05  0.00000000E+00
 -1.42432548E-05 -3.49412805E-05  0.00000000E+00  0.00000000E+00 -4.27664555E-06
 -1.71413250E-05  6.67602915E-04  2.46717919E-05 -2.06429534E-05  2.47293033E-04
 -4.51683910E-04  1.51529228E-05  2.78449007E-05  0.00000000E+00 -5.93888517E-05
 -1.54179805E-04  0.00000000E+00  2.15437541E-04 -2.10291126E-04  0.00000000E+00
 -1.49103079E-04  1.51359937E-04  0.00000000E+00 -4.19347118E-06  0.00000000E+00
  0.00000000E+00 -2.67903100E-05 -1.03170425E-05 -4.88490519E-05  0.00000000E+00
  0.00000000E+00  6.11102145E-05  1.20952978E-04 -5.67832313E-05  0.00000000E+00
  0.00000000E+00  1.63257622E-05  1.27938576E-05  0.00000000E+00  2.72008865E-06
  3.80559100E-06  0.00000000E+00  0.00000000E+00 -8.08113943E-06 -4.93989266E-07
  0.00000000E+00  2.02625359E-06 -2.60501654E-05  0.00000000E+00  0.00000000E+00
  1.03378874E-04 -1.43479585E-04  2.33322124E-04  1.32749717E-03 -1.86199664E-04
 -4.55214485E-04  9.96795232E-04  5.54431092E-05 -4.91100895E-05  0.00000000E+00
  5.68168533E-04 -2.08881148E-03  0.00000000E+00  1.63461984E-04  4.53102585E-04
  0.00000000E+00  1.98712203E-04 -3.16631068E-04  0.00000000E+00 -1.27727536E-04
  0.00000000E+00  0.00000000E+00 -2.01452364E-04 -1.58063435E-04 -4.87270299E-04
  0.00000000E+00  0.00000000E+00 -6.61932400E-04 -9.30786475E-04 -6.19127455E-05
  0.00000000E+00  0.00000000E+00  2.78564704E-05  1.11129811E-04  0.00000000E+00
  4.09280693E-06  5.08382504E-05  0.00000000E+00  0.00000000E+00 -4.24520296E-05
  7.32592314E-06  0.00000000E+00 -1.38460773E-04  1.59008331E-04  0.00000000E+00
  0.00000000E+00 -3.40324421E-04 -3.64783865E-05  9.76663050E-01 -9.88819159E-03
  4.35494201E-02  3.54969824E-03 -9.58285035E-04 -4.42021923E-04  2.12242968E-03
  0.00000000E+00  5.21193945E-04 -2.53311090E-03  0.00000000E+00 -4.30245791E-05
  7.81900681E-04  0.00000000E+00  1.10056782E-04 -7.21226839E-05  0.00000000E+00
 -1.86649006E-04  0.00000000E+00  0.00000000E+00 -6.63333734E-05 -3.72916688E-05
  4.12940264E-04  0.00000000E+00  0.00000000E+00  8.68561555E-04  4.93698125E-04
 -2.13417318E-04  0.00000000E+00  0.00000000E+00 -1.45325931E-04 -3.53478917E-05
  0.00000000E+00 -6.45280755E-06  7.49566754E-05  0.00000000E+00  0.00000000E+00
 -3.44217470E-05  1.31438679E-05  0.00000000E+00 -8.78450726E-05  8.48856534E-05
  0.00000000E+00  0.00000000E+00 -1.65178819E-04  2.03878830E-04  3.74886127E-04
  1.98639855E-03  1.36052653E-03 -1.75513377E-05  5.05144507E-05  2.67527892E-04
  0.00000000E+00  3.86135804E-04  1.02516117E-03  0.00000000E+00 -1.24851500E-04
  2.30977412E-04  0.00000000E+00 -2.33422982E-05  0.00000000E+00  0.00000000E+00
  3.28128406E-05 -2.87818627E-05 -2.16651595E-04  0.00000000E+00  0.00000000E+00
 -3.49898220E-04  4.08127470E-04  9.76834691E-01 -9.18760932E-03  4.34653018E-02
  1.35251837E-04 -1.89037216E-03 -2.04551598E-03 -8.30490780E-04  0.00000000E+00
  2.08276501E-03  7.65972696E-04  0.00000000E+00 -3.98719707E-04  6.43811491E-04
  0.00000000E+00  2.20822061E-04 -2.98897700E-04  0.00000000E+00  3.07960832E-05
  0.00000000E+00  0.00000000E+00 -7.47766671E-05  6.36243051E-05  7.65759898E-04
  0.00000000E+00  0.00000000E+00 -2.10242157E-04  3.56192535E-04 -2.37872040E-04
  0.00000000E+00  0.00000000E+00  3.33401922E-04 -2.15487612E-07  0.00000000E+00
 -8.05685270E-05  2.02695450E-06  0.00000000E+00  0.00000000E+00  1.59863706E-05