 Entering Gaussian System, Link 0=g16
 Input=hoono_r3_1p437917.gjf
 Output=hoono_r3_1p437917.log
 Initial command:
 /sw/contrib/gaussian/g16/B01/g16/l1.exe "/scr/Gau-4186.inp" -scrdir="/scr/"
 Entering Link 1 = /sw/contrib/gaussian/g16/B01/g16/l1.exe PID=      4187.
  
 Copyright (c) 1988-2017, Gaussian, Inc.  All Rights Reserved.
  
 This is part of the Gaussian(R) 16 program.  It is based on
 the Gaussian(R) 09 system (copyright 2009, Gaussian, Inc.),
 the Gaussian(R) 03 system (copyright 2003, Gaussian, Inc.),
 the Gaussian(R) 98 system (copyright 1998, Gaussian, Inc.),
 the Gaussian(R) 94 system (copyright 1995, Gaussian, Inc.),
 the Gaussian 92(TM) system (copyright 1992, Gaussian, Inc.),
 the Gaussian 90(TM) system (copyright 1990, Gaussian, Inc.),
 the Gaussian 88(TM) system (copyright 1988, Gaussian, Inc.),
 the Gaussian 86(TM) system (copyright 1986, Carnegie Mellon
 University), and the Gaussian 82(TM) system (copyright 1983,
 Carnegie Mellon University). Gaussian is a federally registered
 trademark of Gaussian, Inc.
  
 This software contains proprietary and confidential information,
 including trade secrets, belonging to Gaussian, Inc.
  
 This software is provided under written license and may be
 used, copied, transmitted, or stored only in accord with that
 written license.
  
 The following legend is applicable only to US Government
 contracts under FAR:
  
                    RESTRICTED RIGHTS LEGEND
  
 Use, reproduction and disclosure by the US Government is
 subject to restrictions as set forth in subparagraphs (a)
 and (c) of the Commercial Computer Software - Restricted
 Rights clause in FAR 52.227-19.
  
 Gaussian, Inc.
 340 Quinnipiac St., Bldg. 40, Wallingford CT 06492
  
  
 ---------------------------------------------------------------
 Warning -- This program may not be used in any manner that
 competes with the business of Gaussian, Inc. or will provide
 assistance to any competitor of Gaussian, Inc.  The licensee
 of this program is prohibited from giving any competitor of
 Gaussian, Inc. access to this program.  By using this program,
 the user acknowledges that Gaussian, Inc. is engaged in the
 business of creating and licensing software in the field of
 computational chemistry and represents and warrants to the
 licensee that it is not a competitor of Gaussian, Inc. and that
 it will not use this program in any manner prohibited above.
 ---------------------------------------------------------------
  

 Cite this work as:
 Gaussian 16, Revision B.01,
 M. J. Frisch, G. W. Trucks, H. B. Schlegel, G. E. Scuseria, 
 M. A. Robb, J. R. Cheeseman, G. Scalmani, V. Barone, 
 G. A. Petersson, H. Nakatsuji, X. Li, M. Caricato, A. V. Marenich, 
 J. Bloino, B. G. Janesko, R. Gomperts, B. Mennucci, H. P. Hratchian, 
 J. V. Ortiz, A. F. Izmaylov, J. L. Sonnenberg, D. Williams-Young, 
 F. Ding, F. Lipparini, F. Egidi, J. Goings, B. Peng, A. Petrone, 
 T. Henderson, D. Ranasinghe, V. G. Zakrzewski, J. Gao, N. Rega, 
 G. Zheng, W. Liang, M. Hada, M. Ehara, K. Toyota, R. Fukuda, 
 J. Hasegawa, M. Ishida, T. Nakajima, Y. Honda, O. Kitao, H. Nakai, 
 T. Vreven, K. Throssell, J. A. Montgomery, Jr., J. E. Peralta, 
 F. Ogliaro, M. J. Bearpark, J. J. Heyd, E. N. Brothers, K. N. Kudin, 
 V. N. Staroverov, T. A. Keith, R. Kobayashi, J. Normand, 
 K. Raghavachari, A. P. Rendell, J. C. Burant, S. S. Iyengar, 
 J. Tomasi, M. Cossi, J. M. Millam, M. Klene, C. Adamo, R. Cammi, 
 J. W. Ochterski, R. L. Martin, K. Morokuma, O. Farkas, 
 J. B. Foresman, and D. J. Fox, Gaussian, Inc., Wallingford CT, 2016.
 
 ******************************************
 Gaussian 16:  ES64L-G16RevB.01 20-Dec-2017
                21-Feb-2022 
 ******************************************
 %nproc=28
 Will use up to   28 processors via shared memory.
 %mem=120GB
 %chk=hoono_r3_1p437917.chk
 ---------------------------------------
 #p freq mp2/aug-cc-pvtz density=current
 ---------------------------------------
 1/10=4,30=1,38=1/1,3;
 2/12=2,17=6,18=5,40=1/2;
 3/5=16,6=1,7=10,11=9,25=1,30=1,71=2,140=1/1,2,3;
 4//1;
 5/5=2,38=5,98=1/2;
 8/6=3,8=1,10=1,19=11,30=-1/1;
 9/15=3,16=-3/6;
 11/6=1,8=1,15=11,17=12,24=-1,27=1,28=-2,29=300,32=6,42=3/1,2,10;
 10/6=2,21=1/2;
 8/6=4,8=1,10=1,19=11,30=-1/11,4;
 10/5=1,20=4/2;
 11/12=2,14=11,16=1,17=2,28=-2,42=3,76=2/2,10,12;
 6/7=2,8=2,9=2,10=2,22=-1/1;
 7/8=1,10=1,12=2,25=1,44=2/1,2,3,16;
 1/10=4,30=1/3;
 99//99;
 Leave Link    1 at Mon Feb 21 20:19:43 2022, MaxMem= 16106127360 cpu:               3.8 elap:               0.1
 (Enter /sw/contrib/gaussian/g16/B01/g16/l101.exe)
 -----
 title
 -----
 Symbolic Z-matrix:
 Charge =  0 Multiplicity = 1
 H
 O                    1    r1
 O                    2    r2       1    a1
 N                    3    r3       2    a2       1    d1       0
 O                    4    r4       3    a3       2    d2       0
       Variables:
  r1                    0.96898                  
  r2                    1.45492                  
  r3                    1.43792                  
  r4                    1.17073                  
  a1                   97.59495                  
  a2                  102.29752                  
  a3                  109.06955                  
  d1                  180.                       
  d2                  180.                       
 
 ITRead=  0  0  0  0  0
 MicOpt= -1 -1 -1 -1 -1
 NAtoms=      5 NQM=        5 NQMF=       0 NMMI=      0 NMMIF=      0
                NMic=       0 NMicF=      0.
                    Isotopes and Nuclear Properties:
 (Nuclear quadrupole moments (NQMom) in fm**2, nuclear magnetic moments (NMagM)
  in nuclear magnetons)

  Atom         1           2           3           4           5
 IAtWgt=           1          16          16          14          16
 AtmWgt=   1.0078250  15.9949146  15.9949146  14.0030740  15.9949146
 NucSpn=           1           0           0           2           0
 AtZEff=  -0.0000000  -0.0000000  -0.0000000  -0.0000000  -0.0000000
 NQMom=    0.0000000   0.0000000   0.0000000   2.0440000   0.0000000
 NMagM=    2.7928460   0.0000000   0.0000000   0.4037610   0.0000000
 AtZNuc=   1.0000000   8.0000000   8.0000000   7.0000000   8.0000000
 Leave Link  101 at Mon Feb 21 20:19:43 2022, MaxMem= 16106127360 cpu:               3.0 elap:               0.1
 (Enter /sw/contrib/gaussian/g16/B01/g16/l103.exe)

 GradGradGradGradGradGradGradGradGradGradGradGradGradGradGradGradGradGrad
 Berny optimization.
 Initialization pass.
                       ----------------------------
                       !    Initial Parameters    !
                       ! (Angstroms and Degrees)  !
 ----------------------                            ----------------------
 !      Name          Value   Derivative information (Atomic Units)     !
 ------------------------------------------------------------------------
 !       r1          0.969    calculate D2E/DX2 analytically            !
 !       r2          1.4549   calculate D2E/DX2 analytically            !
 !       r3          1.4379   calculate D2E/DX2 analytically            !
 !       r4          1.1707   calculate D2E/DX2 analytically            !
 !       a1         97.5949   calculate D2E/DX2 analytically            !
 !       a2        102.2975   calculate D2E/DX2 analytically            !
 !       a3        109.0696   calculate D2E/DX2 analytically            !
 !       d1        180.0      calculate D2E/DX2 analytically            !
 !       d2        180.0      calculate D2E/DX2 analytically            !
 ------------------------------------------------------------------------
 Trust Radius=3.00D-01 FncErr=1.00D-07 GrdErr=1.00D-07 EigMax=2.50D+02 EigMin=1.00D-04
 Number of steps in this run=      2 maximum allowed number of steps=      2.
 GradGradGradGradGradGradGradGradGradGradGradGradGradGradGradGradGradGrad

 Leave Link  103 at Mon Feb 21 20:19:43 2022, MaxMem= 16106127360 cpu:               0.8 elap:               0.1
 (Enter /sw/contrib/gaussian/g16/B01/g16/l202.exe)
                          Input orientation:                          
 ---------------------------------------------------------------------
 Center     Atomic      Atomic             Coordinates (Angstroms)
 Number     Number       Type             X           Y           Z
 ---------------------------------------------------------------------
      1          1           0        0.000000    0.000000    0.000000
      2          8           0        0.000000    0.000000    0.968976
      3          8           0        1.442156    0.000000    1.161271
      4          7           0        1.560041    0.000000    2.594347
      5          8           0        2.694157    0.000000    2.884842
 ---------------------------------------------------------------------
                    Distance matrix (angstroms):
                    1          2          3          4          5
     1  H    0.000000
     2  O    0.968976   0.000000
     3  O    1.851584   1.454919   0.000000
     4  N    3.027270   2.252901   1.437917   0.000000
     5  O    3.947252   3.305908   2.130306   1.170729   0.000000
 Stoichiometry    HNO3
 Framework group  CS[SG(HNO3)]
 Deg. of freedom     7
 Full point group                 CS      NOp   2
 Largest Abelian subgroup         CS      NOp   2
 Largest concise Abelian subgroup C1      NOp   1
                         Standard orientation:                         
 ---------------------------------------------------------------------
 Center     Atomic      Atomic             Coordinates (Angstroms)
 Number     Number       Type             X           Y           Z
 ---------------------------------------------------------------------
      1          1           0        1.551788    1.673495    0.000000
      2          8           0        1.454190    0.709447   -0.000000
      3          8           0       -0.000000    0.663389    0.000000
      4          7           0       -0.261630   -0.750526   -0.000000
      5          8           0       -1.419238   -0.925312    0.000000
 ---------------------------------------------------------------------
 Rotational constants (GHZ):          55.8626180           5.0642656           4.6433219
 Leave Link  202 at Mon Feb 21 20:19:43 2022, MaxMem= 16106127360 cpu:               0.5 elap:               0.0
 (Enter /sw/contrib/gaussian/g16/B01/g16/l301.exe)
 Standard basis: Aug-CC-pVTZ (5D, 7F)
 Ernie: Thresh=  0.10000D-02 Tol=  0.10000D-05 Strict=F.
 Ernie:  12 primitive shells out of 131 were deleted.
 There are   166 symmetry adapted cartesian basis functions of A'  symmetry.
 There are    79 symmetry adapted cartesian basis functions of A"  symmetry.
 There are   136 symmetry adapted basis functions of A'  symmetry.
 There are    71 symmetry adapted basis functions of A"  symmetry.
   207 basis functions,   315 primitive gaussians,   245 cartesian basis functions
    16 alpha electrons       16 beta electrons
       nuclear repulsion energy       117.4466097368 Hartrees.
 IExCor=    0 DFT=F Ex=HF Corr=None ExCW=0 ScaHFX=  1.000000
 ScaDFX=  1.000000  1.000000  1.000000  1.000000 ScalE2=  1.000000  1.000000
 IRadAn=      5 IRanWt=     -1 IRanGd=            0 ICorTp=0 IEmpDi=  4
 NAtoms=    5 NActive=    5 NUniq=    5 SFac= 1.00D+00 NAtFMM=   60 NAOKFM=F Big=F
 Integral buffers will be    131072 words long.
 Raffenetti 1 integral format.
 Two-electron integral symmetry is turned on.
 Leave Link  301 at Mon Feb 21 20:19:44 2022, MaxMem= 16106127360 cpu:               2.0 elap:               0.1
 (Enter /sw/contrib/gaussian/g16/B01/g16/l302.exe)
 NPDir=0 NMtPBC=     1 NCelOv=     1 NCel=       1 NClECP=     1 NCelD=      1
         NCelK=      1 NCelE2=     1 NClLst=     1 CellRange=     0.0.
 One-electron integrals computed using PRISM.
 One-electron integral symmetry used in STVInt
 NBasis=   207 RedAO= T EigKep=  1.79D-04  NBF=   136    71
 NBsUse=   207 1.00D-06 EigRej= -1.00D+00 NBFU=   136    71
 Leave Link  302 at Mon Feb 21 20:19:44 2022, MaxMem= 16106127360 cpu:               6.5 elap:               0.3
 (Enter /sw/contrib/gaussian/g16/B01/g16/l303.exe)
 DipDrv:  MaxL=1.
 Leave Link  303 at Mon Feb 21 20:19:44 2022, MaxMem= 16106127360 cpu:               1.4 elap:               0.1
 (Enter /sw/contrib/gaussian/g16/B01/g16/l401.exe)
 ExpMin= 2.53D-02 ExpMax= 1.53D+04 ExpMxC= 5.22D+02 IAcc=3 IRadAn=         5 AccDes= 0.00D+00
 Harris functional with IExCor=  205 and IRadAn=       5 diagonalized for initial guess.
 HarFok:  IExCor=  205 AccDes= 0.00D+00 IRadAn=         5 IDoV= 1 UseB2=F ITyADJ=14
 ICtDFT=  3500011 ScaDFX=  1.000000  1.000000  1.000000  1.000000
 FoFCou: FMM=F IPFlag=           0 FMFlag=      100000 FMFlg1=           0
         NFxFlg=           0 DoJE=T BraDBF=F KetDBF=T FulRan=T
         wScrn=  0.000000 ICntrl=       500 IOpCl=  0 I1Cent=   200000004 NGrid=           0
         NMat0=    1 NMatS0=      1 NMatT0=    0 NMatD0=    1 NMtDS0=    0 NMtDT0=    0
 Petite list used in FoFCou.
 Harris En= -279.629471396836    
 JPrj=0 DoOrth=F DoCkMO=F.
 Initial guess orbital symmetries:
       Occupied  (A') (A') (A') (A') (A') (A') (A') (A') (A') (A')
                 (A") (A') (A') (A") (A") (A')
       Virtual   (A") (A') (A') (A') (A') (A') (A") (A') (A') (A')
                 (A") (A') (A") (A') (A') (A") (A') (A") (A') (A')
                 (A') (A') (A') (A') (A') (A") (A') (A") (A') (A')
                 (A") (A') (A") (A') (A') (A") (A') (A") (A') (A')
                 (A") (A') (A") (A') (A") (A') (A') (A') (A") (A")
                 (A') (A') (A') (A') (A") (A') (A") (A') (A") (A')
                 (A') (A') (A") (A') (A') (A") (A') (A") (A') (A')
                 (A") (A') (A') (A") (A") (A') (A') (A") (A') (A')
                 (A') (A") (A') (A") (A') (A") (A') (A") (A') (A')
                 (A') (A") (A') (A") (A') (A") (A") (A') (A") (A')
                 (A') (A') (A") (A') (A') (A') (A") (A') (A") (A')
                 (A") (A') (A') (A') (A") (A') (A') (A') (A") (A')
                 (A") (A') (A') (A") (A") (A') (A') (A") (A") (A')
                 (A') (A') (A') (A") (A") (A') (A") (A') (A') (A')
                 (A') (A") (A") (A') (A') (A") (A') (A') (A') (A')
                 (A") (A') (A') (A") (A') (A") (A') (A") (A') (A")
                 (A') (A") (A') (A") (A') (A") (A") (A") (A') (A')
                 (A") (A') (A") (A') (A") (A') (A") (A") (A') (A')
                 (A') (A') (A') (A') (A') (A') (A') (A') (A') (A')
                 (A')
 The electronic state of the initial guess is 1-A'.
 Leave Link  401 at Mon Feb 21 20:19:44 2022, MaxMem= 16106127360 cpu:               7.2 elap:               0.3
 (Enter /sw/contrib/gaussian/g16/B01/g16/l502.exe)
 Keep R1 ints in memory in symmetry-blocked form, NReq=348887737.
 FoFCou: FMM=F IPFlag=           0 FMFlag=           0 FMFlg1=           0
         NFxFlg=           0 DoJE=F BraDBF=F KetDBF=F FulRan=T
         wScrn=  0.000000 ICntrl=       600 IOpCl=  0 I1Cent=           0 NGrid=           0
         NMat0=    1 NMatS0=  21528 NMatT0=    0 NMatD0=    1 NMtDS0=    0 NMtDT0=    0
 Petite list used in FoFCou.
 Closed shell SCF:
 Using DIIS extrapolation, IDIIS=  1040.
 NGot= 16106127360 LenX= 15988850015 LenY= 15988789549
 Requested convergence on RMS density matrix=1.00D-08 within 128 cycles.
 Requested convergence on MAX density matrix=1.00D-06.
 Requested convergence on             energy=1.00D-06.
 No special actions if energy rises.

 Cycle   1  Pass 1  IDiag  1:
 E= -279.370025808208    
 DIIS: error= 2.59D-02 at cycle   1 NSaved=   1.
 NSaved= 1 IEnMin= 1 EnMin= -279.370025808208     IErMin= 1 ErrMin= 2.59D-02
 ErrMax= 2.59D-02  0.00D+00 EMaxC= 1.00D-01 BMatC= 4.42D-01 BMatP= 4.42D-01
 IDIUse=3 WtCom= 7.41D-01 WtEn= 2.59D-01
 Coeff-Com:  0.100D+01
 Coeff-En:   0.100D+01
 Coeff:      0.100D+01
 Gap=     0.521 Goal=   None    Shift=    0.000
 GapD=    0.521 DampG=2.000 DampE=0.500 DampFc=1.0000 IDamp=-1.
 RMSDP=1.64D-03 MaxDP=9.76D-02              OVMax= 1.17D-01

 Cycle   2  Pass 1  IDiag  1:
 E= -279.451696492561     Delta-E=       -0.081670684354 Rises=F Damp=F
 DIIS: error= 1.79D-02 at cycle   2 NSaved=   2.
 NSaved= 2 IEnMin= 2 EnMin= -279.451696492561     IErMin= 2 ErrMin= 1.79D-02
 ErrMax= 1.79D-02  0.00D+00 EMaxC= 1.00D-01 BMatC= 7.61D-02 BMatP= 4.42D-01
 IDIUse=3 WtCom= 8.21D-01 WtEn= 1.79D-01
 Coeff-Com:  0.202D+00 0.798D+00
 Coeff-En:   0.217D-01 0.978D+00
 Coeff:      0.170D+00 0.830D+00
 Gap=     0.533 Goal=   None    Shift=    0.000
 RMSDP=9.17D-04 MaxDP=3.79D-02 DE=-8.17D-02 OVMax= 6.73D-02

 Cycle   3  Pass 1  IDiag  1:
 E= -279.483320238419     Delta-E=       -0.031623745858 Rises=F Damp=F
 DIIS: error= 9.90D-03 at cycle   3 NSaved=   3.
 NSaved= 3 IEnMin= 3 EnMin= -279.483320238419     IErMin= 3 ErrMin= 9.90D-03
 ErrMax= 9.90D-03  0.00D+00 EMaxC= 1.00D-01 BMatC= 2.89D-02 BMatP= 7.61D-02
 IDIUse=3 WtCom= 9.01D-01 WtEn= 9.90D-02
 Coeff-Com: -0.336D-01 0.371D+00 0.662D+00
 Coeff-En:   0.000D+00 0.230D+00 0.770D+00
 Coeff:     -0.303D-01 0.357D+00 0.673D+00
 Gap=     0.510 Goal=   None    Shift=    0.000
 RMSDP=3.78D-04 MaxDP=1.50D-02 DE=-3.16D-02 OVMax= 3.99D-02

 Cycle   4  Pass 1  IDiag  1:
 E= -279.502555664306     Delta-E=       -0.019235425887 Rises=F Damp=F
 DIIS: error= 1.27D-03 at cycle   4 NSaved=   4.
 NSaved= 4 IEnMin= 4 EnMin= -279.502555664306     IErMin= 4 ErrMin= 1.27D-03
 ErrMax= 1.27D-03  0.00D+00 EMaxC= 1.00D-01 BMatC= 4.72D-04 BMatP= 2.89D-02
 IDIUse=3 WtCom= 9.87D-01 WtEn= 1.27D-02
 Coeff-Com: -0.112D-01 0.500D-01 0.149D+00 0.812D+00
 Coeff-En:   0.000D+00 0.000D+00 0.000D+00 0.100D+01
 Coeff:     -0.110D-01 0.493D-01 0.147D+00 0.814D+00
 Gap=     0.502 Goal=   None    Shift=    0.000
 RMSDP=9.00D-05 MaxDP=2.70D-03 DE=-1.92D-02 OVMax= 1.07D-02

 Cycle   5  Pass 1  IDiag  1:
 E= -279.503210588142     Delta-E=       -0.000654923836 Rises=F Damp=F
 DIIS: error= 6.99D-04 at cycle   5 NSaved=   5.
 NSaved= 5 IEnMin= 5 EnMin= -279.503210588142     IErMin= 5 ErrMin= 6.99D-04
 ErrMax= 6.99D-04  0.00D+00 EMaxC= 1.00D-01 BMatC= 8.34D-05 BMatP= 4.72D-04
 IDIUse=3 WtCom= 9.93D-01 WtEn= 6.99D-03
 Coeff-Com:  0.599D-02-0.694D-01-0.114D+00 0.276D-01 0.115D+01
 Coeff-En:   0.000D+00 0.000D+00 0.000D+00 0.000D+00 0.100D+01
 Coeff:      0.595D-02-0.689D-01-0.113D+00 0.274D-01 0.115D+01
 Gap=     0.502 Goal=   None    Shift=    0.000
 RMSDP=7.36D-05 MaxDP=2.05D-03 DE=-6.55D-04 OVMax= 1.08D-02

 Cycle   6  Pass 1  IDiag  1:
 E= -279.503505506324     Delta-E=       -0.000294918182 Rises=F Damp=F
 DIIS: error= 2.85D-04 at cycle   6 NSaved=   6.
 NSaved= 6 IEnMin= 6 EnMin= -279.503505506324     IErMin= 6 ErrMin= 2.85D-04
 ErrMax= 2.85D-04  0.00D+00 EMaxC= 1.00D-01 BMatC= 1.60D-05 BMatP= 8.34D-05
 IDIUse=3 WtCom= 9.97D-01 WtEn= 2.85D-03
 Coeff-Com:  0.534D-03 0.218D-02 0.515D-02-0.135D+00-0.220D+00 0.135D+01
 Coeff-En:   0.000D+00 0.000D+00 0.000D+00 0.000D+00 0.000D+00 0.100D+01
 Coeff:      0.532D-03 0.217D-02 0.514D-02-0.135D+00-0.220D+00 0.135D+01
 Gap=     0.502 Goal=   None    Shift=    0.000
 RMSDP=4.35D-05 MaxDP=1.19D-03 DE=-2.95D-04 OVMax= 5.40D-03

 Cycle   7  Pass 1  IDiag  1:
 E= -279.503573029841     Delta-E=       -0.000067523517 Rises=F Damp=F
 DIIS: error= 1.08D-04 at cycle   7 NSaved=   7.
 NSaved= 7 IEnMin= 7 EnMin= -279.503573029841     IErMin= 7 ErrMin= 1.08D-04
 ErrMax= 1.08D-04  0.00D+00 EMaxC= 1.00D-01 BMatC= 4.02D-06 BMatP= 1.60D-05
 IDIUse=3 WtCom= 9.99D-01 WtEn= 1.08D-03
 Coeff-Com: -0.913D-03 0.127D-01 0.252D-01-0.233D-01-0.270D+00 0.351D+00
 Coeff-Com:  0.906D+00
 Coeff-En:   0.000D+00 0.000D+00 0.000D+00 0.000D+00 0.000D+00 0.000D+00
 Coeff-En:   0.100D+01
 Coeff:     -0.912D-03 0.127D-01 0.251D-01-0.233D-01-0.270D+00 0.350D+00
 Coeff:      0.906D+00
 Gap=     0.502 Goal=   None    Shift=    0.000
 RMSDP=1.27D-05 MaxDP=3.60D-04 DE=-6.75D-05 OVMax= 1.50D-03

 Cycle   8  Pass 1  IDiag  1:
 E= -279.503581099627     Delta-E=       -0.000008069786 Rises=F Damp=F
 DIIS: error= 5.64D-05 at cycle   8 NSaved=   8.
 NSaved= 8 IEnMin= 8 EnMin= -279.503581099627     IErMin= 8 ErrMin= 5.64D-05
 ErrMax= 5.64D-05  0.00D+00 EMaxC= 1.00D-01 BMatC= 5.64D-07 BMatP= 4.02D-06
 IDIUse=1 WtCom= 1.00D+00 WtEn= 0.00D+00
 Coeff-Com: -0.421D-03 0.315D-02 0.710D-02 0.269D-01-0.415D-01-0.193D+00
 Coeff-Com:  0.195D+00 0.100D+01
 Coeff:     -0.421D-03 0.315D-02 0.710D-02 0.269D-01-0.415D-01-0.193D+00
 Coeff:      0.195D+00 0.100D+01
 Gap=     0.502 Goal=   None    Shift=    0.000
 RMSDP=6.33D-06 MaxDP=1.92D-04 DE=-8.07D-06 OVMax= 6.77D-04

 Cycle   9  Pass 1  IDiag  1:
 E= -279.503582673210     Delta-E=       -0.000001573583 Rises=F Damp=F
 DIIS: error= 1.59D-05 at cycle   9 NSaved=   9.
 NSaved= 9 IEnMin= 9 EnMin= -279.503582673210     IErMin= 9 ErrMin= 1.59D-05
 ErrMax= 1.59D-05  0.00D+00 EMaxC= 1.00D-01 BMatC= 6.85D-08 BMatP= 5.64D-07
 IDIUse=1 WtCom= 1.00D+00 WtEn= 0.00D+00
 Coeff-Com:  0.112D-03-0.160D-02-0.286D-02-0.117D-02 0.332D-01-0.440D-02
 Coeff-Com: -0.173D+00-0.690D-01 0.122D+01
 Coeff:      0.112D-03-0.160D-02-0.286D-02-0.117D-02 0.332D-01-0.440D-02
 Coeff:     -0.173D+00-0.690D-01 0.122D+01
 Gap=     0.502 Goal=   None    Shift=    0.000
 RMSDP=1.87D-06 MaxDP=6.44D-05 DE=-1.57D-06 OVMax= 1.74D-04

 Cycle  10  Pass 1  IDiag  1:
 E= -279.503582828100     Delta-E=       -0.000000154889 Rises=F Damp=F
 DIIS: error= 4.19D-06 at cycle  10 NSaved=  10.
 NSaved=10 IEnMin=10 EnMin= -279.503582828100     IErMin=10 ErrMin= 4.19D-06
 ErrMax= 4.19D-06  0.00D+00 EMaxC= 1.00D-01 BMatC= 5.67D-09 BMatP= 6.85D-08
 IDIUse=1 WtCom= 1.00D+00 WtEn= 0.00D+00
 Coeff-Com:  0.332D-04-0.263D-03-0.373D-03-0.286D-02 0.229D-02 0.207D-01
 Coeff-Com: -0.184D-01-0.777D-01-0.704D-01 0.115D+01
 Coeff:      0.332D-04-0.263D-03-0.373D-03-0.286D-02 0.229D-02 0.207D-01
 Coeff:     -0.184D-01-0.777D-01-0.704D-01 0.115D+01
 Gap=     0.502 Goal=   None    Shift=    0.000
 RMSDP=5.14D-07 MaxDP=2.14D-05 DE=-1.55D-07 OVMax= 4.43D-05

 Cycle  11  Pass 1  IDiag  1:
 E= -279.503582841154     Delta-E=       -0.000000013054 Rises=F Damp=F
 DIIS: error= 2.02D-06 at cycle  11 NSaved=  11.
 NSaved=11 IEnMin=11 EnMin= -279.503582841154     IErMin=11 ErrMin= 2.02D-06
 ErrMax= 2.02D-06  0.00D+00 EMaxC= 1.00D-01 BMatC= 6.77D-10 BMatP= 5.67D-09
 IDIUse=1 WtCom= 1.00D+00 WtEn= 0.00D+00
 Coeff-Com: -0.212D-04 0.240D-03 0.483D-03 0.527D-03-0.444D-02-0.352D-02
 Coeff-Com:  0.231D-01 0.300D-01-0.140D+00-0.199D+00 0.129D+01
 Coeff:     -0.212D-04 0.240D-03 0.483D-03 0.527D-03-0.444D-02-0.352D-02
 Coeff:      0.231D-01 0.300D-01-0.140D+00-0.199D+00 0.129D+01
 Gap=     0.502 Goal=   None    Shift=    0.000
 RMSDP=1.85D-07 MaxDP=6.94D-06 DE=-1.31D-08 OVMax= 1.75D-05

 Cycle  12  Pass 1  IDiag  1:
 E= -279.503582843032     Delta-E=       -0.000000001878 Rises=F Damp=F
 DIIS: error= 5.60D-07 at cycle  12 NSaved=  12.
 NSaved=12 IEnMin=12 EnMin= -279.503582843032     IErMin=12 ErrMin= 5.60D-07
 ErrMax= 5.60D-07  0.00D+00 EMaxC= 1.00D-01 BMatC= 6.73D-11 BMatP= 6.77D-10
 IDIUse=1 WtCom= 1.00D+00 WtEn= 0.00D+00
 Coeff-Com:  0.103D-05-0.262D-04-0.572D-04 0.207D-03 0.102D-02-0.235D-02
 Coeff-Com: -0.400D-02 0.603D-02 0.407D-01-0.105D+00-0.284D+00 0.135D+01
 Coeff:      0.103D-05-0.262D-04-0.572D-04 0.207D-03 0.102D-02-0.235D-02
 Coeff:     -0.400D-02 0.603D-02 0.407D-01-0.105D+00-0.284D+00 0.135D+01
 Gap=     0.502 Goal=   None    Shift=    0.000
 RMSDP=7.09D-08 MaxDP=2.80D-06 DE=-1.88D-09 OVMax= 6.31D-06

 Cycle  13  Pass 1  IDiag  1:
 E= -279.503582843248     Delta-E=       -0.000000000216 Rises=F Damp=F
 DIIS: error= 1.59D-07 at cycle  13 NSaved=  13.
 NSaved=13 IEnMin=13 EnMin= -279.503582843248     IErMin=13 ErrMin= 1.59D-07
 ErrMax= 1.59D-07  0.00D+00 EMaxC= 1.00D-01 BMatC= 3.46D-12 BMatP= 6.73D-11
 IDIUse=1 WtCom= 1.00D+00 WtEn= 0.00D+00
 Coeff-Com:  0.123D-05-0.133D-04-0.219D-04-0.863D-04 0.136D-03 0.713D-03
 Coeff-Com: -0.964D-03-0.304D-02 0.690D-03 0.379D-01-0.327D-01-0.305D+00
 Coeff-Com:  0.130D+01
 Coeff:      0.123D-05-0.133D-04-0.219D-04-0.863D-04 0.136D-03 0.713D-03
 Coeff:     -0.964D-03-0.304D-02 0.690D-03 0.379D-01-0.327D-01-0.305D+00
 Coeff:      0.130D+01
 Gap=     0.502 Goal=   None    Shift=    0.000
 RMSDP=1.78D-08 MaxDP=4.94D-07 DE=-2.16D-10 OVMax= 1.45D-06

 Cycle  14  Pass 1  IDiag  1:
 E= -279.503582843258     Delta-E=       -0.000000000010 Rises=F Damp=F
 DIIS: error= 2.17D-08 at cycle  14 NSaved=  14.
 NSaved=14 IEnMin=14 EnMin= -279.503582843258     IErMin=14 ErrMin= 2.17D-08
 ErrMax= 2.17D-08  0.00D+00 EMaxC= 1.00D-01 BMatC= 1.65D-13 BMatP= 3.46D-12
 IDIUse=1 WtCom= 1.00D+00 WtEn= 0.00D+00
 Coeff-Com: -0.167D-06 0.274D-05 0.493D-05 0.316D-05-0.766D-04 0.467D-04
 Coeff-Com:  0.285D-03 0.171D-03-0.229D-02 0.116D-02 0.162D-01-0.260D-01
 Coeff-Com: -0.191D+00 0.120D+01
 Coeff:     -0.167D-06 0.274D-05 0.493D-05 0.316D-05-0.766D-04 0.467D-04
 Coeff:      0.285D-03 0.171D-03-0.229D-02 0.116D-02 0.162D-01-0.260D-01
 Coeff:     -0.191D+00 0.120D+01
 Gap=     0.502 Goal=   None    Shift=    0.000
 RMSDP=3.52D-09 MaxDP=8.79D-08 DE=-9.89D-12 OVMax= 3.16D-07

 SCF Done:  E(RHF) =  -279.503582843     A.U. after   14 cycles
            NFock= 14  Conv=0.35D-08     -V/T= 2.0022
 KE= 2.788804602436D+02 PE=-8.962257254986D+02 EE= 2.203950726750D+02
 Leave Link  502 at Mon Feb 21 20:19:48 2022, MaxMem= 16106127360 cpu:              54.9 elap:               3.6
 (Enter /sw/contrib/gaussian/g16/B01/g16/l801.exe)
 ExpMin= 2.53D-02 ExpMax= 1.53D+04 ExpMxC= 5.22D+02 IAcc=3 IRadAn=         5 AccDes= 0.00D+00
 HarFok:  IExCor=  205 AccDes= 0.00D+00 IRadAn=         5 IDoV=-2 UseB2=F ITyADJ=14
 ICtDFT= 12500011 ScaDFX=  1.000000  1.000000  1.000000  1.000000
 Largest valence mixing into a core orbital is  2.07D-04
 Largest core mixing into a valence orbital is  3.56D-05
 Range of M.O.s used for correlation:     5   207
 NBasis=   207 NAE=    16 NBE=    16 NFC=     4 NFV=     0
 NROrb=    203 NOA=    12 NOB=    12 NVA=   191 NVB=   191

 **** Warning!!: The largest alpha MO coefficient is  0.17944821D+02

 Leave Link  801 at Mon Feb 21 20:19:48 2022, MaxMem= 16106127360 cpu:               2.0 elap:               0.1
 (Enter /sw/contrib/gaussian/g16/B01/g16/l906.exe)
 Frozen-core derivative calculation, NFC=   4 NFV=   0.
 FulOut=F Deriv=T AODrv=T NAtomX=     5
   MMem=           0  MDisk=          12 MDiskD=          12
  W3Min=      811440 MinDsk=     2425030 NBas6D=         245
 NBas2D=       30762    NTT=       30135    LW2=     7400000
    MDV= 16105574255 MDiskM=      328644 NBas2p=       30702
 Disk-based method using ON**2 memory for 12 occupieds at a time.
 Permanent disk used for amplitudes=    11516536 words.
 Estimated scratch disk usage=   321251614 words.
 IMap=   1   2   3   4   5   6   7   8   9  10  11  12  13  14  15  16
 Actual    scratch disk usage=   310331678 words.
 JobTyp=1 Pass  1:  I=   5 to  16 NPSUse= 28 ParTrn=T ParDer=T DoDerP=T.
 (rs|ai) integrals will be sorted in core.
 Spin components of T(2) and E(2):
     alpha-alpha T2 =       0.3377742818D-01 E2=     -0.1221733554D+00
     alpha-beta  T2 =       0.1854030100D+00 E2=     -0.6987124972D+00
     beta-beta   T2 =       0.3377742818D-01 E2=     -0.1221733554D+00
 The integrals were generated   1 times.
 ANorm=    0.1119356005D+01
 E2 =    -0.9430592080D+00 EUMP2 =    -0.28044664205125D+03
 Leave Link  906 at Mon Feb 21 20:21:25 2022, MaxMem= 16106127360 cpu:            2707.3 elap:              96.9
 (Enter /sw/contrib/gaussian/g16/B01/g16/l1101.exe)
 Using compressed Sx but separate Hx and Fx, NAtomX=     5.
 Will process      6 centers per pass.
 Leave Link 1101 at Mon Feb 21 20:21:25 2022, MaxMem= 16106127360 cpu:               5.3 elap:               0.2
 (Enter /sw/contrib/gaussian/g16/B01/g16/l1102.exe)
 Leave Link 1102 at Mon Feb 21 20:21:25 2022, MaxMem= 16106127360 cpu:               0.5 elap:               0.0
 (Enter /sw/contrib/gaussian/g16/B01/g16/l1110.exe)
 Forming Gx(P) for the SCF density, NAtomX=     5.
 Integral derivatives from FoFJK, PRISM(SPDF).
 Do as many integral derivatives as possible in FoFJK.
 G2DrvN: MDV=   16106126844.
 G2DrvN: will do     6 centers at a time, making    1 passes.
 Calling FoFCou, ICntrl=  3107 FMM=F I1Cent=   0 AccDes= 0.00D+00.
 FoFJK:  IHMeth= 1 ICntrl=    3107 DoSepK=F KAlg= 0 I1Cent=           0 FoldK=F
 IRaf=         0 NMat=       1 IRICut=       1 DoRegI=T DoRafI=F ISym2E= 1 IDoP0=0 IntGTp=1.
 FoFCou: FMM=F IPFlag=           0 FMFlag=      100000 FMFlg1=           0
         NFxFlg=           0 DoJE=F BraDBF=F KetDBF=F FulRan=T
         wScrn=  0.000000 ICntrl=      3107 IOpCl=  0 I1Cent=           0 NGrid=           0
         NMat0=    1 NMatS0=      1 NMatT0=    0 NMatD0=    1 NMtDS0=    0 NMtDT0=    0
 Petite list used in FoFCou.
 End of G2Drv F.D. properties file   721 does not exist.
 End of G2Drv F.D. properties file   722 does not exist.
 End of G2Drv F.D. properties file   788 does not exist.
 Leave Link 1110 at Mon Feb 21 20:21:28 2022, MaxMem= 16106127360 cpu:              83.5 elap:               3.0
 (Enter /sw/contrib/gaussian/g16/B01/g16/l1002.exe)
 Minotr:  Closed shell wavefunction.
          IDoAtm=11111
          Frozen-core window.
          Direct CPHF calculation.
          Differentiating once with respect to electric field.
                with respect to dipole field.
          Differentiating once with respect to nuclear coordinates.
          Requested convergence is 1.0D-08 RMS, and 1.0D-07 maximum.
          Secondary convergence is 1.0D-12 RMS, and 1.0D-12 maximum.
          NewPWx=T KeepS1=T KeepF1=T KeepIn=T MapXYZ=F SortEE=F KeepMc=T.
 Keep R1 ints in memory in symmetry-blocked form, NReq=348888983.
 FoFCou: FMM=F IPFlag=           0 FMFlag=           0 FMFlg1=           0
         NFxFlg=           0 DoJE=F BraDBF=F KetDBF=F FulRan=T
         wScrn=  0.000000 ICntrl=       600 IOpCl=  0 I1Cent=           0 NGrid=           0
         NMat0=    1 NMatS0=  21528 NMatT0=    0 NMatD0=    1 NMtDS0=    0 NMtDT0=    0
 Petite list used in FoFCou.
          MDV=   16106127360 using IRadAn=       1.
          Solving linear equations simultaneously, MaxMat=       0.
          There are    18 degrees of freedom in the 1st order CPHF.  IDoFFX=6 NUNeed=    18.
     15 vectors produced by pass  0 Test12= 1.70D-14 5.56D-09 XBig12= 8.25D+00 1.03D+00.
 AX will form    15 AO Fock derivatives at one time.
     15 vectors produced by pass  1 Test12= 1.70D-14 5.56D-09 XBig12= 1.31D+00 2.22D-01.
     15 vectors produced by pass  2 Test12= 1.70D-14 5.56D-09 XBig12= 1.35D-01 9.32D-02.
     15 vectors produced by pass  3 Test12= 1.70D-14 5.56D-09 XBig12= 4.65D-03 1.02D-02.
     15 vectors produced by pass  4 Test12= 1.70D-14 5.56D-09 XBig12= 9.33D-05 1.80D-03.
     15 vectors produced by pass  5 Test12= 1.70D-14 5.56D-09 XBig12= 1.29D-06 1.59D-04.
     15 vectors produced by pass  6 Test12= 1.70D-14 5.56D-09 XBig12= 1.02D-08 1.43D-05.
     12 vectors produced by pass  7 Test12= 1.70D-14 5.56D-09 XBig12= 7.45D-11 1.25D-06.
      3 vectors produced by pass  8 Test12= 1.70D-14 5.56D-09 XBig12= 5.34D-13 1.19D-07.
      2 vectors produced by pass  9 Test12= 1.70D-14 5.56D-09 XBig12= 3.64D-15 1.02D-08.
 InvSVY:  IOpt=1 It=  1 EMax= 7.77D-16
 Solved reduced A of dimension   122 with    15 vectors.
 FullF1:  Do perturbations      1 to      18.
 Saving first derivative matrices.
 End of Minotr F.D. properties file   721 does not exist.
 End of Minotr F.D. properties file   722 does not exist.
 End of Minotr F.D. properties file   788 does not exist.
 Leave Link 1002 at Mon Feb 21 20:21:31 2022, MaxMem= 16106127360 cpu:              80.5 elap:               2.9
 (Enter /sw/contrib/gaussian/g16/B01/g16/l811.exe)
 MDV= 16106127360.
 Form MO integral derivatives with frozen-active canonical formalism.
 MOERI=1 MOERIx=1 NAtoms=     5 NAtomX=     5.
 Discarding MO integrals.
 MO basis two electron integral derivatives will not be stored on disk.
 IAlg= 3 DoFC=T DoPWx=T Debug=F.
 Frozen-core window:  NFC=   4 NFV=   0.
 Reordered first order wavefunction length =     18678272
 In DefCFB: NBatch=  1 ICI= 16 ICA=191 LFMax= 96
            Large arrays: LIAPS=   619940160 LIARS=   288257200 words.
 In StABat: MaxSiz= 55 MinSiz= 25 NAtomB=  5
 DoIAMN: NPSUse= 28.
 Leave Link  811 at Mon Feb 21 20:22:52 2022, MaxMem= 16106127360 cpu:            2249.1 elap:              80.5
 (Enter /sw/contrib/gaussian/g16/B01/g16/l804.exe)
 Frozen-core window:  NFC=   4 NFV=   0.
 Closed-shell transformation, MDV= 16106127360 ITran=4 ISComp=1.
 Semi-Direct transformation.
 ModeAB=           2 MOrb=            16 LenV=   16104922981
 LASXX=     67341636 LTotXX=    67341636 LenRXX=    67341636
 LTotAB=    68301760 MaxLAS=    99807120 LenRXY=    99807120
 NonZer=   134683272 LenScr=   202817536 LnRSAI=           0
 LnScr1=           0 LExtra=           0 Total=    369966292
 MaxDsk=          -1 SrtSym=           F ITran=            4
 DoSDTr:  NPSUse= 28
 JobTyp=0 Pass  1:  I=   1 to  16.
 (rs|ai) integrals will be sorted in core.
 Complete sort for first half transformation.
 First half transformation complete.
 Begin second half transformation for I=  10.
 Begin second half transformation for I=  10.
 Complete sort for second half transformation.
 Second half transformation complete.
 Spin components of T(2) and E(2):
     alpha-alpha T2 =       0.3377742818D-01 E2=     -0.1221733554D+00
     alpha-beta  T2 =       0.1854030100D+00 E2=     -0.6987124972D+00
     beta-beta   T2 =       0.3377742818D-01 E2=     -0.1221733554D+00
 ANorm=    0.1583008444D+01
 E2 =    -0.9430592080D+00 EUMP2 =    -0.28044664205125D+03
 Leave Link  804 at Mon Feb 21 20:23:07 2022, MaxMem= 16106127360 cpu:             426.4 elap:              15.3
 (Enter /sw/contrib/gaussian/g16/B01/g16/l1002.exe)
 Minotr:  Closed shell wavefunction.
          Computing MP2/KS-MP2 derivatives.
          Using Z-Vector for PSCF gradient.
          Skipping F1 and S1 gradient terms here.
          IDoAtm=11111
          Frozen-core window.
          Using MO integrals in the linear equations.
          Forming densities via direct SCF.
          Differentiating once with respect to electric field.
                with respect to dipole field.
          Differentiating once with respect to nuclear coordinates.
          Using symmetry in CPHF.
          Requested convergence is 1.0D-10 RMS, and 1.0D-09 maximum.
          NewPWx=F KeepS1=T KeepF1=T KeepIn=T MapXYZ=F SortEE=F KeepMc=T.
          MDV=   16106127360 using IRadAn=       5.
          Solving linear equations separately, MaxMat=       0.
          There are     1 degrees of freedom in the 1st order CPHF.  IDoFFX=0 NUNeed=     1.
 FoFJK:  IHMeth= 1 ICntrl=       0 DoSepK=F KAlg= 0 I1Cent=           0 FoldK=F
 IRaf=         0 NMat=       1 IRICut=       1 DoRegI=T DoRafI=F ISym2E= 0 IDoP0=0 IntGTp=1.
 FoFCou: FMM=F IPFlag=           0 FMFlag=      100000 FMFlg1=           0
         NFxFlg=           0 DoJE=F BraDBF=F KetDBF=F FulRan=T
         wScrn=  0.000000 ICntrl=         0 IOpCl=  0 I1Cent=           0 NGrid=           0
         NMat0=    1 NMatS0=      1 NMatT0=    0 NMatD0=    1 NMtDS0=    0 NMtDT0=    0
 Symmetry not used in FoFCou.
 LinEq1:  Iter=  0 NonCon=     1 RMS=5.88D-03 Max=1.33D-01 NDo=     1
 LinEq1:  Iter=  1 NonCon=     1 RMS=1.84D-03 Max=3.66D-02 NDo=     1
 LinEq1:  Iter=  2 NonCon=     1 RMS=8.38D-04 Max=1.16D-02 NDo=     1
 LinEq1:  Iter=  3 NonCon=     1 RMS=3.72D-04 Max=7.78D-03 NDo=     1
 LinEq1:  Iter=  4 NonCon=     1 RMS=1.15D-04 Max=1.59D-03 NDo=     1
 LinEq1:  Iter=  5 NonCon=     1 RMS=4.41D-05 Max=7.03D-04 NDo=     1
 LinEq1:  Iter=  6 NonCon=     1 RMS=1.98D-05 Max=2.26D-04 NDo=     1
 LinEq1:  Iter=  7 NonCon=     1 RMS=7.82D-06 Max=1.46D-04 NDo=     1
 LinEq1:  Iter=  8 NonCon=     1 RMS=3.35D-06 Max=3.11D-05 NDo=     1
 LinEq1:  Iter=  9 NonCon=     1 RMS=9.05D-07 Max=1.17D-05 NDo=     1
 LinEq1:  Iter= 10 NonCon=     1 RMS=1.74D-07 Max=1.77D-06 NDo=     1
 LinEq1:  Iter= 11 NonCon=     1 RMS=3.18D-08 Max=3.20D-07 NDo=     1
 LinEq1:  Iter= 12 NonCon=     1 RMS=7.65D-09 Max=1.16D-07 NDo=     1
 LinEq1:  Iter= 13 NonCon=     1 RMS=1.40D-09 Max=2.31D-08 NDo=     1
 LinEq1:  Iter= 14 NonCon=     1 RMS=2.50D-10 Max=3.29D-09 NDo=     1
 LinEq1:  Iter= 15 NonCon=     0 RMS=4.53D-11 Max=4.77D-10 NDo=     1
 Linear equations converged to 1.000D-10 1.000D-09 after    15 iterations.
 End of Minotr F.D. properties file   721 does not exist.
 End of Minotr F.D. properties file   722 does not exist.
 End of Minotr F.D. properties file   788 does not exist.
 Leave Link 1002 at Mon Feb 21 20:23:10 2022, MaxMem= 16106127360 cpu:              64.8 elap:               2.4
 (Enter /sw/contrib/gaussian/g16/B01/g16/l1102.exe)
 Use density number 2.
 Symmetrizing basis deriv contribution to polar:
 IMax=3 JMax=2 DiffMx= 0.00D+00
 Leave Link 1102 at Mon Feb 21 20:23:10 2022, MaxMem= 16106127360 cpu:               0.8 elap:               0.1
 (Enter /sw/contrib/gaussian/g16/B01/g16/l1110.exe)
 Forming Gx(P) for generalized density number  2 NAtomX=     5.
 Integral derivatives from FoFJK, PRISM(SPDF).
 Do as many integral derivatives as possible in FoFJK.
 G2DrvN: MDV=   16106126844.
 G2DrvN: will do     6 centers at a time, making    1 passes.
 Calling FoFCou, ICntrl=  3107 FMM=F I1Cent=   0 AccDes= 0.00D+00.
 FoFJK:  IHMeth= 1 ICntrl=    3107 DoSepK=F KAlg= 0 I1Cent=           0 FoldK=F
 IRaf=         0 NMat=       1 IRICut=       1 DoRegI=T DoRafI=F ISym2E= 1 IDoP0=0 IntGTp=1.
 FoFCou: FMM=F IPFlag=           0 FMFlag=      100000 FMFlg1=           0
         NFxFlg=           0 DoJE=F BraDBF=F KetDBF=F FulRan=T
         wScrn=  0.000000 ICntrl=      3107 IOpCl=  0 I1Cent=           0 NGrid=           0
         NMat0=    1 NMatS0=      1 NMatT0=    0 NMatD0=    1 NMtDS0=    0 NMtDT0=    0
 Petite list used in FoFCou.
 End of G2Drv F.D. properties file   721 does not exist.
 End of G2Drv F.D. properties file   722 does not exist.
 End of G2Drv F.D. properties file   788 does not exist.
 Leave Link 1110 at Mon Feb 21 20:23:13 2022, MaxMem= 16106127360 cpu:              83.6 elap:               3.0
 (Enter /sw/contrib/gaussian/g16/B01/g16/l1112.exe)
 MP22nd: MDV=   16106127360
 This link is doing NAtomX=     5 total of    18 degrees of freedom.
 Using ON3 I/O method in MakUI.
 Frozen-core window:  NFC=   4 NFV=   0.
 Using Ix for Sx.
 Use MO integrals over full window.
 Using OV2 memory method for fx*t*t/D, MaxI=    16 DoOO2=F NP=  28.
 R2 and R3 integrals will be kept in memory, NReq=   915591705.
 FoFCou: FMM=F IPFlag=           0 FMFlag=           0 FMFlg1=           0
         NFxFlg=           0 DoJE=F BraDBF=F KetDBF=F FulRan=T
         wScrn=  0.000000 ICntrl=       600 IOpCl=  0 I1Cent=           0 NGrid=           0
         NMat0=    1 NMatS0=      1 NMatT0=    0 NMatD0=    1 NMtDS0=    0 NMtDT0=    0
 Symmetry not used in FoFCou.
 DD1Dir will call FoFMem   1 times, MxPair=       272
 NAB=   136 NAA=     0 NBB=     0.
 Symmetry is being used.
 FoFJK:  IHMeth= 1 ICntrl=       0 DoSepK=F KAlg= 0 I1Cent=           0 FoldK=F
 IRaf=         0 NMat=      18 IRICut=      45 DoRegI=T DoRafI=T ISym2E= 2 IDoP0=3 IntGTp=3.
 Discarding MO integrals.
 Leave Link 1112 at Mon Feb 21 20:23:46 2022, MaxMem= 16106127360 cpu:             930.2 elap:              33.5
 (Enter /sw/contrib/gaussian/g16/B01/g16/l601.exe)
 Copying SCF densities to generalized density rwf, IOpCl= 0 IROHF=0.

 **********************************************************************

            Population analysis using the MP2 Density.

 **********************************************************************

 Orbital symmetries:
       Occupied  (A') (A') (A') (A') (A') (A') (A') (A') (A') (A')
                 (A") (A') (A") (A') (A") (A')
       Virtual   (A') (A") (A') (A') (A') (A") (A') (A') (A") (A')
                 (A") (A') (A') (A') (A") (A') (A') (A") (A') (A')
                 (A') (A') (A') (A') (A") (A') (A') (A") (A') (A')
                 (A") (A') (A") (A') (A') (A") (A') (A") (A') (A')
                 (A") (A') (A") (A') (A') (A") (A') (A') (A") (A')
                 (A") (A') (A') (A') (A") (A') (A") (A') (A") (A')
                 (A') (A') (A") (A') (A') (A") (A') (A") (A') (A')
                 (A") (A') (A') (A") (A") (A') (A') (A") (A') (A')
                 (A') (A") (A') (A") (A") (A') (A') (A") (A') (A')
                 (A") (A') (A') (A") (A') (A") (A') (A") (A') (A')
                 (A") (A') (A") (A') (A') (A") (A') (A') (A") (A')
                 (A") (A') (A') (A') (A") (A') (A') (A') (A") (A')
                 (A") (A') (A") (A') (A') (A") (A") (A') (A") (A')
                 (A') (A') (A') (A") (A") (A") (A') (A') (A') (A')
                 (A") (A') (A") (A') (A') (A") (A') (A') (A') (A')
                 (A") (A') (A') (A") (A') (A") (A') (A") (A') (A")
                 (A') (A") (A') (A") (A') (A") (A") (A') (A") (A')
                 (A") (A') (A") (A') (A") (A') (A") (A") (A') (A')
                 (A') (A') (A') (A') (A') (A') (A') (A') (A') (A')
                 (A')
 The electronic state is 1-A'.
 Alpha  occ. eigenvalues --  -20.69441 -20.67931 -20.66253 -15.80950  -1.62545
 Alpha  occ. eigenvalues --   -1.49857  -1.26072  -0.94657  -0.77449  -0.76173
 Alpha  occ. eigenvalues --   -0.71555  -0.67829  -0.61935  -0.59050  -0.48732
 Alpha  occ. eigenvalues --   -0.47326
 Alpha virt. eigenvalues --    0.02905   0.07437   0.08631   0.10194   0.13377
 Alpha virt. eigenvalues --    0.13405   0.14366   0.15412   0.17780   0.19420
 Alpha virt. eigenvalues --    0.19992   0.20891   0.22018   0.23449   0.23764
 Alpha virt. eigenvalues --    0.26615   0.30057   0.30343   0.31268   0.34500
 Alpha virt. eigenvalues --    0.35069   0.38833   0.42121   0.43096   0.52834
 Alpha virt. eigenvalues --    0.53012   0.56084   0.58277   0.62746   0.63953
 Alpha virt. eigenvalues --    0.67506   0.68438   0.70560   0.71068   0.72388
 Alpha virt. eigenvalues --    0.72799   0.74399   0.79129   0.79291   0.81115
 Alpha virt. eigenvalues --    0.81127   0.83166   0.86978   0.90837   0.92117
 Alpha virt. eigenvalues --    0.92785   0.95463   0.98045   0.98382   1.01476
 Alpha virt. eigenvalues --    1.05297   1.05586   1.08434   1.11925   1.14337
 Alpha virt. eigenvalues --    1.19058   1.22134   1.23323   1.34123   1.35438
 Alpha virt. eigenvalues --    1.38385   1.45667   1.48791   1.50799   1.53939
 Alpha virt. eigenvalues --    1.56936   1.58381   1.61433   1.66561   1.66999
 Alpha virt. eigenvalues --    1.70524   1.79330   1.83243   1.83831   1.87783
 Alpha virt. eigenvalues --    1.91271   1.95635   1.99637   2.00751   2.08450
 Alpha virt. eigenvalues --    2.12324   2.13494   2.14708   2.22853   2.26312
 Alpha virt. eigenvalues --    2.26472   2.29315   2.31493   2.34932   2.38598
 Alpha virt. eigenvalues --    2.42746   2.43362   2.45697   2.46538   2.48006
 Alpha virt. eigenvalues --    2.50451   2.58762   2.59832   2.62599   2.62646
 Alpha virt. eigenvalues --    2.63300   2.67008   2.76103   2.83404   2.86480
 Alpha virt. eigenvalues --    2.89195   2.89273   2.94110   2.95908   3.03320
 Alpha virt. eigenvalues --    3.07611   3.12843   3.20167   3.23164   3.32039
 Alpha virt. eigenvalues --    3.34779   3.52030   3.65131   3.84833   3.84998
 Alpha virt. eigenvalues --    4.14882   4.15872   4.18715   4.26696   4.35148
 Alpha virt. eigenvalues --    4.39408   4.46215   4.52176   4.66936   4.71334
 Alpha virt. eigenvalues --    4.80905   4.82609   4.84139   4.89783   5.03022
 Alpha virt. eigenvalues --    5.08376   5.11099   5.14374   5.18492   5.24804
 Alpha virt. eigenvalues --    5.27946   5.31278   5.33185   5.36396   5.61104
 Alpha virt. eigenvalues --    5.67744   5.78148   5.82763   5.96304   6.17762
 Alpha virt. eigenvalues --    6.30906   6.34660   6.39933   6.49856   6.50989
 Alpha virt. eigenvalues --    6.61458   6.66694   6.70739   6.75563   6.76306
 Alpha virt. eigenvalues --    6.83840   6.90540   7.01918   7.05517   7.05993
 Alpha virt. eigenvalues --    7.08986   7.13086   7.15562   7.18246   7.23437
 Alpha virt. eigenvalues --    7.24040   7.30368   7.32879   7.35302   7.40569
 Alpha virt. eigenvalues --    7.44129   7.49018   7.61178   7.62684   7.64520
 Alpha virt. eigenvalues --    7.67820   7.79733   7.89292   8.11801   8.32367
 Alpha virt. eigenvalues --    8.40910   8.55455  13.44873  14.51107  15.18002
 Alpha virt. eigenvalues --   16.19438
          Condensed to atoms (all electrons):
               1          2          3          4          5
     1  H    0.589175   0.128256   0.020215   0.012559  -0.000634
     2  O    0.128256   8.321938  -0.171867  -0.094222   0.016059
     3  O    0.020215  -0.171867   8.464031  -0.135949  -0.043009
     4  N    0.012559  -0.094222  -0.135949   6.990685  -0.058572
     5  O   -0.000634   0.016059  -0.043009  -0.058572   8.288499
 Mulliken charges:
               1
     1  H    0.250429
     2  O   -0.200164
     3  O   -0.133421
     4  N    0.285500
     5  O   -0.202344
 Sum of Mulliken charges =  -0.00000
 Mulliken charges with hydrogens summed into heavy atoms:
               1
     2  O    0.050265
     3  O   -0.133421
     4  N    0.285500
     5  O   -0.202344
 APT charges:
               1
     1  H    0.299893
     2  O   -0.283796
     3  O   -0.483338
     4  N    0.863884
     5  O   -0.396642
 Sum of APT charges =  -0.00000
 APT charges with hydrogens summed into heavy atoms:
               1
     2  O    0.016096
     3  O   -0.483338
     4  N    0.863884
     5  O   -0.396642
 Electronic spatial extent (au):  <R**2>=            250.7405
 Charge=             -0.0000 electrons
 Dipole moment (field-independent basis, Debye):
    X=              0.6037    Y=              1.4799    Z=              0.0000  Tot=              1.5983
 Quadrupole moment (field-independent basis, Debye-Ang):
   XX=            -22.5051   YY=            -18.7038   ZZ=            -21.9803
   XY=              3.2165   XZ=              0.0000   YZ=             -0.0000
 Traceless Quadrupole moment (field-independent basis, Debye-Ang):
   XX=             -1.4420   YY=              2.3592   ZZ=             -0.9172
   XY=              3.2165   XZ=              0.0000   YZ=             -0.0000
 Octapole moment (field-independent basis, Debye-Ang**2):
  XXX=              3.2711  YYY=             11.3333  ZZZ=              0.0000  XYY=              7.9421
  XXY=              6.7481  XXZ=              0.0000  XZZ=             -1.5429  YZZ=             -0.7745
  YYZ=              0.0000  XYZ=              0.0000
 Hexadecapole moment (field-independent basis, Debye-Ang**3):
 XXXX=           -158.5648 YYYY=            -87.7020 ZZZZ=            -18.1798 XXXY=            -36.0055
 XXXZ=              0.0000 YYYX=            -30.3952 YYYZ=             -0.0000 ZZZX=              0.0000
 ZZZY=             -0.0000 XXYY=            -33.7129 XXZZ=            -30.8840 YYZZ=            -20.2307
 XXYZ=              0.0000 YYXZ=              0.0000 ZZXY=            -14.8336
 N-N= 1.174466097368D+02 E-N=-8.969923701935D+02  KE= 2.802243175463D+02
 Symmetry A'   KE= 2.662454458951D+02
 Symmetry A"   KE= 1.397887165124D+01
  Exact polarizability:  34.020   9.354  29.824  -0.000   0.000  17.858
 Approx polarizability:  28.913   4.971  23.065  -0.000   0.000  15.490
 No NMR shielding tensors so no spin-rotation constants.
 Leave Link  601 at Mon Feb 21 20:23:46 2022, MaxMem= 16106127360 cpu:               4.6 elap:               0.2
 (Enter /sw/contrib/gaussian/g16/B01/g16/l701.exe)
 ... and contract with generalized density number  2.
 Compute integral second derivatives.
 Leave Link  701 at Mon Feb 21 20:23:47 2022, MaxMem= 16106127360 cpu:               5.8 elap:               0.2
 (Enter /sw/contrib/gaussian/g16/B01/g16/l702.exe)
 L702 exits ... SP integral derivatives will be done elsewhere.
 Leave Link  702 at Mon Feb 21 20:23:47 2022, MaxMem= 16106127360 cpu:               0.5 elap:               0.0
 (Enter /sw/contrib/gaussian/g16/B01/g16/l703.exe)
 Integral derivatives from FoFJK, PRISM(SPDF).
 Compute integral second derivatives, UseDBF=F ICtDFT=           0.
 Calling FoFJK, ICntrl=  10100127 FMM=F ISym2X=1 I1Cent= 0 IOpClX= 0 NMat=1 NMatS=1 NMatT=0.
 FoFJK:  IHMeth= 1 ICntrl=10100127 DoSepK=F KAlg= 0 I1Cent=           0 FoldK=F
 IRaf=         0 NMat=       1 IRICut=       1 DoRegI=T DoRafI=F ISym2E= 1 IDoP0=0 IntGTp=1.
 FoFCou: FMM=F IPFlag=           0 FMFlag=      100000 FMFlg1=         800
         NFxFlg=           0 DoJE=F BraDBF=F KetDBF=F FulRan=T
         wScrn=  0.000000 ICntrl=  10100127 IOpCl=  0 I1Cent=           0 NGrid=           0
         NMat0=    1 NMatS0=      1 NMatT0=    0 NMatD0=    1 NMtDS0=    0 NMtDT0=    0
 Petite list used in FoFCou.
 Leave Link  703 at Mon Feb 21 20:24:02 2022, MaxMem= 16106127360 cpu:             424.1 elap:              15.2
 (Enter /sw/contrib/gaussian/g16/B01/g16/l716.exe)
 Dipole        = 2.37502021D-01 5.82240588D-01 6.59811894D-32
 Polarizability= 3.40196569D+01 9.35366005D+00 2.98238223D+01
                -4.24015838D-30 6.94667505D-30 1.78579082D+01
 Full mass-weighted force constant matrix:
 Low frequencies --- -263.6635  -76.5884  -43.8722  -40.3410    0.0008    0.0010
 Low frequencies ---    0.0010  221.1232  348.1875
 ******    1 imaginary frequencies (negative Signs) ****** 
 Diagonal vibrational polarizability:
       11.9394331      20.3706065      48.5887845
 Harmonic frequencies (cm**-1), IR intensities (KM/Mole), Raman scattering
 activities (A**4/AMU), depolarization ratios for plane and unpolarized
 incident light, reduced masses (AMU), force constants (mDyne/A),
 and normal coordinates:
                      1                      2                      3
                     A"                     A"                     A'
 Frequencies --   -263.6053               220.0366               348.1335
 Red. masses --      1.1441                10.2171                 8.6579
 Frc consts  --      0.0468                 0.2915                 0.6182
 IR Inten    --    124.1869                 0.8882                 2.7350
  Atom  AN      X      Y      Z        X      Y      Z        X      Y      Z
     1   1    -0.00   0.00   1.00    -0.00   0.00  -0.59     0.53  -0.44  -0.00
     2   8    -0.00   0.00  -0.07     0.00   0.00  -0.30    -0.10  -0.38  -0.00
     3   8    -0.00  -0.00  -0.04     0.00  -0.00   0.32    -0.15   0.42   0.00
     4   7     0.00  -0.00   0.06     0.00  -0.00   0.52     0.05   0.28   0.00
     5   8     0.00   0.00  -0.01    -0.00   0.00  -0.43     0.17  -0.25  -0.00
                      4                      5                      6
                     A'                     A'                     A'
 Frequencies --    493.9049               801.1962               970.4702
 Red. masses --     12.2779                12.6261                15.2722
 Frc consts  --      1.7647                 4.7752                 8.4746
 IR Inten    --    176.1164               189.2206                25.1717
  Atom  AN      X      Y      Z        X      Y      Z        X      Y      Z
     1   1     0.42   0.18  -0.00    -0.37   0.18  -0.00    -0.19  -0.03  -0.00
     2   8     0.34   0.19  -0.00     0.41   0.07  -0.00    -0.51   0.03  -0.00
     3   8     0.16   0.44   0.00    -0.08  -0.29   0.00     0.75  -0.02   0.00
     4   7    -0.36  -0.36   0.00    -0.12   0.63   0.00    -0.13   0.25   0.00
     5   8    -0.22  -0.32  -0.00    -0.20  -0.34  -0.00    -0.12  -0.23  -0.00
                      7                      8                      9
                     A'                     A'                     A'
 Frequencies --   1375.2763              1687.2132              3779.1471
 Red. masses --      1.1367                13.1360                 1.0675
 Frc consts  --      1.2667                22.0320                 8.9829
 IR Inten    --    156.7781               130.7931                82.1505
  Atom  AN      X      Y      Z        X      Y      Z        X      Y      Z
     1   1     0.99  -0.05  -0.00    -0.35   0.01   0.00     0.11   0.99   0.00
     2   8    -0.03   0.05  -0.00    -0.00  -0.04   0.00    -0.01  -0.06  -0.00
     3   8    -0.02  -0.05   0.00     0.00   0.15  -0.00     0.00   0.00  -0.00
     4   7     0.02   0.01   0.00     0.70  -0.05  -0.00    -0.00  -0.00   0.00
     5   8    -0.03  -0.01  -0.00    -0.59  -0.06   0.00     0.00   0.00   0.00

 -------------------
 - Thermochemistry -
 -------------------
 Temperature   298.150 Kelvin.  Pressure   1.00000 Atm.
 Atom     1 has atomic number  1 and mass   1.00783
 Atom     2 has atomic number  8 and mass  15.99491
 Atom     3 has atomic number  8 and mass  15.99491
 Atom     4 has atomic number  7 and mass  14.00307
 Atom     5 has atomic number  8 and mass  15.99491
 Molecular mass:    62.99564 amu.
 Principal axes and moments of inertia in atomic units:
                           1         2         3
     Eigenvalues --    32.30678 356.36781 388.67458
           X            0.81545  -0.57883   0.00000
           Y            0.57883   0.81545   0.00000
           Z            0.00000  -0.00000   1.00000
 This molecule is an asymmetric top.
 Rotational symmetry number  1.
 Rotational temperatures (Kelvin)      2.68098     0.24305     0.22284
 Rotational constants (GHZ):          55.86262     5.06427     4.64332
    1 imaginary frequencies ignored.
 Zero-point vibrational energy      57871.6 (Joules/Mol)
                                   13.83165 (Kcal/Mol)
 Warning -- explicit consideration of   3 degrees of freedom as
           vibrations may cause significant error
 Vibrational temperatures:    316.58   500.89   710.62  1152.74  1396.29
          (Kelvin)           1978.72  2427.52  5437.35
 
 Zero-point correction=                           0.022042 (Hartree/Particle)
 Thermal correction to Energy=                    0.026126
 Thermal correction to Enthalpy=                  0.027071
 Thermal correction to Gibbs Free Energy=        -0.004052
 Sum of electronic and zero-point Energies=           -280.424600
 Sum of electronic and thermal Energies=              -280.420516
 Sum of electronic and thermal Enthalpies=            -280.419571
 Sum of electronic and thermal Free Energies=         -280.450694
 
                     E (Thermal)             CV                S
                      KCal/Mol        Cal/Mol-Kelvin    Cal/Mol-Kelvin
 Total                   16.395             11.828             65.503
 Electronic               0.000              0.000              0.000
 Translational            0.889              2.981             38.341
 Rotational               0.889              2.981             23.019
 Vibrational             14.617              5.866              4.144
 Vibration     1          0.647              1.811              1.959
 Vibration     2          0.726              1.579              1.175
 Vibration     3          0.850              1.264              0.674
                       Q            Log10(Q)             Ln(Q)
 Total Bot       0.730828D+02          1.863815          4.291593
 Total V=0       0.100573D+13         12.002483         27.636739
 Vib (Bot)       0.155296D-09         -9.808839        -22.585687
 Vib (Bot)    1  0.898944D+00         -0.046268         -0.106535
 Vib (Bot)    2  0.530608D+00         -0.275226         -0.633732
 Vib (Bot)    3  0.334558D+00         -0.475529         -1.094945
 Vib (V=0)       0.213712D+01          0.329829          0.759459
 Vib (V=0)    1  0.152864D+01          0.184305          0.424378
 Vib (V=0)    2  0.122907D+01          0.089577          0.206259
 Vib (V=0)    3  0.110161D+01          0.042026          0.096769
 Electronic      0.100000D+01          0.000000          0.000000
 Translational   0.196526D+08          7.293420         16.793719
 Rotational      0.239461D+05          4.379235         10.083561
 
                                                                title
                                                             IR Spectrum
 
     3                                                                      1         1                                              
     7                                                                      6         3             9     8         4    3   2       
     7                                                                      8         7             7     0         9    4   2       
     9                                                                      7         5             0     1         4    8   0       
 
     X                                                                      X         X             X     X         X    X   X       
     X                                                                      X         X             X     X         X                
     X                                                                      X         X             X     X         X                
     X                                                                      X         X                   X         X                
     X                                                                      X         X                   X         X                
     X                                                                      X         X                   X         X                
     X                                                                      X         X                   X         X                
     X                                                                      X         X                   X         X                
     X                                                                      X         X                   X         X                
                                                                            X         X                   X         X                
                                                                            X         X                   X         X                
                                                                            X         X                   X         X                
                                                                            X         X                   X         X                
                                                                            X         X                   X         X                
                                                                                      X                   X         X                
                                                                                      X                   X         X                
                                                                                      X                   X         X                
                                                                                                          X         X                
                                                                                                          X         X                
                                                                                                          X                          
 
 ***** Axes restored to original set *****
 -------------------------------------------------------------------
 Center     Atomic                   Forces (Hartrees/Bohr)
 Number     Number              X              Y              Z
 -------------------------------------------------------------------
      1        1           0.000010802   -0.000000000   -0.000140294
      2        8           0.000183412   -0.000000000   -0.000429527
      3        8          -0.001686008   -0.000000000   -0.004251656
      4        7          -0.004655279    0.000000000    0.002629826
      5        8           0.006147072   -0.000000000    0.002191651
 -------------------------------------------------------------------
 Cartesian Forces:  Max     0.006147072 RMS     0.002481056
 -----------------------------------------------------------------------------------------------
                       Internal Coordinate Forces (Hartree/Bohr or radian)
  Cent   Atom   N1       Length/X         N2         Alpha/Y        N3         Beta/Z          J
 -----------------------------------------------------------------------------------------------
      1  H 
      2  O        1   0.000140(     1)
      3  O        2  -0.000117(     2)      1  -0.000020(     5)
      4  N        3   0.004928(     3)      2   0.001643(     6)      1  -0.000000(     8)     0
      5  O        4   0.006499(     4)      3   0.001323(     7)      2  -0.000000(     9)     0
 -----------------------------------------------------------------------------------------------
 Internal  Forces:  Max     0.006498649 RMS     0.002808649
 Force constants in Cartesian coordinates: 
                1             2             3             4             5 
      1  0.649849D-01
      2  0.000000D+00 -0.224714D-02
      3  0.540881D-02  0.000000D+00  0.512496D+00
      4 -0.363246D-01  0.000000D+00 -0.165590D-01  0.273931D+00
      5  0.000000D+00  0.293195D-02  0.000000D+00  0.000000D+00  0.250407D-02
      6  0.486606D-01  0.000000D+00 -0.508453D+00  0.342014D-01  0.000000D+00
      7 -0.177323D-01  0.000000D+00  0.128126D-01 -0.219490D+00  0.000000D+00
      8  0.000000D+00  0.899785D-03  0.000000D+00  0.000000D+00 -0.695470D-02
      9 -0.533259D-01  0.000000D+00 -0.404069D-03 -0.190067D-01  0.000000D+00
     10 -0.979343D-02  0.000000D+00 -0.496848D-02 -0.187589D-01  0.000000D+00
     11  0.000000D+00 -0.261521D-02  0.000000D+00  0.000000D+00 -0.515043D-02
     12  0.497057D-02  0.000000D+00 -0.516846D-02  0.112524D-01  0.000000D+00
     13 -0.113456D-02  0.000000D+00  0.330609D-02  0.641958D-03  0.000000D+00
     14  0.000000D+00  0.103062D-02  0.000000D+00  0.000000D+00  0.666911D-02
     15 -0.571409D-02  0.000000D+00  0.152969D-02 -0.988822D-02  0.000000D+00
                6             7             8             9            10 
      6  0.596941D+00
      7 -0.192924D-01  0.344556D+00
      8  0.000000D+00  0.000000D+00  0.322837D-02
      9 -0.794888D-01  0.380736D-01  0.000000D+00  0.200051D+00
     10 -0.556104D-01 -0.807866D-01  0.000000D+00  0.175882D+00  0.840095D+00
     11  0.000000D+00  0.000000D+00  0.100333D-01  0.000000D+00  0.000000D+00
     12  0.156196D-01  0.624021D-01  0.000000D+00 -0.966811D-01 -0.156751D-01
     13 -0.795924D-02 -0.265478D-01  0.000000D+00 -0.141623D+00 -0.730756D+00
     14  0.000000D+00  0.000000D+00 -0.720671D-02  0.000000D+00  0.000000D+00
     15 -0.246185D-01 -0.939958D-01  0.000000D+00 -0.234767D-01 -0.996277D-01
               11            12            13            14            15 
     11  0.519919D-02
     12  0.000000D+00  0.202204D+00
     13  0.000000D+00 -0.629500D-01  0.757796D+00
     14 -0.746680D-02  0.000000D+00  0.000000D+00  0.697379D-02
     15  0.000000D+00 -0.115974D+00  0.209226D+00  0.000000D+00  0.162540D+00
 Force constants in internal coordinates: 
                1             2             3             4             5 
      1  0.512496D+00
      2 -0.105180D-01  0.282022D+00
      3  0.376281D-02  0.411865D-02  0.137881D+00
      4 -0.358226D-02  0.566345D-02  0.157117D+00  0.821731D+00
      5  0.991488D-02  0.651051D-01  0.299751D-02  0.460876D-02  0.218147D+00
      6  0.515481D-02  0.620012D-01  0.452618D-01  0.217089D-01  0.326023D-01
      7 -0.146348D-02  0.390795D-01  0.374731D-01  0.887357D-01  0.212849D-01
      8  0.000000D+00  0.000000D+00  0.000000D+00  0.000000D+00  0.000000D+00
      9  0.000000D+00  0.000000D+00  0.000000D+00  0.000000D+00  0.000000D+00
                6             7             8             9 
      6  0.296688D+00
      7  0.945567D-01  0.497004D+00
      8  0.000000D+00  0.000000D+00 -0.714725D-02
      9  0.000000D+00  0.000000D+00 -0.391085D-02  0.429241D-01
 Leave Link  716 at Mon Feb 21 20:24:02 2022, MaxMem= 16106127360 cpu:               0.9 elap:               0.1
 (Enter /sw/contrib/gaussian/g16/B01/g16/l103.exe)

 GradGradGradGradGradGradGradGradGradGradGradGradGradGradGradGradGradGrad
 Berny optimization.
 Search for a local minimum.
 Step number   1 out of a maximum of    2
 All quantities printed in internal units (Hartrees-Bohrs-Radians)
 Second derivative matrix not updated -- analytic derivatives used.
 The second derivative matrix:
                          r1        r2        r3        r4        a1
           r1           0.51250
           r2          -0.01052   0.28202
           r3           0.00376   0.00412   0.13788
           r4          -0.00358   0.00566   0.15712   0.82173
           a1           0.00991   0.06511   0.00300   0.00461   0.21815
           a2           0.00515   0.06200   0.04526   0.02171   0.03260
           a3          -0.00146   0.03908   0.03747   0.08874   0.02128
           d1          -0.00000   0.00000  -0.00000  -0.00000   0.00000
           d2           0.00000   0.00000  -0.00000  -0.00000   0.00000
                          a2        a3        d1        d2
           a2           0.29669
           a3           0.09456   0.49700
           d1           0.00000   0.00000  -0.00715
           d2           0.00000   0.00000  -0.00391   0.04292
 ITU=  0
     Eigenvalues ---   -0.00745   0.04323   0.09513   0.17669   0.23478
     Eigenvalues ---    0.33175   0.51324   0.52866   0.88573
 Eigenvalue     1 is  -7.45D-03 should be greater than     0.000000 Eigenvector:
                          d1        d2        r3        a2        a3
   1                    0.99700   0.07740   0.00000  -0.00000  -0.00000
                          r4        a1        r2        r1
   1                   -0.00000   0.00000  -0.00000  -0.00000
 Angle between quadratic step and forces=  51.78 degrees.
 Linear search not attempted -- first point.
 Variable       Old X    -DE/DX   Delta X   Delta X   Delta X     New X
                                 (Linear)    (Quad)   (Total)
    r1        1.83110   0.00014   0.00000   0.00002   0.00002   1.83111
    r2        2.74940  -0.00012   0.00000  -0.00095  -0.00095   2.74845
    r3        2.71727   0.00493   0.00000   0.03403   0.03403   2.75130
    r4        2.21236   0.00650   0.00000   0.00141   0.00141   2.21377
    a1        1.70335  -0.00002   0.00000  -0.00037  -0.00037   1.70298
    a2        1.78543   0.00164   0.00000   0.00054   0.00054   1.78596
    a3        1.90362   0.00132   0.00000  -0.00017  -0.00017   1.90345
    d1        3.14159  -0.00000   0.00000  -0.00000   0.00000   3.14159
    d2        3.14159  -0.00000   0.00000  -0.00000   0.00000   3.14159
         Item               Value     Threshold  Converged?
 Maximum Force            0.006499     0.000450     NO 
 RMS     Force            0.002809     0.000300     NO 
 Maximum Displacement     0.034032     0.001800     NO 
 RMS     Displacement     0.011360     0.001200     NO 
 Predicted change in Energy=-8.883171D-05
                       ----------------------------
                       ! Non-Optimized Parameters !
                       ! (Angstroms and Degrees)  !
 ----------------------                            ----------------------
 !      Name          Value   Derivative information (Atomic Units)     !
 ------------------------------------------------------------------------
 !       r1          0.969    -DE/DX =    0.0001                        !
 !       r2          1.4544   -DE/DX =   -0.0001                        !
 !       r3          1.4559   -DE/DX =    0.0049                        !
 !       r4          1.1715   -DE/DX =    0.0065                        !
 !       a1         97.5738   -DE/DX =    0.0                           !
 !       a2        102.3282   -DE/DX =    0.0016                        !
 !       a3        109.0599   -DE/DX =    0.0013                        !
 !       d1        180.0      -DE/DX =    0.0                           !
 !       d2        180.0      -DE/DX =    0.0                           !
 ------------------------------------------------------------------------
 GradGradGradGradGradGradGradGradGradGradGradGradGradGradGradGradGradGrad

 Leave Link  103 at Mon Feb 21 20:24:02 2022, MaxMem= 16106127360 cpu:               0.6 elap:               0.1
 (Enter /sw/contrib/gaussian/g16/B01/g16/l9999.exe)

 ----------------------------------------------------------------------

 Electric dipole moment (input orientation):
 (Debye = 10**-18 statcoulomb cm , SI units = C m)
                  (au)            (Debye)         (10**-30 SI)
   Tot        0.628817D+00      0.159829D+01      0.533134D+01
   x         -0.177649D+00     -0.451539D+00     -0.150617D+01
   y          0.000000D+00      0.000000D+00      0.000000D+00
   z         -0.603202D+00     -0.153319D+01     -0.511416D+01

 Dipole polarizability, Alpha (input orientation).
 (esu units = cm**3 , SI units = C**2 m**2 J**-1)
 Alpha(0;0):
               (au)            (10**-24 esu)      (10**-40 SI)
   iso        0.272338D+02      0.403563D+01      0.449025D+01
   aniso      0.217593D+02      0.322440D+01      0.358763D+01
   xx         0.321024D+02      0.475709D+01      0.529297D+01
   yx         0.000000D+00      0.000000D+00      0.000000D+00
   yy         0.178579D+02      0.264627D+01      0.294437D+01
   zx         0.958434D+01      0.142025D+01      0.158024D+01
   zy         0.000000D+00      0.000000D+00      0.000000D+00
   zz         0.317411D+02      0.470354D+01      0.523340D+01

 ----------------------------------------------------------------------

 Dipole orientation:
     1          0.00000000          0.00000000         -0.00000000
     8         -0.51730909         -0.00000000         -1.75650584
     8          1.99429052          0.00000000         -2.87501486
     7          1.44290660          0.00000000         -5.53575342
     8          3.34368268          0.00000000         -6.66781938

 Electric dipole moment (dipole orientation):
 (Debye = 10**-18 statcoulomb cm , SI units = C m)
                  (au)            (Debye)         (10**-30 SI)
   Tot        0.628817D+00      0.159829D+01      0.533134D+01
   x          0.000000D+00      0.000000D+00      0.000000D+00
   y          0.000000D+00      0.000000D+00      0.000000D+00
   z          0.628817D+00      0.159829D+01      0.533134D+01

 Dipole polarizability, Alpha (dipole orientation).
 (esu units = cm**3 , SI units = C**2 m**2 J**-1)
 Alpha(0;0):
               (au)            (10**-24 esu)      (10**-40 SI)
   iso        0.272338D+02      0.403563D+01      0.449025D+01
   aniso      0.217593D+02      0.322440D+01      0.358763D+01
   xx         0.268788D+02      0.398302D+01      0.443171D+01
   yx         0.000000D+00      0.000000D+00      0.000000D+00
   yy         0.178579D+02      0.264627D+01      0.294437D+01
   zx        -0.815234D+01     -0.120805D+01     -0.134414D+01
   zy         0.000000D+00      0.000000D+00      0.000000D+00
   zz         0.369647D+02      0.547760D+01      0.609466D+01

 ----------------------------------------------------------------------
 1\1\GINC-N2110\Freq\RMP2-FC\Aug-CC-pVTZ\H1N1O3\CGAVINH\21-Feb-2022\1\\
 #p freq mp2/aug-cc-pvtz density=current\\title\\0,1\H\O,1,r1\O,2,r2,1,
 a1\N,3,r3,2,a2,1,d1,0\O,4,r4,3,a3,2,d2,0\\r1=0.96897556\r2=1.45491931\
 r3=1.43791713\r4=1.17072885\a1=97.59494903\a2=102.29752444\a3=109.0695
 5123\d1=180.\d2=180.\\Version=ES64L-G16RevB.01\State=1-A'\HF=-279.5035
 828\MP2=-280.4466421\RMSD=3.523e-09\RMSF=2.481e-03\ZeroPoint=0.0220421
 \Thermal=0.0261265\Dipole=-0.1776491,0.,-0.6032016\DipoleDeriv=0.26814
 92,0.,0.0502391,0.,0.3561641,0.,0.0820819,0.,0.2753643,-0.3245414,0.,-
 0.2083031,0.,-0.3119936,0.,-0.1096648,0.,-0.2148544,-0.0321568,0.,0.15
 77161,0.,-0.0742303,0.,-0.7602305,0.,-1.343628,0.8693713,0.,0.8758483,
 0.,0.0599074,0.,0.9309758,0.,1.6623733,-0.7808223,0.,-0.8755004,0.,-0.
 0298476,0.,-0.1431624,0.,-0.3792551\Polar=32.1024111,0.,17.8579082,9.5
 843399,0.,31.741068\Quadrupole=-1.5227321,-0.6819216,2.2046537,0.,2.05
 96443,0.\PG=CS [SG(H1N1O3)]\NImag=1\\0.06498494,0.,-0.00224714,0.00540
 881,0.,0.51249564,-0.03632462,0.,-0.01655897,0.27393112,0.,0.00293195,
 0.,0.,0.00250407,0.04866057,0.,-0.50845279,0.03420144,0.,0.59694050,-0
 .01773233,0.,0.01281255,-0.21948953,0.,-0.01929240,0.34455632,0.,0.000
 89979,0.,0.,-0.00695470,0.,0.,0.00322837,-0.05332585,0.,-0.00040407,-0
 .01900668,0.,-0.07948882,0.03807357,0.,0.20005073,-0.00979343,0.,-0.00
 496848,-0.01875893,0.,-0.05561037,-0.08078662,0.,0.17588164,0.84009480
 ,0.,-0.00261521,0.,0.,-0.00515043,0.,0.,0.01003326,0.,0.,0.00519919,0.
 00497057,0.,-0.00516846,0.01125244,0.,0.01561963,0.06240210,0.,-0.0966
 8114,-0.01567506,0.,0.20220420,-0.00113456,0.,0.00330609,0.00064196,0.
 ,-0.00795924,-0.02654784,0.,-0.14162268,-0.73075582,0.,-0.06295005,0.7
 5779626,0.,0.00103062,0.,0.,0.00666911,0.,0.,-0.00720671,0.,0.,-0.0074
 6680,0.,0.,0.00697379,-0.00571409,0.,0.00152969,-0.00988822,0.,-0.0246
 1852,-0.09399582,0.,-0.02347670,-0.09962774,0.,-0.11597423,0.20922587,
 0.,0.16253977\\-0.00001080,0.,0.00014029,-0.00018341,0.,0.00042953,0.0
 0168601,0.,0.00425166,0.00465528,0.,-0.00262983,-0.00614707,0.,-0.0021
 9165\\\@


 AN AIRPLANE IS A COLLECTION OF SPARE PARTS
 FLYING IN CLOSE FORMATION.
 Job cpu time:       0 days  1 hours 59 minutes 23.6 seconds.
 Elapsed time:       0 days  0 hours  4 minutes 18.9 seconds.
 File lengths (MBytes):  RWF=   7239 Int=      0 D2E=      0 Chk=      8 Scr=      1
 Normal termination of Gaussian 16 at Mon Feb 21 20:24:04 2022.
