title                                                                   
Freq      RMP2-FC                                                     Aug-CC-pVTZ         
Number of atoms                            I                5
Info1-9                                    I   N=           9
          33          24           0           0           0         100
           6           2           1
Full Title                                 C   N=           1
title       
Route                                      C   N=           4
#p freq mp2/aug-cc-pvtz density=current         
Charge                                     I                0
Multiplicity                               I                1
Number of electrons                        I               32
Number of alpha electrons                  I               16
Number of beta electrons                   I               16
Number of basis functions                  I              207
Number of independent functions            I              207
Number of point charges in /Mol/           I                0
Number of translation vectors              I                0
Atomic numbers                             I   N=           5
           1           8           8           7           8
Nuclear charges                            R   N=           5
  1.00000000E+00  8.00000000E+00  8.00000000E+00  7.00000000E+00  8.00000000E+00
Current cartesian coordinates              R   N=          15
  2.08151565E+00 -1.14386316E+00  1.97215226E-31  2.48123682E+00  6.74820297E-01
  1.97215226E-31 -5.32723084E-17  1.72963926E+00 -4.93038066E-32 -1.88275530E+00
 -7.78146844E-02 -2.46519033E-31 -1.09401539E+00 -2.19338881E+00 -4.93038066E-32
Number of symbols in /Mol/                 I                0
Force Field                                I                0
Atom Types                                 C   N=           5
                                                            
Int Atom Types                             I   N=           5
           0           0           0           0           0
MM charges                                 R   N=           5
  0.00000000E+00  0.00000000E+00  0.00000000E+00  0.00000000E+00  0.00000000E+00
Integer atomic weights                     I   N=           5
           1          16          16          14          16
Real atomic weights                        R   N=           5
  1.00782504E+00  1.59949146E+01  1.59949146E+01  1.40030740E+01  1.59949146E+01
Atom fragment info                         I   N=           5
           0           0           0           0           0
Atom residue num                           I   N=           5
           0           0           0           0           0
Nuclear spins                              I   N=           5
           1           0           0           2           0
Nuclear ZEff                               R   N=           5
 -1.00000000E+00 -5.60000000E+00 -5.60000000E+00 -4.55000000E+00 -5.60000000E+00
Nuclear ZNuc                               R   N=           5
  1.00000000E+00  8.00000000E+00  8.00000000E+00  7.00000000E+00  8.00000000E+00
Nuclear QMom                               R   N=           5
  0.00000000E+00  0.00000000E+00  0.00000000E+00  2.04400000E+00  0.00000000E+00
Nuclear GFac                               R   N=           5
  2.79284600E+00  0.00000000E+00  0.00000000E+00  4.03761000E-01  0.00000000E+00
MicOpt                                     I   N=           5
          -1          -1          -1          -1          -1
Number of residues                         I                0
Number of secondary structures             I                0
SymInf integers                            I   N=          26
           1           2           1           1           1           1
           1          -1           0           0           0           0
           0           0           0           0           0           0
           0           0           0           0           0           0
           0           0
RotTr to input orientation                 R   N=          12
 -9.76688305E-01 -2.16868369E-16  2.14662419E-01  2.14662419E-01  4.76646320E-17
  9.76688305E-01 -2.22044605E-16  1.00000000E+00  0.00000000E+00  2.27853643E+00
  0.00000000E+00  6.70374589E-01
Number of contracted shells                I               65
Number of primitive shells                 I              119
Pure/Cartesian d shells                    I                0
Pure/Cartesian f shells                    I                0
Highest angular momentum                   I                3
Largest degree of contraction              I                7
Shell types                                I   N=          65
           0           0           0           0           1           1
           1          -2          -2           0           0           0
           0           0           1           1           1           1
          -2          -2          -2          -3          -3           0
           0           0           0           0           1           1
           1           1          -2          -2          -2          -3
          -3           0           0           0           0           0
           1           1           1           1          -2          -2
          -2          -3          -3           0           0           0
           0           0           1           1           1           1
          -2          -2          -2          -3          -3
Number of primitives per shell             I   N=          65
           3           1           1           1           1           1
           1           1           1           7           6           1
           1           1           3           1           1           1
           1           1           1           1           1           7
           6           1           1           1           3           1
           1           1           1           1           1           1
           1           7           6           1           1           1
           3           1           1           1           1           1
           1           1           1           7           6           1
           1           1           3           1           1           1
           1           1           1           1           1
Shell to atom map                          I   N=          65
           1           1           1           1           1           1
           1           1           1           2           2           2
           2           2           2           2           2           2
           2           2           2           2           2           3
           3           3           3           3           3           3
           3           3           3           3           3           3
           3           4           4           4           4           4
           4           4           4           4           4           4
           4           4           4           5           5           5
           5           5           5           5           5           5
           5           5           5           5           5
Primitive exponents                        R   N=         119
  3.38700000E+01  5.09500000E+00  1.15900000E+00  3.25800000E-01  1.02700000E-01
  2.52600000E-02  1.40700000E+00  3.88000000E-01  1.02000000E-01  1.05700000E+00
  2.47000000E-01  1.53300000E+04  2.29900000E+03  5.22400000E+02  1.47300000E+02
  4.75500000E+01  1.67600000E+01  6.20700000E+00  5.22400000E+02  1.47300000E+02
  4.75500000E+01  1.67600000E+01  6.20700000E+00  6.88200000E-01  1.75200000E+00
  2.38400000E-01  7.37600000E-02  3.44600000E+01  7.74900000E+00  2.28000000E+00
  7.15600000E-01  2.14000000E-01  5.97400000E-02  2.31400000E+00  6.45000000E-01
  2.14000000E-01  1.42800000E+00  5.00000000E-01  1.53300000E+04  2.29900000E+03
  5.22400000E+02  1.47300000E+02  4.75500000E+01  1.67600000E+01  6.20700000E+00
  5.22400000E+02  1.47300000E+02  4.75500000E+01  1.67600000E+01  6.20700000E+00
  6.88200000E-01  1.75200000E+00  2.38400000E-01  7.37600000E-02  3.44600000E+01
  7.74900000E+00  2.28000000E+00  7.15600000E-01  2.14000000E-01  5.97400000E-02
  2.31400000E+00  6.45000000E-01  2.14000000E-01  1.42800000E+00  5.00000000E-01
  1.14200000E+04  1.71200000E+03  3.89300000E+02  1.10000000E+02  3.55700000E+01
  1.25400000E+01  4.64400000E+00  3.89300000E+02  1.10000000E+02  3.55700000E+01
  1.25400000E+01  4.64400000E+00  5.11800000E-01  1.29300000E+00  1.78700000E-01
  5.76000000E-02  2.66300000E+01  5.94800000E+00  1.74200000E+00  5.55000000E-01
  1.72500000E-01  4.91000000E-02  1.65400000E+00  4.69000000E-01  1.51000000E-01
  1.09300000E+00  3.64000000E-01  1.53300000E+04  2.29900000E+03  5.22400000E+02
  1.47300000E+02  4.75500000E+01  1.67600000E+01  6.20700000E+00  5.22400000E+02
  1.47300000E+02  4.75500000E+01  1.67600000E+01  6.20700000E+00  6.88200000E-01
  1.75200000E+00  2.38400000E-01  7.37600000E-02  3.44600000E+01  7.74900000E+00
  2.28000000E+00  7.15600000E-01  2.14000000E-01  5.97400000E-02  2.31400000E+00
  6.45000000E-01  2.14000000E-01  1.42800000E+00  5.00000000E-01
Contraction coefficients                   R   N=         119
  2.54948632E-02  1.90362766E-01  8.52162022E-01  1.00000000E+00  1.00000000E+00
  1.00000000E+00  1.00000000E+00  1.00000000E+00  1.00000000E+00  1.00000000E+00
  1.00000000E+00  5.19808943E-04  4.02025621E-03  2.07128267E-02  8.10105536E-02
  2.35962985E-01  4.42653446E-01  3.57064423E-01 -4.42115008E-05 -1.22591041E-03
 -1.05517725E-02 -6.74452633E-02 -1.71198607E-01  1.07329856E+00  1.00000000E+00
  1.00000000E+00  1.00000000E+00  4.11634896E-02  2.57762836E-01  8.02419274E-01
  1.00000000E+00  1.00000000E+00  1.00000000E+00  1.00000000E+00  1.00000000E+00
  1.00000000E+00  1.00000000E+00  1.00000000E+00  5.19808943E-04  4.02025621E-03
  2.07128267E-02  8.10105536E-02  2.35962985E-01  4.42653446E-01  3.57064423E-01
 -4.42115008E-05 -1.22591041E-03 -1.05517725E-02 -6.74452633E-02 -1.71198607E-01
  1.07329856E+00  1.00000000E+00  1.00000000E+00  1.00000000E+00  4.11634896E-02
  2.57762836E-01  8.02419274E-01  1.00000000E+00  1.00000000E+00  1.00000000E+00
  1.00000000E+00  1.00000000E+00  1.00000000E+00  1.00000000E+00  1.00000000E+00
  5.34563860E-04  4.13435660E-03  2.12335358E-02  8.25006224E-02  2.38138871E-01
  4.42551547E-01  3.53757422E-01 -4.89867350E-05 -1.19527323E-03 -1.03490714E-02
 -6.48680190E-02 -1.71552477E-01  1.07289568E+00  1.00000000E+00  1.00000000E+00
  1.00000000E+00  3.98072123E-02  2.49002660E-01  8.10479727E-01  1.00000000E+00
  1.00000000E+00  1.00000000E+00  1.00000000E+00  1.00000000E+00  1.00000000E+00
  1.00000000E+00  1.00000000E+00  5.19808943E-04  4.02025621E-03  2.07128267E-02
  8.10105536E-02  2.35962985E-01  4.42653446E-01  3.57064423E-01 -4.42115008E-05
 -1.22591041E-03 -1.05517725E-02 -6.74452633E-02 -1.71198607E-01  1.07329856E+00
  1.00000000E+00  1.00000000E+00  1.00000000E+00  4.11634896E-02  2.57762836E-01
  8.02419274E-01  1.00000000E+00  1.00000000E+00  1.00000000E+00  1.00000000E+00
  1.00000000E+00  1.00000000E+00  1.00000000E+00  1.00000000E+00
Coordinates of each shell                  R   N=         195
  2.08151565E+00 -1.14386316E+00  1.13201047E-31  2.08151565E+00 -1.14386316E+00
  1.13201047E-31  2.08151565E+00 -1.14386316E+00  1.13201047E-31  2.08151565E+00
 -1.14386316E+00  1.13201047E-31  2.08151565E+00 -1.14386316E+00  1.13201047E-31
  2.08151565E+00 -1.14386316E+00  1.13201047E-31  2.08151565E+00 -1.14386316E+00
  1.13201047E-31  2.08151565E+00 -1.14386316E+00  1.13201047E-31  2.08151565E+00
 -1.14386316E+00  1.13201047E-31  2.48123682E+00  6.74820297E-01  1.16096068E-31
  2.48123682E+00  6.74820297E-01  1.16096068E-31  2.48123682E+00  6.74820297E-01
  1.16096068E-31  2.48123682E+00  6.74820297E-01  1.16096068E-31  2.48123682E+00
  6.74820297E-01  1.16096068E-31  2.48123682E+00  6.74820297E-01  1.16096068E-31
  2.48123682E+00  6.74820297E-01  1.16096068E-31  2.48123682E+00  6.74820297E-01
  1.16096068E-31  2.48123682E+00  6.74820297E-01  1.16096068E-31  2.48123682E+00
  6.74820297E-01  1.16096068E-31  2.48123682E+00  6.74820297E-01  1.16096068E-31
  2.48123682E+00  6.74820297E-01  1.16096068E-31  2.48123682E+00  6.74820297E-01
  1.16096068E-31  2.48123682E+00  6.74820297E-01  1.16096068E-31  2.56338322E-17
  1.72963926E+00 -1.59895874E-32  2.56338322E-17  1.72963926E+00 -1.59895874E-32
  2.56338322E-17  1.72963926E+00 -1.59895874E-32  2.56338322E-17  1.72963926E+00
 -1.59895874E-32  2.56338322E-17  1.72963926E+00 -1.59895874E-32  2.56338322E-17
  1.72963926E+00 -1.59895874E-32  2.56338322E-17  1.72963926E+00 -1.59895874E-32
  2.56338322E-17  1.72963926E+00 -1.59895874E-32  2.56338322E-17  1.72963926E+00
 -1.59895874E-32  2.56338322E-17  1.72963926E+00 -1.59895874E-32  2.56338322E-17
  1.72963926E+00 -1.59895874E-32  2.56338322E-17  1.72963926E+00 -1.59895874E-32
  2.56338322E-17  1.72963926E+00 -1.59895874E-32  2.56338322E-17  1.72963926E+00
 -1.59895874E-32 -1.88275530E+00 -7.78146844E-02 -9.21076483E-32 -1.88275530E+00
 -7.78146844E-02 -9.21076483E-32 -1.88275530E+00 -7.78146844E-02 -9.21076483E-32
 -1.88275530E+00 -7.78146844E-02 -9.21076483E-32 -1.88275530E+00 -7.78146844E-02
 -9.21076483E-32 -1.88275530E+00 -7.78146844E-02 -9.21076483E-32 -1.88275530E+00
 -7.78146844E-02 -9.21076483E-32 -1.88275530E+00 -7.78146844E-02 -9.21076483E-32
 -1.88275530E+00 -7.78146844E-02 -9.21076483E-32 -1.88275530E+00 -7.78146844E-02
 -9.21076483E-32 -1.88275530E+00 -7.78146844E-02 -9.21076483E-32 -1.88275530E+00
 -7.78146844E-02 -9.21076483E-32 -1.88275530E+00 -7.78146844E-02 -9.21076483E-32
 -1.88275530E+00 -7.78146844E-02 -9.21076483E-32 -1.09401539E+00 -2.19338881E+00
 -3.36624197E-32 -1.09401539E+00 -2.19338881E+00 -3.36624197E-32 -1.09401539E+00
 -2.19338881E+00 -3.36624197E-32 -1.09401539E+00 -2.19338881E+00 -3.36624197E-32
 -1.09401539E+00 -2.19338881E+00 -3.36624197E-32 -1.09401539E+00 -2.19338881E+00
 -3.36624197E-32 -1.09401539E+00 -2.19338881E+00 -3.36624197E-32 -1.09401539E+00
 -2.19338881E+00 -3.36624197E-32 -1.09401539E+00 -2.19338881E+00 -3.36624197E-32
 -1.09401539E+00 -2.19338881E+00 -3.36624197E-32 -1.09401539E+00 -2.19338881E+00
 -3.36624197E-32 -1.09401539E+00 -2.19338881E+00 -3.36624197E-32 -1.09401539E+00
 -2.19338881E+00 -3.36624197E-32 -1.09401539E+00 -2.19338881E+00 -3.36624197E-32
Num ILSW                                   I              100
ILSW                                       I   N=         100
           0           0           0           0           2           0
           0           0           0           0           0          -1
           5           0           0           0           2           0
           0           0           0           0           1           0
           1           0           0           0           0           0
           0           0      100000           0          -1           0
           0           0           0           0           0           0
           0           0           0           1           1           0
           0 -2000000000           1           0           0           0
           0           0           4          52           0           0
           0           0           0           0           0           0
           0           0           0           5           4           1
           0           0           0           0           0           0
           0           0           0           0           0           0
           0           0           0           0           0           0
           0           0           0           0           0           0
           0           0           0           0
Num RLSW                                   I               52
RLSW                                       R   N=          52
  1.00000000E+00  1.00000000E+00  1.00000000E+00  1.00000000E+00  1.00000000E+00
  0.00000000E+00  0.00000000E+00  1.00000000E+00  0.00000000E+00  0.00000000E+00
  0.00000000E+00  0.00000000E+00  1.00000000E+00  0.00000000E+00  0.00000000E+00
  0.00000000E+00  0.00000000E+00  1.00000000E+00  0.00000000E+00  0.00000000E+00
  0.00000000E+00  0.00000000E+00  1.00000000E+00  0.00000000E+00  0.00000000E+00
  0.00000000E+00  0.00000000E+00  1.00000000E+00  0.00000000E+00  0.00000000E+00
  0.00000000E+00  0.00000000E+00  1.00000000E+00  0.00000000E+00  0.00000000E+00
  0.00000000E+00  0.00000000E+00  0.00000000E+00  1.00000000E+00  1.00000000E+00
  0.00000000E+00  1.00000000E+00  0.00000000E+00  0.00000000E+00  0.00000000E+00
  0.00000000E+00  0.00000000E+00  0.00000000E+00  0.00000000E+00  0.00000000E+00
  0.00000000E+00  0.00000000E+00
MxBond                                     I                2
NBond                                      I   N=           5
           1           2           2           2           1
IBond                                      I   N=          10
           2           0           1           3           2           4
           3           5           4           0
RBond                                      R   N=          10
  1.00000000E+00  0.00000000E+00  1.00000000E+00  1.00000000E+00  1.00000000E+00
  1.00000000E+00  1.00000000E+00  2.00000000E+00  2.00000000E+00  0.00000000E+00
Virial Ratio                               R      2.002198471605113E+00
SCF Energy                                 R     -2.795062851622405E+02
MP2 Energy                                 R     -2.804551499271815E+02
Total Energy                               R     -2.804551499271815E+02
Post-SCF wavefunction norm                 R      1.583680254317446E+00
RMS Force                                  R      2.085696661793851E-03
RMS Density                                R      4.515354205950880E-09
NImag                                      I                0
Job Status                                 I                1
Nuclear derivative order                   I                2
External E-field                           R   N=          35
  0.00000000E+00  0.00000000E+00  0.00000000E+00  0.00000000E+00  0.00000000E+00
  0.00000000E+00  0.00000000E+00  0.00000000E+00  0.00000000E+00  0.00000000E+00
  0.00000000E+00  0.00000000E+00  0.00000000E+00  0.00000000E+00  0.00000000E+00
  0.00000000E+00  0.00000000E+00  0.00000000E+00  0.00000000E+00  0.00000000E+00
  0.00000000E+00  0.00000000E+00  0.00000000E+00  0.00000000E+00  0.00000000E+00
  0.00000000E+00  0.00000000E+00  0.00000000E+00  0.00000000E+00  0.00000000E+00
  0.00000000E+00  0.00000000E+00  0.00000000E+00  0.00000000E+00  0.00000000E+00
IOpCl                                      I                0
IROHF                                      I                0
Alpha Orbital Energies                     R   N=         207
 -2.07188301E+01 -2.06867768E+01 -2.06676475E+01 -1.58266341E+01 -1.64550804E+00
 -1.50380967E+00 -1.29336537E+00 -9.60048859E-01 -8.35987002E-01 -7.59124384E-01
 -7.40146143E-01 -6.36002732E-01 -6.17875543E-01 -6.17737511E-01 -5.06317700E-01
 -4.96980690E-01  3.51495276E-02  5.97003703E-02  9.51203068E-02  1.00228704E-01
  1.19692785E-01  1.22548592E-01  1.49613023E-01  1.52211627E-01  1.77383454E-01
  1.80315510E-01  1.89967147E-01  2.10930115E-01  2.16674187E-01  2.42451905E-01
  2.46356464E-01  2.69676220E-01  3.13865748E-01  3.17839844E-01  3.37920962E-01
  3.44347003E-01  3.47587927E-01  3.92531977E-01  4.50640541E-01  4.88702646E-01
  5.05579353E-01  5.17957854E-01  5.45940660E-01  5.60215258E-01  5.99061180E-01
  6.19605393E-01  6.38015419E-01  6.89867351E-01  7.16770778E-01  7.24541014E-01
  7.46579446E-01  7.62614600E-01  7.67018910E-01  7.95820409E-01  8.07937222E-01
  8.39431585E-01  8.43167278E-01  8.52328811E-01  8.85699943E-01  9.08724714E-01
  9.33612573E-01  9.46819789E-01  9.53774607E-01  1.01874559E+00  1.03274237E+00
  1.06661178E+00  1.06977496E+00  1.09707916E+00  1.14640118E+00  1.15693394E+00
  1.16765432E+00  1.22392918E+00  1.22780339E+00  1.24582270E+00  1.35577539E+00
  1.35756978E+00  1.37328991E+00  1.46753452E+00  1.48669884E+00  1.50324310E+00
  1.54317445E+00  1.59782122E+00  1.60203647E+00  1.60637846E+00  1.62941373E+00
  1.69595539E+00  1.74115067E+00  1.80070530E+00  1.83100487E+00  1.88904918E+00
  1.89485101E+00  1.93042293E+00  1.97840103E+00  1.99000829E+00  2.05406761E+00
  2.12670385E+00  2.13065157E+00  2.16691292E+00  2.18919625E+00  2.24508018E+00
  2.25946049E+00  2.29391151E+00  2.35252696E+00  2.37049951E+00  2.38577592E+00
  2.40307650E+00  2.43339692E+00  2.46908595E+00  2.47930497E+00  2.53189830E+00
  2.53902460E+00  2.55320020E+00  2.56031193E+00  2.61970269E+00  2.63149528E+00
  2.67563369E+00  2.67833711E+00  2.75379360E+00  2.81058751E+00  2.82306366E+00
  2.83864838E+00  2.91944503E+00  2.99413128E+00  3.04575350E+00  3.04845433E+00
  3.11339576E+00  3.11978659E+00  3.17687439E+00  3.21375856E+00  3.31116354E+00
  3.33038928E+00  3.36242307E+00  3.47463459E+00  3.67905430E+00  3.87011671E+00
  3.93588295E+00  4.18792582E+00  4.22884611E+00  4.23144874E+00  4.27061711E+00
  4.37364840E+00  4.49907075E+00  4.54377036E+00  4.55343216E+00  4.59849650E+00
  4.69566712E+00  4.81146697E+00  4.89401863E+00  4.91571859E+00  4.93891024E+00
  5.00203230E+00  5.00634000E+00  5.10614851E+00  5.13254768E+00  5.18273498E+00
  5.25281465E+00  5.26149607E+00  5.32037074E+00  5.34936850E+00  5.36483637E+00
  5.55118049E+00  5.64638285E+00  5.71062185E+00  5.89315257E+00  5.99337435E+00
  6.26553467E+00  6.29568008E+00  6.36290500E+00  6.37747023E+00  6.59790887E+00
  6.66064198E+00  6.66857994E+00  6.69524136E+00  6.72901583E+00  6.78743700E+00
  6.80243045E+00  6.86450153E+00  6.96651686E+00  7.02150948E+00  7.06634521E+00
  7.07995201E+00  7.13626733E+00  7.17462859E+00  7.18800215E+00  7.20433892E+00
  7.24733105E+00  7.25010635E+00  7.27290135E+00  7.35011262E+00  7.39224259E+00
  7.43289202E+00  7.44230349E+00  7.46450515E+00  7.56066665E+00  7.66351251E+00
  7.68177987E+00  7.79548960E+00  7.88424404E+00  7.95352092E+00  8.07516266E+00
  8.30973884E+00  8.49849587E+00  8.65251792E+00  1.36239262E+01  1.47630020E+01
  1.51108413E+01  1.57976092E+01
Alpha MO coefficients                      R   N=       42849
  6.32438432E-05  4.85012005E-06 -1.11534782E-03  1.56214662E-05 -5.09971074E-05
  4.18357666E-05  0.00000000E+00 -9.57364744E-05 -2.75977731E-04  0.00000000E+00
 -3.51512933E-06 -3.53205591E-04  0.00000000E+00  4.13357184E-05  0.00000000E+00
  0.00000000E+00 -2.50992090E-05  1.16408732E-05  2.31587200E-04  0.00000000E+00
  0.00000000E+00 -4.32108386E-05 -2.14451149E-04  3.09424016E-03 -9.57282386E-05
 -9.74620154E-05  3.50692985E-03  2.48143198E-03  1.01475601E-04 -5.41836961E-05
  0.00000000E+00 -7.22841800E-04  2.92416063E-04  0.00000000E+00 -1.94967934E-03
  1.13071483E-03  0.00000000E+00 -5.38789847E-04  3.88118826E-05  0.00000000E+00
  2.04082921E-05  0.00000000E+00  0.00000000E+00 -8.54296524E-06  4.41518221E-05
 -4.41444055E-04  0.00000000E+00  0.00000000E+00  4.21706294E-04 -6.66860275E-04
 -3.62231321E-04  0.00000000E+00  0.00000000E+00  5.34501629E-04 -7.51053021E-04
  0.00000000E+00  7.32666011E-05 -5.31007771E-05  0.00000000E+00  0.00000000E+00
 -2.62982219E-05  1.08899058E-04  0.00000000E+00  2.08064902E-04 -5.04183376E-05
  0.00000000E+00  0.00000000E+00 -1.65376835E-04  3.01549207E-04  9.76901301E-01
 -9.17613068E-03  4.34103870E-02  4.82991599E-04 -2.20632516E-03  4.33168010E-04
 -2.15045988E-03  0.00000000E+00 -3.04257673E-04  2.25583782E-03  0.00000000E+00
 -2.29626901E-03 -4.81951243E-04  0.00000000E+00 -2.22124738E-04  9.71042538E-05
  0.00000000E+00  6.57915071E-06  0.00000000E+00  0.00000000E+00 -5.35885450E-06
  3.80701441E-05  8.26180484E-04  0.00000000E+00  0.00000000E+00 -4.76577356E-04
 -1.65640332E-04 -1.44442959E-04  0.00000000E+00  0.00000000E+00 -5.54320332E-04
  3.54009671E-04  0.00000000E+00 -6.62529973E-06 -7.98859947E-05  0.00000000E+00
  0.00000000E+00 -8.61542494E-06  4.76076754E-05  0.00000000E+00  9.10048805E-05
  2.45000315E-06  0.00000000E+00  0.00000000E+00 -3.28835895E-04  3.85029826E-04
  1.04525559E-04  4.57452524E-04 -3.24285593E-04 -8.38614794E-04  3.44014514E-04
 -4.58291600E-05 -9.93829763E-05  0.00000000E+00  7.02497226E-04  1.10560821E-03
  0.00000000E+00 -7.28415253E-04 -5.88821041E-04  0.00000000E+00  1.99305326E-04
  2.15153836E-04  0.00000000E+00 -5.26210778E-05  0.00000000E+00  0.00000000E+00
  1.85143403E-05  9.39330948E-05 -4.16474904E-04  0.00000000E+00  0.00000000E+00
  5.71441119E-05  1.07361164E-03  2.65148771E-05  0.00000000E+00  0.00000000E+00
 -2.96766724E-04  3.35908565E-05  0.00000000E+00 -7.95261881E-05 -1.12429538E-04
  0.00000000E+00  0.00000000E+00 -9.54699138E-05  1.06903991E-04  0.00000000E+00
 -1.28187804E-04  4.36378847E-05  0.00000000E+00  0.00000000E+00  1.81905850E-05
  5.13305108E-04 -7.25228442E-04  6.17482961E-05 -6.84034937E-05  2.57380982E-04
 -1.80211898E-04 -2.76622676E-05 -3.98043954E-05  0.00000000E+00  1.61845214E-04
  2.55362596E-04  0.00000000E+00  4.84879926E-04  3.10233219E-04  0.00000000E+00
 -2.29841345E-04 -6.17414747E-05  0.00000000E+00 -1.38787669E-05  0.00000000E+00
  0.00000000E+00  2.08833376E-06  1.74663173E-05  3.91468201E-06  0.00000000E+00
  0.00000000E+00 -1.56292802E-04 -6.95288501E-06 -1.20817483E-05  0.00000000E+00
  0.00000000E+00 -1.66296576E-04 -6.82628937E-05  0.00000000E+00 -5.26447847E-06
 -7.29417886E-06  0.00000000E+00  0.00000000E+00 -2.00357145E-05  1.06988549E-05
  0.00000000E+00  3.95274527E-05  6.29894470E-05  0.00000000E+00  0.00000000E+00
  1.66157080E-04 -1.01967197E-04  3.74512652E-05  6.94666238E-05 -9.01034509E-05
 -2.94835038E-05  2.41221386E-05  1.57055845E-05  0.00000000E+00  2.24823168E-04
  4.00767088E-05  0.00000000E+00  1.13575962E-04  1.50057265E-05  0.00000000E+00
  1.01099354E-05  0.00000000E+00  0.00000000E+00 -7.32800044E-06  2.04280090E-05
  1.72073638E-05  0.00000000E+00  0.00000000E+00 -8.11587293E-05  7.28993157E-05
 -2.67408819E-04  3.49826670E-05 -1.47968040E-05 -5.39481227E-04  1.54265768E-04
  7.15736242E-06  1.33962826E-05  0.00000000E+00 -2.47516471E-06 -4.49244168E-05
  0.00000000E+00  1.80303648E-04  1.46161258E-04  0.00000000E+00 -4.23241365E-05
  5.21491359E-05  0.00000000E+00 -2.39444620E-06  0.00000000E+00  0.00000000E+00
 -7.93931813E-06 -1.04282690E-05  2.60311723E-05  0.00000000E+00  0.00000000E+00
  4.98752264E-05  1.07138769E-04  6.64963903E-05  0.00000000E+00  0.00000000E+00
 -3.05683537E-05 -8.20099116E-05  0.00000000E+00  7.48494012E-06  9.72778782E-06
  0.00000000E+00  0.00000000E+00 -6.60524402E-07 -2.68826190E-05  0.00000000E+00
 -1.57324481E-05 -3.98110283E-05  0.00000000E+00  0.00000000E+00 -1.46945076E-06
 -1.71332986E-05  7.55888226E-04  2.45016893E-05 -1.50857552E-05  2.86598853E-04
 -4.05372615E-04  1.55415876E-05  2.45902170E-05  0.00000000E+00 -6.22409905E-05
 -1.44263636E-04  0.00000000E+00  1.29412594E-04 -1.88740430E-04  0.00000000E+00
 -1.58991749E-04  1.41586434E-04  0.00000000E+00 -4.22619011E-06  0.00000000E+00
  0.00000000E+00 -3.12516853E-05 -8.89472198E-06 -4.76285362E-05  0.00000000E+00
  0.00000000E+00  9.28452577E-05  1.13644088E-04 -6.23618817E-05  0.00000000E+00
  0.00000000E+00  4.65267442E-05  3.16767851E-05  0.00000000E+00  2.11869824E-06
  1.24087239E-06  0.00000000E+00  0.00000000E+00 -9.53058152E-06 -3.79158509E-06
  0.00000000E+00  4.69691005E-06 -2.38783195E-05  0.00000000E+00  0.00000000E+00
  8.86733632E-05 -1.59936698E-04  2.36574946E-04  1.35213497E-03 -1.48916957E-04
 -7.15002820E-04  9.08222817E-04  6.26397629E-05 -7.20186812E-05  0.00000000E+00
  5.93013047E-04 -2.06337452E-03  0.00000000E+00  1.06471350E-04  4.85832672E-04
  0.00000000E+00  1.92438214E-04 -3.01159657E-04  0.00000000E+00 -1.27283795E-04
  0.00000000E+00  0.00000000E+00 -2.01598879E-04 -1.62574811E-04 -4.62446121E-04
  0.00000000E+00  0.00000000E+00 -5.75781295E-04 -9.22910829E-04 -4.28439484E-05
  0.00000000E+00  0.00000000E+00  6.42720011E-05  1.17957685E-04  0.00000000E+00
  7.48636201E-06  3.54916876E-05  0.00000000E+00  0.00000000E+00 -2.39884018E-05
 -4.63869607E-06  0.00000000E+00 -1.38636217E-04  1.60004794E-04  0.00000000E+00
  0.00000000E+00 -3.07851448E-04 -3.58912379E-05  9.76643295E-01 -9.88239945E-03
  4.35801831E-02  3.69266697E-03 -8.96521568E-04 -4.77437962E-04  2.12144442E-03
  0.00000000E+00  5.49246079E-04 -2.49138658E-03  0.00000000E+00 -9.35784167E-05
  8.31689545E-04  0.00000000E+00  1.01087446E-04 -6.42680344E-05  0.00000000E+00
 -1.94643021E-04  0.00000000E+00  0.00000000E+00 -7.31607640E-05 -4.33562348E-05
  4.08150901E-04  0.00000000E+00  0.00000000E+00  8.40244097E-04  5.03756689E-04
 -2.05804218E-04  0.00000000E+00  0.00000000E+00 -1.52367426E-04 -4.01768704E-05
  0.00000000E+00 -5.83360043E-06  7.01127319E-05  0.00000000E+00  0.00000000E+00
 -2.81201604E-05  9.74701659E-06  0.00000000E+00 -8.92805524E-05  9.02347553E-05
  0.00000000E+00  0.00000000E+00 -1.74118745E-04  1.95437417E-04  3.71127493E-04
  2.01288428E-03  1.41539578E-03 -1.59062170E-05  5.34614569E-05  2.68008079E-04
  0.00000000E+00  3.63975184E-04  1.02206874E-03  0.00000000E+00 -1.38366375E-04
  2.34797607E-04  0.00000000E+00 -2.46152065E-05  0.00000000E+00  0.00000000E+00
  3.38349058E-05 -3.03248174E-05 -2.18721599E-04  0.00000000E+00  0.00000000E+00
 -3.46338425E-04  4.11253882E-04  9.76833731E-01 -9.18774191E-03  4.34668614E-02
  1.14236115E-04 -1.91072484E-03 -2.04763194E-03 -8.21105241E-04  0.00000000E+00
  2.08878079E-03  7.58616191E-04  0.00000000E+00 -3.82718014E-04  6.39900436E-04
  0.00000000E+00  2.23456881E-04 -3.01208086E-04  0.00000000E+00  3.02283682E-05
  0.00000000E+00  0.00000000E+00 -7.48705321E-05  6.46750063E-05  7.66297898E-04
  0.00000000E+00  0.00000000E+00 -2.08385911E-04  3.53636419E-04 -2.40182290E-04
  0.00000000E+00  0.00000000E+00  3.28176349E-04 -1.98143659E-08  0.00000000E+00
 -8.10180431E-05  1.59448696E-06  0.00000000E+00  0.00000000E+00  1.51423813E-05