 Entering Gaussian System, Link 0=g16
 Input=hoono_a3_115p2835.gjf
 Output=hoono_a3_115p2835.log
 Initial command:
 /sw/contrib/gaussian/g16/B01/g16/l1.exe "/scr/Gau-10356.inp" -scrdir="/scr/"
 Entering Link 1 = /sw/contrib/gaussian/g16/B01/g16/l1.exe PID=     10357.
  
 Copyright (c) 1988-2017, Gaussian, Inc.  All Rights Reserved.
  
 This is part of the Gaussian(R) 16 program.  It is based on
 the Gaussian(R) 09 system (copyright 2009, Gaussian, Inc.),
 the Gaussian(R) 03 system (copyright 2003, Gaussian, Inc.),
 the Gaussian(R) 98 system (copyright 1998, Gaussian, Inc.),
 the Gaussian(R) 94 system (copyright 1995, Gaussian, Inc.),
 the Gaussian 92(TM) system (copyright 1992, Gaussian, Inc.),
 the Gaussian 90(TM) system (copyright 1990, Gaussian, Inc.),
 the Gaussian 88(TM) system (copyright 1988, Gaussian, Inc.),
 the Gaussian 86(TM) system (copyright 1986, Carnegie Mellon
 University), and the Gaussian 82(TM) system (copyright 1983,
 Carnegie Mellon University). Gaussian is a federally registered
 trademark of Gaussian, Inc.
  
 This software contains proprietary and confidential information,
 including trade secrets, belonging to Gaussian, Inc.
  
 This software is provided under written license and may be
 used, copied, transmitted, or stored only in accord with that
 written license.
  
 The following legend is applicable only to US Government
 contracts under FAR:
  
                    RESTRICTED RIGHTS LEGEND
  
 Use, reproduction and disclosure by the US Government is
 subject to restrictions as set forth in subparagraphs (a)
 and (c) of the Commercial Computer Software - Restricted
 Rights clause in FAR 52.227-19.
  
 Gaussian, Inc.
 340 Quinnipiac St., Bldg. 40, Wallingford CT 06492
  
  
 ---------------------------------------------------------------
 Warning -- This program may not be used in any manner that
 competes with the business of Gaussian, Inc. or will provide
 assistance to any competitor of Gaussian, Inc.  The licensee
 of this program is prohibited from giving any competitor of
 Gaussian, Inc. access to this program.  By using this program,
 the user acknowledges that Gaussian, Inc. is engaged in the
 business of creating and licensing software in the field of
 computational chemistry and represents and warrants to the
 licensee that it is not a competitor of Gaussian, Inc. and that
 it will not use this program in any manner prohibited above.
 ---------------------------------------------------------------
  

 Cite this work as:
 Gaussian 16, Revision B.01,
 M. J. Frisch, G. W. Trucks, H. B. Schlegel, G. E. Scuseria, 
 M. A. Robb, J. R. Cheeseman, G. Scalmani, V. Barone, 
 G. A. Petersson, H. Nakatsuji, X. Li, M. Caricato, A. V. Marenich, 
 J. Bloino, B. G. Janesko, R. Gomperts, B. Mennucci, H. P. Hratchian, 
 J. V. Ortiz, A. F. Izmaylov, J. L. Sonnenberg, D. Williams-Young, 
 F. Ding, F. Lipparini, F. Egidi, J. Goings, B. Peng, A. Petrone, 
 T. Henderson, D. Ranasinghe, V. G. Zakrzewski, J. Gao, N. Rega, 
 G. Zheng, W. Liang, M. Hada, M. Ehara, K. Toyota, R. Fukuda, 
 J. Hasegawa, M. Ishida, T. Nakajima, Y. Honda, O. Kitao, H. Nakai, 
 T. Vreven, K. Throssell, J. A. Montgomery, Jr., J. E. Peralta, 
 F. Ogliaro, M. J. Bearpark, J. J. Heyd, E. N. Brothers, K. N. Kudin, 
 V. N. Staroverov, T. A. Keith, R. Kobayashi, J. Normand, 
 K. Raghavachari, A. P. Rendell, J. C. Burant, S. S. Iyengar, 
 J. Tomasi, M. Cossi, J. M. Millam, M. Klene, C. Adamo, R. Cammi, 
 J. W. Ochterski, R. L. Martin, K. Morokuma, O. Farkas, 
 J. B. Foresman, and D. J. Fox, Gaussian, Inc., Wallingford CT, 2016.
 
 ******************************************
 Gaussian 16:  ES64L-G16RevB.01 20-Dec-2017
                 6-Mar-2022 
 ******************************************
 %nproc=28
 Will use up to   28 processors via shared memory.
 %mem=120GB
 %chk=hoono_a3_115p2835.chk
 ---------------------------------------
 #p freq mp2/aug-cc-pvtz density=current
 ---------------------------------------
 1/10=4,30=1,38=1/1,3;
 2/12=2,17=6,18=5,40=1/2;
 3/5=16,6=1,7=10,11=9,25=1,30=1,71=2,140=1/1,2,3;
 4//1;
 5/5=2,38=5,98=1/2;
 8/6=3,8=1,10=1,19=11,30=-1/1;
 9/15=3,16=-3/6;
 11/6=1,8=1,15=11,17=12,24=-1,27=1,28=-2,29=300,32=6,42=3/1,2,10;
 10/6=2,21=1/2;
 8/6=4,8=1,10=1,19=11,30=-1/11,4;
 10/5=1,20=4/2;
 11/12=2,14=11,16=1,17=2,28=-2,42=3,76=2/2,10,12;
 6/7=2,8=2,9=2,10=2,22=-1/1;
 7/8=1,10=1,12=2,25=1,44=2/1,2,3,16;
 1/10=4,30=1/3;
 99//99;
 Leave Link    1 at Sun Mar  6 19:38:32 2022, MaxMem= 16106127360 cpu:               4.2 elap:               0.2
 (Enter /sw/contrib/gaussian/g16/B01/g16/l101.exe)
 -----
 title
 -----
 Symbolic Z-matrix:
 Charge =  0 Multiplicity = 1
 H
 O                    1    r1
 O                    2    r2       1    a1
 N                    3    r3       2    a2       1    d1       0
 O                    4    r4       3    a3       2    d2       0
       Variables:
  r1                    0.98538                  
  r2                    1.42674                  
  r3                    1.38111                  
  r4                    1.19479                  
  a1                  100.63551                  
  a2                  113.13777                  
  a3                  115.28358                  
  d1                    0.                       
  d2                    0.                       
 
 ITRead=  0  0  0  0  0
 MicOpt= -1 -1 -1 -1 -1
 NAtoms=      5 NQM=        5 NQMF=       0 NMMI=      0 NMMIF=      0
                NMic=       0 NMicF=      0.
                    Isotopes and Nuclear Properties:
 (Nuclear quadrupole moments (NQMom) in fm**2, nuclear magnetic moments (NMagM)
  in nuclear magnetons)

  Atom         1           2           3           4           5
 IAtWgt=           1          16          16          14          16
 AtmWgt=   1.0078250  15.9949146  15.9949146  14.0030740  15.9949146
 NucSpn=           1           0           0           2           0
 AtZEff=  -0.0000000  -0.0000000  -0.0000000  -0.0000000  -0.0000000
 NQMom=    0.0000000   0.0000000   0.0000000   2.0440000   0.0000000
 NMagM=    2.7928460   0.0000000   0.0000000   0.4037610   0.0000000
 AtZNuc=   1.0000000   8.0000000   8.0000000   7.0000000   8.0000000
 Leave Link  101 at Sun Mar  6 19:38:32 2022, MaxMem= 16106127360 cpu:               4.8 elap:               0.2
 (Enter /sw/contrib/gaussian/g16/B01/g16/l103.exe)

 GradGradGradGradGradGradGradGradGradGradGradGradGradGradGradGradGradGrad
 Berny optimization.
 Initialization pass.
                       ----------------------------
                       !    Initial Parameters    !
                       ! (Angstroms and Degrees)  !
 ----------------------                            ----------------------
 !      Name          Value   Derivative information (Atomic Units)     !
 ------------------------------------------------------------------------
 !       r1          0.9854   calculate D2E/DX2 analytically            !
 !       r2          1.4267   calculate D2E/DX2 analytically            !
 !       r3          1.3811   calculate D2E/DX2 analytically            !
 !       r4          1.1948   calculate D2E/DX2 analytically            !
 !       a1        100.6355   calculate D2E/DX2 analytically            !
 !       a2        113.1378   calculate D2E/DX2 analytically            !
 !       a3        115.2836   calculate D2E/DX2 analytically            !
 !       d1          0.0      calculate D2E/DX2 analytically            !
 !       d2          0.0      calculate D2E/DX2 analytically            !
 ------------------------------------------------------------------------
 Trust Radius=3.00D-01 FncErr=1.00D-07 GrdErr=1.00D-07 EigMax=2.50D+02 EigMin=1.00D-04
 Number of steps in this run=      2 maximum allowed number of steps=      2.
 GradGradGradGradGradGradGradGradGradGradGradGradGradGradGradGradGradGrad

 Leave Link  103 at Sun Mar  6 19:38:32 2022, MaxMem= 16106127360 cpu:               0.4 elap:               0.0
 (Enter /sw/contrib/gaussian/g16/B01/g16/l202.exe)
                          Input orientation:                          
 ---------------------------------------------------------------------
 Center     Atomic      Atomic             Coordinates (Angstroms)
 Number     Number       Type             X           Y           Z
 ---------------------------------------------------------------------
      1          1           0        0.000000    0.000000    0.000000
      2          8           0        0.000000    0.000000    0.985377
      3          8           0        1.402227    0.000000    1.248696
      4          7           0        2.169996    0.000000    0.100659
      5          8           0        1.555651    0.000000   -0.924085
 ---------------------------------------------------------------------
                    Distance matrix (angstroms):
                    1          2          3          4          5
     1  H    0.000000
     2  O    0.985377   0.000000
     3  O    1.877627   1.426737   0.000000
     4  N    2.172329   2.343418   1.381108   0.000000
     5  O    1.809415   2.462944   2.178191   1.194788   0.000000
 Stoichiometry    HNO3
 Framework group  CS[SG(HNO3)]
 Deg. of freedom     7
 Full point group                 CS      NOp   2
 Largest Abelian subgroup         CS      NOp   2
 Largest concise Abelian subgroup C1      NOp   1
                         Standard orientation:                         
 ---------------------------------------------------------------------
 Center     Atomic      Atomic             Coordinates (Angstroms)
 Number     Number       Type             X           Y           Z
 ---------------------------------------------------------------------
      1          1           0        1.116883   -0.590685   -0.000000
      2          8           0        1.318617    0.373821   -0.000000
      3          8           0        0.000000    0.918638    0.000000
      4          7           0       -0.986542   -0.047899    0.000000
      5          8           0       -0.595003   -1.176711   -0.000000
 ---------------------------------------------------------------------
 Rotational constants (GHZ):          21.4553569           8.0162944           5.8358609
 Leave Link  202 at Sun Mar  6 19:38:32 2022, MaxMem= 16106127360 cpu:               1.4 elap:               0.1
 (Enter /sw/contrib/gaussian/g16/B01/g16/l301.exe)
 Standard basis: Aug-CC-pVTZ (5D, 7F)
 Ernie: Thresh=  0.10000D-02 Tol=  0.10000D-05 Strict=F.
 Ernie:  12 primitive shells out of 131 were deleted.
 There are   166 symmetry adapted cartesian basis functions of A'  symmetry.
 There are    79 symmetry adapted cartesian basis functions of A"  symmetry.
 There are   136 symmetry adapted basis functions of A'  symmetry.
 There are    71 symmetry adapted basis functions of A"  symmetry.
   207 basis functions,   315 primitive gaussians,   245 cartesian basis functions
    16 alpha electrons       16 beta electrons
       nuclear repulsion energy       122.5374121900 Hartrees.
 IExCor=    0 DFT=F Ex=HF Corr=None ExCW=0 ScaHFX=  1.000000
 ScaDFX=  1.000000  1.000000  1.000000  1.000000 ScalE2=  1.000000  1.000000
 IRadAn=      5 IRanWt=     -1 IRanGd=            0 ICorTp=0 IEmpDi=  4
 NAtoms=    5 NActive=    5 NUniq=    5 SFac= 1.00D+00 NAtFMM=   60 NAOKFM=F Big=F
 Integral buffers will be    131072 words long.
 Raffenetti 1 integral format.
 Two-electron integral symmetry is turned on.
 Leave Link  301 at Sun Mar  6 19:38:32 2022, MaxMem= 16106127360 cpu:               1.2 elap:               0.1
 (Enter /sw/contrib/gaussian/g16/B01/g16/l302.exe)
 NPDir=0 NMtPBC=     1 NCelOv=     1 NCel=       1 NClECP=     1 NCelD=      1
         NCelK=      1 NCelE2=     1 NClLst=     1 CellRange=     0.0.
 One-electron integrals computed using PRISM.
 One-electron integral symmetry used in STVInt
 NBasis=   207 RedAO= T EigKep=  1.31D-04  NBF=   136    71
 NBsUse=   207 1.00D-06 EigRej= -1.00D+00 NBFU=   136    71
 Leave Link  302 at Sun Mar  6 19:38:32 2022, MaxMem= 16106127360 cpu:               5.5 elap:               0.2
 (Enter /sw/contrib/gaussian/g16/B01/g16/l303.exe)
 DipDrv:  MaxL=1.
 Leave Link  303 at Sun Mar  6 19:38:33 2022, MaxMem= 16106127360 cpu:               0.7 elap:               0.0
 (Enter /sw/contrib/gaussian/g16/B01/g16/l401.exe)
 ExpMin= 2.53D-02 ExpMax= 1.53D+04 ExpMxC= 5.22D+02 IAcc=3 IRadAn=         5 AccDes= 0.00D+00
 Harris functional with IExCor=  205 and IRadAn=       5 diagonalized for initial guess.
 HarFok:  IExCor=  205 AccDes= 0.00D+00 IRadAn=         5 IDoV= 1 UseB2=F ITyADJ=14
 ICtDFT=  3500011 ScaDFX=  1.000000  1.000000  1.000000  1.000000
 FoFCou: FMM=F IPFlag=           0 FMFlag=      100000 FMFlg1=           0
         NFxFlg=           0 DoJE=T BraDBF=F KetDBF=T FulRan=T
         wScrn=  0.000000 ICntrl=       500 IOpCl=  0 I1Cent=   200000004 NGrid=           0
         NMat0=    1 NMatS0=      1 NMatT0=    0 NMatD0=    1 NMtDS0=    0 NMtDT0=    0
 Petite list used in FoFCou.
 Harris En= -279.644779303659    
 JPrj=0 DoOrth=F DoCkMO=F.
 Initial guess orbital symmetries:
       Occupied  (A') (A') (A') (A') (A') (A') (A') (A') (A') (A')
                 (A") (A') (A") (A') (A") (A')
       Virtual   (A") (A') (A') (A') (A') (A") (A') (A') (A') (A')
                 (A") (A') (A") (A') (A') (A") (A') (A') (A") (A')
                 (A') (A') (A') (A') (A") (A') (A') (A') (A") (A')
                 (A') (A") (A") (A') (A') (A") (A') (A") (A') (A")
                 (A') (A") (A') (A") (A') (A') (A') (A') (A") (A')
                 (A') (A") (A') (A") (A') (A") (A') (A') (A') (A")
                 (A') (A') (A") (A') (A') (A') (A") (A") (A') (A')
                 (A") (A') (A") (A") (A') (A') (A") (A') (A') (A')
                 (A") (A') (A') (A") (A') (A") (A') (A") (A') (A')
                 (A') (A") (A') (A") (A') (A') (A") (A') (A") (A')
                 (A") (A') (A') (A") (A") (A') (A') (A') (A") (A')
                 (A") (A') (A') (A') (A") (A') (A') (A') (A") (A')
                 (A") (A') (A') (A") (A") (A") (A") (A') (A') (A')
                 (A') (A') (A') (A") (A') (A") (A') (A") (A') (A')
                 (A") (A") (A') (A') (A') (A") (A') (A') (A') (A")
                 (A') (A') (A') (A") (A') (A") (A") (A') (A") (A')
                 (A') (A") (A") (A') (A") (A') (A') (A") (A") (A')
                 (A") (A") (A") (A') (A') (A") (A') (A') (A') (A")
                 (A') (A') (A') (A') (A') (A') (A') (A') (A') (A')
                 (A')
 The electronic state of the initial guess is 1-A'.
 Leave Link  401 at Sun Mar  6 19:38:33 2022, MaxMem= 16106127360 cpu:               7.9 elap:               0.3
 (Enter /sw/contrib/gaussian/g16/B01/g16/l502.exe)
 Keep R1 ints in memory in symmetry-blocked form, NReq=348887737.
 FoFCou: FMM=F IPFlag=           0 FMFlag=           0 FMFlg1=           0
         NFxFlg=           0 DoJE=F BraDBF=F KetDBF=F FulRan=T
         wScrn=  0.000000 ICntrl=       600 IOpCl=  0 I1Cent=           0 NGrid=           0
         NMat0=    1 NMatS0=  21528 NMatT0=    0 NMatD0=    1 NMtDS0=    0 NMtDT0=    0
 Petite list used in FoFCou.
 Closed shell SCF:
 Using DIIS extrapolation, IDIIS=  1040.
 NGot= 16106127360 LenX= 15988850015 LenY= 15988789549
 Requested convergence on RMS density matrix=1.00D-08 within 128 cycles.
 Requested convergence on MAX density matrix=1.00D-06.
 Requested convergence on             energy=1.00D-06.
 No special actions if energy rises.

 Cycle   1  Pass 1  IDiag  1:
 E= -279.364048419126    
 DIIS: error= 2.72D-02 at cycle   1 NSaved=   1.
 NSaved= 1 IEnMin= 1 EnMin= -279.364048419126     IErMin= 1 ErrMin= 2.72D-02
 ErrMax= 2.72D-02  0.00D+00 EMaxC= 1.00D-01 BMatC= 4.50D-01 BMatP= 4.50D-01
 IDIUse=3 WtCom= 7.28D-01 WtEn= 2.72D-01
 Coeff-Com:  0.100D+01
 Coeff-En:   0.100D+01
 Coeff:      0.100D+01
 Gap=     0.499 Goal=   None    Shift=    0.000
 GapD=    0.499 DampG=2.000 DampE=0.500 DampFc=1.0000 IDamp=-1.
 RMSDP=1.67D-03 MaxDP=8.62D-02              OVMax= 1.23D-01

 Cycle   2  Pass 1  IDiag  1:
 E= -279.446149589489     Delta-E=       -0.082101170363 Rises=F Damp=F
 DIIS: error= 1.92D-02 at cycle   2 NSaved=   2.
 NSaved= 2 IEnMin= 2 EnMin= -279.446149589489     IErMin= 2 ErrMin= 1.92D-02
 ErrMax= 1.92D-02  0.00D+00 EMaxC= 1.00D-01 BMatC= 8.60D-02 BMatP= 4.50D-01
 IDIUse=3 WtCom= 8.08D-01 WtEn= 1.92D-01
 Coeff-Com:  0.219D+00 0.781D+00
 Coeff-En:   0.762D-01 0.924D+00
 Coeff:      0.191D+00 0.809D+00
 Gap=     0.562 Goal=   None    Shift=    0.000
 RMSDP=9.67D-04 MaxDP=3.69D-02 DE=-8.21D-02 OVMax= 9.09D-02

 Cycle   3  Pass 1  IDiag  1:
 E= -279.483887007401     Delta-E=       -0.037737417912 Rises=F Damp=F
 DIIS: error= 1.12D-02 at cycle   3 NSaved=   3.
 NSaved= 3 IEnMin= 3 EnMin= -279.483887007401     IErMin= 3 ErrMin= 1.12D-02
 ErrMax= 1.12D-02  0.00D+00 EMaxC= 1.00D-01 BMatC= 3.10D-02 BMatP= 8.60D-02
 IDIUse=3 WtCom= 8.88D-01 WtEn= 1.12D-01
 Coeff-Com: -0.347D-01 0.365D+00 0.670D+00
 Coeff-En:   0.000D+00 0.219D+00 0.781D+00
 Coeff:     -0.308D-01 0.348D+00 0.682D+00
 Gap=     0.542 Goal=   None    Shift=    0.000
 RMSDP=4.10D-04 MaxDP=1.56D-02 DE=-3.77D-02 OVMax= 3.92D-02

 Cycle   4  Pass 1  IDiag  1:
 E= -279.505090890709     Delta-E=       -0.021203883307 Rises=F Damp=F
 DIIS: error= 1.67D-03 at cycle   4 NSaved=   4.
 NSaved= 4 IEnMin= 4 EnMin= -279.505090890709     IErMin= 4 ErrMin= 1.67D-03
 ErrMax= 1.67D-03  0.00D+00 EMaxC= 1.00D-01 BMatC= 6.03D-04 BMatP= 3.10D-02
 IDIUse=3 WtCom= 9.83D-01 WtEn= 1.67D-02
 Coeff-Com: -0.120D-01 0.468D-01 0.154D+00 0.811D+00
 Coeff-En:   0.000D+00 0.000D+00 0.000D+00 0.100D+01
 Coeff:     -0.118D-01 0.460D-01 0.151D+00 0.815D+00
 Gap=     0.528 Goal=   None    Shift=    0.000
 RMSDP=9.92D-05 MaxDP=2.30D-03 DE=-2.12D-02 OVMax= 1.18D-02

 Cycle   5  Pass 1  IDiag  1:
 E= -279.505906627978     Delta-E=       -0.000815737269 Rises=F Damp=F
 DIIS: error= 1.09D-03 at cycle   5 NSaved=   5.
 NSaved= 5 IEnMin= 5 EnMin= -279.505906627978     IErMin= 5 ErrMin= 1.09D-03
 ErrMax= 1.09D-03  0.00D+00 EMaxC= 1.00D-01 BMatC= 1.03D-04 BMatP= 6.03D-04
 IDIUse=3 WtCom= 9.89D-01 WtEn= 1.09D-02
 Coeff-Com:  0.539D-02-0.661D-01-0.111D+00 0.597D-01 0.111D+01
 Coeff-En:   0.000D+00 0.000D+00 0.000D+00 0.000D+00 0.100D+01
 Coeff:      0.533D-02-0.654D-01-0.110D+00 0.591D-01 0.111D+01
 Gap=     0.532 Goal=   None    Shift=    0.000
 RMSDP=7.99D-05 MaxDP=2.12D-03 DE=-8.16D-04 OVMax= 1.29D-02

 Cycle   6  Pass 1  IDiag  1:
 E= -279.506269767914     Delta-E=       -0.000363139936 Rises=F Damp=F
 DIIS: error= 3.36D-04 at cycle   6 NSaved=   6.
 NSaved= 6 IEnMin= 6 EnMin= -279.506269767914     IErMin= 6 ErrMin= 3.36D-04
 ErrMax= 3.36D-04  0.00D+00 EMaxC= 1.00D-01 BMatC= 2.40D-05 BMatP= 1.03D-04
 IDIUse=3 WtCom= 9.97D-01 WtEn= 3.36D-03
 Coeff-Com:  0.188D-02-0.699D-02-0.177D-01-0.182D+00 0.116D-01 0.119D+01
 Coeff-En:   0.000D+00 0.000D+00 0.000D+00 0.000D+00 0.000D+00 0.100D+01
 Coeff:      0.187D-02-0.696D-02-0.176D-01-0.181D+00 0.115D-01 0.119D+01
 Gap=     0.532 Goal=   None    Shift=    0.000
 RMSDP=4.66D-05 MaxDP=1.07D-03 DE=-3.63D-04 OVMax= 6.06D-03

 Cycle   7  Pass 1  IDiag  1:
 E= -279.506355441290     Delta-E=       -0.000085673376 Rises=F Damp=F
 DIIS: error= 1.30D-04 at cycle   7 NSaved=   7.
 NSaved= 7 IEnMin= 7 EnMin= -279.506355441290     IErMin= 7 ErrMin= 1.30D-04
 ErrMax= 1.30D-04  0.00D+00 EMaxC= 1.00D-01 BMatC= 3.56D-06 BMatP= 2.40D-05
 IDIUse=3 WtCom= 9.99D-01 WtEn= 1.30D-03
 Coeff-Com: -0.110D-02 0.115D-01 0.251D-01 0.176D-01-0.182D+00-0.157D+00
 Coeff-Com:  0.129D+01
 Coeff-En:   0.000D+00 0.000D+00 0.000D+00 0.000D+00 0.000D+00 0.000D+00
 Coeff-En:   0.100D+01
 Coeff:     -0.110D-02 0.114D-01 0.250D-01 0.175D-01-0.181D+00-0.157D+00
 Coeff:      0.129D+01
 Gap=     0.533 Goal=   None    Shift=    0.000
 RMSDP=1.75D-05 MaxDP=5.13D-04 DE=-8.57D-05 OVMax= 2.32D-03

 Cycle   8  Pass 1  IDiag  1:
 E= -279.506367429575     Delta-E=       -0.000011988285 Rises=F Damp=F
 DIIS: error= 4.70D-05 at cycle   8 NSaved=   8.
 NSaved= 8 IEnMin= 8 EnMin= -279.506367429575     IErMin= 8 ErrMin= 4.70D-05
 ErrMax= 4.70D-05  0.00D+00 EMaxC= 1.00D-01 BMatC= 5.90D-07 BMatP= 3.56D-06
 IDIUse=1 WtCom= 1.00D+00 WtEn= 0.00D+00
 Coeff-Com: -0.554D-03 0.404D-02 0.959D-02 0.247D-01-0.565D-01-0.192D+00
 Coeff-Com:  0.354D+00 0.857D+00
 Coeff:     -0.554D-03 0.404D-02 0.959D-02 0.247D-01-0.565D-01-0.192D+00
 Coeff:      0.354D+00 0.857D+00
 Gap=     0.533 Goal=   None    Shift=    0.000
 RMSDP=5.38D-06 MaxDP=1.53D-04 DE=-1.20D-05 OVMax= 6.37D-04

 Cycle   9  Pass 1  IDiag  1:
 E= -279.506368783080     Delta-E=       -0.000001353505 Rises=F Damp=F
 DIIS: error= 2.45D-05 at cycle   9 NSaved=   9.
 NSaved= 9 IEnMin= 9 EnMin= -279.506368783080     IErMin= 9 ErrMin= 2.45D-05
 ErrMax= 2.45D-05  0.00D+00 EMaxC= 1.00D-01 BMatC= 1.17D-07 BMatP= 5.90D-07
 IDIUse=1 WtCom= 1.00D+00 WtEn= 0.00D+00
 Coeff-Com:  0.241D-03-0.256D-02-0.531D-02-0.559D-02 0.469D-01 0.488D-01
 Coeff-Com: -0.340D+00 0.379D-01 0.122D+01
 Coeff:      0.241D-03-0.256D-02-0.531D-02-0.559D-02 0.469D-01 0.488D-01
 Coeff:     -0.340D+00 0.379D-01 0.122D+01
 Gap=     0.533 Goal=   None    Shift=    0.000
 RMSDP=2.45D-06 MaxDP=6.59D-05 DE=-1.35D-06 OVMax= 2.57D-04

 Cycle  10  Pass 1  IDiag  1:
 E= -279.506369045553     Delta-E=       -0.000000262473 Rises=F Damp=F
 DIIS: error= 5.82D-06 at cycle  10 NSaved=  10.
 NSaved=10 IEnMin=10 EnMin= -279.506369045553     IErMin=10 ErrMin= 5.82D-06
 ErrMax= 5.82D-06  0.00D+00 EMaxC= 1.00D-01 BMatC= 8.25D-09 BMatP= 1.17D-07
 IDIUse=1 WtCom= 1.00D+00 WtEn= 0.00D+00
 Coeff-Com: -0.385D-04 0.498D-03 0.120D-02-0.185D-02-0.110D-01 0.531D-02
 Coeff-Com:  0.733D-01-0.560D-01-0.437D+00 0.143D+01
 Coeff:     -0.385D-04 0.498D-03 0.120D-02-0.185D-02-0.110D-01 0.531D-02
 Coeff:      0.733D-01-0.560D-01-0.437D+00 0.143D+01
 Gap=     0.533 Goal=   None    Shift=    0.000
 RMSDP=7.05D-07 MaxDP=2.56D-05 DE=-2.62D-07 OVMax= 7.56D-05

 Cycle  11  Pass 1  IDiag  1:
 E= -279.506369070419     Delta-E=       -0.000000024866 Rises=F Damp=F
 DIIS: error= 2.22D-06 at cycle  11 NSaved=  11.
 NSaved=11 IEnMin=11 EnMin= -279.506369070419     IErMin=11 ErrMin= 2.22D-06
 ErrMax= 2.22D-06  0.00D+00 EMaxC= 1.00D-01 BMatC= 8.19D-10 BMatP= 8.25D-09
 IDIUse=1 WtCom= 1.00D+00 WtEn= 0.00D+00
 Coeff-Com: -0.157D-04 0.157D-03 0.324D-03 0.899D-03-0.201D-02-0.713D-02
 Coeff-Com:  0.178D-01 0.195D-01-0.424D-01-0.338D+00 0.135D+01
 Coeff:     -0.157D-04 0.157D-03 0.324D-03 0.899D-03-0.201D-02-0.713D-02
 Coeff:      0.178D-01 0.195D-01-0.424D-01-0.338D+00 0.135D+01
 Gap=     0.533 Goal=   None    Shift=    0.000
 RMSDP=2.42D-07 MaxDP=8.99D-06 DE=-2.49D-08 OVMax= 2.83D-05

 Cycle  12  Pass 1  IDiag  1:
 E= -279.506369073372     Delta-E=       -0.000000002953 Rises=F Damp=F
 DIIS: error= 6.96D-07 at cycle  12 NSaved=  12.
 NSaved=12 IEnMin=12 EnMin= -279.506369073372     IErMin=12 ErrMin= 6.96D-07
 ErrMax= 6.96D-07  0.00D+00 EMaxC= 1.00D-01 BMatC= 8.47D-11 BMatP= 8.19D-10
 IDIUse=1 WtCom= 1.00D+00 WtEn= 0.00D+00
 Coeff-Com:  0.266D-05-0.457D-04-0.980D-04 0.122D-03 0.113D-02-0.677D-03
 Coeff-Com: -0.732D-02 0.638D-02 0.403D-01-0.109D+00-0.186D+00 0.126D+01
 Coeff:      0.266D-05-0.457D-04-0.980D-04 0.122D-03 0.113D-02-0.677D-03
 Coeff:     -0.732D-02 0.638D-02 0.403D-01-0.109D+00-0.186D+00 0.126D+01
 Gap=     0.533 Goal=   None    Shift=    0.000
 RMSDP=8.31D-08 MaxDP=2.71D-06 DE=-2.95D-09 OVMax= 9.63D-06

 Cycle  13  Pass 1  IDiag  1:
 E= -279.506369073669     Delta-E=       -0.000000000297 Rises=F Damp=F
 DIIS: error= 1.65D-07 at cycle  13 NSaved=  13.
 NSaved=13 IEnMin=13 EnMin= -279.506369073669     IErMin=13 ErrMin= 1.65D-07
 ErrMax= 1.65D-07  0.00D+00 EMaxC= 1.00D-01 BMatC= 7.07D-12 BMatP= 8.47D-11
 IDIUse=1 WtCom= 1.00D+00 WtEn= 0.00D+00
 Coeff-Com:  0.126D-05-0.117D-04-0.167D-04-0.119D-03 0.381D-04 0.916D-03
 Coeff-Com: -0.985D-03-0.249D-02-0.240D-02 0.548D-01-0.128D+00-0.150D+00
 Coeff-Com:  0.123D+01
 Coeff:      0.126D-05-0.117D-04-0.167D-04-0.119D-03 0.381D-04 0.916D-03
 Coeff:     -0.985D-03-0.249D-02-0.240D-02 0.548D-01-0.128D+00-0.150D+00
 Coeff:      0.123D+01
 Gap=     0.533 Goal=   None    Shift=    0.000
 RMSDP=2.20D-08 MaxDP=6.52D-07 DE=-2.97D-10 OVMax= 2.01D-06

 Cycle  14  Pass 1  IDiag  1:
 E= -279.506369073687     Delta-E=       -0.000000000019 Rises=F Damp=F
 DIIS: error= 4.08D-08 at cycle  14 NSaved=  14.
 NSaved=14 IEnMin=14 EnMin= -279.506369073687     IErMin=14 ErrMin= 4.08D-08
 ErrMax= 4.08D-08  0.00D+00 EMaxC= 1.00D-01 BMatC= 4.84D-13 BMatP= 7.07D-12
 IDIUse=1 WtCom= 1.00D+00 WtEn= 0.00D+00
 Coeff-Com: -0.305D-06 0.451D-05 0.895D-05-0.338D-05-0.113D-03 0.562D-04
 Coeff-Com:  0.649D-03-0.324D-03-0.357D-02 0.793D-02 0.168D-01-0.902D-01
 Coeff-Com: -0.188D-01 0.109D+01
 Coeff:     -0.305D-06 0.451D-05 0.895D-05-0.338D-05-0.113D-03 0.562D-04
 Coeff:      0.649D-03-0.324D-03-0.357D-02 0.793D-02 0.168D-01-0.902D-01
 Coeff:     -0.188D-01 0.109D+01
 Gap=     0.533 Goal=   None    Shift=    0.000
 RMSDP=4.33D-09 MaxDP=1.08D-07 DE=-1.86D-11 OVMax= 4.50D-07

 SCF Done:  E(RHF) =  -279.506369074     A.U. after   14 cycles
            NFock= 14  Conv=0.43D-08     -V/T= 2.0023
 KE= 2.788778212069D+02 PE=-9.059301428780D+02 EE= 2.250085404073D+02
 Leave Link  502 at Sun Mar  6 19:38:36 2022, MaxMem= 16106127360 cpu:              52.7 elap:               3.4
 (Enter /sw/contrib/gaussian/g16/B01/g16/l801.exe)
 ExpMin= 2.53D-02 ExpMax= 1.53D+04 ExpMxC= 5.22D+02 IAcc=3 IRadAn=         5 AccDes= 0.00D+00
 HarFok:  IExCor=  205 AccDes= 0.00D+00 IRadAn=         5 IDoV=-2 UseB2=F ITyADJ=14
 ICtDFT= 12500011 ScaDFX=  1.000000  1.000000  1.000000  1.000000
 Largest valence mixing into a core orbital is  2.07D-04
 Largest core mixing into a valence orbital is  3.08D-05
 Range of M.O.s used for correlation:     5   207
 NBasis=   207 NAE=    16 NBE=    16 NFC=     4 NFV=     0
 NROrb=    203 NOA=    12 NOB=    12 NVA=   191 NVB=   191

 **** Warning!!: The largest alpha MO coefficient is  0.16192570D+02

 Leave Link  801 at Sun Mar  6 19:38:36 2022, MaxMem= 16106127360 cpu:               2.1 elap:               0.1
 (Enter /sw/contrib/gaussian/g16/B01/g16/l906.exe)
 Frozen-core derivative calculation, NFC=   4 NFV=   0.
 FulOut=F Deriv=T AODrv=T NAtomX=     5
   MMem=           0  MDisk=          12 MDiskD=          12
  W3Min=      811440 MinDsk=     2425030 NBas6D=         245
 NBas2D=       30762    NTT=       30135    LW2=     7400000
    MDV= 16105571588 MDiskM=      328644 NBas2p=       30759
 Disk-based method using ON**2 memory for 12 occupieds at a time.
 Permanent disk used for amplitudes=    11516536 words.
 Estimated scratch disk usage=   321863743 words.
 IMap=   1   2   3   4   5   6   7   8   9  10  11  12  13  14  15  16
 Actual    scratch disk usage=   310892607 words.
 JobTyp=1 Pass  1:  I=   5 to  16 NPSUse= 28 ParTrn=T ParDer=T DoDerP=T.
 (rs|ai) integrals will be sorted in core.
 Spin components of T(2) and E(2):
     alpha-alpha T2 =       0.3480303852D-01 E2=     -0.1245210446D+00
     alpha-beta  T2 =       0.1845889717D+00 E2=     -0.6997370444D+00
     beta-beta   T2 =       0.3480303852D-01 E2=     -0.1245210446D+00
 The integrals were generated   1 times.
 ANorm=    0.1119908500D+01
 E2 =    -0.9487791336D+00 EUMP2 =    -0.28045514820730D+03
 Leave Link  906 at Sun Mar  6 19:40:14 2022, MaxMem= 16106127360 cpu:            2732.2 elap:              97.7
 (Enter /sw/contrib/gaussian/g16/B01/g16/l1101.exe)
 Using compressed Sx but separate Hx and Fx, NAtomX=     5.
 Will process      6 centers per pass.
 Leave Link 1101 at Sun Mar  6 19:40:14 2022, MaxMem= 16106127360 cpu:               5.4 elap:               0.2
 (Enter /sw/contrib/gaussian/g16/B01/g16/l1102.exe)
 Leave Link 1102 at Sun Mar  6 19:40:14 2022, MaxMem= 16106127360 cpu:               0.5 elap:               0.0
 (Enter /sw/contrib/gaussian/g16/B01/g16/l1110.exe)
 Forming Gx(P) for the SCF density, NAtomX=     5.
 Integral derivatives from FoFJK, PRISM(SPDF).
 Do as many integral derivatives as possible in FoFJK.
 G2DrvN: MDV=   16106126844.
 G2DrvN: will do     6 centers at a time, making    1 passes.
 Calling FoFCou, ICntrl=  3107 FMM=F I1Cent=   0 AccDes= 0.00D+00.
 FoFJK:  IHMeth= 1 ICntrl=    3107 DoSepK=F KAlg= 0 I1Cent=           0 FoldK=F
 IRaf=         0 NMat=       1 IRICut=       1 DoRegI=T DoRafI=F ISym2E= 1 IDoP0=0 IntGTp=1.
 FoFCou: FMM=F IPFlag=           0 FMFlag=      100000 FMFlg1=           0
         NFxFlg=           0 DoJE=F BraDBF=F KetDBF=F FulRan=T
         wScrn=  0.000000 ICntrl=      3107 IOpCl=  0 I1Cent=           0 NGrid=           0
         NMat0=    1 NMatS0=      1 NMatT0=    0 NMatD0=    1 NMtDS0=    0 NMtDT0=    0
 Petite list used in FoFCou.
 End of G2Drv F.D. properties file   721 does not exist.
 End of G2Drv F.D. properties file   722 does not exist.
 End of G2Drv F.D. properties file   788 does not exist.
 Leave Link 1110 at Sun Mar  6 19:40:18 2022, MaxMem= 16106127360 cpu:              88.0 elap:               3.2
 (Enter /sw/contrib/gaussian/g16/B01/g16/l1002.exe)
 Minotr:  Closed shell wavefunction.
          IDoAtm=11111
          Frozen-core window.
          Direct CPHF calculation.
          Differentiating once with respect to electric field.
                with respect to dipole field.
          Differentiating once with respect to nuclear coordinates.
          Requested convergence is 1.0D-08 RMS, and 1.0D-07 maximum.
          Secondary convergence is 1.0D-12 RMS, and 1.0D-12 maximum.
          NewPWx=T KeepS1=T KeepF1=T KeepIn=T MapXYZ=F SortEE=F KeepMc=T.
 Keep R1 ints in memory in symmetry-blocked form, NReq=348888983.
 FoFCou: FMM=F IPFlag=           0 FMFlag=           0 FMFlg1=           0
         NFxFlg=           0 DoJE=F BraDBF=F KetDBF=F FulRan=T
         wScrn=  0.000000 ICntrl=       600 IOpCl=  0 I1Cent=           0 NGrid=           0
         NMat0=    1 NMatS0=  21528 NMatT0=    0 NMatD0=    1 NMtDS0=    0 NMtDT0=    0
 Petite list used in FoFCou.
          MDV=   16106127360 using IRadAn=       1.
          Solving linear equations simultaneously, MaxMat=       0.
          There are    18 degrees of freedom in the 1st order CPHF.  IDoFFX=6 NUNeed=    18.
     15 vectors produced by pass  0 Test12= 1.70D-14 5.56D-09 XBig12= 7.95D+00 1.23D+00.
 AX will form    15 AO Fock derivatives at one time.
     15 vectors produced by pass  1 Test12= 1.70D-14 5.56D-09 XBig12= 1.37D+00 2.11D-01.
     15 vectors produced by pass  2 Test12= 1.70D-14 5.56D-09 XBig12= 6.74D-02 5.80D-02.
     15 vectors produced by pass  3 Test12= 1.70D-14 5.56D-09 XBig12= 1.95D-03 1.09D-02.
     15 vectors produced by pass  4 Test12= 1.70D-14 5.56D-09 XBig12= 4.33D-05 1.22D-03.
     15 vectors produced by pass  5 Test12= 1.70D-14 5.56D-09 XBig12= 5.99D-07 1.20D-04.
     15 vectors produced by pass  6 Test12= 1.70D-14 5.56D-09 XBig12= 4.54D-09 1.20D-05.
     14 vectors produced by pass  7 Test12= 1.70D-14 5.56D-09 XBig12= 3.35D-11 7.76D-07.
      3 vectors produced by pass  8 Test12= 1.70D-14 5.56D-09 XBig12= 2.30D-13 6.15D-08.
      1 vectors produced by pass  9 Test12= 1.70D-14 5.56D-09 XBig12= 1.57D-15 6.46D-09.
 InvSVY:  IOpt=1 It=  1 EMax= 1.33D-15
 Solved reduced A of dimension   123 with    15 vectors.
 FullF1:  Do perturbations      1 to      18.
 Saving first derivative matrices.
 End of Minotr F.D. properties file   721 does not exist.
 End of Minotr F.D. properties file   722 does not exist.
 End of Minotr F.D. properties file   788 does not exist.
 Leave Link 1002 at Sun Mar  6 19:40:21 2022, MaxMem= 16106127360 cpu:              77.4 elap:               2.9
 (Enter /sw/contrib/gaussian/g16/B01/g16/l811.exe)
 MDV= 16106127360.
 Form MO integral derivatives with frozen-active canonical formalism.
 MOERI=1 MOERIx=1 NAtoms=     5 NAtomX=     5.
 Discarding MO integrals.
 MO basis two electron integral derivatives will not be stored on disk.
 IAlg= 3 DoFC=T DoPWx=T Debug=F.
 Frozen-core window:  NFC=   4 NFV=   0.
 Reordered first order wavefunction length =     18678272
 In DefCFB: NBatch=  1 ICI= 16 ICA=191 LFMax= 96
            Large arrays: LIAPS=   619940160 LIARS=   288257200 words.
 In StABat: MaxSiz= 55 MinSiz= 25 NAtomB=  5
 DoIAMN: NPSUse= 28.
 Leave Link  811 at Sun Mar  6 19:41:50 2022, MaxMem= 16106127360 cpu:            2500.6 elap:              89.7
 (Enter /sw/contrib/gaussian/g16/B01/g16/l804.exe)
 Frozen-core window:  NFC=   4 NFV=   0.
 Closed-shell transformation, MDV= 16106127360 ITran=4 ISComp=1.
 Semi-Direct transformation.
 ModeAB=           2 MOrb=            16 LenV=   16104919981
 LASXX=     67341636 LTotXX=    67341636 LenRXX=    67341636
 LTotAB=    68301760 MaxLAS=    99807120 LenRXY=    99807120
 NonZer=   134683272 LenScr=   202817536 LnRSAI=           0
 LnScr1=           0 LExtra=           0 Total=    369966292
 MaxDsk=          -1 SrtSym=           F ITran=            4
 DoSDTr:  NPSUse= 28
 JobTyp=0 Pass  1:  I=   1 to  16.
 (rs|ai) integrals will be sorted in core.
 Complete sort for first half transformation.
 First half transformation complete.
 Begin second half transformation for I=  10.
 Begin second half transformation for I=  10.
 Complete sort for second half transformation.
 Second half transformation complete.
 Spin components of T(2) and E(2):
     alpha-alpha T2 =       0.3480303852D-01 E2=     -0.1245210446D+00
     alpha-beta  T2 =       0.1845889717D+00 E2=     -0.6997370444D+00
     beta-beta   T2 =       0.3480303852D-01 E2=     -0.1245210446D+00
 ANorm=    0.1583789790D+01
 E2 =    -0.9487791336D+00 EUMP2 =    -0.28045514820730D+03
 Leave Link  804 at Sun Mar  6 19:42:06 2022, MaxMem= 16106127360 cpu:             433.2 elap:              15.5
 (Enter /sw/contrib/gaussian/g16/B01/g16/l1002.exe)
 Minotr:  Closed shell wavefunction.
          Computing MP2/KS-MP2 derivatives.
          Using Z-Vector for PSCF gradient.
          Skipping F1 and S1 gradient terms here.
          IDoAtm=11111
          Frozen-core window.
          Using MO integrals in the linear equations.
          Forming densities via direct SCF.
          Differentiating once with respect to electric field.
                with respect to dipole field.
          Differentiating once with respect to nuclear coordinates.
          Using symmetry in CPHF.
          Requested convergence is 1.0D-10 RMS, and 1.0D-09 maximum.
          NewPWx=F KeepS1=T KeepF1=T KeepIn=T MapXYZ=F SortEE=F KeepMc=T.
          MDV=   16106127360 using IRadAn=       5.
          Solving linear equations separately, MaxMat=       0.
          There are     1 degrees of freedom in the 1st order CPHF.  IDoFFX=0 NUNeed=     1.
 FoFJK:  IHMeth= 1 ICntrl=       0 DoSepK=F KAlg= 0 I1Cent=           0 FoldK=F
 IRaf=         0 NMat=       1 IRICut=       1 DoRegI=T DoRafI=F ISym2E= 0 IDoP0=0 IntGTp=1.
 FoFCou: FMM=F IPFlag=           0 FMFlag=      100000 FMFlg1=           0
         NFxFlg=           0 DoJE=F BraDBF=F KetDBF=F FulRan=T
         wScrn=  0.000000 ICntrl=         0 IOpCl=  0 I1Cent=           0 NGrid=           0
         NMat0=    1 NMatS0=      1 NMatT0=    0 NMatD0=    1 NMtDS0=    0 NMtDT0=    0
 Symmetry not used in FoFCou.
 LinEq1:  Iter=  0 NonCon=     1 RMS=6.60D-03 Max=1.69D-01 NDo=     1
 LinEq1:  Iter=  1 NonCon=     1 RMS=2.00D-03 Max=3.09D-02 NDo=     1
 LinEq1:  Iter=  2 NonCon=     1 RMS=8.88D-04 Max=1.43D-02 NDo=     1
 LinEq1:  Iter=  3 NonCon=     1 RMS=3.81D-04 Max=8.18D-03 NDo=     1
 LinEq1:  Iter=  4 NonCon=     1 RMS=1.38D-04 Max=1.67D-03 NDo=     1
 LinEq1:  Iter=  5 NonCon=     1 RMS=7.68D-05 Max=1.38D-03 NDo=     1
 LinEq1:  Iter=  6 NonCon=     1 RMS=2.44D-05 Max=2.85D-04 NDo=     1
 LinEq1:  Iter=  7 NonCon=     1 RMS=8.15D-06 Max=1.08D-04 NDo=     1
 LinEq1:  Iter=  8 NonCon=     1 RMS=3.97D-06 Max=6.15D-05 NDo=     1
 LinEq1:  Iter=  9 NonCon=     1 RMS=1.04D-06 Max=1.20D-05 NDo=     1
 LinEq1:  Iter= 10 NonCon=     1 RMS=2.30D-07 Max=2.84D-06 NDo=     1
 LinEq1:  Iter= 11 NonCon=     1 RMS=4.91D-08 Max=7.89D-07 NDo=     1
 LinEq1:  Iter= 12 NonCon=     1 RMS=1.15D-08 Max=1.67D-07 NDo=     1
 LinEq1:  Iter= 13 NonCon=     1 RMS=2.04D-09 Max=2.53D-08 NDo=     1
 LinEq1:  Iter= 14 NonCon=     1 RMS=4.25D-10 Max=5.77D-09 NDo=     1
 LinEq1:  Iter= 15 NonCon=     0 RMS=8.74D-11 Max=8.79D-10 NDo=     1
 Linear equations converged to 1.000D-10 1.000D-09 after    15 iterations.
 End of Minotr F.D. properties file   721 does not exist.
 End of Minotr F.D. properties file   722 does not exist.
 End of Minotr F.D. properties file   788 does not exist.
 Leave Link 1002 at Sun Mar  6 19:42:08 2022, MaxMem= 16106127360 cpu:              66.1 elap:               2.4
 (Enter /sw/contrib/gaussian/g16/B01/g16/l1102.exe)
 Use density number 2.
 Symmetrizing basis deriv contribution to polar:
 IMax=3 JMax=2 DiffMx= 0.00D+00
 Leave Link 1102 at Sun Mar  6 19:42:08 2022, MaxMem= 16106127360 cpu:               0.8 elap:               0.1
 (Enter /sw/contrib/gaussian/g16/B01/g16/l1110.exe)
 Forming Gx(P) for generalized density number  2 NAtomX=     5.
 Integral derivatives from FoFJK, PRISM(SPDF).
 Do as many integral derivatives as possible in FoFJK.
 G2DrvN: MDV=   16106126844.
 G2DrvN: will do     6 centers at a time, making    1 passes.
 Calling FoFCou, ICntrl=  3107 FMM=F I1Cent=   0 AccDes= 0.00D+00.
 FoFJK:  IHMeth= 1 ICntrl=    3107 DoSepK=F KAlg= 0 I1Cent=           0 FoldK=F
 IRaf=         0 NMat=       1 IRICut=       1 DoRegI=T DoRafI=F ISym2E= 1 IDoP0=0 IntGTp=1.
 FoFCou: FMM=F IPFlag=           0 FMFlag=      100000 FMFlg1=           0
         NFxFlg=           0 DoJE=F BraDBF=F KetDBF=F FulRan=T
         wScrn=  0.000000 ICntrl=      3107 IOpCl=  0 I1Cent=           0 NGrid=           0
         NMat0=    1 NMatS0=      1 NMatT0=    0 NMatD0=    1 NMtDS0=    0 NMtDT0=    0
 Petite list used in FoFCou.
 End of G2Drv F.D. properties file   721 does not exist.
 End of G2Drv F.D. properties file   722 does not exist.
 End of G2Drv F.D. properties file   788 does not exist.
 Leave Link 1110 at Sun Mar  6 19:42:12 2022, MaxMem= 16106127360 cpu:              88.3 elap:               3.2
 (Enter /sw/contrib/gaussian/g16/B01/g16/l1112.exe)
 MP22nd: MDV=   16106127360
 This link is doing NAtomX=     5 total of    18 degrees of freedom.
 Using ON3 I/O method in MakUI.
 Frozen-core window:  NFC=   4 NFV=   0.
 Using Ix for Sx.
 Use MO integrals over full window.
 Using OV2 memory method for fx*t*t/D, MaxI=    16 DoOO2=F NP=  28.
 R2 and R3 integrals will be kept in memory, NReq=   915591705.
 FoFCou: FMM=F IPFlag=           0 FMFlag=           0 FMFlg1=           0
         NFxFlg=           0 DoJE=F BraDBF=F KetDBF=F FulRan=T
         wScrn=  0.000000 ICntrl=       600 IOpCl=  0 I1Cent=           0 NGrid=           0
         NMat0=    1 NMatS0=      1 NMatT0=    0 NMatD0=    1 NMtDS0=    0 NMtDT0=    0
 Symmetry not used in FoFCou.
 DD1Dir will call FoFMem   1 times, MxPair=       272
 NAB=   136 NAA=     0 NBB=     0.
 Symmetry is being used.
 FoFJK:  IHMeth= 1 ICntrl=       0 DoSepK=F KAlg= 0 I1Cent=           0 FoldK=F
 IRaf=         0 NMat=      18 IRICut=      45 DoRegI=T DoRafI=T ISym2E= 2 IDoP0=3 IntGTp=3.
 Discarding MO integrals.
 Leave Link 1112 at Sun Mar  6 19:42:37 2022, MaxMem= 16106127360 cpu:             699.3 elap:              25.1
 (Enter /sw/contrib/gaussian/g16/B01/g16/l601.exe)
 Copying SCF densities to generalized density rwf, IOpCl= 0 IROHF=0.

 **********************************************************************

            Population analysis using the MP2 Density.

 **********************************************************************

 Orbital symmetries:
       Occupied  (A') (A') (A') (A') (A') (A') (A') (A') (A') (A')
                 (A") (A') (A') (A") (A') (A")
       Virtual   (A') (A") (A') (A') (A") (A') (A') (A') (A") (A')
                 (A") (A') (A') (A') (A") (A') (A') (A") (A') (A')
                 (A') (A') (A') (A') (A") (A') (A') (A") (A') (A')
                 (A') (A") (A") (A') (A') (A') (A") (A') (A") (A')
                 (A") (A") (A') (A') (A") (A') (A') (A") (A') (A')
                 (A') (A") (A') (A') (A") (A') (A") (A') (A") (A')
                 (A') (A') (A") (A') (A') (A') (A") (A") (A') (A')
                 (A") (A') (A") (A") (A') (A') (A") (A') (A') (A')
                 (A") (A') (A') (A") (A') (A") (A") (A') (A') (A')
                 (A') (A') (A") (A") (A') (A') (A") (A") (A') (A')
                 (A") (A') (A") (A') (A") (A') (A') (A') (A") (A')
                 (A") (A') (A') (A') (A") (A') (A') (A') (A") (A')
                 (A") (A') (A") (A') (A") (A") (A') (A") (A') (A')
                 (A') (A') (A") (A') (A') (A") (A") (A') (A') (A')
                 (A") (A") (A') (A') (A') (A") (A') (A') (A') (A")
                 (A') (A') (A') (A") (A") (A') (A") (A') (A') (A")
                 (A') (A") (A') (A") (A") (A') (A') (A") (A") (A")
                 (A') (A") (A") (A') (A') (A") (A') (A') (A') (A")
                 (A') (A') (A') (A') (A') (A') (A') (A') (A') (A')
                 (A')
 The electronic state is 1-A'.
 Alpha  occ. eigenvalues --  -20.72077 -20.68772 -20.66889 -15.82541  -1.64311
 Alpha  occ. eigenvalues --   -1.50646  -1.29419  -0.96065  -0.83348  -0.75873
 Alpha  occ. eigenvalues --   -0.73982  -0.63870  -0.61961  -0.61900  -0.50302
 Alpha  occ. eigenvalues --   -0.49804
 Alpha virt. eigenvalues --    0.03498   0.06079   0.09511   0.10052   0.11974
 Alpha virt. eigenvalues --    0.12267   0.14901   0.15189   0.17767   0.18036
 Alpha virt. eigenvalues --    0.18959   0.21109   0.21673   0.24259   0.24635
 Alpha virt. eigenvalues --    0.26839   0.31156   0.31572   0.33811   0.34302
 Alpha virt. eigenvalues --    0.34626   0.39264   0.44732   0.48859   0.50460
 Alpha virt. eigenvalues --    0.51892   0.54422   0.56205   0.59924   0.62075
 Alpha virt. eigenvalues --    0.63945   0.68929   0.71732   0.72389   0.73996
 Alpha virt. eigenvalues --    0.76478   0.76752   0.79566   0.80501   0.84015
 Alpha virt. eigenvalues --    0.84316   0.85103   0.88485   0.90691   0.92793
 Alpha virt. eigenvalues --    0.94871   0.95455   1.01798   1.03176   1.05659
 Alpha virt. eigenvalues --    1.06525   1.09342   1.14272   1.15578   1.17154
 Alpha virt. eigenvalues --    1.22090   1.22677   1.24612   1.35119   1.36369
 Alpha virt. eigenvalues --    1.37057   1.46909   1.48396   1.50660   1.54131
 Alpha virt. eigenvalues --    1.59172   1.59660   1.60522   1.62843   1.69573
 Alpha virt. eigenvalues --    1.74027   1.80144   1.82855   1.88747   1.89654
 Alpha virt. eigenvalues --    1.92741   1.98007   1.99078   2.04966   2.12149
 Alpha virt. eigenvalues --    2.13016   2.16441   2.18629   2.24221   2.25964
 Alpha virt. eigenvalues --    2.29460   2.35196   2.36258   2.38643   2.40196
 Alpha virt. eigenvalues --    2.43369   2.47013   2.47877   2.52698   2.53766
 Alpha virt. eigenvalues --    2.54627   2.55702   2.61272   2.62794   2.67064
 Alpha virt. eigenvalues --    2.67106   2.75593   2.80876   2.81187   2.84220
 Alpha virt. eigenvalues --    2.91729   2.97793   3.04853   3.05371   3.11588
 Alpha virt. eigenvalues --    3.11752   3.17225   3.21287   3.30635   3.33425
 Alpha virt. eigenvalues --    3.36030   3.48112   3.67739   3.86891   3.92562
 Alpha virt. eigenvalues --    4.18107   4.21791   4.21925   4.26611   4.36600
 Alpha virt. eigenvalues --    4.50112   4.51374   4.55878   4.60000   4.69210
 Alpha virt. eigenvalues --    4.80857   4.90311   4.91270   4.94332   4.99606
 Alpha virt. eigenvalues --    5.00483   5.10811   5.13444   5.17704   5.24833
 Alpha virt. eigenvalues --    5.25569   5.31629   5.33997   5.35329   5.54328
 Alpha virt. eigenvalues --    5.64317   5.70214   5.88501   6.00135   6.26417
 Alpha virt. eigenvalues --    6.29603   6.35952   6.37635   6.59864   6.65050
 Alpha virt. eigenvalues --    6.65826   6.68514   6.72384   6.80514   6.80649
 Alpha virt. eigenvalues --    6.84053   6.96951   7.01922   7.06618   7.08036
 Alpha virt. eigenvalues --    7.14081   7.16529   7.17534   7.20278   7.24471
 Alpha virt. eigenvalues --    7.24493   7.26986   7.34828   7.39567   7.42372
 Alpha virt. eigenvalues --    7.44253   7.46196   7.55965   7.65540   7.66362
 Alpha virt. eigenvalues --    7.79438   7.88248   7.95277   8.05653   8.30473
 Alpha virt. eigenvalues --    8.50236   8.65244  13.61249  14.76201  15.10055
 Alpha virt. eigenvalues --   15.73831
          Condensed to atoms (all electrons):
               1          2          3          4          5
     1  H    0.577748   0.125377   0.023756  -0.000353  -0.004869
     2  O    0.125377   8.389128  -0.231824  -0.000555  -0.007966
     3  O    0.023756  -0.231824   8.371068  -0.169655  -0.031079
     4  N   -0.000353  -0.000555  -0.169655   7.136464  -0.120293
     5  O   -0.004869  -0.007966  -0.031079  -0.120293   8.360512
 Mulliken charges:
               1
     1  H    0.278341
     2  O   -0.274160
     3  O    0.037733
     4  N    0.154391
     5  O   -0.196305
 Sum of Mulliken charges =  -0.00000
 Mulliken charges with hydrogens summed into heavy atoms:
               1
     2  O    0.004181
     3  O    0.037733
     4  N    0.154391
     5  O   -0.196305
 APT charges:
               1
     1  H    0.269775
     2  O   -0.302876
     3  O   -0.309281
     4  N    0.646306
     5  O   -0.303924
 Sum of APT charges =  -0.00000
 APT charges with hydrogens summed into heavy atoms:
               1
     2  O   -0.033101
     3  O   -0.309281
     4  N    0.646306
     5  O   -0.303924
 Electronic spatial extent (au):  <R**2>=            208.3016
 Charge=             -0.0000 electrons
 Dipole moment (field-independent basis, Debye):
    X=              0.0744    Y=             -1.0954    Z=             -0.0000  Tot=              1.0979
 Quadrupole moment (field-independent basis, Debye-Ang):
   XX=            -23.3989   YY=            -22.9493   ZZ=            -21.9370
   XY=             -1.9660   XZ=              0.0000   YZ=             -0.0000
 Traceless Quadrupole moment (field-independent basis, Debye-Ang):
   XX=             -0.6371   YY=             -0.1876   ZZ=              0.8247
   XY=             -1.9660   XZ=              0.0000   YZ=             -0.0000
 Octapole moment (field-independent basis, Debye-Ang**2):
  XXX=              2.6116  YYY=              0.3167  ZZZ=              0.0000  XYY=              2.3256
  XXY=             -2.8448  XXZ=             -0.0000  XZZ=             -0.5892  YZZ=             -0.7107
  YYZ=             -0.0000  XYZ=              0.0000
 Hexadecapole moment (field-independent basis, Debye-Ang**3):
 XXXX=           -127.3916 YYYY=            -95.5592 ZZZZ=            -18.0504 XXXY=            -22.1110
 XXXZ=              0.0000 YYYX=            -20.1968 YYYZ=             -0.0000 ZZZX=              0.0000
 ZZZY=             -0.0000 XXYY=            -35.8680 XXZZ=            -24.4106 YYZZ=            -18.7156
 XXYZ=              0.0000 YYXZ=              0.0000 ZZXY=             -6.0733
 N-N= 1.225374121900D+02 E-N=-9.066229576268D+02  KE= 2.801963084874D+02
 Symmetry A'   KE= 2.663431779369D+02
 Symmetry A"   KE= 1.385313055048D+01
  Exact polarizability:  30.954   4.217  29.978  -0.000   0.000  17.639
 Approx polarizability:  24.517   0.620  27.783  -0.000   0.000  15.524
 No NMR shielding tensors so no spin-rotation constants.
 Leave Link  601 at Sun Mar  6 19:42:37 2022, MaxMem= 16106127360 cpu:               4.3 elap:               0.2
 (Enter /sw/contrib/gaussian/g16/B01/g16/l701.exe)
 ... and contract with generalized density number  2.
 Compute integral second derivatives.
 Leave Link  701 at Sun Mar  6 19:42:37 2022, MaxMem= 16106127360 cpu:               5.6 elap:               0.2
 (Enter /sw/contrib/gaussian/g16/B01/g16/l702.exe)
 L702 exits ... SP integral derivatives will be done elsewhere.
 Leave Link  702 at Sun Mar  6 19:42:37 2022, MaxMem= 16106127360 cpu:               1.1 elap:               0.1
 (Enter /sw/contrib/gaussian/g16/B01/g16/l703.exe)
 Integral derivatives from FoFJK, PRISM(SPDF).
 Compute integral second derivatives, UseDBF=F ICtDFT=           0.
 Calling FoFJK, ICntrl=  10100127 FMM=F ISym2X=1 I1Cent= 0 IOpClX= 0 NMat=1 NMatS=1 NMatT=0.
 FoFJK:  IHMeth= 1 ICntrl=10100127 DoSepK=F KAlg= 0 I1Cent=           0 FoldK=F
 IRaf=         0 NMat=       1 IRICut=       1 DoRegI=T DoRafI=F ISym2E= 1 IDoP0=0 IntGTp=1.
 FoFCou: FMM=F IPFlag=           0 FMFlag=      100000 FMFlg1=         800
         NFxFlg=           0 DoJE=F BraDBF=F KetDBF=F FulRan=T
         wScrn=  0.000000 ICntrl=  10100127 IOpCl=  0 I1Cent=           0 NGrid=           0
         NMat0=    1 NMatS0=      1 NMatT0=    0 NMatD0=    1 NMtDS0=    0 NMtDT0=    0
 Petite list used in FoFCou.
 Leave Link  703 at Sun Mar  6 19:42:53 2022, MaxMem= 16106127360 cpu:             446.9 elap:              16.0
 (Enter /sw/contrib/gaussian/g16/B01/g16/l716.exe)
 Dipole        = 2.92690002D-02-4.30962071D-01-1.04870560D-32
 Polarizability= 3.09540600D+01 4.21740154D+00 2.99782573D+01
                -6.22139758D-31 2.69891902D-31 1.76390744D+01
 Full mass-weighted force constant matrix:
 Low frequencies ---  -49.2694   -0.0018   -0.0018   -0.0015   21.8884   51.6505
 Low frequencies ---  351.7680  383.7580  517.6950
 Diagonal vibrational polarizability:
        7.3401545      10.2258578      16.2331132
 Harmonic frequencies (cm**-1), IR intensities (KM/Mole), Raman scattering
 activities (A**4/AMU), depolarization ratios for plane and unpolarized
 incident light, reduced masses (AMU), force constants (mDyne/A),
 and normal coordinates:
                      1                      2                      3
                     A"                     A'                     A"
 Frequencies --    351.7348               383.7481               517.6661
 Red. masses --      1.5656                 7.1172                 2.8837
 Frc consts  --      0.1141                 0.6175                 0.4553
 IR Inten    --     62.7534                 7.6413                25.7201
  Atom  AN      X      Y      Z        X      Y      Z        X      Y      Z
     1   1     0.00   0.00   0.98    -0.72  -0.26   0.00     0.00  -0.00   0.93
     2   8     0.00   0.00  -0.11    -0.32  -0.32  -0.00     0.00   0.00   0.05
     3   8     0.00  -0.00   0.12    -0.07   0.08   0.00    -0.00  -0.00  -0.18
     4   7    -0.00  -0.00  -0.11     0.05   0.09  -0.00    -0.00   0.00   0.27
     5   8    -0.00  -0.00   0.03     0.39   0.17   0.00    -0.00   0.00  -0.16
                      4                      5                      6
                     A'                     A'                     A'
 Frequencies --    704.4390               838.8240               968.3724
 Red. masses --     13.2019                12.3956                 9.9357
 Frc consts  --      3.8599                 5.1388                 5.4895
 IR Inten    --    215.8105                33.9086                13.4643
  Atom  AN      X      Y      Z        X      Y      Z        X      Y      Z
     1   1    -0.37   0.01   0.00     0.44  -0.15  -0.00    -0.62  -0.01  -0.00
     2   8    -0.01  -0.08   0.00     0.53  -0.20  -0.00     0.21  -0.17   0.00
     3   8     0.37   0.59  -0.00    -0.37  -0.02   0.00    -0.37   0.40  -0.00
     4   7    -0.40  -0.45   0.00    -0.45  -0.06  -0.00     0.38   0.05   0.00
     5   8     0.01  -0.11  -0.00     0.21   0.28   0.00    -0.13  -0.28  -0.00
                      7                      8                      9
                     A'                     A'                     A'
 Frequencies --   1438.8802              1569.2308              3489.5501
 Red. masses --      1.3034                 6.3550                 1.0640
 Frc consts  --      1.5899                 9.2202                 7.6337
 IR Inten    --     79.0805               152.2510                41.1660
  Atom  AN      X      Y      Z        X      Y      Z        X      Y      Z
     1   1     0.97  -0.20  -0.00     0.77  -0.17  -0.00     0.15   0.99   0.00
     2   8    -0.07  -0.05   0.00    -0.02  -0.02   0.00    -0.01  -0.06  -0.00
     3   8    -0.03   0.06  -0.00     0.04   0.06  -0.00     0.00  -0.00   0.00
     4   7     0.06  -0.05  -0.00    -0.24   0.40  -0.00    -0.00   0.00   0.00
     5   8    -0.02   0.05   0.00     0.15  -0.37   0.00     0.00  -0.00  -0.00

 -------------------
 - Thermochemistry -
 -------------------
 Temperature   298.150 Kelvin.  Pressure   1.00000 Atm.
 Atom     1 has atomic number  1 and mass   1.00783
 Atom     2 has atomic number  8 and mass  15.99491
 Atom     3 has atomic number  8 and mass  15.99491
 Atom     4 has atomic number  7 and mass  14.00307
 Atom     5 has atomic number  8 and mass  15.99491
 Molecular mass:    62.99564 amu.
 Principal axes and moments of inertia in atomic units:
                           1         2         3
     Eigenvalues --    84.11611 225.13410 309.25021
           X            0.79224  -0.61021   0.00000
           Y            0.61021   0.79224   0.00000
           Z            0.00000  -0.00000   1.00000
 This molecule is an asymmetric top.
 Rotational symmetry number  1.
 Rotational temperatures (Kelvin)      1.02969     0.38472     0.28008
 Rotational constants (GHZ):          21.45536     8.01629     5.83586
 Zero-point vibrational energy      61383.1 (Joules/Mol)
                                   14.67090 (Kcal/Mol)
 Warning -- explicit consideration of   3 degrees of freedom as
           vibrations may cause significant error
 Vibrational temperatures:    506.07   552.13   744.81  1013.53  1206.88
          (Kelvin)           1393.27  2070.23  2257.77  5020.68
 
 Zero-point correction=                           0.023380 (Hartree/Particle)
 Thermal correction to Energy=                    0.027339
 Thermal correction to Enthalpy=                  0.028283
 Thermal correction to Gibbs Free Energy=        -0.002617
 Sum of electronic and zero-point Energies=           -280.431769
 Sum of electronic and thermal Energies=              -280.427809
 Sum of electronic and thermal Enthalpies=            -280.426865
 Sum of electronic and thermal Free Energies=         -280.457765
 
                     E (Thermal)             CV                S
                      KCal/Mol        Cal/Mol-Kelvin    Cal/Mol-Kelvin
 Total                   17.155             12.223             65.034
 Electronic               0.000              0.000              0.000
 Translational            0.889              2.981             38.341
 Rotational               0.889              2.981             23.286
 Vibrational             15.378              6.262              3.407
 Vibration     1          0.728              1.572              1.158
 Vibration     2          0.753              1.505              1.024
 Vibration     3          0.873              1.211              0.615
                       Q            Log10(Q)             Ln(Q)
 Total Bot       0.159822D+02          1.203636          2.771475
 Total V=0       0.906741D+12         11.957483         27.533122
 Vib (Bot)       0.296863D-10        -10.527444        -24.240336
 Vib (Bot)    1  0.523949D+00         -0.280711         -0.646360
 Vib (Bot)    2  0.469918D+00         -0.327978         -0.755197
 Vib (Bot)    3  0.312477D+00         -0.505182         -1.163224
 Vib (V=0)       0.168423D+01          0.226403          0.521311
 Vib (V=0)    1  0.122424D+01          0.087866          0.202320
 Vib (V=0)    2  0.118617D+01          0.074145          0.170726
 Vib (V=0)    3  0.108961D+01          0.037272          0.085821
 Electronic      0.100000D+01          0.000000          0.000000
 Translational   0.196526D+08          7.293420         16.793719
 Rotational      0.273943D+05          4.437661         10.218092
 
                                                                title
                                                             IR Spectrum
 
      3                                                                    1    1                                                    
      4                                                                    5    4                9    8    7      5    33            
      9                                                                    6    3                6    3    0      1    85            
      0                                                                    9    9                8    9    4      8    42            
 
      X                                                                    X    X                X    X    X      X    XX            
      X                                                                    X    X                     X    X      X     X            
      X                                                                    X    X                     X    X            X            
      X                                                                    X    X                          X            X            
                                                                           X    X                          X            X            
                                                                           X    X                          X            X            
                                                                           X    X                          X                         
                                                                           X                               X                         
                                                                           X                               X                         
                                                                           X                               X                         
                                                                           X                               X                         
                                                                           X                               X                         
                                                                           X                               X                         
                                                                           X                               X                         
                                                                                                           X                         
                                                                                                           X                         
                                                                                                           X                         
                                                                                                           X                         
                                                                                                           X                         
                                                                                                           X                         
 
 ***** Axes restored to original set *****
 -------------------------------------------------------------------
 Center     Atomic                   Forces (Hartrees/Bohr)
 Number     Number              X              Y              Z
 -------------------------------------------------------------------
      1        1          -0.000180491   -0.000000000    0.000141342
      2        8          -0.001092401   -0.000000000   -0.000740747
      3        8          -0.000800377   -0.000000000   -0.003369044
      4        7           0.005383833    0.000000000    0.000123504
      5        8          -0.003310565   -0.000000000    0.003844944
 -------------------------------------------------------------------
 Cartesian Forces:  Max     0.005383833 RMS     0.002137444
 -----------------------------------------------------------------------------------------------
                       Internal Coordinate Forces (Hartree/Bohr or radian)
  Cent   Atom   N1       Length/X         N2         Alpha/Y        N3         Beta/Z          J
 -----------------------------------------------------------------------------------------------
      1  H 
      2  O        1  -0.000141(     1)
      3  O        2   0.001362(     2)      1   0.000336(     5)
      4  N        3  -0.002146(     3)      2  -0.000619(     6)      1  -0.000000(     8)     0
      5  O        4  -0.001595(     4)      3  -0.010875(     7)      2  -0.000000(     9)     0
 -----------------------------------------------------------------------------------------------
 Internal  Forces:  Max     0.010874622 RMS     0.003767982
 Force constants in Cartesian coordinates: 
                1             2             3             4             5 
      1  0.725664D-01
      2  0.000000D+00  0.600995D-02
      3  0.233614D-01  0.000000D+00  0.437152D+00
      4 -0.517909D-01  0.000000D+00 -0.454677D-02  0.281684D+00
      5  0.000000D+00 -0.251679D-02  0.000000D+00  0.000000D+00  0.120104D-01
      6  0.333626D-01  0.000000D+00 -0.421967D+00 -0.114273D-01  0.000000D+00
      7 -0.254559D-01  0.000000D+00 -0.152493D-01 -0.171598D+00  0.000000D+00
      8  0.000000D+00 -0.413658D-02  0.000000D+00  0.000000D+00 -0.188639D-01
      9 -0.444548D-01  0.000000D+00 -0.193785D-01  0.999551D-02  0.000000D+00
     10 -0.572116D-02  0.000000D+00  0.650013D-02 -0.851471D-01  0.000000D+00
     11  0.000000D+00  0.796796D-02  0.000000D+00  0.000000D+00  0.202699D-01
     12 -0.187369D-01  0.000000D+00  0.116848D-01  0.100896D-01  0.000000D+00
     13  0.104016D-01  0.000000D+00 -0.100654D-01  0.268519D-01  0.000000D+00
     14  0.000000D+00 -0.732454D-02  0.000000D+00  0.000000D+00 -0.108996D-01
     15  0.646769D-02  0.000000D+00 -0.749135D-02 -0.411101D-02  0.000000D+00
                6             7             8             9            10 
      6  0.522063D+00
      7 -0.909305D-01  0.304397D+00
      8  0.000000D+00  0.000000D+00  0.414224D-01
      9 -0.963269D-01  0.811963D-01  0.000000D+00  0.310335D+00
     10  0.404107D-01 -0.143733D+00  0.000000D+00 -0.365447D-01  0.548845D+00
     11  0.000000D+00  0.000000D+00 -0.472085D-01  0.000000D+00  0.000000D+00
     12 -0.917657D-02  0.136910D-01  0.000000D+00 -0.243868D-01  0.243655D+00
     13  0.285845D-01  0.363900D-01  0.000000D+00 -0.101924D-01 -0.314243D+00
     14  0.000000D+00  0.000000D+00  0.287866D-01  0.000000D+00  0.000000D+00
     15  0.540724D-02  0.112925D-01  0.000000D+00 -0.170243D+00 -0.254021D+00
               11            12            13            14            15 
     11  0.550780D-01
     12  0.000000D+00  0.453644D+00
     13  0.000000D+00 -0.248699D+00  0.240600D+00
     14 -0.361074D-01  0.000000D+00  0.000000D+00  0.255450D-01
     15  0.000000D+00 -0.431765D+00  0.240372D+00  0.000000D+00  0.604093D+00
 Force constants in internal coordinates: 
                1             2             3             4             5 
      1  0.437152D+00
      2  0.212939D-01  0.260840D+00
      3  0.546776D-02  0.175057D-01  0.201207D+00
      4 -0.116007D-01  0.222403D-01  0.146858D+00  0.720001D+00
      5  0.433205D-01  0.575156D-01 -0.238357D-01  0.202884D-01  0.251351D+00
      6  0.124450D-01  0.216985D-01  0.838412D-01  0.103299D-01 -0.928647D-02
      7  0.107944D-01 -0.752777D-01  0.109235D+00  0.111011D+00 -0.235261D-01
      8  0.000000D+00  0.000000D+00  0.000000D+00  0.000000D+00  0.000000D+00
      9  0.000000D+00  0.000000D+00  0.000000D+00  0.000000D+00  0.000000D+00
                6             7             8             9 
      6  0.497807D+00
      7  0.433774D-01  0.632047D+00
      8  0.000000D+00  0.000000D+00  0.198138D-01
      9  0.000000D+00  0.000000D+00  0.273663D-01  0.107722D+00
 Leave Link  716 at Sun Mar  6 19:42:53 2022, MaxMem= 16106127360 cpu:               0.8 elap:               0.1
 (Enter /sw/contrib/gaussian/g16/B01/g16/l103.exe)

 GradGradGradGradGradGradGradGradGradGradGradGradGradGradGradGradGradGrad
 Berny optimization.
 Search for a local minimum.
 Step number   1 out of a maximum of    2
 All quantities printed in internal units (Hartrees-Bohrs-Radians)
 Second derivative matrix not updated -- analytic derivatives used.
 The second derivative matrix:
                          r1        r2        r3        r4        a1
           r1           0.43715
           r2           0.02129   0.26084
           r3           0.00547   0.01751   0.20121
           r4          -0.01160   0.02224   0.14686   0.72000
           a1           0.04332   0.05752  -0.02384   0.02029   0.25135
           a2           0.01244   0.02170   0.08384   0.01033  -0.00929
           a3           0.01079  -0.07528   0.10924   0.11101  -0.02353
           d1           0.00000   0.00000   0.00000  -0.00000  -0.00000
           d2           0.00000  -0.00000  -0.00000  -0.00000  -0.00000
                          a2        a3        d1        d2
           a2           0.49781
           a3           0.04338   0.63205
           d1           0.00000  -0.00000   0.01981
           d2          -0.00000   0.00000   0.02737   0.10772
 ITU=  0
     Eigenvalues ---    0.01199   0.11555   0.12326   0.20332   0.27696
     Eigenvalues ---    0.44820   0.50487   0.58742   0.85636
 Angle between quadratic step and forces=  14.27 degrees.
 Linear search not attempted -- first point.
 Variable       Old X    -DE/DX   Delta X   Delta X   Delta X     New X
                                 (Linear)    (Quad)   (Total)
    r1        1.86209  -0.00014   0.00000   0.00018   0.00018   1.86227
    r2        2.69614   0.00136   0.00000   0.00051   0.00051   2.69665
    r3        2.60992  -0.00215   0.00000  -0.00251  -0.00251   2.60740
    r4        2.25782  -0.00160   0.00000   0.00091   0.00091   2.25873
    a1        1.75642   0.00034   0.00000  -0.00069  -0.00069   1.75574
    a2        1.97463  -0.00062   0.00000   0.00060   0.00060   1.97522
    a3        2.01208  -0.01087   0.00000  -0.01694  -0.01694   1.99514
    d1        0.00000  -0.00000   0.00000   0.00000   0.00000   0.00000
    d2        0.00000  -0.00000   0.00000  -0.00000  -0.00000  -0.00000
         Item               Value     Threshold  Converged?
 Maximum Force            0.010875     0.000450     NO 
 RMS     Force            0.003768     0.000300     NO 
 Maximum Displacement     0.016939     0.001800     NO 
 RMS     Displacement     0.005727     0.001200     NO 
 Predicted change in Energy=-9.411086D-05
                       ----------------------------
                       ! Non-Optimized Parameters !
                       ! (Angstroms and Degrees)  !
 ----------------------                            ----------------------
 !      Name          Value   Derivative information (Atomic Units)     !
 ------------------------------------------------------------------------
 !       r1          0.9855   -DE/DX =   -0.0001                        !
 !       r2          1.427    -DE/DX =    0.0014                        !
 !       r3          1.3798   -DE/DX =   -0.0021                        !
 !       r4          1.1953   -DE/DX =   -0.0016                        !
 !       a1        100.5962   -DE/DX =    0.0003                        !
 !       a2        113.172    -DE/DX =   -0.0006                        !
 !       a3        114.313    -DE/DX =   -0.0109                        !
 !       d1          0.0      -DE/DX =    0.0                           !
 !       d2          0.0      -DE/DX =    0.0                           !
 ------------------------------------------------------------------------
 GradGradGradGradGradGradGradGradGradGradGradGradGradGradGradGradGradGrad

 Leave Link  103 at Sun Mar  6 19:42:54 2022, MaxMem= 16106127360 cpu:               1.3 elap:               0.1
 (Enter /sw/contrib/gaussian/g16/B01/g16/l9999.exe)

 ----------------------------------------------------------------------

 Electric dipole moment (input orientation):
 (Debye = 10**-18 statcoulomb cm , SI units = C m)
                  (au)            (Debye)         (10**-30 SI)
   Tot        0.431955D+00      0.109792D+01      0.366227D+01
   x         -0.116879D+00     -0.297077D+00     -0.990942D+00
   y          0.000000D+00      0.000000D+00      0.000000D+00
   z         -0.415842D+00     -0.105696D+01     -0.352565D+01

 Dipole polarizability, Alpha (input orientation).
 (esu units = cm**3 , SI units = C**2 m**2 J**-1)
 Alpha(0;0):
               (au)            (10**-24 esu)      (10**-40 SI)
   iso        0.261905D+02      0.388103D+01      0.431822D+01
   aniso      0.147854D+02      0.219097D+01      0.243778D+01
   xx         0.292229D+02      0.433039D+01      0.481820D+01
   yx         0.000000D+00      0.000000D+00      0.000000D+00
   yy         0.176391D+02      0.261384D+01      0.290829D+01
   zx        -0.405941D+01     -0.601543D+00     -0.669307D+00
   zy         0.000000D+00      0.000000D+00      0.000000D+00
   zz         0.317094D+02      0.469885D+01      0.522818D+01

 ----------------------------------------------------------------------

 Dipole orientation:
     1          0.00000000          0.00000000         -0.00000000
     8         -0.50384822          0.00000000         -1.79263033
     8          1.91248850          0.00000000         -2.98866380
     7          3.89625995         -0.00000000         -1.29269561
     8          3.30260038         -0.00000000          0.88568289

 Electric dipole moment (dipole orientation):
 (Debye = 10**-18 statcoulomb cm , SI units = C m)
                  (au)            (Debye)         (10**-30 SI)
   Tot        0.431955D+00      0.109792D+01      0.366227D+01
   x          0.000000D+00      0.000000D+00      0.000000D+00
   y          0.000000D+00      0.000000D+00      0.000000D+00
   z          0.431955D+00      0.109792D+01      0.366227D+01

 Dipole polarizability, Alpha (dipole orientation).
 (esu units = cm**3 , SI units = C**2 m**2 J**-1)
 Alpha(0;0):
               (au)            (10**-24 esu)      (10**-40 SI)
   iso        0.261905D+02      0.388103D+01      0.431822D+01
   aniso      0.147854D+02      0.219097D+01      0.243778D+01
   xx         0.315198D+02      0.467075D+01      0.519691D+01
   yx         0.000000D+00      0.000000D+00      0.000000D+00
   yy         0.176391D+02      0.261384D+01      0.290829D+01
   zx         0.411271D+01      0.609440D+00      0.678094D+00
   zy         0.000000D+00      0.000000D+00      0.000000D+00
   zz         0.294125D+02      0.435848D+01      0.484947D+01

 ----------------------------------------------------------------------
 1\1\GINC-N2228\Freq\RMP2-FC\Aug-CC-pVTZ\H1N1O3\CGAVINH\06-Mar-2022\1\\
 #p freq mp2/aug-cc-pvtz density=current\\title\\0,1\H\O,1,r1\O,2,r2,1,
 a1\N,3,r3,2,a2,1,d1,0\O,4,r4,3,a3,2,d2,0\\r1=0.98537664\r2=1.42673666\
 r3=1.38110764\r4=1.19478846\a1=100.6355057\a2=113.13777052\a3=115.2835
 7593\d1=0.\d2=0.\\Version=ES64L-G16RevB.01\State=1-A'\HF=-279.5063691\
 MP2=-280.4551482\RMSD=4.327e-09\RMSF=2.137e-03\ZeroPoint=0.0233796\The
 rmal=0.0273388\Dipole=-0.1168791,0.,-0.4158416\DipoleDeriv=0.3146706,0
 .,0.0392072,0.,0.2984357,0.,-0.0218408,0.,0.1962173,-0.5305307,0.,0.27
 97609,0.,-0.2540855,0.,-0.107749,0.,-0.1240119,0.0049834,0.,0.3403164,
 0.,-0.0092984,0.,0.4478139,0.,-0.9235284,0.2030851,0.,-0.1541441,0.,0.
 0093058,0.,-0.6773795,0.,1.7265282,0.0077916,0.,-0.5051404,0.,-0.04435
 76,0.,0.3591554,0.,-0.8752052\Polar=29.2228953,0.,17.6390744,-4.059411
 2,0.,31.709422\Quadrupole=0.1261065,0.6131738,-0.7392803,0.,1.4060893,
 0.\PG=CS [SG(H1N1O3)]\NImag=0\\0.07256636,0.,0.00600995,0.02336137,0.,
 0.43715196,-0.05179088,0.,-0.00454677,0.28168364,0.,-0.00251679,0.,0.,
 0.01201040,0.03336261,0.,-0.42196694,-0.01142733,0.,0.52206312,-0.0254
 5588,0.,-0.01524934,-0.17159757,0.,-0.09093048,0.30439658,0.,-0.004136
 58,0.,0.,-0.01886389,0.,0.,0.04142235,-0.04445477,0.,-0.01937849,0.009
 99551,0.,-0.09632685,0.08119629,0.,0.31033526,-0.00572116,0.,0.0065001
 3,-0.08514706,0.,0.04041068,-0.14373311,0.,-0.03654465,0.54884466,0.,0
 .00796796,0.,0.,0.02026991,0.,0.,-0.04720848,0.,0.,0.05507799,-0.01873
 689,0.,0.01168482,0.01008960,0.,-0.00917657,0.01369100,0.,-0.02438679,
 0.24365497,0.,0.45364395,0.01040157,0.,-0.01006539,0.02685187,0.,0.028
 58452,0.03638997,0.,-0.01019238,-0.31424334,0.,-0.24869868,0.24059993,
 0.,-0.00732454,0.,0.,-0.01089963,0.,0.,0.02878660,0.,0.,-0.03610738,0.
 ,0.,0.02554496,0.00646769,0.,-0.00749135,-0.00411101,0.,0.00540724,0.0
 1129252,0.,-0.17024312,-0.25402112,0.,-0.43176541,0.24037193,0.,0.6040
 9264\\0.00018049,0.,-0.00014134,0.00109240,0.,0.00074075,0.00080038,0.
 ,0.00336904,-0.00538383,0.,-0.00012350,0.00331056,0.,-0.00384494\\\@


 MICRO CREDO - NEVER TRUST A COMPUTER BIGGER
               BIGGER THAN YOU CAN LIFT.
 Job cpu time:       0 days  2 hours  0 minutes 34.0 seconds.
 Elapsed time:       0 days  0 hours  4 minutes 21.5 seconds.
 File lengths (MBytes):  RWF=   7239 Int=      0 D2E=      0 Chk=      8 Scr=      1
 Normal termination of Gaussian 16 at Sun Mar  6 19:42:55 2022.
