 Entering Gaussian System, Link 0=g16
 Input=hoono_a3_115p1563.gjf
 Output=hoono_a3_115p1563.log
 Initial command:
 /sw/contrib/gaussian/g16/B01/g16/l1.exe "/scr/Gau-2483.inp" -scrdir="/scr/"
 Entering Link 1 = /sw/contrib/gaussian/g16/B01/g16/l1.exe PID=      2484.
  
 Copyright (c) 1988-2017, Gaussian, Inc.  All Rights Reserved.
  
 This is part of the Gaussian(R) 16 program.  It is based on
 the Gaussian(R) 09 system (copyright 2009, Gaussian, Inc.),
 the Gaussian(R) 03 system (copyright 2003, Gaussian, Inc.),
 the Gaussian(R) 98 system (copyright 1998, Gaussian, Inc.),
 the Gaussian(R) 94 system (copyright 1995, Gaussian, Inc.),
 the Gaussian 92(TM) system (copyright 1992, Gaussian, Inc.),
 the Gaussian 90(TM) system (copyright 1990, Gaussian, Inc.),
 the Gaussian 88(TM) system (copyright 1988, Gaussian, Inc.),
 the Gaussian 86(TM) system (copyright 1986, Carnegie Mellon
 University), and the Gaussian 82(TM) system (copyright 1983,
 Carnegie Mellon University). Gaussian is a federally registered
 trademark of Gaussian, Inc.
  
 This software contains proprietary and confidential information,
 including trade secrets, belonging to Gaussian, Inc.
  
 This software is provided under written license and may be
 used, copied, transmitted, or stored only in accord with that
 written license.
  
 The following legend is applicable only to US Government
 contracts under FAR:
  
                    RESTRICTED RIGHTS LEGEND
  
 Use, reproduction and disclosure by the US Government is
 subject to restrictions as set forth in subparagraphs (a)
 and (c) of the Commercial Computer Software - Restricted
 Rights clause in FAR 52.227-19.
  
 Gaussian, Inc.
 340 Quinnipiac St., Bldg. 40, Wallingford CT 06492
  
  
 ---------------------------------------------------------------
 Warning -- This program may not be used in any manner that
 competes with the business of Gaussian, Inc. or will provide
 assistance to any competitor of Gaussian, Inc.  The licensee
 of this program is prohibited from giving any competitor of
 Gaussian, Inc. access to this program.  By using this program,
 the user acknowledges that Gaussian, Inc. is engaged in the
 business of creating and licensing software in the field of
 computational chemistry and represents and warrants to the
 licensee that it is not a competitor of Gaussian, Inc. and that
 it will not use this program in any manner prohibited above.
 ---------------------------------------------------------------
  

 Cite this work as:
 Gaussian 16, Revision B.01,
 M. J. Frisch, G. W. Trucks, H. B. Schlegel, G. E. Scuseria, 
 M. A. Robb, J. R. Cheeseman, G. Scalmani, V. Barone, 
 G. A. Petersson, H. Nakatsuji, X. Li, M. Caricato, A. V. Marenich, 
 J. Bloino, B. G. Janesko, R. Gomperts, B. Mennucci, H. P. Hratchian, 
 J. V. Ortiz, A. F. Izmaylov, J. L. Sonnenberg, D. Williams-Young, 
 F. Ding, F. Lipparini, F. Egidi, J. Goings, B. Peng, A. Petrone, 
 T. Henderson, D. Ranasinghe, V. G. Zakrzewski, J. Gao, N. Rega, 
 G. Zheng, W. Liang, M. Hada, M. Ehara, K. Toyota, R. Fukuda, 
 J. Hasegawa, M. Ishida, T. Nakajima, Y. Honda, O. Kitao, H. Nakai, 
 T. Vreven, K. Throssell, J. A. Montgomery, Jr., J. E. Peralta, 
 F. Ogliaro, M. J. Bearpark, J. J. Heyd, E. N. Brothers, K. N. Kudin, 
 V. N. Staroverov, T. A. Keith, R. Kobayashi, J. Normand, 
 K. Raghavachari, A. P. Rendell, J. C. Burant, S. S. Iyengar, 
 J. Tomasi, M. Cossi, J. M. Millam, M. Klene, C. Adamo, R. Cammi, 
 J. W. Ochterski, R. L. Martin, K. Morokuma, O. Farkas, 
 J. B. Foresman, and D. J. Fox, Gaussian, Inc., Wallingford CT, 2016.
 
 ******************************************
 Gaussian 16:  ES64L-G16RevB.01 20-Dec-2017
                 6-Mar-2022 
 ******************************************
 %nproc=28
 Will use up to   28 processors via shared memory.
 %mem=120GB
 %chk=hoono_a3_115p1563.chk
 ---------------------------------------
 #p freq mp2/aug-cc-pvtz density=current
 ---------------------------------------
 1/10=4,30=1,38=1/1,3;
 2/12=2,17=6,18=5,40=1/2;
 3/5=16,6=1,7=10,11=9,25=1,30=1,71=2,140=1/1,2,3;
 4//1;
 5/5=2,38=5,98=1/2;
 8/6=3,8=1,10=1,19=11,30=-1/1;
 9/15=3,16=-3/6;
 11/6=1,8=1,15=11,17=12,24=-1,27=1,28=-2,29=300,32=6,42=3/1,2,10;
 10/6=2,21=1/2;
 8/6=4,8=1,10=1,19=11,30=-1/11,4;
 10/5=1,20=4/2;
 11/12=2,14=11,16=1,17=2,28=-2,42=3,76=2/2,10,12;
 6/7=2,8=2,9=2,10=2,22=-1/1;
 7/8=1,10=1,12=2,25=1,44=2/1,2,3,16;
 1/10=4,30=1/3;
 99//99;
 Leave Link    1 at Sun Mar  6 19:38:28 2022, MaxMem= 16106127360 cpu:               5.0 elap:               0.2
 (Enter /sw/contrib/gaussian/g16/B01/g16/l101.exe)
 -----
 title
 -----
 Symbolic Z-matrix:
 Charge =  0 Multiplicity = 1
 H
 O                    1    r1
 O                    2    r2       1    a1
 N                    3    r3       2    a2       1    d1       0
 O                    4    r4       3    a3       2    d2       0
       Variables:
  r1                    0.98538                  
  r2                    1.42674                  
  r3                    1.38111                  
  r4                    1.19479                  
  a1                  100.63551                  
  a2                  113.13777                  
  a3                  115.15635                  
  d1                    0.                       
  d2                    0.                       
 
 ITRead=  0  0  0  0  0
 MicOpt= -1 -1 -1 -1 -1
 NAtoms=      5 NQM=        5 NQMF=       0 NMMI=      0 NMMIF=      0
                NMic=       0 NMicF=      0.
                    Isotopes and Nuclear Properties:
 (Nuclear quadrupole moments (NQMom) in fm**2, nuclear magnetic moments (NMagM)
  in nuclear magnetons)

  Atom         1           2           3           4           5
 IAtWgt=           1          16          16          14          16
 AtmWgt=   1.0078250  15.9949146  15.9949146  14.0030740  15.9949146
 NucSpn=           1           0           0           2           0
 AtZEff=  -0.0000000  -0.0000000  -0.0000000  -0.0000000  -0.0000000
 NQMom=    0.0000000   0.0000000   0.0000000   2.0440000   0.0000000
 NMagM=    2.7928460   0.0000000   0.0000000   0.4037610   0.0000000
 AtZNuc=   1.0000000   8.0000000   8.0000000   7.0000000   8.0000000
 Leave Link  101 at Sun Mar  6 19:38:28 2022, MaxMem= 16106127360 cpu:               2.3 elap:               0.1
 (Enter /sw/contrib/gaussian/g16/B01/g16/l103.exe)

 GradGradGradGradGradGradGradGradGradGradGradGradGradGradGradGradGradGrad
 Berny optimization.
 Initialization pass.
                       ----------------------------
                       !    Initial Parameters    !
                       ! (Angstroms and Degrees)  !
 ----------------------                            ----------------------
 !      Name          Value   Derivative information (Atomic Units)     !
 ------------------------------------------------------------------------
 !       r1          0.9854   calculate D2E/DX2 analytically            !
 !       r2          1.4267   calculate D2E/DX2 analytically            !
 !       r3          1.3811   calculate D2E/DX2 analytically            !
 !       r4          1.1948   calculate D2E/DX2 analytically            !
 !       a1        100.6355   calculate D2E/DX2 analytically            !
 !       a2        113.1378   calculate D2E/DX2 analytically            !
 !       a3        115.1563   calculate D2E/DX2 analytically            !
 !       d1          0.0      calculate D2E/DX2 analytically            !
 !       d2          0.0      calculate D2E/DX2 analytically            !
 ------------------------------------------------------------------------
 Trust Radius=3.00D-01 FncErr=1.00D-07 GrdErr=1.00D-07 EigMax=2.50D+02 EigMin=1.00D-04
 Number of steps in this run=      2 maximum allowed number of steps=      2.
 GradGradGradGradGradGradGradGradGradGradGradGradGradGradGradGradGradGrad

 Leave Link  103 at Sun Mar  6 19:38:28 2022, MaxMem= 16106127360 cpu:               0.6 elap:               0.0
 (Enter /sw/contrib/gaussian/g16/B01/g16/l202.exe)
                          Input orientation:                          
 ---------------------------------------------------------------------
 Center     Atomic      Atomic             Coordinates (Angstroms)
 Number     Number       Type             X           Y           Z
 ---------------------------------------------------------------------
      1          1           0        0.000000    0.000000    0.000000
      2          8           0        0.000000    0.000000    0.985377
      3          8           0        1.402227    0.000000    1.248696
      4          7           0        2.169996    0.000000    0.100659
      5          8           0        1.553377    0.000000   -0.922718
 ---------------------------------------------------------------------
                    Distance matrix (angstroms):
                    1          2          3          4          5
     1  H    0.000000
     2  O    0.985377   0.000000
     3  O    1.877627   1.426737   0.000000
     4  N    2.172329   2.343418   1.381108   0.000000
     5  O    1.806762   2.460448   2.176669   1.194788   0.000000
 Stoichiometry    HNO3
 Framework group  CS[SG(HNO3)]
 Deg. of freedom     7
 Full point group                 CS      NOp   2
 Largest Abelian subgroup         CS      NOp   2
 Largest concise Abelian subgroup C1      NOp   1
                         Standard orientation:                         
 ---------------------------------------------------------------------
 Center     Atomic      Atomic             Coordinates (Angstroms)
 Number     Number       Type             X           Y           Z
 ---------------------------------------------------------------------
      1          1           0        1.115853   -0.591664    0.000000
      2          8           0        1.318245    0.372704    0.000000
      3          8           0       -0.000000    0.918420    0.000000
      4          7           0       -0.987201   -0.047444    0.000000
      5          8           0       -0.593926   -1.175652    0.000000
 ---------------------------------------------------------------------
 Rotational constants (GHZ):          21.4410198           8.0283964           5.8412086
 Leave Link  202 at Sun Mar  6 19:38:29 2022, MaxMem= 16106127360 cpu:               2.2 elap:               0.1
 (Enter /sw/contrib/gaussian/g16/B01/g16/l301.exe)
 Standard basis: Aug-CC-pVTZ (5D, 7F)
 Ernie: Thresh=  0.10000D-02 Tol=  0.10000D-05 Strict=F.
 Ernie:  12 primitive shells out of 131 were deleted.
 There are   166 symmetry adapted cartesian basis functions of A'  symmetry.
 There are    79 symmetry adapted cartesian basis functions of A"  symmetry.
 There are   136 symmetry adapted basis functions of A'  symmetry.
 There are    71 symmetry adapted basis functions of A"  symmetry.
   207 basis functions,   315 primitive gaussians,   245 cartesian basis functions
    16 alpha electrons       16 beta electrons
       nuclear repulsion energy       122.5656707391 Hartrees.
 IExCor=    0 DFT=F Ex=HF Corr=None ExCW=0 ScaHFX=  1.000000
 ScaDFX=  1.000000  1.000000  1.000000  1.000000 ScalE2=  1.000000  1.000000
 IRadAn=      5 IRanWt=     -1 IRanGd=            0 ICorTp=0 IEmpDi=  4
 NAtoms=    5 NActive=    5 NUniq=    5 SFac= 1.00D+00 NAtFMM=   60 NAOKFM=F Big=F
 Integral buffers will be    131072 words long.
 Raffenetti 1 integral format.
 Two-electron integral symmetry is turned on.
 Leave Link  301 at Sun Mar  6 19:38:29 2022, MaxMem= 16106127360 cpu:               1.8 elap:               0.1
 (Enter /sw/contrib/gaussian/g16/B01/g16/l302.exe)
 NPDir=0 NMtPBC=     1 NCelOv=     1 NCel=       1 NClECP=     1 NCelD=      1
         NCelK=      1 NCelE2=     1 NClLst=     1 CellRange=     0.0.
 One-electron integrals computed using PRISM.
 One-electron integral symmetry used in STVInt
 NBasis=   207 RedAO= T EigKep=  1.31D-04  NBF=   136    71
 NBsUse=   207 1.00D-06 EigRej= -1.00D+00 NBFU=   136    71
 Leave Link  302 at Sun Mar  6 19:38:29 2022, MaxMem= 16106127360 cpu:               4.5 elap:               0.2
 (Enter /sw/contrib/gaussian/g16/B01/g16/l303.exe)
 DipDrv:  MaxL=1.
 Leave Link  303 at Sun Mar  6 19:38:29 2022, MaxMem= 16106127360 cpu:               1.1 elap:               0.1
 (Enter /sw/contrib/gaussian/g16/B01/g16/l401.exe)
 ExpMin= 2.53D-02 ExpMax= 1.53D+04 ExpMxC= 5.22D+02 IAcc=3 IRadAn=         5 AccDes= 0.00D+00
 Harris functional with IExCor=  205 and IRadAn=       5 diagonalized for initial guess.
 HarFok:  IExCor=  205 AccDes= 0.00D+00 IRadAn=         5 IDoV= 1 UseB2=F ITyADJ=14
 ICtDFT=  3500011 ScaDFX=  1.000000  1.000000  1.000000  1.000000
 FoFCou: FMM=F IPFlag=           0 FMFlag=      100000 FMFlg1=           0
         NFxFlg=           0 DoJE=T BraDBF=F KetDBF=T FulRan=T
         wScrn=  0.000000 ICntrl=       500 IOpCl=  0 I1Cent=   200000004 NGrid=           0
         NMat0=    1 NMatS0=      1 NMatT0=    0 NMatD0=    1 NMtDS0=    0 NMtDT0=    0
 Petite list used in FoFCou.
 Harris En= -279.644814983690    
 JPrj=0 DoOrth=F DoCkMO=F.
 Initial guess orbital symmetries:
       Occupied  (A') (A') (A') (A') (A') (A') (A') (A') (A') (A')
                 (A") (A') (A") (A') (A") (A')
       Virtual   (A") (A') (A') (A') (A') (A") (A') (A') (A') (A')
                 (A") (A') (A") (A') (A') (A") (A') (A') (A") (A')
                 (A') (A') (A') (A') (A") (A') (A') (A') (A") (A')
                 (A') (A") (A") (A') (A') (A") (A') (A") (A') (A")
                 (A') (A") (A') (A") (A') (A') (A') (A') (A") (A')
                 (A') (A") (A') (A") (A') (A") (A') (A') (A') (A")
                 (A') (A') (A") (A') (A') (A') (A") (A") (A') (A')
                 (A") (A') (A") (A") (A') (A') (A") (A') (A') (A')
                 (A") (A') (A') (A") (A') (A") (A') (A") (A') (A')
                 (A') (A") (A') (A") (A') (A') (A") (A') (A") (A')
                 (A") (A') (A') (A") (A") (A') (A') (A') (A") (A')
                 (A") (A') (A') (A') (A") (A') (A') (A') (A") (A')
                 (A") (A') (A') (A") (A") (A") (A") (A') (A') (A')
                 (A') (A') (A') (A") (A') (A") (A') (A") (A') (A')
                 (A") (A") (A') (A') (A') (A") (A') (A') (A') (A")
                 (A') (A') (A') (A") (A') (A") (A") (A') (A") (A')
                 (A') (A") (A") (A') (A") (A') (A') (A") (A") (A')
                 (A") (A") (A") (A') (A') (A") (A') (A') (A') (A")
                 (A') (A') (A') (A') (A') (A') (A') (A') (A') (A')
                 (A')
 The electronic state of the initial guess is 1-A'.
 Leave Link  401 at Sun Mar  6 19:38:29 2022, MaxMem= 16106127360 cpu:               7.2 elap:               0.3
 (Enter /sw/contrib/gaussian/g16/B01/g16/l502.exe)
 Keep R1 ints in memory in symmetry-blocked form, NReq=348887737.
 FoFCou: FMM=F IPFlag=           0 FMFlag=           0 FMFlg1=           0
         NFxFlg=           0 DoJE=F BraDBF=F KetDBF=F FulRan=T
         wScrn=  0.000000 ICntrl=       600 IOpCl=  0 I1Cent=           0 NGrid=           0
         NMat0=    1 NMatS0=  21528 NMatT0=    0 NMatD0=    1 NMtDS0=    0 NMtDT0=    0
 Petite list used in FoFCou.
 Closed shell SCF:
 Using DIIS extrapolation, IDIIS=  1040.
 NGot= 16106127360 LenX= 15988850015 LenY= 15988789549
 Requested convergence on RMS density matrix=1.00D-08 within 128 cycles.
 Requested convergence on MAX density matrix=1.00D-06.
 Requested convergence on             energy=1.00D-06.
 No special actions if energy rises.

 Cycle   1  Pass 1  IDiag  1:
 E= -279.364080915562    
 DIIS: error= 2.72D-02 at cycle   1 NSaved=   1.
 NSaved= 1 IEnMin= 1 EnMin= -279.364080915562     IErMin= 1 ErrMin= 2.72D-02
 ErrMax= 2.72D-02  0.00D+00 EMaxC= 1.00D-01 BMatC= 4.50D-01 BMatP= 4.50D-01
 IDIUse=3 WtCom= 7.28D-01 WtEn= 2.72D-01
 Coeff-Com:  0.100D+01
 Coeff-En:   0.100D+01
 Coeff:      0.100D+01
 Gap=     0.499 Goal=   None    Shift=    0.000
 GapD=    0.499 DampG=2.000 DampE=0.500 DampFc=1.0000 IDamp=-1.
 RMSDP=1.67D-03 MaxDP=8.64D-02              OVMax= 1.23D-01

 Cycle   2  Pass 1  IDiag  1:
 E= -279.446174454953     Delta-E=       -0.082093539391 Rises=F Damp=F
 DIIS: error= 1.92D-02 at cycle   2 NSaved=   2.
 NSaved= 2 IEnMin= 2 EnMin= -279.446174454953     IErMin= 2 ErrMin= 1.92D-02
 ErrMax= 1.92D-02  0.00D+00 EMaxC= 1.00D-01 BMatC= 8.60D-02 BMatP= 4.50D-01
 IDIUse=3 WtCom= 8.08D-01 WtEn= 1.92D-01
 Coeff-Com:  0.219D+00 0.781D+00
 Coeff-En:   0.763D-01 0.924D+00
 Coeff:      0.191D+00 0.809D+00
 Gap=     0.562 Goal=   None    Shift=    0.000
 RMSDP=9.67D-04 MaxDP=3.68D-02 DE=-8.21D-02 OVMax= 9.10D-02

 Cycle   3  Pass 1  IDiag  1:
 E= -279.483916066089     Delta-E=       -0.037741611136 Rises=F Damp=F
 DIIS: error= 1.12D-02 at cycle   3 NSaved=   3.
 NSaved= 3 IEnMin= 3 EnMin= -279.483916066089     IErMin= 3 ErrMin= 1.12D-02
 ErrMax= 1.12D-02  0.00D+00 EMaxC= 1.00D-01 BMatC= 3.10D-02 BMatP= 8.60D-02
 IDIUse=3 WtCom= 8.88D-01 WtEn= 1.12D-01
 Coeff-Com: -0.347D-01 0.365D+00 0.670D+00
 Coeff-En:   0.000D+00 0.219D+00 0.781D+00
 Coeff:     -0.308D-01 0.348D+00 0.682D+00
 Gap=     0.542 Goal=   None    Shift=    0.000
 RMSDP=4.10D-04 MaxDP=1.56D-02 DE=-3.77D-02 OVMax= 3.92D-02

 Cycle   4  Pass 1  IDiag  1:
 E= -279.505111233849     Delta-E=       -0.021195167760 Rises=F Damp=F
 DIIS: error= 1.66D-03 at cycle   4 NSaved=   4.
 NSaved= 4 IEnMin= 4 EnMin= -279.505111233849     IErMin= 4 ErrMin= 1.66D-03
 ErrMax= 1.66D-03  0.00D+00 EMaxC= 1.00D-01 BMatC= 6.02D-04 BMatP= 3.10D-02
 IDIUse=3 WtCom= 9.83D-01 WtEn= 1.66D-02
 Coeff-Com: -0.120D-01 0.468D-01 0.154D+00 0.811D+00
 Coeff-En:   0.000D+00 0.000D+00 0.000D+00 0.100D+01
 Coeff:     -0.118D-01 0.460D-01 0.151D+00 0.815D+00
 Gap=     0.528 Goal=   None    Shift=    0.000
 RMSDP=9.91D-05 MaxDP=2.30D-03 DE=-2.12D-02 OVMax= 1.18D-02

 Cycle   5  Pass 1  IDiag  1:
 E= -279.505926299929     Delta-E=       -0.000815066080 Rises=F Damp=F
 DIIS: error= 1.09D-03 at cycle   5 NSaved=   5.
 NSaved= 5 IEnMin= 5 EnMin= -279.505926299929     IErMin= 5 ErrMin= 1.09D-03
 ErrMax= 1.09D-03  0.00D+00 EMaxC= 1.00D-01 BMatC= 1.03D-04 BMatP= 6.02D-04
 IDIUse=3 WtCom= 9.89D-01 WtEn= 1.09D-02
 Coeff-Com:  0.539D-02-0.661D-01-0.111D+00 0.597D-01 0.111D+01
 Coeff-En:   0.000D+00 0.000D+00 0.000D+00 0.000D+00 0.100D+01
 Coeff:      0.533D-02-0.653D-01-0.110D+00 0.590D-01 0.111D+01
 Gap=     0.532 Goal=   None    Shift=    0.000
 RMSDP=7.99D-05 MaxDP=2.12D-03 DE=-8.15D-04 OVMax= 1.29D-02

 Cycle   6  Pass 1  IDiag  1:
 E= -279.506289278084     Delta-E=       -0.000362978155 Rises=F Damp=F
 DIIS: error= 3.35D-04 at cycle   6 NSaved=   6.
 NSaved= 6 IEnMin= 6 EnMin= -279.506289278084     IErMin= 6 ErrMin= 3.35D-04
 ErrMax= 3.35D-04  0.00D+00 EMaxC= 1.00D-01 BMatC= 2.40D-05 BMatP= 1.03D-04
 IDIUse=3 WtCom= 9.97D-01 WtEn= 3.35D-03
 Coeff-Com:  0.188D-02-0.700D-02-0.177D-01-0.182D+00 0.118D-01 0.119D+01
 Coeff-En:   0.000D+00 0.000D+00 0.000D+00 0.000D+00 0.000D+00 0.100D+01
 Coeff:      0.187D-02-0.697D-02-0.176D-01-0.181D+00 0.118D-01 0.119D+01
 Gap=     0.532 Goal=   None    Shift=    0.000
 RMSDP=4.66D-05 MaxDP=1.07D-03 DE=-3.63D-04 OVMax= 6.07D-03

 Cycle   7  Pass 1  IDiag  1:
 E= -279.506374947176     Delta-E=       -0.000085669092 Rises=F Damp=F
 DIIS: error= 1.30D-04 at cycle   7 NSaved=   7.
 NSaved= 7 IEnMin= 7 EnMin= -279.506374947176     IErMin= 7 ErrMin= 1.30D-04
 ErrMax= 1.30D-04  0.00D+00 EMaxC= 1.00D-01 BMatC= 3.56D-06 BMatP= 2.40D-05
 IDIUse=3 WtCom= 9.99D-01 WtEn= 1.30D-03
 Coeff-Com: -0.110D-02 0.114D-01 0.251D-01 0.174D-01-0.182D+00-0.156D+00
 Coeff-Com:  0.129D+01
 Coeff-En:   0.000D+00 0.000D+00 0.000D+00 0.000D+00 0.000D+00 0.000D+00
 Coeff-En:   0.100D+01
 Coeff:     -0.110D-02 0.114D-01 0.250D-01 0.174D-01-0.181D+00-0.156D+00
 Coeff:      0.128D+01
 Gap=     0.533 Goal=   None    Shift=    0.000
 RMSDP=1.75D-05 MaxDP=5.13D-04 DE=-8.57D-05 OVMax= 2.32D-03

 Cycle   8  Pass 1  IDiag  1:
 E= -279.506386930561     Delta-E=       -0.000011983385 Rises=F Damp=F
 DIIS: error= 4.71D-05 at cycle   8 NSaved=   8.
 NSaved= 8 IEnMin= 8 EnMin= -279.506386930561     IErMin= 8 ErrMin= 4.71D-05
 ErrMax= 4.71D-05  0.00D+00 EMaxC= 1.00D-01 BMatC= 5.91D-07 BMatP= 3.56D-06
 IDIUse=1 WtCom= 1.00D+00 WtEn= 0.00D+00
 Coeff-Com: -0.555D-03 0.405D-02 0.960D-02 0.247D-01-0.566D-01-0.192D+00
 Coeff-Com:  0.354D+00 0.857D+00
 Coeff:     -0.555D-03 0.405D-02 0.960D-02 0.247D-01-0.566D-01-0.192D+00
 Coeff:      0.354D+00 0.857D+00
 Gap=     0.533 Goal=   None    Shift=    0.000
 RMSDP=5.38D-06 MaxDP=1.53D-04 DE=-1.20D-05 OVMax= 6.38D-04

 Cycle   9  Pass 1  IDiag  1:
 E= -279.506388285894     Delta-E=       -0.000001355333 Rises=F Damp=F
 DIIS: error= 2.45D-05 at cycle   9 NSaved=   9.
 NSaved= 9 IEnMin= 9 EnMin= -279.506388285894     IErMin= 9 ErrMin= 2.45D-05
 ErrMax= 2.45D-05  0.00D+00 EMaxC= 1.00D-01 BMatC= 1.17D-07 BMatP= 5.91D-07
 IDIUse=1 WtCom= 1.00D+00 WtEn= 0.00D+00
 Coeff-Com:  0.241D-03-0.256D-02-0.531D-02-0.559D-02 0.469D-01 0.488D-01
 Coeff-Com: -0.340D+00 0.372D-01 0.122D+01
 Coeff:      0.241D-03-0.256D-02-0.531D-02-0.559D-02 0.469D-01 0.488D-01
 Coeff:     -0.340D+00 0.372D-01 0.122D+01
 Gap=     0.533 Goal=   None    Shift=    0.000
 RMSDP=2.45D-06 MaxDP=6.59D-05 DE=-1.36D-06 OVMax= 2.57D-04

 Cycle  10  Pass 1  IDiag  1:
 E= -279.506388548306     Delta-E=       -0.000000262412 Rises=F Damp=F
 DIIS: error= 5.81D-06 at cycle  10 NSaved=  10.
 NSaved=10 IEnMin=10 EnMin= -279.506388548306     IErMin=10 ErrMin= 5.81D-06
 ErrMax= 5.81D-06  0.00D+00 EMaxC= 1.00D-01 BMatC= 8.24D-09 BMatP= 1.17D-07
 IDIUse=1 WtCom= 1.00D+00 WtEn= 0.00D+00
 Coeff-Com: -0.384D-04 0.496D-03 0.120D-02-0.185D-02-0.110D-01 0.532D-02
 Coeff-Com:  0.731D-01-0.557D-01-0.437D+00 0.143D+01
 Coeff:     -0.384D-04 0.496D-03 0.120D-02-0.185D-02-0.110D-01 0.532D-02
 Coeff:      0.731D-01-0.557D-01-0.437D+00 0.143D+01
 Gap=     0.533 Goal=   None    Shift=    0.000
 RMSDP=7.05D-07 MaxDP=2.56D-05 DE=-2.62D-07 OVMax= 7.55D-05

 Cycle  11  Pass 1  IDiag  1:
 E= -279.506388573149     Delta-E=       -0.000000024843 Rises=F Damp=F
 DIIS: error= 2.22D-06 at cycle  11 NSaved=  11.
 NSaved=11 IEnMin=11 EnMin= -279.506388573149     IErMin=11 ErrMin= 2.22D-06
 ErrMax= 2.22D-06  0.00D+00 EMaxC= 1.00D-01 BMatC= 8.21D-10 BMatP= 8.24D-09
 IDIUse=1 WtCom= 1.00D+00 WtEn= 0.00D+00
 Coeff-Com: -0.158D-04 0.158D-03 0.327D-03 0.898D-03-0.203D-02-0.714D-02
 Coeff-Com:  0.179D-01 0.195D-01-0.434D-01-0.336D+00 0.135D+01
 Coeff:     -0.158D-04 0.158D-03 0.327D-03 0.898D-03-0.203D-02-0.714D-02
 Coeff:      0.179D-01 0.195D-01-0.434D-01-0.336D+00 0.135D+01
 Gap=     0.533 Goal=   None    Shift=    0.000
 RMSDP=2.42D-07 MaxDP=8.99D-06 DE=-2.48D-08 OVMax= 2.84D-05

 Cycle  12  Pass 1  IDiag  1:
 E= -279.506388576104     Delta-E=       -0.000000002955 Rises=F Damp=F
 DIIS: error= 7.00D-07 at cycle  12 NSaved=  12.
 NSaved=12 IEnMin=12 EnMin= -279.506388576104     IErMin=12 ErrMin= 7.00D-07
 ErrMax= 7.00D-07  0.00D+00 EMaxC= 1.00D-01 BMatC= 8.51D-11 BMatP= 8.21D-10
 IDIUse=1 WtCom= 1.00D+00 WtEn= 0.00D+00
 Coeff-Com:  0.265D-05-0.456D-04-0.979D-04 0.125D-03 0.113D-02-0.694D-03
 Coeff-Com: -0.732D-02 0.642D-02 0.405D-01-0.110D+00-0.185D+00 0.126D+01
 Coeff:      0.265D-05-0.456D-04-0.979D-04 0.125D-03 0.113D-02-0.694D-03
 Coeff:     -0.732D-02 0.642D-02 0.405D-01-0.110D+00-0.185D+00 0.126D+01
 Gap=     0.533 Goal=   None    Shift=    0.000
 RMSDP=8.33D-08 MaxDP=2.72D-06 DE=-2.95D-09 OVMax= 9.66D-06

 Cycle  13  Pass 1  IDiag  1:
 E= -279.506388576401     Delta-E=       -0.000000000298 Rises=F Damp=F
 DIIS: error= 1.65D-07 at cycle  13 NSaved=  13.
 NSaved=13 IEnMin=13 EnMin= -279.506388576401     IErMin=13 ErrMin= 1.65D-07
 ErrMax= 1.65D-07  0.00D+00 EMaxC= 1.00D-01 BMatC= 7.12D-12 BMatP= 8.51D-11
 IDIUse=1 WtCom= 1.00D+00 WtEn= 0.00D+00
 Coeff-Com:  0.127D-05-0.118D-04-0.169D-04-0.120D-03 0.403D-04 0.919D-03
 Coeff-Com: -0.100D-02-0.249D-02-0.232D-02 0.548D-01-0.128D+00-0.150D+00
 Coeff-Com:  0.123D+01
 Coeff:      0.127D-05-0.118D-04-0.169D-04-0.120D-03 0.403D-04 0.919D-03
 Coeff:     -0.100D-02-0.249D-02-0.232D-02 0.548D-01-0.128D+00-0.150D+00
 Coeff:      0.123D+01
 Gap=     0.533 Goal=   None    Shift=    0.000
 RMSDP=2.21D-08 MaxDP=6.55D-07 DE=-2.98D-10 OVMax= 2.01D-06

 Cycle  14  Pass 1  IDiag  1:
 E= -279.506388576422     Delta-E=       -0.000000000021 Rises=F Damp=F
 DIIS: error= 4.08D-08 at cycle  14 NSaved=  14.
 NSaved=14 IEnMin=14 EnMin= -279.506388576422     IErMin=14 ErrMin= 4.08D-08
 ErrMax= 4.08D-08  0.00D+00 EMaxC= 1.00D-01 BMatC= 4.86D-13 BMatP= 7.12D-12
 IDIUse=1 WtCom= 1.00D+00 WtEn= 0.00D+00
 Coeff-Com: -0.304D-06 0.450D-05 0.895D-05-0.354D-05-0.113D-03 0.574D-04
 Coeff-Com:  0.648D-03-0.326D-03-0.358D-02 0.798D-02 0.167D-01-0.902D-01
 Coeff-Com: -0.192D-01 0.109D+01
 Coeff:     -0.304D-06 0.450D-05 0.895D-05-0.354D-05-0.113D-03 0.574D-04
 Coeff:      0.648D-03-0.326D-03-0.358D-02 0.798D-02 0.167D-01-0.902D-01
 Coeff:     -0.192D-01 0.109D+01
 Gap=     0.533 Goal=   None    Shift=    0.000
 RMSDP=4.34D-09 MaxDP=1.08D-07 DE=-2.06D-11 OVMax= 4.52D-07

 SCF Done:  E(RHF) =  -279.506388576     A.U. after   14 cycles
            NFock= 14  Conv=0.43D-08     -V/T= 2.0023
 KE= 2.788787658801D+02 PE=-9.059882509928D+02 EE= 2.250374257971D+02
 Leave Link  502 at Sun Mar  6 19:38:33 2022, MaxMem= 16106127360 cpu:              55.8 elap:               3.6
 (Enter /sw/contrib/gaussian/g16/B01/g16/l801.exe)
 ExpMin= 2.53D-02 ExpMax= 1.53D+04 ExpMxC= 5.22D+02 IAcc=3 IRadAn=         5 AccDes= 0.00D+00
 HarFok:  IExCor=  205 AccDes= 0.00D+00 IRadAn=         5 IDoV=-2 UseB2=F ITyADJ=14
 ICtDFT= 12500011 ScaDFX=  1.000000  1.000000  1.000000  1.000000
 Largest valence mixing into a core orbital is  2.07D-04
 Largest core mixing into a valence orbital is  3.09D-05
 Range of M.O.s used for correlation:     5   207
 NBasis=   207 NAE=    16 NBE=    16 NFC=     4 NFV=     0
 NROrb=    203 NOA=    12 NOB=    12 NVA=   191 NVB=   191

 **** Warning!!: The largest alpha MO coefficient is  0.16276552D+02

 Leave Link  801 at Sun Mar  6 19:38:33 2022, MaxMem= 16106127360 cpu:               2.4 elap:               0.1
 (Enter /sw/contrib/gaussian/g16/B01/g16/l906.exe)
 Frozen-core derivative calculation, NFC=   4 NFV=   0.
 FulOut=F Deriv=T AODrv=T NAtomX=     5
   MMem=           0  MDisk=          12 MDiskD=          12
  W3Min=      811440 MinDsk=     2425030 NBas6D=         245
 NBas2D=       30762    NTT=       30135    LW2=     7400000
    MDV= 16105571588 MDiskM=      328644 NBas2p=       30759
 Disk-based method using ON**2 memory for 12 occupieds at a time.
 Permanent disk used for amplitudes=    11516536 words.
 Estimated scratch disk usage=   321863743 words.
 IMap=   1   2   3   4   5   6   7   8   9  10  11  12  13  14  15  16
 Actual    scratch disk usage=   310892607 words.
 JobTyp=1 Pass  1:  I=   5 to  16 NPSUse= 28 ParTrn=T ParDer=T DoDerP=T.
 (rs|ai) integrals will be sorted in core.
 Spin components of T(2) and E(2):
     alpha-alpha T2 =       0.3480247963D-01 E2=     -0.1245250657D+00
     alpha-beta  T2 =       0.1845772486D+00 E2=     -0.6997320857D+00
     beta-beta   T2 =       0.3480247963D-01 E2=     -0.1245250657D+00
 The integrals were generated   1 times.
 ANorm=    0.1119902767D+01
 E2 =    -0.9487822170D+00 EUMP2 =    -0.28045517079342D+03
 Leave Link  906 at Sun Mar  6 19:40:10 2022, MaxMem= 16106127360 cpu:            2720.7 elap:              97.3
 (Enter /sw/contrib/gaussian/g16/B01/g16/l1101.exe)
 Using compressed Sx but separate Hx and Fx, NAtomX=     5.
 Will process      6 centers per pass.
 Leave Link 1101 at Sun Mar  6 19:40:11 2022, MaxMem= 16106127360 cpu:               5.2 elap:               0.2
 (Enter /sw/contrib/gaussian/g16/B01/g16/l1102.exe)
 Leave Link 1102 at Sun Mar  6 19:40:11 2022, MaxMem= 16106127360 cpu:               0.5 elap:               0.0
 (Enter /sw/contrib/gaussian/g16/B01/g16/l1110.exe)
 Forming Gx(P) for the SCF density, NAtomX=     5.
 Integral derivatives from FoFJK, PRISM(SPDF).
 Do as many integral derivatives as possible in FoFJK.
 G2DrvN: MDV=   16106126844.
 G2DrvN: will do     6 centers at a time, making    1 passes.
 Calling FoFCou, ICntrl=  3107 FMM=F I1Cent=   0 AccDes= 0.00D+00.
 FoFJK:  IHMeth= 1 ICntrl=    3107 DoSepK=F KAlg= 0 I1Cent=           0 FoldK=F
 IRaf=         0 NMat=       1 IRICut=       1 DoRegI=T DoRafI=F ISym2E= 1 IDoP0=0 IntGTp=1.
 FoFCou: FMM=F IPFlag=           0 FMFlag=      100000 FMFlg1=           0
         NFxFlg=           0 DoJE=F BraDBF=F KetDBF=F FulRan=T
         wScrn=  0.000000 ICntrl=      3107 IOpCl=  0 I1Cent=           0 NGrid=           0
         NMat0=    1 NMatS0=      1 NMatT0=    0 NMatD0=    1 NMtDS0=    0 NMtDT0=    0
 Petite list used in FoFCou.
 End of G2Drv F.D. properties file   721 does not exist.
 End of G2Drv F.D. properties file   722 does not exist.
 End of G2Drv F.D. properties file   788 does not exist.
 Leave Link 1110 at Sun Mar  6 19:40:14 2022, MaxMem= 16106127360 cpu:              87.8 elap:               3.2
 (Enter /sw/contrib/gaussian/g16/B01/g16/l1002.exe)
 Minotr:  Closed shell wavefunction.
          IDoAtm=11111
          Frozen-core window.
          Direct CPHF calculation.
          Differentiating once with respect to electric field.
                with respect to dipole field.
          Differentiating once with respect to nuclear coordinates.
          Requested convergence is 1.0D-08 RMS, and 1.0D-07 maximum.
          Secondary convergence is 1.0D-12 RMS, and 1.0D-12 maximum.
          NewPWx=T KeepS1=T KeepF1=T KeepIn=T MapXYZ=F SortEE=F KeepMc=T.
 Keep R1 ints in memory in symmetry-blocked form, NReq=348888983.
 FoFCou: FMM=F IPFlag=           0 FMFlag=           0 FMFlg1=           0
         NFxFlg=           0 DoJE=F BraDBF=F KetDBF=F FulRan=T
         wScrn=  0.000000 ICntrl=       600 IOpCl=  0 I1Cent=           0 NGrid=           0
         NMat0=    1 NMatS0=  21528 NMatT0=    0 NMatD0=    1 NMtDS0=    0 NMtDT0=    0
 Petite list used in FoFCou.
          MDV=   16106127360 using IRadAn=       1.
          Solving linear equations simultaneously, MaxMat=       0.
          There are    18 degrees of freedom in the 1st order CPHF.  IDoFFX=6 NUNeed=    18.
     15 vectors produced by pass  0 Test12= 1.70D-14 5.56D-09 XBig12= 7.95D+00 1.23D+00.
 AX will form    15 AO Fock derivatives at one time.
     15 vectors produced by pass  1 Test12= 1.70D-14 5.56D-09 XBig12= 1.36D+00 2.14D-01.
     15 vectors produced by pass  2 Test12= 1.70D-14 5.56D-09 XBig12= 6.73D-02 5.80D-02.
     15 vectors produced by pass  3 Test12= 1.70D-14 5.56D-09 XBig12= 1.94D-03 1.08D-02.
     15 vectors produced by pass  4 Test12= 1.70D-14 5.56D-09 XBig12= 4.31D-05 1.22D-03.
     15 vectors produced by pass  5 Test12= 1.70D-14 5.56D-09 XBig12= 5.96D-07 1.20D-04.
     15 vectors produced by pass  6 Test12= 1.70D-14 5.56D-09 XBig12= 4.53D-09 1.20D-05.
     14 vectors produced by pass  7 Test12= 1.70D-14 5.56D-09 XBig12= 3.36D-11 7.73D-07.
      3 vectors produced by pass  8 Test12= 1.70D-14 5.56D-09 XBig12= 2.31D-13 6.14D-08.
      1 vectors produced by pass  9 Test12= 1.70D-14 5.56D-09 XBig12= 1.57D-15 6.51D-09.
 InvSVY:  IOpt=1 It=  1 EMax= 8.88D-16
 Solved reduced A of dimension   123 with    15 vectors.
 FullF1:  Do perturbations      1 to      18.
 Saving first derivative matrices.
 End of Minotr F.D. properties file   721 does not exist.
 End of Minotr F.D. properties file   722 does not exist.
 End of Minotr F.D. properties file   788 does not exist.
 Leave Link 1002 at Sun Mar  6 19:40:17 2022, MaxMem= 16106127360 cpu:              77.2 elap:               2.9
 (Enter /sw/contrib/gaussian/g16/B01/g16/l811.exe)
 MDV= 16106127360.
 Form MO integral derivatives with frozen-active canonical formalism.
 MOERI=1 MOERIx=1 NAtoms=     5 NAtomX=     5.
 Discarding MO integrals.
 MO basis two electron integral derivatives will not be stored on disk.
 IAlg= 3 DoFC=T DoPWx=T Debug=F.
 Frozen-core window:  NFC=   4 NFV=   0.
 Reordered first order wavefunction length =     18678272
 In DefCFB: NBatch=  1 ICI= 16 ICA=191 LFMax= 96
            Large arrays: LIAPS=   619940160 LIARS=   288257200 words.
 In StABat: MaxSiz= 55 MinSiz= 25 NAtomB=  5
 DoIAMN: NPSUse= 28.
 Leave Link  811 at Sun Mar  6 19:41:37 2022, MaxMem= 16106127360 cpu:            2258.9 elap:              80.8
 (Enter /sw/contrib/gaussian/g16/B01/g16/l804.exe)
 Frozen-core window:  NFC=   4 NFV=   0.
 Closed-shell transformation, MDV= 16106127360 ITran=4 ISComp=1.
 Semi-Direct transformation.
 ModeAB=           2 MOrb=            16 LenV=   16104919953
 LASXX=     67341636 LTotXX=    67341636 LenRXX=    67341636
 LTotAB=    68301760 MaxLAS=    99807120 LenRXY=    99807120
 NonZer=   134683272 LenScr=   202817536 LnRSAI=           0
 LnScr1=           0 LExtra=           0 Total=    369966292
 MaxDsk=          -1 SrtSym=           F ITran=            4
 DoSDTr:  NPSUse= 28
 JobTyp=0 Pass  1:  I=   1 to  16.
 (rs|ai) integrals will be sorted in core.
 Complete sort for first half transformation.
 First half transformation complete.
 Begin second half transformation for I=  10.
 Begin second half transformation for I=  10.
 Complete sort for second half transformation.
 Second half transformation complete.
 Spin components of T(2) and E(2):
     alpha-alpha T2 =       0.3480247963D-01 E2=     -0.1245250657D+00
     alpha-beta  T2 =       0.1845772486D+00 E2=     -0.6997320857D+00
     beta-beta   T2 =       0.3480247963D-01 E2=     -0.1245250657D+00
 ANorm=    0.1583781682D+01
 E2 =    -0.9487822170D+00 EUMP2 =    -0.28045517079342D+03
 Leave Link  804 at Sun Mar  6 19:41:54 2022, MaxMem= 16106127360 cpu:             445.0 elap:              16.0
 (Enter /sw/contrib/gaussian/g16/B01/g16/l1002.exe)
 Minotr:  Closed shell wavefunction.
          Computing MP2/KS-MP2 derivatives.
          Using Z-Vector for PSCF gradient.
          Skipping F1 and S1 gradient terms here.
          IDoAtm=11111
          Frozen-core window.
          Using MO integrals in the linear equations.
          Forming densities via direct SCF.
          Differentiating once with respect to electric field.
                with respect to dipole field.
          Differentiating once with respect to nuclear coordinates.
          Using symmetry in CPHF.
          Requested convergence is 1.0D-10 RMS, and 1.0D-09 maximum.
          NewPWx=F KeepS1=T KeepF1=T KeepIn=T MapXYZ=F SortEE=F KeepMc=T.
          MDV=   16106127360 using IRadAn=       5.
          Solving linear equations separately, MaxMat=       0.
          There are     1 degrees of freedom in the 1st order CPHF.  IDoFFX=0 NUNeed=     1.
 FoFJK:  IHMeth= 1 ICntrl=       0 DoSepK=F KAlg= 0 I1Cent=           0 FoldK=F
 IRaf=         0 NMat=       1 IRICut=       1 DoRegI=T DoRafI=F ISym2E= 0 IDoP0=0 IntGTp=1.
 FoFCou: FMM=F IPFlag=           0 FMFlag=      100000 FMFlg1=           0
         NFxFlg=           0 DoJE=F BraDBF=F KetDBF=F FulRan=T
         wScrn=  0.000000 ICntrl=         0 IOpCl=  0 I1Cent=           0 NGrid=           0
         NMat0=    1 NMatS0=      1 NMatT0=    0 NMatD0=    1 NMtDS0=    0 NMtDT0=    0
 Symmetry not used in FoFCou.
 LinEq1:  Iter=  0 NonCon=     1 RMS=6.60D-03 Max=1.69D-01 NDo=     1
 LinEq1:  Iter=  1 NonCon=     1 RMS=2.00D-03 Max=3.09D-02 NDo=     1
 LinEq1:  Iter=  2 NonCon=     1 RMS=8.88D-04 Max=1.43D-02 NDo=     1
 LinEq1:  Iter=  3 NonCon=     1 RMS=3.81D-04 Max=8.17D-03 NDo=     1
 LinEq1:  Iter=  4 NonCon=     1 RMS=1.38D-04 Max=1.67D-03 NDo=     1
 LinEq1:  Iter=  5 NonCon=     1 RMS=7.67D-05 Max=1.38D-03 NDo=     1
 LinEq1:  Iter=  6 NonCon=     1 RMS=2.44D-05 Max=2.86D-04 NDo=     1
 LinEq1:  Iter=  7 NonCon=     1 RMS=8.15D-06 Max=1.09D-04 NDo=     1
 LinEq1:  Iter=  8 NonCon=     1 RMS=3.97D-06 Max=6.15D-05 NDo=     1
 LinEq1:  Iter=  9 NonCon=     1 RMS=1.04D-06 Max=1.20D-05 NDo=     1
 LinEq1:  Iter= 10 NonCon=     1 RMS=2.31D-07 Max=2.84D-06 NDo=     1
 LinEq1:  Iter= 11 NonCon=     1 RMS=4.92D-08 Max=7.89D-07 NDo=     1
 LinEq1:  Iter= 12 NonCon=     1 RMS=1.15D-08 Max=1.68D-07 NDo=     1
 LinEq1:  Iter= 13 NonCon=     1 RMS=2.04D-09 Max=2.49D-08 NDo=     1
 LinEq1:  Iter= 14 NonCon=     1 RMS=4.26D-10 Max=5.76D-09 NDo=     1
 LinEq1:  Iter= 15 NonCon=     0 RMS=8.74D-11 Max=8.83D-10 NDo=     1
 Linear equations converged to 1.000D-10 1.000D-09 after    15 iterations.
 End of Minotr F.D. properties file   721 does not exist.
 End of Minotr F.D. properties file   722 does not exist.
 End of Minotr F.D. properties file   788 does not exist.
 Leave Link 1002 at Sun Mar  6 19:41:56 2022, MaxMem= 16106127360 cpu:              65.1 elap:               2.4
 (Enter /sw/contrib/gaussian/g16/B01/g16/l1102.exe)
 Use density number 2.
 Symmetrizing basis deriv contribution to polar:
 IMax=3 JMax=2 DiffMx= 0.00D+00
 Leave Link 1102 at Sun Mar  6 19:41:56 2022, MaxMem= 16106127360 cpu:               0.6 elap:               0.0
 (Enter /sw/contrib/gaussian/g16/B01/g16/l1110.exe)
 Forming Gx(P) for generalized density number  2 NAtomX=     5.
 Integral derivatives from FoFJK, PRISM(SPDF).
 Do as many integral derivatives as possible in FoFJK.
 G2DrvN: MDV=   16106126844.
 G2DrvN: will do     6 centers at a time, making    1 passes.
 Calling FoFCou, ICntrl=  3107 FMM=F I1Cent=   0 AccDes= 0.00D+00.
 FoFJK:  IHMeth= 1 ICntrl=    3107 DoSepK=F KAlg= 0 I1Cent=           0 FoldK=F
 IRaf=         0 NMat=       1 IRICut=       1 DoRegI=T DoRafI=F ISym2E= 1 IDoP0=0 IntGTp=1.
 FoFCou: FMM=F IPFlag=           0 FMFlag=      100000 FMFlg1=           0
         NFxFlg=           0 DoJE=F BraDBF=F KetDBF=F FulRan=T
         wScrn=  0.000000 ICntrl=      3107 IOpCl=  0 I1Cent=           0 NGrid=           0
         NMat0=    1 NMatS0=      1 NMatT0=    0 NMatD0=    1 NMtDS0=    0 NMtDT0=    0
 Petite list used in FoFCou.
 End of G2Drv F.D. properties file   721 does not exist.
 End of G2Drv F.D. properties file   722 does not exist.
 End of G2Drv F.D. properties file   788 does not exist.
 Leave Link 1110 at Sun Mar  6 19:41:59 2022, MaxMem= 16106127360 cpu:              86.7 elap:               3.1
 (Enter /sw/contrib/gaussian/g16/B01/g16/l1112.exe)
 MP22nd: MDV=   16106127360
 This link is doing NAtomX=     5 total of    18 degrees of freedom.
 Using ON3 I/O method in MakUI.
 Frozen-core window:  NFC=   4 NFV=   0.
 Using Ix for Sx.
 Use MO integrals over full window.
 Using OV2 memory method for fx*t*t/D, MaxI=    16 DoOO2=F NP=  28.
 R2 and R3 integrals will be kept in memory, NReq=   915591705.
 FoFCou: FMM=F IPFlag=           0 FMFlag=           0 FMFlg1=           0
         NFxFlg=           0 DoJE=F BraDBF=F KetDBF=F FulRan=T
         wScrn=  0.000000 ICntrl=       600 IOpCl=  0 I1Cent=           0 NGrid=           0
         NMat0=    1 NMatS0=      1 NMatT0=    0 NMatD0=    1 NMtDS0=    0 NMtDT0=    0
 Symmetry not used in FoFCou.
 DD1Dir will call FoFMem   1 times, MxPair=       272
 NAB=   136 NAA=     0 NBB=     0.
 Symmetry is being used.
 FoFJK:  IHMeth= 1 ICntrl=       0 DoSepK=F KAlg= 0 I1Cent=           0 FoldK=F
 IRaf=         0 NMat=      18 IRICut=      45 DoRegI=T DoRafI=T ISym2E= 2 IDoP0=3 IntGTp=3.
 Discarding MO integrals.
 Leave Link 1112 at Sun Mar  6 19:42:34 2022, MaxMem= 16106127360 cpu:             971.4 elap:              35.0
 (Enter /sw/contrib/gaussian/g16/B01/g16/l601.exe)
 Copying SCF densities to generalized density rwf, IOpCl= 0 IROHF=0.

 **********************************************************************

            Population analysis using the MP2 Density.

 **********************************************************************

 Orbital symmetries:
       Occupied  (A') (A') (A') (A') (A') (A') (A') (A') (A') (A')
                 (A") (A') (A') (A") (A') (A")
       Virtual   (A') (A") (A') (A') (A") (A') (A') (A') (A") (A')
                 (A") (A') (A') (A') (A") (A') (A') (A") (A') (A')
                 (A') (A') (A') (A') (A") (A') (A') (A") (A') (A')
                 (A') (A") (A") (A') (A') (A') (A") (A') (A") (A')
                 (A") (A") (A') (A') (A") (A') (A') (A") (A') (A')
                 (A') (A") (A') (A') (A") (A') (A") (A') (A") (A')
                 (A') (A') (A") (A') (A') (A') (A") (A") (A') (A')
                 (A") (A') (A") (A") (A') (A') (A") (A') (A') (A')
                 (A") (A') (A') (A") (A') (A") (A") (A') (A') (A')
                 (A') (A') (A") (A") (A') (A') (A") (A") (A') (A')
                 (A") (A') (A") (A') (A") (A') (A') (A') (A") (A')
                 (A") (A') (A') (A') (A") (A') (A') (A') (A") (A')
                 (A") (A') (A") (A') (A") (A") (A') (A") (A') (A')
                 (A') (A') (A") (A') (A') (A") (A") (A') (A') (A')
                 (A") (A") (A') (A') (A') (A") (A') (A') (A') (A")
                 (A') (A') (A') (A") (A") (A') (A") (A') (A') (A")
                 (A') (A") (A') (A") (A") (A') (A') (A") (A") (A")
                 (A') (A") (A") (A') (A') (A") (A') (A') (A') (A")
                 (A') (A') (A') (A') (A') (A') (A') (A') (A') (A')
                 (A')
 The electronic state is 1-A'.
 Alpha  occ. eigenvalues --  -20.72064 -20.68766 -20.66881 -15.82549  -1.64327
 Alpha  occ. eigenvalues --   -1.50629  -1.29413  -0.96061  -0.83365  -0.75876
 Alpha  occ. eigenvalues --   -0.73984  -0.63852  -0.61950  -0.61892  -0.50325
 Alpha  occ. eigenvalues --   -0.49797
 Alpha virt. eigenvalues --    0.03499   0.06072   0.09511   0.10051   0.11974
 Alpha virt. eigenvalues --    0.12266   0.14905   0.15191   0.17765   0.18036
 Alpha virt. eigenvalues --    0.18962   0.21108   0.21673   0.24259   0.24635
 Alpha virt. eigenvalues --    0.26848   0.31171   0.31586   0.33811   0.34315
 Alpha virt. eigenvalues --    0.34632   0.39264   0.44754   0.48861   0.50467
 Alpha virt. eigenvalues --    0.51885   0.54432   0.56193   0.59921   0.62068
 Alpha virt. eigenvalues --    0.63935   0.68933   0.71729   0.72393   0.74039
 Alpha virt. eigenvalues --    0.76464   0.76749   0.79567   0.80521   0.84009
 Alpha virt. eigenvalues --    0.84315   0.85111   0.88491   0.90703   0.92830
 Alpha virt. eigenvalues --    0.94861   0.95449   1.01803   1.03182   1.05746
 Alpha virt. eigenvalues --    1.06536   1.09367   1.14291   1.15584   1.17126
 Alpha virt. eigenvalues --    1.22113   1.22684   1.24610   1.35152   1.36340
 Alpha virt. eigenvalues --    1.37066   1.46904   1.48413   1.50635   1.54141
 Alpha virt. eigenvalues --    1.59238   1.59672   1.60526   1.62849   1.69572
 Alpha virt. eigenvalues --    1.74033   1.80138   1.82872   1.88758   1.89652
 Alpha virt. eigenvalues --    1.92770   1.97996   1.99057   2.04999   2.12182
 Alpha virt. eigenvalues --    2.13019   2.16458   2.18650   2.24239   2.25963
 Alpha virt. eigenvalues --    2.29456   2.35199   2.36309   2.38649   2.40198
 Alpha virt. eigenvalues --    2.43370   2.47001   2.47889   2.52731   2.53774
 Alpha virt. eigenvalues --    2.54672   2.55724   2.61314   2.62825   2.67106
 Alpha virt. eigenvalues --    2.67126   2.75579   2.80891   2.81261   2.84194
 Alpha virt. eigenvalues --    2.91756   2.97887   3.04840   3.05336   3.11621
 Alpha virt. eigenvalues --    3.11727   3.17239   3.21295   3.30664   3.33396
 Alpha virt. eigenvalues --    3.36037   3.48069   3.67753   3.86899   3.92631
 Alpha virt. eigenvalues --    4.18155   4.21888   4.21979   4.26639   4.36650
 Alpha virt. eigenvalues --    4.50098   4.51570   4.55841   4.59984   4.69237
 Alpha virt. eigenvalues --    4.80883   4.90252   4.91290   4.94304   4.99646
 Alpha virt. eigenvalues --    5.00493   5.10800   5.13424   5.17738   5.24863
 Alpha virt. eigenvalues --    5.25607   5.31655   5.34110   5.35349   5.54380
 Alpha virt. eigenvalues --    5.64341   5.70261   5.88558   6.00087   6.26426
 Alpha virt. eigenvalues --    6.29606   6.35975   6.37642   6.59858   6.65174
 Alpha virt. eigenvalues --    6.65840   6.68574   6.72419   6.80438   6.80623
 Alpha virt. eigenvalues --    6.84168   6.96931   7.01944   7.06620   7.08030
 Alpha virt. eigenvalues --    7.14063   7.16664   7.17532   7.20288   7.24487
 Alpha virt. eigenvalues --    7.24528   7.27004   7.34839   7.39552   7.42437
 Alpha virt. eigenvalues --    7.44248   7.46214   7.55958   7.65698   7.66361
 Alpha virt. eigenvalues --    7.79439   7.88267   7.95275   8.05773   8.30498
 Alpha virt. eigenvalues --    8.50212   8.65240  13.61351  14.76195  15.10138
 Alpha virt. eigenvalues --   15.74177
          Condensed to atoms (all electrons):
               1          2          3          4          5
     1  H    0.577858   0.125226   0.023808  -0.000322  -0.004863
     2  O    0.125226   8.389271  -0.231657  -0.000581  -0.008095
     3  O    0.023808  -0.231657   8.371114  -0.169565  -0.031456
     4  N   -0.000322  -0.000581  -0.169565   7.136337  -0.120212
     5  O   -0.004863  -0.008095  -0.031456  -0.120212   8.360853
 Mulliken charges:
               1
     1  H    0.278293
     2  O   -0.274163
     3  O    0.037756
     4  N    0.154343
     5  O   -0.196228
 Sum of Mulliken charges =  -0.00000
 Mulliken charges with hydrogens summed into heavy atoms:
               1
     2  O    0.004130
     3  O    0.037756
     4  N    0.154343
     5  O   -0.196228
 APT charges:
               1
     1  H    0.270020
     2  O   -0.302842
     3  O   -0.309253
     4  N    0.645870
     5  O   -0.303794
 Sum of APT charges =  -0.00000
 APT charges with hydrogens summed into heavy atoms:
               1
     2  O   -0.032822
     3  O   -0.309253
     4  N    0.645870
     5  O   -0.303794
 Electronic spatial extent (au):  <R**2>=            208.1548
 Charge=             -0.0000 electrons
 Dipole moment (field-independent basis, Debye):
    X=              0.0714    Y=             -1.0952    Z=              0.0000  Tot=              1.0975
 Quadrupole moment (field-independent basis, Debye-Ang):
   XX=            -23.3962   YY=            -22.9484   ZZ=            -21.9365
   XY=             -1.9670   XZ=              0.0000   YZ=              0.0000
 Traceless Quadrupole moment (field-independent basis, Debye-Ang):
   XX=             -0.6358   YY=             -0.1880   ZZ=              0.8238
   XY=             -1.9670   XZ=              0.0000   YZ=              0.0000
 Octapole moment (field-independent basis, Debye-Ang**2):
  XXX=              2.6048  YYY=              0.3115  ZZZ=              0.0000  XYY=              2.3307
  XXY=             -2.8408  XXZ=              0.0000  XZZ=             -0.5889  YZZ=             -0.7100
  YYZ=              0.0000  XYZ=              0.0000
 Hexadecapole moment (field-independent basis, Debye-Ang**3):
 XXXX=           -127.3461 YYYY=            -95.4566 ZZZZ=            -18.0494 XXXY=            -22.0413
 XXXZ=              0.0000 YYYX=            -20.1469 YYYZ=              0.0000 ZZZX=              0.0000
 ZZZY=              0.0000 XXYY=            -35.8366 XXZZ=            -24.4017 YYZZ=            -18.6975
 XXYZ=              0.0000 YYXZ=              0.0000 ZZXY=             -6.0529
 N-N= 1.225656707391D+02 E-N=-9.066804470757D+02  KE= 2.801971056793D+02
 Symmetry A'   KE= 2.663443047446D+02
 Symmetry A"   KE= 1.385280093470D+01
  Exact polarizability:  30.949   4.207  29.962   0.000   0.000  17.636
 Approx polarizability:  24.522   0.606  27.766  -0.000  -0.000  15.523
 No NMR shielding tensors so no spin-rotation constants.
 Leave Link  601 at Sun Mar  6 19:42:34 2022, MaxMem= 16106127360 cpu:               4.3 elap:               0.2
 (Enter /sw/contrib/gaussian/g16/B01/g16/l701.exe)
 ... and contract with generalized density number  2.
 Compute integral second derivatives.
 Leave Link  701 at Sun Mar  6 19:42:35 2022, MaxMem= 16106127360 cpu:               6.3 elap:               0.2
 (Enter /sw/contrib/gaussian/g16/B01/g16/l702.exe)
 L702 exits ... SP integral derivatives will be done elsewhere.
 Leave Link  702 at Sun Mar  6 19:42:35 2022, MaxMem= 16106127360 cpu:               1.3 elap:               0.1
 (Enter /sw/contrib/gaussian/g16/B01/g16/l703.exe)
 Integral derivatives from FoFJK, PRISM(SPDF).
 Compute integral second derivatives, UseDBF=F ICtDFT=           0.
 Calling FoFJK, ICntrl=  10100127 FMM=F ISym2X=1 I1Cent= 0 IOpClX= 0 NMat=1 NMatS=1 NMatT=0.
 FoFJK:  IHMeth= 1 ICntrl=10100127 DoSepK=F KAlg= 0 I1Cent=           0 FoldK=F
 IRaf=         0 NMat=       1 IRICut=       1 DoRegI=T DoRafI=F ISym2E= 1 IDoP0=0 IntGTp=1.
 FoFCou: FMM=F IPFlag=           0 FMFlag=      100000 FMFlg1=         800
         NFxFlg=           0 DoJE=F BraDBF=F KetDBF=F FulRan=T
         wScrn=  0.000000 ICntrl=  10100127 IOpCl=  0 I1Cent=           0 NGrid=           0
         NMat0=    1 NMatS0=      1 NMatT0=    0 NMatD0=    1 NMtDS0=    0 NMtDT0=    0
 Petite list used in FoFCou.
 Leave Link  703 at Sun Mar  6 19:42:51 2022, MaxMem= 16106127360 cpu:             445.0 elap:              16.0
 (Enter /sw/contrib/gaussian/g16/B01/g16/l716.exe)
 Dipole        = 2.80833033D-02-4.30882539D-01 0.00000000D+00
 Polarizability= 3.09494727D+01 4.20720348D+00 2.99617453D+01
                 0.00000000D+00 0.00000000D+00 1.76363823D+01
 Full mass-weighted force constant matrix:
 Low frequencies ---  -46.0646    0.0008    0.0010    0.0012   20.3918   48.1835
 Low frequencies ---  352.0411  385.5284  518.4806
 Diagonal vibrational polarizability:
        7.3242854      10.1915355      16.2021445
 Harmonic frequencies (cm**-1), IR intensities (KM/Mole), Raman scattering
 activities (A**4/AMU), depolarization ratios for plane and unpolarized
 incident light, reduced masses (AMU), force constants (mDyne/A),
 and normal coordinates:
                      1                      2                      3
                     A"                     A'                     A"
 Frequencies --    352.0161               385.5210               518.4584
 Red. masses --      1.5644                 7.1098                 2.8873
 Frc consts  --      0.1142                 0.6226                 0.4573
 IR Inten    --     62.7615                 7.6581                25.6897
  Atom  AN      X      Y      Z        X      Y      Z        X      Y      Z
     1   1    -0.00  -0.00   0.98    -0.72  -0.26  -0.00    -0.00  -0.00   0.93
     2   8    -0.00  -0.00  -0.11    -0.32  -0.32   0.00    -0.00  -0.00   0.05
     3   8    -0.00   0.00   0.12    -0.07   0.08  -0.00    -0.00   0.00  -0.18
     4   7     0.00   0.00  -0.11     0.05   0.09   0.00    -0.00  -0.00   0.27
     5   8     0.00   0.00   0.03     0.39   0.17  -0.00     0.00   0.00  -0.16
                      4                      5                      6
                     A'                     A'                     A'
 Frequencies --    705.4010               838.5665               968.7157
 Red. masses --     13.2194                12.3931                 9.9131
 Frc consts  --      3.8756                 5.1346                 5.4809
 IR Inten    --    215.9949                33.4933                13.3690
  Atom  AN      X      Y      Z        X      Y      Z        X      Y      Z
     1   1    -0.37   0.01  -0.00     0.44  -0.15   0.00    -0.62  -0.01   0.00
     2   8    -0.01  -0.08  -0.00     0.53  -0.20  -0.00     0.20  -0.17  -0.00
     3   8     0.37   0.59   0.00    -0.37  -0.02   0.00    -0.37   0.40   0.00
     4   7    -0.40  -0.45  -0.00    -0.45  -0.06  -0.00     0.38   0.05  -0.00
     5   8     0.01  -0.11   0.00     0.21   0.28   0.00    -0.13  -0.28   0.00
                      7                      8                      9
                     A'                     A'                     A'
 Frequencies --   1438.2314              1569.3877              3489.2858
 Red. masses --      1.3037                 6.3616                 1.0640
 Frc consts  --      1.5889                 9.2316                 7.6323
 IR Inten    --     79.1932               151.9831                41.3737
  Atom  AN      X      Y      Z        X      Y      Z        X      Y      Z
     1   1     0.97  -0.20   0.00     0.77  -0.17   0.00     0.15   0.99  -0.00
     2   8    -0.07  -0.05   0.00    -0.02  -0.02   0.00    -0.01  -0.06   0.00
     3   8    -0.03   0.06  -0.00     0.04   0.06  -0.00     0.00  -0.00  -0.00
     4   7     0.06  -0.05   0.00    -0.24   0.40   0.00    -0.00   0.00  -0.00
     5   8    -0.02   0.05  -0.00     0.15  -0.37  -0.00     0.00  -0.00   0.00

 -------------------
 - Thermochemistry -
 -------------------
 Temperature   298.150 Kelvin.  Pressure   1.00000 Atm.
 Atom     1 has atomic number  1 and mass   1.00783
 Atom     2 has atomic number  8 and mass  15.99491
 Atom     3 has atomic number  8 and mass  15.99491
 Atom     4 has atomic number  7 and mass  14.00307
 Atom     5 has atomic number  8 and mass  15.99491
 Molecular mass:    62.99564 amu.
 Principal axes and moments of inertia in atomic units:
                           1         2         3
     Eigenvalues --    84.17236 224.79473 308.96709
           X            0.79278  -0.60951   0.00000
           Y            0.60951   0.79278   0.00000
           Z            0.00000   0.00000   1.00000
 This molecule is an asymmetric top.
 Rotational symmetry number  1.
 Rotational temperatures (Kelvin)      1.02901     0.38530     0.28033
 Rotational constants (GHZ):          21.44102     8.02840     5.84121
 Zero-point vibrational energy      61401.8 (Joules/Mol)
                                   14.67539 (Kcal/Mol)
 Warning -- explicit consideration of   3 degrees of freedom as
           vibrations may cause significant error
 Vibrational temperatures:    506.47   554.68   745.95  1014.91  1206.51
          (Kelvin)           1393.77  2069.29  2258.00  5020.30
 
 Zero-point correction=                           0.023387 (Hartree/Particle)
 Thermal correction to Energy=                    0.027343
 Thermal correction to Enthalpy=                  0.028287
 Thermal correction to Gibbs Free Energy=        -0.002607
 Sum of electronic and zero-point Energies=           -280.431784
 Sum of electronic and thermal Energies=              -280.427828
 Sum of electronic and thermal Enthalpies=            -280.426884
 Sum of electronic and thermal Free Energies=         -280.457777
 
                     E (Thermal)             CV                S
                      KCal/Mol        Cal/Mol-Kelvin    Cal/Mol-Kelvin
 Total                   17.158             12.215             65.021
 Electronic               0.000              0.000              0.000
 Translational            0.889              2.981             38.341
 Rotational               0.889              2.981             23.284
 Vibrational             15.380              6.254              3.396
 Vibration     1          0.729              1.571              1.157
 Vibration     2          0.754              1.501              1.017
 Vibration     3          0.873              1.209              0.614
                       Q            Log10(Q)             Ln(Q)
 Total Bot       0.158100D+02          1.198933          2.760644
 Total V=0       0.903790D+12         11.956067         27.529863
 Vib (Bot)       0.293923D-10        -10.531767        -24.250289
 Vib (Bot)    1  0.523435D+00         -0.281137         -0.647343
 Vib (Bot)    2  0.467171D+00         -0.330524         -0.761060
 Vib (Bot)    3  0.311774D+00         -0.506161         -1.165478
 Vib (V=0)       0.168023D+01          0.225368          0.518930
 Vib (V=0)    1  0.122387D+01          0.087734          0.202016
 Vib (V=0)    2  0.118429D+01          0.073457          0.169141
 Vib (V=0)    3  0.108924D+01          0.037123          0.085479
 Electronic      0.100000D+01          0.000000          0.000000
 Translational   0.196526D+08          7.293420         16.793719
 Rotational      0.273703D+05          4.437280         10.217214
 
                                                                title
                                                             IR Spectrum
 
     3                                                                     1    1                                                    
     4                                                                     5    4                9    8    7      5   3 3            
     8                                                                     6    3                6    3    0      1   8 5            
     9                                                                     9    8                9    9    5      8   6 2            
 
     X                                                                     X    X                X    X    X      X   X X            
     X                                                                     X    X                     X    X      X     X            
     X                                                                     X    X                     X    X            X            
     X                                                                     X    X                          X            X            
                                                                           X    X                          X            X            
                                                                           X    X                          X            X            
                                                                           X    X                          X                         
                                                                           X                               X                         
                                                                           X                               X                         
                                                                           X                               X                         
                                                                           X                               X                         
                                                                           X                               X                         
                                                                           X                               X                         
                                                                           X                               X                         
                                                                                                           X                         
                                                                                                           X                         
                                                                                                           X                         
                                                                                                           X                         
                                                                                                           X                         
                                                                                                           X                         
 
 ***** Axes restored to original set *****
 -------------------------------------------------------------------
 Center     Atomic                   Forces (Hartrees/Bohr)
 Number     Number              X              Y              Z
 -------------------------------------------------------------------
      1        1          -0.000152497   -0.000000000    0.000117582
      2        8          -0.000966691   -0.000000000   -0.000631075
      3        8          -0.000672998   -0.000000000   -0.002973042
      4        7           0.004687753   -0.000000000    0.000168038
      5        8          -0.002895566   -0.000000000    0.003318497
 -------------------------------------------------------------------
 Cartesian Forces:  Max     0.004687753 RMS     0.001863004
 -----------------------------------------------------------------------------------------------
                       Internal Coordinate Forces (Hartree/Bohr or radian)
  Cent   Atom   N1       Length/X         N2         Alpha/Y        N3         Beta/Z          J
 -----------------------------------------------------------------------------------------------
      1  H 
      2  O        1  -0.000118(     1)
      3  O        2   0.001195(     2)      1   0.000284(     5)
      4  N        3  -0.001902(     3)      2  -0.000520(     6)      1   0.000000(     8)     0
      5  O        4  -0.001348(     4)      3  -0.009467(     7)      2   0.000000(     9)     0
 -----------------------------------------------------------------------------------------------
 Internal  Forces:  Max     0.009466592 RMS     0.003280291
 Force constants in Cartesian coordinates: 
                1             2             3             4             5 
      1  0.725114D-01
      2  0.000000D+00  0.602198D-02
      3  0.234757D-01  0.000000D+00  0.437087D+00
      4 -0.518104D-01  0.000000D+00 -0.456791D-02  0.281574D+00
      5  0.000000D+00 -0.250366D-02  0.000000D+00  0.000000D+00  0.120406D-01
      6  0.331979D-01  0.000000D+00 -0.421764D+00 -0.115692D-01  0.000000D+00
      7 -0.254098D-01  0.000000D+00 -0.153376D-01 -0.171460D+00  0.000000D+00
      8  0.000000D+00 -0.414739D-02  0.000000D+00  0.000000D+00 -0.188941D-01
      9 -0.443878D-01  0.000000D+00 -0.194489D-01  0.100774D-01  0.000000D+00
     10 -0.572083D-02  0.000000D+00  0.648747D-02 -0.850105D-01  0.000000D+00
     11  0.000000D+00  0.797764D-02  0.000000D+00  0.000000D+00  0.202237D-01
     12 -0.188008D-01  0.000000D+00  0.117160D-01  0.101827D-01  0.000000D+00
     13  0.104297D-01  0.000000D+00 -0.100576D-01  0.267061D-01  0.000000D+00
     14  0.000000D+00 -0.734857D-02  0.000000D+00  0.000000D+00 -0.108665D-01
     15  0.651493D-02  0.000000D+00 -0.759048D-02 -0.412300D-02  0.000000D+00
                6             7             8             9            10 
      6  0.522115D+00
      7 -0.909511D-01  0.304299D+00
      8  0.000000D+00  0.000000D+00  0.413925D-01
      9 -0.963570D-01  0.812300D-01  0.000000D+00  0.311162D+00
     10  0.403998D-01 -0.143754D+00  0.000000D+00 -0.364199D-01  0.549603D+00
     11  0.000000D+00  0.000000D+00 -0.473223D-01  0.000000D+00  0.000000D+00
     12 -0.934182D-02  0.140033D-01  0.000000D+00 -0.245180D-01  0.243640D+00
     13  0.289226D-01  0.363248D-01  0.000000D+00 -0.104997D-01 -0.315118D+00
     14  0.000000D+00  0.000000D+00  0.289713D-01  0.000000D+00  0.000000D+00
     15  0.534750D-02  0.110554D-01  0.000000D+00 -0.170838D+00 -0.254108D+00
               11            12            13            14            15 
     11  0.554222D-01
     12  0.000000D+00  0.452996D+00
     13  0.000000D+00 -0.249026D+00  0.241658D+00
     14 -0.363012D-01  0.000000D+00  0.000000D+00  0.255450D-01
     15  0.000000D+00 -0.430852D+00  0.240660D+00  0.000000D+00  0.603933D+00
 Force constants in internal coordinates: 
                1             2             3             4             5 
      1  0.437087D+00
      2  0.214111D-01  0.260580D+00
      3  0.541395D-02  0.174699D-01  0.202061D+00
      4 -0.116921D-01  0.222920D-01  0.147122D+00  0.720208D+00
      5  0.435613D-01  0.573620D-01 -0.238908D-01  0.204138D-01  0.251205D+00
      6  0.123654D-01  0.217331D-01  0.849275D-01  0.102620D-01 -0.925330D-02
      7  0.106057D-01 -0.750595D-01  0.110829D+00  0.111852D+00 -0.234230D-01
      8  0.000000D+00  0.000000D+00  0.000000D+00  0.000000D+00  0.000000D+00
      9  0.000000D+00  0.000000D+00  0.000000D+00  0.000000D+00  0.000000D+00
                6             7             8             9 
      6  0.500846D+00
      7  0.458270D-01  0.636125D+00
      8  0.000000D+00  0.000000D+00  0.199062D-01
      9  0.000000D+00  0.000000D+00  0.274848D-01  0.107840D+00
 Leave Link  716 at Sun Mar  6 19:42:51 2022, MaxMem= 16106127360 cpu:               0.8 elap:               0.1
 (Enter /sw/contrib/gaussian/g16/B01/g16/l103.exe)

 GradGradGradGradGradGradGradGradGradGradGradGradGradGradGradGradGradGrad
 Berny optimization.
 Search for a local minimum.
 Step number   1 out of a maximum of    2
 All quantities printed in internal units (Hartrees-Bohrs-Radians)
 Second derivative matrix not updated -- analytic derivatives used.
 The second derivative matrix:
                          r1        r2        r3        r4        a1
           r1           0.43709
           r2           0.02141   0.26058
           r3           0.00541   0.01747   0.20206
           r4          -0.01169   0.02229   0.14712   0.72021
           a1           0.04356   0.05736  -0.02389   0.02041   0.25121
           a2           0.01237   0.02173   0.08493   0.01026  -0.00925
           a3           0.01061  -0.07506   0.11083   0.11185  -0.02342
           d1           0.00000   0.00000   0.00000   0.00000   0.00000
           d2           0.00000   0.00000   0.00000   0.00000   0.00000
                          a2        a3        d1        d2
           a2           0.50085
           a3           0.04583   0.63612
           d1           0.00000   0.00000   0.01991
           d2           0.00000   0.00000   0.02748   0.10784
 ITU=  0
     Eigenvalues ---    0.01202   0.11572   0.12343   0.20335   0.27672
     Eigenvalues ---    0.44839   0.50640   0.59008   0.85975
 Angle between quadratic step and forces=  14.38 degrees.
 Linear search not attempted -- first point.
 Variable       Old X    -DE/DX   Delta X   Delta X   Delta X     New X
                                 (Linear)    (Quad)   (Total)
    r1        1.86209  -0.00012   0.00000   0.00016   0.00016   1.86225
    r2        2.69614   0.00119   0.00000   0.00054   0.00054   2.69668
    r3        2.60992  -0.00190   0.00000  -0.00245  -0.00245   2.60747
    r4        2.25782  -0.00135   0.00000   0.00090   0.00090   2.25872
    a1        1.75642   0.00028   0.00000  -0.00067  -0.00067   1.75575
    a2        1.97463  -0.00052   0.00000   0.00066   0.00066   1.97528
    a3        2.00986  -0.00947   0.00000  -0.01462  -0.01462   1.99523
    d1        0.00000   0.00000   0.00000   0.00000   0.00000   0.00000
    d2        0.00000   0.00000   0.00000   0.00000   0.00000   0.00000
         Item               Value     Threshold  Converged?
 Maximum Force            0.009467     0.000450     NO 
 RMS     Force            0.003280     0.000300     NO 
 Maximum Displacement     0.014623     0.001800     NO 
 RMS     Displacement     0.004965     0.001200     NO 
 Predicted change in Energy=-7.098924D-05
                       ----------------------------
                       ! Non-Optimized Parameters !
                       ! (Angstroms and Degrees)  !
 ----------------------                            ----------------------
 !      Name          Value   Derivative information (Atomic Units)     !
 ------------------------------------------------------------------------
 !       r1          0.9855   -DE/DX =   -0.0001                        !
 !       r2          1.427    -DE/DX =    0.0012                        !
 !       r3          1.3798   -DE/DX =   -0.0019                        !
 !       r4          1.1953   -DE/DX =   -0.0013                        !
 !       a1        100.5973   -DE/DX =    0.0003                        !
 !       a2        113.1754   -DE/DX =   -0.0005                        !
 !       a3        114.3185   -DE/DX =   -0.0095                        !
 !       d1          0.0      -DE/DX =    0.0                           !
 !       d2          0.0      -DE/DX =    0.0                           !
 ------------------------------------------------------------------------
 GradGradGradGradGradGradGradGradGradGradGradGradGradGradGradGradGradGrad

 Leave Link  103 at Sun Mar  6 19:42:51 2022, MaxMem= 16106127360 cpu:               0.6 elap:               0.0
 (Enter /sw/contrib/gaussian/g16/B01/g16/l9999.exe)

 ----------------------------------------------------------------------

 Electric dipole moment (input orientation):
 (Debye = 10**-18 statcoulomb cm , SI units = C m)
                  (au)            (Debye)         (10**-30 SI)
   Tot        0.431797D+00      0.109752D+01      0.366093D+01
   x         -0.115986D+00     -0.294807D+00     -0.983370D+00
   y          0.000000D+00      0.000000D+00      0.000000D+00
   z         -0.415928D+00     -0.105718D+01     -0.352638D+01

 Dipole polarizability, Alpha (input orientation).
 (esu units = cm**3 , SI units = C**2 m**2 J**-1)
 Alpha(0;0):
               (au)            (10**-24 esu)      (10**-40 SI)
   iso        0.261825D+02      0.387985D+01      0.431692D+01
   aniso      0.147704D+02      0.218875D+01      0.243532D+01
   xx         0.292164D+02      0.432942D+01      0.481713D+01
   yx         0.000000D+00      0.000000D+00      0.000000D+00
   yy         0.176364D+02      0.261344D+01      0.290785D+01
   zx        -0.405077D+01     -0.600262D+00     -0.667882D+00
   zy         0.000000D+00      0.000000D+00      0.000000D+00
   zz         0.316948D+02      0.469669D+01      0.522577D+01

 ----------------------------------------------------------------------

 Dipole orientation:
     1         -0.00000000          0.00000000          0.00000000
     8         -0.50018103          0.00000000         -1.79365701
     8          1.91859667         -0.00000000         -2.98474629
     7          3.89889552         -0.00000000         -1.28472460
     8          3.29594908          0.00000000          0.89110172

 Electric dipole moment (dipole orientation):
 (Debye = 10**-18 statcoulomb cm , SI units = C m)
                  (au)            (Debye)         (10**-30 SI)
   Tot        0.431797D+00      0.109752D+01      0.366093D+01
   x          0.000000D+00      0.000000D+00      0.000000D+00
   y          0.000000D+00      0.000000D+00      0.000000D+00
   z          0.431797D+00      0.109752D+01      0.366093D+01

 Dipole polarizability, Alpha (dipole orientation).
 (esu units = cm**3 , SI units = C**2 m**2 J**-1)
 Alpha(0;0):
               (au)            (10**-24 esu)      (10**-40 SI)
   iso        0.261825D+02      0.387985D+01      0.431692D+01
   aniso      0.147704D+02      0.218875D+01      0.243532D+01
   xx         0.314914D+02      0.466654D+01      0.519223D+01
   yx         0.000000D+00      0.000000D+00      0.000000D+00
   yy         0.176364D+02      0.261344D+01      0.290785D+01
   zx         0.410751D+01      0.608670D+00      0.677236D+00
   zy         0.000000D+00      0.000000D+00      0.000000D+00
   zz         0.294198D+02      0.435957D+01      0.485067D+01

 ----------------------------------------------------------------------
 1\1\GINC-N2199\Freq\RMP2-FC\Aug-CC-pVTZ\H1N1O3\CGAVINH\06-Mar-2022\1\\
 #p freq mp2/aug-cc-pvtz density=current\\title\\0,1\H\O,1,r1\O,2,r2,1,
 a1\N,3,r3,2,a2,1,d1,0\O,4,r4,3,a3,2,d2,0\\r1=0.98537664\r2=1.42673666\
 r3=1.38110764\r4=1.19478846\a1=100.6355057\a2=113.13777052\a3=115.1563
 4619\d1=0.\d2=0.\\Version=ES64L-G16RevB.01\State=1-A'\HF=-279.5063886\
 MP2=-280.4551708\RMSD=4.340e-09\RMSF=1.863e-03\ZeroPoint=0.0233867\The
 rmal=0.0273429\Dipole=-0.115986,0.,-0.4159275\DipoleDeriv=0.3149656,0.
 ,0.0390295,0.,0.298386,0.,-0.0221919,0.,0.1967086,-0.5301907,0.,0.2799
 745,0.,-0.2541012,0.,-0.1073608,0.,-0.1242354,0.0048627,0.,0.3397295,0
 .,-0.0094459,0.,0.4470028,0.,-0.9231763,0.202581,0.,-0.1521653,0.,0.00
 97078,0.,-0.6758375,0.,1.7253208,0.0077814,0.,-0.5065682,0.,-0.0445466
 ,0.,0.3583875,0.,-0.8746178\Polar=29.2163686,0.,17.6363823,-4.050771,0
 .,31.6948495\Quadrupole=0.1292735,0.6125011,-0.7417746,0.,1.4059794,0.
 \PG=CS [SG(H1N1O3)]\NImag=0\\0.07251139,0.,0.00602198,0.02347568,0.,0.
 43708739,-0.05181038,0.,-0.00456791,0.28157447,0.,-0.00250366,0.,0.,0.
 01204064,0.03319794,0.,-0.42176394,-0.01156922,0.,0.52211531,-0.025409
 85,0.,-0.01533765,-0.17145969,0.,-0.09095109,0.30429872,0.,-0.00414739
 ,0.,0.,-0.01889411,0.,0.,0.04139252,-0.04438780,0.,-0.01944894,0.01007
 739,0.,-0.09635704,0.08123004,0.,0.31116170,-0.00572083,0.,0.00648747,
 -0.08501045,0.,0.04039980,-0.14375395,0.,-0.03641989,0.54960337,0.,0.0
 0797764,0.,0.,0.02022367,0.,0.,-0.04732230,0.,0.,0.05542219,-0.0188007
 5,0.,0.01171597,0.01018273,0.,-0.00934182,0.01400332,0.,-0.02451797,0.
 24364021,0.,0.45299575,0.01042966,0.,-0.01005759,0.02670605,0.,0.02892
 257,0.03632477,0.,-0.01049974,-0.31511815,0.,-0.24902551,0.24165767,0.
 ,-0.00734857,0.,0.,-0.01086653,0.,0.,0.02897128,0.,0.,-0.03630120,0.,0
 .,0.02554501,0.00651493,0.,-0.00759048,-0.00412300,0.,0.00534750,0.011
 05538,0.,-0.17083775,-0.25410758,0.,-0.43085192,0.24066027,0.,0.603932
 65\\0.00015250,0.,-0.00011758,0.00096669,0.,0.00063108,0.00067300,0.,0
 .00297304,-0.00468775,0.,-0.00016804,0.00289557,0.,-0.00331850\\\@


 CONTRAIWISE...CONTINUED TWEEDLEDEE, IF IT WAS SO, IT MIGHT BE,
 AND IF IT WERE SO, IT WOULD BE.....
 BUT AS IT ISN'T, IT AIN'T....
 THAT'S LOGIC.....
 ALICE THROUGH THE LOOKING GLASS
 Job cpu time:       0 days  2 hours  1 minutes  1.9 seconds.
 Elapsed time:       0 days  0 hours  4 minutes 22.4 seconds.
 File lengths (MBytes):  RWF=   7239 Int=      0 D2E=      0 Chk=      8 Scr=      1
 Normal termination of Gaussian 16 at Sun Mar  6 19:42:52 2022.
