title                                                                   
Freq      RMP2-FC                                                     Aug-CC-pVTZ         
Number of atoms                            I                5
Info1-9                                    I   N=           9
          33          24           0           0           0         100
           6           2           1
Full Title                                 C   N=           1
title       
Route                                      C   N=           4
#p freq mp2/aug-cc-pvtz density=current         
Charge                                     I                0
Multiplicity                               I                1
Number of electrons                        I               32
Number of alpha electrons                  I               16
Number of beta electrons                   I               16
Number of basis functions                  I              207
Number of independent functions            I              207
Number of point charges in /Mol/           I                0
Number of translation vectors              I                0
Atomic numbers                             I   N=           5
           1           8           8           7           8
Nuclear charges                            R   N=           5
  1.00000000E+00  8.00000000E+00  8.00000000E+00  7.00000000E+00  8.00000000E+00
Current cartesian coordinates              R   N=          15
  2.11060308E+00 -1.11623223E+00  0.00000000E+00  2.49182574E+00  7.06418541E-01
 -4.93038066E-32  2.86832038E-16  1.73597363E+00  6.16297582E-32 -1.86429435E+00
 -9.05158673E-02  4.93038066E-32 -1.12439357E+00 -2.22366176E+00  1.23259516E-32
Number of symbols in /Mol/                 I                0
Force Field                                I                0
Atom Types                                 C   N=           5
                                                            
Int Atom Types                             I   N=           5
           0           0           0           0           0
MM charges                                 R   N=           5
  0.00000000E+00  0.00000000E+00  0.00000000E+00  0.00000000E+00  0.00000000E+00
Integer atomic weights                     I   N=           5
           1          16          16          14          16
Real atomic weights                        R   N=           5
  1.00782504E+00  1.59949146E+01  1.59949146E+01  1.40030740E+01  1.59949146E+01
Atom fragment info                         I   N=           5
           0           0           0           0           0
Atom residue num                           I   N=           5
           0           0           0           0           0
Nuclear spins                              I   N=           5
           1           0           0           2           0
Nuclear ZEff                               R   N=           5
 -1.00000000E+00 -5.60000000E+00 -5.60000000E+00 -4.55000000E+00 -5.60000000E+00
Nuclear ZNuc                               R   N=           5
  1.00000000E+00  8.00000000E+00  8.00000000E+00  7.00000000E+00  8.00000000E+00
Nuclear QMom                               R   N=           5
  0.00000000E+00  0.00000000E+00  0.00000000E+00  2.04400000E+00  0.00000000E+00
Nuclear GFac                               R   N=           5
  2.79284600E+00  0.00000000E+00  0.00000000E+00  4.03761000E-01  0.00000000E+00
MicOpt                                     I   N=           5
          -1          -1          -1          -1          -1
Number of residues                         I                0
Number of secondary structures             I                0
SymInf integers                            I   N=          26
           1           2           1           1           1           1
           1          -1           0           0           0           0
           0           0           0           0           0           0
           0           0           0           0           0           0
           0           0
RotTr to input orientation                 R   N=          12
 -9.78818870E-01 -1.22980896E-16  2.04728160E-01  2.04728160E-01  2.57224839E-17
  9.78818870E-01 -1.25642139E-16  1.00000000E+00  0.00000000E+00  2.29442229E+00
  0.00000000E+00  6.60489281E-01
Number of contracted shells                I               65
Number of primitive shells                 I              119
Pure/Cartesian d shells                    I                0
Pure/Cartesian f shells                    I                0
Highest angular momentum                   I                3
Largest degree of contraction              I                7
Shell types                                I   N=          65
           0           0           0           0           1           1
           1          -2          -2           0           0           0
           0           0           1           1           1           1
          -2          -2          -2          -3          -3           0
           0           0           0           0           1           1
           1           1          -2          -2          -2          -3
          -3           0           0           0           0           0
           1           1           1           1          -2          -2
          -2          -3          -3           0           0           0
           0           0           1           1           1           1
          -2          -2          -2          -3          -3
Number of primitives per shell             I   N=          65
           3           1           1           1           1           1
           1           1           1           7           6           1
           1           1           3           1           1           1
           1           1           1           1           1           7
           6           1           1           1           3           1
           1           1           1           1           1           1
           1           7           6           1           1           1
           3           1           1           1           1           1
           1           1           1           7           6           1
           1           1           3           1           1           1
           1           1           1           1           1
Shell to atom map                          I   N=          65
           1           1           1           1           1           1
           1           1           1           2           2           2
           2           2           2           2           2           2
           2           2           2           2           2           3
           3           3           3           3           3           3
           3           3           3           3           3           3
           3           4           4           4           4           4
           4           4           4           4           4           4
           4           4           4           5           5           5
           5           5           5           5           5           5
           5           5           5           5           5
Primitive exponents                        R   N=         119
  3.38700000E+01  5.09500000E+00  1.15900000E+00  3.25800000E-01  1.02700000E-01
  2.52600000E-02  1.40700000E+00  3.88000000E-01  1.02000000E-01  1.05700000E+00
  2.47000000E-01  1.53300000E+04  2.29900000E+03  5.22400000E+02  1.47300000E+02
  4.75500000E+01  1.67600000E+01  6.20700000E+00  5.22400000E+02  1.47300000E+02
  4.75500000E+01  1.67600000E+01  6.20700000E+00  6.88200000E-01  1.75200000E+00
  2.38400000E-01  7.37600000E-02  3.44600000E+01  7.74900000E+00  2.28000000E+00
  7.15600000E-01  2.14000000E-01  5.97400000E-02  2.31400000E+00  6.45000000E-01
  2.14000000E-01  1.42800000E+00  5.00000000E-01  1.53300000E+04  2.29900000E+03
  5.22400000E+02  1.47300000E+02  4.75500000E+01  1.67600000E+01  6.20700000E+00
  5.22400000E+02  1.47300000E+02  4.75500000E+01  1.67600000E+01  6.20700000E+00
  6.88200000E-01  1.75200000E+00  2.38400000E-01  7.37600000E-02  3.44600000E+01
  7.74900000E+00  2.28000000E+00  7.15600000E-01  2.14000000E-01  5.97400000E-02
  2.31400000E+00  6.45000000E-01  2.14000000E-01  1.42800000E+00  5.00000000E-01
  1.14200000E+04  1.71200000E+03  3.89300000E+02  1.10000000E+02  3.55700000E+01
  1.25400000E+01  4.64400000E+00  3.89300000E+02  1.10000000E+02  3.55700000E+01
  1.25400000E+01  4.64400000E+00  5.11800000E-01  1.29300000E+00  1.78700000E-01
  5.76000000E-02  2.66300000E+01  5.94800000E+00  1.74200000E+00  5.55000000E-01
  1.72500000E-01  4.91000000E-02  1.65400000E+00  4.69000000E-01  1.51000000E-01
  1.09300000E+00  3.64000000E-01  1.53300000E+04  2.29900000E+03  5.22400000E+02
  1.47300000E+02  4.75500000E+01  1.67600000E+01  6.20700000E+00  5.22400000E+02
  1.47300000E+02  4.75500000E+01  1.67600000E+01  6.20700000E+00  6.88200000E-01
  1.75200000E+00  2.38400000E-01  7.37600000E-02  3.44600000E+01  7.74900000E+00
  2.28000000E+00  7.15600000E-01  2.14000000E-01  5.97400000E-02  2.31400000E+00
  6.45000000E-01  2.14000000E-01  1.42800000E+00  5.00000000E-01
Contraction coefficients                   R   N=         119
  2.54948632E-02  1.90362766E-01  8.52162022E-01  1.00000000E+00  1.00000000E+00
  1.00000000E+00  1.00000000E+00  1.00000000E+00  1.00000000E+00  1.00000000E+00
  1.00000000E+00  5.19808943E-04  4.02025621E-03  2.07128267E-02  8.10105536E-02
  2.35962985E-01  4.42653446E-01  3.57064423E-01 -4.42115008E-05 -1.22591041E-03
 -1.05517725E-02 -6.74452633E-02 -1.71198607E-01  1.07329856E+00  1.00000000E+00
  1.00000000E+00  1.00000000E+00  4.11634896E-02  2.57762836E-01  8.02419274E-01
  1.00000000E+00  1.00000000E+00  1.00000000E+00  1.00000000E+00  1.00000000E+00
  1.00000000E+00  1.00000000E+00  1.00000000E+00  5.19808943E-04  4.02025621E-03
  2.07128267E-02  8.10105536E-02  2.35962985E-01  4.42653446E-01  3.57064423E-01
 -4.42115008E-05 -1.22591041E-03 -1.05517725E-02 -6.74452633E-02 -1.71198607E-01
  1.07329856E+00  1.00000000E+00  1.00000000E+00  1.00000000E+00  4.11634896E-02
  2.57762836E-01  8.02419274E-01  1.00000000E+00  1.00000000E+00  1.00000000E+00
  1.00000000E+00  1.00000000E+00  1.00000000E+00  1.00000000E+00  1.00000000E+00
  5.34563860E-04  4.13435660E-03  2.12335358E-02  8.25006224E-02  2.38138871E-01
  4.42551547E-01  3.53757422E-01 -4.89867350E-05 -1.19527323E-03 -1.03490714E-02
 -6.48680190E-02 -1.71552477E-01  1.07289568E+00  1.00000000E+00  1.00000000E+00
  1.00000000E+00  3.98072123E-02  2.49002660E-01  8.10479727E-01  1.00000000E+00
  1.00000000E+00  1.00000000E+00  1.00000000E+00  1.00000000E+00  1.00000000E+00
  1.00000000E+00  1.00000000E+00  5.19808943E-04  4.02025621E-03  2.07128267E-02
  8.10105536E-02  2.35962985E-01  4.42653446E-01  3.57064423E-01 -4.42115008E-05
 -1.22591041E-03 -1.05517725E-02 -6.74452633E-02 -1.71198607E-01  1.07329856E+00
  1.00000000E+00  1.00000000E+00  1.00000000E+00  4.11634896E-02  2.57762836E-01
  8.02419274E-01  1.00000000E+00  1.00000000E+00  1.00000000E+00  1.00000000E+00
  1.00000000E+00  1.00000000E+00  1.00000000E+00  1.00000000E+00
Coordinates of each shell                  R   N=         195
  2.11060308E+00 -1.11623223E+00 -6.29787506E-32  2.11060308E+00 -1.11623223E+00
 -6.29787506E-32  2.11060308E+00 -1.11623223E+00 -6.29787506E-32  2.11060308E+00
 -1.11623223E+00 -6.29787506E-32  2.11060308E+00 -1.11623223E+00 -6.29787506E-32
  2.11060308E+00 -1.11623223E+00 -6.29787506E-32  2.11060308E+00 -1.11623223E+00
 -6.29787506E-32  2.11060308E+00 -1.11623223E+00 -6.29787506E-32  2.11060308E+00
 -1.11623223E+00 -6.29787506E-32  2.49182574E+00  7.06418541E-01 -4.76315240E-32
  2.49182574E+00  7.06418541E-01 -4.76315240E-32  2.49182574E+00  7.06418541E-01
 -4.76315240E-32  2.49182574E+00  7.06418541E-01 -4.76315240E-32  2.49182574E+00
  7.06418541E-01 -4.76315240E-32  2.49182574E+00  7.06418541E-01 -4.76315240E-32
  2.49182574E+00  7.06418541E-01 -4.76315240E-32  2.49182574E+00  7.06418541E-01
 -4.76315240E-32  2.49182574E+00  7.06418541E-01 -4.76315240E-32  2.49182574E+00
  7.06418541E-01 -4.76315240E-32  2.49182574E+00  7.06418541E-01 -4.76315240E-32
  2.49182574E+00  7.06418541E-01 -4.76315240E-32  2.49182574E+00  7.06418541E-01
 -4.76315240E-32  2.49182574E+00  7.06418541E-01 -4.76315240E-32  7.59322536E-17
  1.73597363E+00  2.29168089E-32  7.59322536E-17  1.73597363E+00  2.29168089E-32
  7.59322536E-17  1.73597363E+00  2.29168089E-32  7.59322536E-17  1.73597363E+00
  2.29168089E-32  7.59322536E-17  1.73597363E+00  2.29168089E-32  7.59322536E-17
  1.73597363E+00  2.29168089E-32  7.59322536E-17  1.73597363E+00  2.29168089E-32
  7.59322536E-17  1.73597363E+00  2.29168089E-32  7.59322536E-17  1.73597363E+00
  2.29168089E-32  7.59322536E-17  1.73597363E+00  2.29168089E-32  7.59322536E-17
  1.73597363E+00  2.29168089E-32  7.59322536E-17  1.73597363E+00  2.29168089E-32
  7.59322536E-17  1.73597363E+00  2.29168089E-32  7.59322536E-17  1.73597363E+00
  2.29168089E-32 -1.86429435E+00 -9.05158673E-02  4.14183000E-32 -1.86429435E+00
 -9.05158673E-02  4.14183000E-32 -1.86429435E+00 -9.05158673E-02  4.14183000E-32
 -1.86429435E+00 -9.05158673E-02  4.14183000E-32 -1.86429435E+00 -9.05158673E-02
  4.14183000E-32 -1.86429435E+00 -9.05158673E-02  4.14183000E-32 -1.86429435E+00
 -9.05158673E-02  4.14183000E-32 -1.86429435E+00 -9.05158673E-02  4.14183000E-32
 -1.86429435E+00 -9.05158673E-02  4.14183000E-32 -1.86429435E+00 -9.05158673E-02
  4.14183000E-32 -1.86429435E+00 -9.05158673E-02  4.14183000E-32 -1.86429435E+00
 -9.05158673E-02  4.14183000E-32 -1.86429435E+00 -9.05158673E-02  4.14183000E-32
 -1.86429435E+00 -9.05158673E-02  4.14183000E-32 -1.12439357E+00 -2.22366176E+00
 -3.65395356E-33 -1.12439357E+00 -2.22366176E+00 -3.65395356E-33 -1.12439357E+00
 -2.22366176E+00 -3.65395356E-33 -1.12439357E+00 -2.22366176E+00 -3.65395356E-33
 -1.12439357E+00 -2.22366176E+00 -3.65395356E-33 -1.12439357E+00 -2.22366176E+00
 -3.65395356E-33 -1.12439357E+00 -2.22366176E+00 -3.65395356E-33 -1.12439357E+00
 -2.22366176E+00 -3.65395356E-33 -1.12439357E+00 -2.22366176E+00 -3.65395356E-33
 -1.12439357E+00 -2.22366176E+00 -3.65395356E-33 -1.12439357E+00 -2.22366176E+00
 -3.65395356E-33 -1.12439357E+00 -2.22366176E+00 -3.65395356E-33 -1.12439357E+00
 -2.22366176E+00 -3.65395356E-33 -1.12439357E+00 -2.22366176E+00 -3.65395356E-33
Num ILSW                                   I              100
ILSW                                       I   N=         100
           0           0           0           0           2           0
           0           0           0           0           0          -1
           5           0           0           0           2           0
           0           0           0           0           1           0
           1           0           0           0           0           0
           0           0      100000           0          -1           0
           0           0           0           0           0           0
           0           0           0           1           1           0
           0 -2000000000           1           0           0           0
           0           0           4          52           0           0
           0           0           0           0           0           0
           0           0           0           5           4           1
           0           0           0           0           0           0
           0           0           0           0           0           0
           0           0           0           0           0           0
           0           0           0           0           0           0
           0           0           0           0
Num RLSW                                   I               52
RLSW                                       R   N=          52
  1.00000000E+00  1.00000000E+00  1.00000000E+00  1.00000000E+00  1.00000000E+00
  0.00000000E+00  0.00000000E+00  1.00000000E+00  0.00000000E+00  0.00000000E+00
  0.00000000E+00  0.00000000E+00  1.00000000E+00  0.00000000E+00  0.00000000E+00
  0.00000000E+00  0.00000000E+00  1.00000000E+00  0.00000000E+00  0.00000000E+00
  0.00000000E+00  0.00000000E+00  1.00000000E+00  0.00000000E+00  0.00000000E+00
  0.00000000E+00  0.00000000E+00  1.00000000E+00  0.00000000E+00  0.00000000E+00
  0.00000000E+00  0.00000000E+00  1.00000000E+00  0.00000000E+00  0.00000000E+00
  0.00000000E+00  0.00000000E+00  0.00000000E+00  1.00000000E+00  1.00000000E+00
  0.00000000E+00  1.00000000E+00  0.00000000E+00  0.00000000E+00  0.00000000E+00
  0.00000000E+00  0.00000000E+00  0.00000000E+00  0.00000000E+00  0.00000000E+00
  0.00000000E+00  0.00000000E+00
MxBond                                     I                2
NBond                                      I   N=           5
           1           2           2           2           1
IBond                                      I   N=          10
           2           0           1           3           2           4
           3           5           4           0
RBond                                      R   N=          10
  1.00000000E+00  0.00000000E+00  1.00000000E+00  1.00000000E+00  1.00000000E+00
  1.00000000E+00  1.00000000E+00  2.00000000E+00  2.00000000E+00  0.00000000E+00
Virial Ratio                               R      2.002253846734810E+00
SCF Energy                                 R     -2.795063690736872E+02
MP2 Energy                                 R     -2.804551482073009E+02
Total Energy                               R     -2.804551482073009E+02
Post-SCF wavefunction norm                 R      1.583789789524413E+00
RMS Force                                  R      2.137443957855886E-03
RMS Density                                R      4.326736400991316E-09
NImag                                      I                0
Job Status                                 I                1
Nuclear derivative order                   I                2
External E-field                           R   N=          35
  0.00000000E+00  0.00000000E+00  0.00000000E+00  0.00000000E+00  0.00000000E+00
  0.00000000E+00  0.00000000E+00  0.00000000E+00  0.00000000E+00  0.00000000E+00
  0.00000000E+00  0.00000000E+00  0.00000000E+00  0.00000000E+00  0.00000000E+00
  0.00000000E+00  0.00000000E+00  0.00000000E+00  0.00000000E+00  0.00000000E+00
  0.00000000E+00  0.00000000E+00  0.00000000E+00  0.00000000E+00  0.00000000E+00
  0.00000000E+00  0.00000000E+00  0.00000000E+00  0.00000000E+00  0.00000000E+00
  0.00000000E+00  0.00000000E+00  0.00000000E+00  0.00000000E+00  0.00000000E+00
IOpCl                                      I                0
IROHF                                      I                0
Alpha Orbital Energies                     R   N=         207
 -2.07207740E+01 -2.06877192E+01 -2.06688886E+01 -1.58254108E+01 -1.64311478E+00
 -1.50646221E+00 -1.29419053E+00 -9.60653847E-01 -8.33483367E-01 -7.58732097E-01
 -7.39816926E-01 -6.38695347E-01 -6.19613467E-01 -6.19000483E-01 -5.03024764E-01
 -4.98039032E-01  3.49829835E-02  6.07929534E-02  9.51087545E-02  1.00524480E-01
  1.19740557E-01  1.22665635E-01  1.49009465E-01  1.51887391E-01  1.77671582E-01
  1.80363915E-01  1.89593245E-01  2.11090861E-01  2.16731562E-01  2.42594628E-01
  2.46353151E-01  2.68391241E-01  3.11555262E-01  3.15715588E-01  3.38114447E-01
  3.43020975E-01  3.46263244E-01  3.92638310E-01  4.47317166E-01  4.88592068E-01
  5.04604795E-01  5.18915020E-01  5.44220636E-01  5.62052355E-01  5.99235010E-01
  6.20746811E-01  6.39449050E-01  6.89293803E-01  7.17324298E-01  7.23887334E-01
  7.39963501E-01  7.64780499E-01  7.67523949E-01  7.95662416E-01  8.05007453E-01
  8.40145281E-01  8.43155114E-01  8.51025928E-01  8.84847697E-01  9.06910135E-01
  9.27930847E-01  9.48705094E-01  9.54549921E-01  1.01798198E+00  1.03176029E+00
  1.05658541E+00  1.06524615E+00  1.09342234E+00  1.14271865E+00  1.15577923E+00
  1.17153656E+00  1.22090484E+00  1.22677085E+00  1.24612399E+00  1.35118710E+00
  1.36369088E+00  1.37056932E+00  1.46909289E+00  1.48395715E+00  1.50659803E+00
  1.54130809E+00  1.59171953E+00  1.59660049E+00  1.60521973E+00  1.62842654E+00
  1.69573161E+00  1.74027148E+00  1.80144027E+00  1.82854908E+00  1.88746508E+00
  1.89654166E+00  1.92741014E+00  1.98007175E+00  1.99077700E+00  2.04966117E+00
  2.12148976E+00  2.13016382E+00  2.16440792E+00  2.18628703E+00  2.24220619E+00
  2.25964148E+00  2.29460418E+00  2.35195868E+00  2.36257889E+00  2.38643276E+00
  2.40196293E+00  2.43368592E+00  2.47013079E+00  2.47876758E+00  2.52697609E+00
  2.53765746E+00  2.54627414E+00  2.55702044E+00  2.61271696E+00  2.62794027E+00
  2.67064327E+00  2.67105602E+00  2.75593450E+00  2.80876084E+00  2.81186894E+00
  2.84219518E+00  2.91729307E+00  2.97792650E+00  3.04852802E+00  3.05371486E+00
  3.11588029E+00  3.11752421E+00  3.17225383E+00  3.21287047E+00  3.30635267E+00
  3.33424529E+00  3.36029644E+00  3.48112242E+00  3.67739174E+00  3.86891155E+00
  3.92561846E+00  4.18107143E+00  4.21790562E+00  4.21925330E+00  4.26611001E+00
  4.36600252E+00  4.50112043E+00  4.51374326E+00  4.55878362E+00  4.59999826E+00
  4.69210182E+00  4.80857054E+00  4.90311413E+00  4.91269863E+00  4.94331502E+00
  4.99606314E+00  5.00482746E+00  5.10811435E+00  5.13443919E+00  5.17704136E+00
  5.24832749E+00  5.25569103E+00  5.31628670E+00  5.33996685E+00  5.35328988E+00
  5.54327928E+00  5.64317202E+00  5.70213552E+00  5.88501371E+00  6.00135004E+00
  6.26417099E+00  6.29603194E+00  6.35951586E+00  6.37634687E+00  6.59864199E+00
  6.65050141E+00  6.65825550E+00  6.68513701E+00  6.72383703E+00  6.80513811E+00
  6.80649249E+00  6.84053131E+00  6.96951309E+00  7.01922311E+00  7.06617877E+00
  7.08035937E+00  7.14080570E+00  7.16529219E+00  7.17534102E+00  7.20277607E+00
  7.24471124E+00  7.24492668E+00  7.26986208E+00  7.34827632E+00  7.39567411E+00
  7.42371691E+00  7.44252977E+00  7.46196296E+00  7.55964875E+00  7.65540371E+00
  7.66362047E+00  7.79437674E+00  7.88248232E+00  7.95276804E+00  8.05652501E+00
  8.30472568E+00  8.50235994E+00  8.65244201E+00  1.36124929E+01  1.47620113E+01
  1.51005493E+01  1.57383091E+01
Alpha MO coefficients                      R   N=       42849
  6.54810992E-05 -4.84783532E-05 -1.11386985E-03  1.00450867E-05 -5.20615211E-05
  4.22328180E-05  0.00000000E+00 -8.33267618E-05 -3.00331761E-04  0.00000000E+00
  2.73606516E-06 -3.47072411E-04  0.00000000E+00  4.32189694E-05  0.00000000E+00
  0.00000000E+00 -2.51246450E-05  1.27748169E-05  2.25671697E-04  0.00000000E+00
  0.00000000E+00 -3.72660766E-05 -2.05004359E-04  3.04588363E-03 -9.55046468E-05
 -1.01441491E-04  3.58120943E-03  2.48302681E-03  1.03809533E-04 -5.24038327E-05
  0.00000000E+00 -7.35796656E-04  2.79336234E-04  0.00000000E+00 -2.00599733E-03
  1.09149617E-03  0.00000000E+00 -5.37941045E-04  3.90223325E-05  0.00000000E+00
  2.05693959E-05  0.00000000E+00  0.00000000E+00 -9.28464964E-06  4.41216491E-05
 -4.45365027E-04  0.00000000E+00  0.00000000E+00  4.34869315E-04 -6.57497478E-04
 -3.65930479E-04  0.00000000E+00  0.00000000E+00  5.53275638E-04 -7.33579339E-04
  0.00000000E+00  7.48538674E-05 -5.17932734E-05  0.00000000E+00  0.00000000E+00
 -2.88607569E-05  1.07458647E-04  0.00000000E+00  2.07524966E-04 -5.07780076E-05
  0.00000000E+00  0.00000000E+00 -1.74848592E-04  2.98874372E-04  9.76906473E-01
 -9.17139794E-03  4.34035136E-02  5.10791810E-04 -2.21219403E-03  4.65500989E-04
 -2.14526342E-03  0.00000000E+00 -3.35533576E-04  2.25129017E-03  0.00000000E+00
 -2.33908943E-03 -4.88953667E-04  0.00000000E+00 -2.25152639E-04  9.75211043E-05
  0.00000000E+00  7.69272321E-06  0.00000000E+00  0.00000000E+00 -4.43750166E-06
  3.76446931E-05  8.28029423E-04  0.00000000E+00  0.00000000E+00 -4.73150513E-04
 -1.76904125E-04 -1.33404033E-04  0.00000000E+00  0.00000000E+00 -5.48284469E-04
  3.55736638E-04  0.00000000E+00 -6.17963953E-06 -7.88076971E-05  0.00000000E+00
  0.00000000E+00 -9.46536688E-06  4.85696514E-05  0.00000000E+00  9.34841346E-05
 -8.49149117E-07  0.00000000E+00  0.00000000E+00 -3.44502520E-04  3.75572671E-04
  1.04319932E-04  4.58241752E-04 -3.22904397E-04 -8.22593939E-04  3.60594041E-04
 -4.26180631E-05 -1.00592345E-04  0.00000000E+00  6.92969581E-04  1.11685285E-03
  0.00000000E+00 -8.07722099E-04 -7.29630399E-04  0.00000000E+00  1.90226499E-04
  2.08883766E-04  0.00000000E+00 -5.23557684E-05  0.00000000E+00  0.00000000E+00
  1.98763920E-05  9.26199117E-05 -4.15161427E-04  0.00000000E+00  0.00000000E+00
  2.35544068E-05  1.08833169E-03  2.76315840E-05  0.00000000E+00  0.00000000E+00
 -3.38828601E-04  2.33656470E-05  0.00000000E+00 -7.77523398E-05 -1.14769436E-04
  0.00000000E+00  0.00000000E+00 -9.74281051E-05  1.05322137E-04  0.00000000E+00
 -1.20407193E-04  4.99858800E-05  0.00000000E+00  0.00000000E+00  1.21452817E-05
  5.28285309E-04 -6.87874275E-04  2.86905713E-05 -7.20959947E-05  1.67602519E-04
 -1.76223329E-04 -3.01721318E-05 -4.29855995E-05  0.00000000E+00  1.75336187E-04
  2.50615152E-04  0.00000000E+00  5.78705661E-04  3.39775725E-04  0.00000000E+00
 -2.06529381E-04 -6.31138539E-05  0.00000000E+00 -1.19669299E-05  0.00000000E+00
  0.00000000E+00  4.61773517E-06  1.28743433E-05 -8.32791688E-06  0.00000000E+00
  0.00000000E+00 -1.71516532E-04  2.74489536E-05 -3.26267977E-05  0.00000000E+00
  0.00000000E+00 -1.74362191E-04 -1.46825360E-05  0.00000000E+00 -6.45201252E-06
 -1.07415468E-05  0.00000000E+00  0.00000000E+00 -2.27336181E-05  8.29241159E-06
  0.00000000E+00  4.03857899E-05  5.81978466E-05  0.00000000E+00  0.00000000E+00
  1.47421172E-04 -1.05276752E-04  4.18302874E-05  6.29973991E-05 -1.34140980E-04
 -3.03818525E-05  1.37668699E-05  6.89748211E-06  0.00000000E+00  2.50393148E-04
  7.84395369E-05  0.00000000E+00  1.34836330E-04  3.15854256E-05  0.00000000E+00
  1.57898094E-05  0.00000000E+00  0.00000000E+00 -1.63239179E-05  1.32785297E-05
  2.59968285E-05  0.00000000E+00  0.00000000E+00 -1.09429209E-04  5.55977077E-05
 -2.50942369E-04  1.80602879E-05 -1.54236206E-05 -5.67981870E-04  1.60995611E-04
  7.55755246E-06  1.37645595E-05  0.00000000E+00  1.31996651E-06 -3.86041696E-05
  0.00000000E+00  1.88439309E-04  1.20122240E-04  0.00000000E+00 -4.88948896E-05
  4.61654289E-05  0.00000000E+00 -5.98585833E-07  0.00000000E+00  0.00000000E+00
 -8.73855063E-06 -1.28856694E-05  1.71637905E-05  0.00000000E+00  0.00000000E+00
  5.04529179E-05  1.10376239E-04  5.74398304E-05  0.00000000E+00  0.00000000E+00
 -2.77597430E-05 -7.41772580E-05  0.00000000E+00  7.94891850E-06  1.06093171E-05
  0.00000000E+00  0.00000000E+00 -1.36751154E-06 -2.29711088E-05  0.00000000E+00
 -1.22180235E-05 -3.22824278E-05  0.00000000E+00  0.00000000E+00 -3.65158170E-06
 -2.21394334E-05  7.12830911E-04  1.99037105E-05 -2.26461279E-05  3.08229343E-04
 -3.81946377E-04  1.74094324E-05  2.98091935E-05  0.00000000E+00 -6.90538196E-05
 -1.61631585E-04  0.00000000E+00  1.79582487E-04 -2.23426527E-04  0.00000000E+00
 -1.53853822E-04  1.42797574E-04  0.00000000E+00 -3.78941228E-06  0.00000000E+00
  0.00000000E+00 -2.76040895E-05 -1.08912635E-05 -5.54428793E-05  0.00000000E+00
  0.00000000E+00  6.63986056E-05  1.30161934E-04 -6.81168647E-05  0.00000000E+00
  0.00000000E+00  3.37293378E-05  2.30611750E-05  0.00000000E+00  3.83014903E-06
  5.27306572E-06  0.00000000E+00  0.00000000E+00 -6.27885885E-06 -9.50671700E-07
  0.00000000E+00  3.06012183E-06 -2.55889582E-05  0.00000000E+00  0.00000000E+00
  1.03614268E-04 -1.48472360E-04  2.37614876E-04  1.36316003E-03 -1.45378388E-04
 -6.75968117E-04  9.05139538E-04  6.37504778E-05 -7.00408050E-05  0.00000000E+00
  5.49657198E-04 -2.10387225E-03  0.00000000E+00  1.14774349E-04  5.19291782E-04
  0.00000000E+00  1.79796223E-04 -3.12360150E-04  0.00000000E+00 -1.28266545E-04
  0.00000000E+00  0.00000000E+00 -2.06341680E-04 -1.54224015E-04 -4.58369680E-04
  0.00000000E+00  0.00000000E+00 -6.30345018E-04 -9.17783106E-04 -4.16767557E-05
  0.00000000E+00  0.00000000E+00  5.35919918E-05  1.18798520E-04  0.00000000E+00
  9.34925074E-06  3.83364931E-05  0.00000000E+00  0.00000000E+00 -2.48420523E-05
 -3.61849136E-06  0.00000000E+00 -1.32251091E-04  1.55745718E-04  0.00000000E+00
  0.00000000E+00 -3.23633665E-04 -3.23481067E-05  9.76648627E-01 -9.88941183E-03
  4.35710106E-02  3.68737241E-03 -8.96609653E-04 -4.17959302E-04  2.14162180E-03
  0.00000000E+00  4.76127053E-04 -2.52064146E-03  0.00000000E+00 -5.42979713E-05
  8.03196702E-04  0.00000000E+00  1.07659566E-04 -6.55131614E-05  0.00000000E+00
 -1.93241453E-04  0.00000000E+00  0.00000000E+00 -7.54462104E-05 -4.35982206E-05
  4.10039916E-04  0.00000000E+00  0.00000000E+00  8.77533958E-04  4.63185005E-04
 -2.04988047E-04  0.00000000E+00  0.00000000E+00 -1.30529871E-04 -3.42375010E-05
  0.00000000E+00 -3.89470114E-06  7.05646554E-05  0.00000000E+00  0.00000000E+00
 -2.96466768E-05  1.14644511E-05  0.00000000E+00 -8.83832311E-05  9.31639050E-05
  0.00000000E+00  0.00000000E+00 -1.58641027E-04  2.14534474E-04  3.78637518E-04
  1.98037651E-03  1.33972846E-03 -2.13111023E-05  4.84258312E-05  2.68876413E-04
  0.00000000E+00  3.96313218E-04  1.03365055E-03  0.00000000E+00 -1.15134928E-04
  2.41593089E-04  0.00000000E+00 -2.28220778E-05  0.00000000E+00  0.00000000E+00
  3.15201865E-05 -2.78215741E-05 -2.14538130E-04  0.00000000E+00  0.00000000E+00
 -3.49626584E-04  3.99368994E-04  9.76835005E-01 -9.18660747E-03  4.34641480E-02
  1.55468575E-04 -1.91209085E-03 -2.04051050E-03 -8.48919841E-04  0.00000000E+00
  2.07572775E-03  7.84012728E-04  0.00000000E+00 -4.21400088E-04  6.54111510E-04
  0.00000000E+00  2.26422636E-04 -2.97231867E-04  0.00000000E+00  3.11783082E-05
  0.00000000E+00  0.00000000E+00 -7.41248497E-05  6.18892893E-05  7.65631858E-04
  0.00000000E+00  0.00000000E+00 -2.09721855E-04  3.51733478E-04 -2.36023701E-04
  0.00000000E+00  0.00000000E+00  3.41939813E-04  4.06653269E-06  0.00000000E+00
 -8.02904080E-05  1.63829670E-06  0.00000000E+00  0.00000000E+00  1.67308617E-05