 Entering Gaussian System, Link 0=g16
 Input=hoono_a1_99p86234.gjf
 Output=hoono_a1_99p86234.log
 Initial command:
 /sw/contrib/gaussian/g16/B01/g16/l1.exe "/scr/Gau-68042.inp" -scrdir="/scr/"
 Entering Link 1 = /sw/contrib/gaussian/g16/B01/g16/l1.exe PID=     68043.
  
 Copyright (c) 1988-2017, Gaussian, Inc.  All Rights Reserved.
  
 This is part of the Gaussian(R) 16 program.  It is based on
 the Gaussian(R) 09 system (copyright 2009, Gaussian, Inc.),
 the Gaussian(R) 03 system (copyright 2003, Gaussian, Inc.),
 the Gaussian(R) 98 system (copyright 1998, Gaussian, Inc.),
 the Gaussian(R) 94 system (copyright 1995, Gaussian, Inc.),
 the Gaussian 92(TM) system (copyright 1992, Gaussian, Inc.),
 the Gaussian 90(TM) system (copyright 1990, Gaussian, Inc.),
 the Gaussian 88(TM) system (copyright 1988, Gaussian, Inc.),
 the Gaussian 86(TM) system (copyright 1986, Carnegie Mellon
 University), and the Gaussian 82(TM) system (copyright 1983,
 Carnegie Mellon University). Gaussian is a federally registered
 trademark of Gaussian, Inc.
  
 This software contains proprietary and confidential information,
 including trade secrets, belonging to Gaussian, Inc.
  
 This software is provided under written license and may be
 used, copied, transmitted, or stored only in accord with that
 written license.
  
 The following legend is applicable only to US Government
 contracts under FAR:
  
                    RESTRICTED RIGHTS LEGEND
  
 Use, reproduction and disclosure by the US Government is
 subject to restrictions as set forth in subparagraphs (a)
 and (c) of the Commercial Computer Software - Restricted
 Rights clause in FAR 52.227-19.
  
 Gaussian, Inc.
 340 Quinnipiac St., Bldg. 40, Wallingford CT 06492
  
  
 ---------------------------------------------------------------
 Warning -- This program may not be used in any manner that
 competes with the business of Gaussian, Inc. or will provide
 assistance to any competitor of Gaussian, Inc.  The licensee
 of this program is prohibited from giving any competitor of
 Gaussian, Inc. access to this program.  By using this program,
 the user acknowledges that Gaussian, Inc. is engaged in the
 business of creating and licensing software in the field of
 computational chemistry and represents and warrants to the
 licensee that it is not a competitor of Gaussian, Inc. and that
 it will not use this program in any manner prohibited above.
 ---------------------------------------------------------------
  

 Cite this work as:
 Gaussian 16, Revision B.01,
 M. J. Frisch, G. W. Trucks, H. B. Schlegel, G. E. Scuseria, 
 M. A. Robb, J. R. Cheeseman, G. Scalmani, V. Barone, 
 G. A. Petersson, H. Nakatsuji, X. Li, M. Caricato, A. V. Marenich, 
 J. Bloino, B. G. Janesko, R. Gomperts, B. Mennucci, H. P. Hratchian, 
 J. V. Ortiz, A. F. Izmaylov, J. L. Sonnenberg, D. Williams-Young, 
 F. Ding, F. Lipparini, F. Egidi, J. Goings, B. Peng, A. Petrone, 
 T. Henderson, D. Ranasinghe, V. G. Zakrzewski, J. Gao, N. Rega, 
 G. Zheng, W. Liang, M. Hada, M. Ehara, K. Toyota, R. Fukuda, 
 J. Hasegawa, M. Ishida, T. Nakajima, Y. Honda, O. Kitao, H. Nakai, 
 T. Vreven, K. Throssell, J. A. Montgomery, Jr., J. E. Peralta, 
 F. Ogliaro, M. J. Bearpark, J. J. Heyd, E. N. Brothers, K. N. Kudin, 
 V. N. Staroverov, T. A. Keith, R. Kobayashi, J. Normand, 
 K. Raghavachari, A. P. Rendell, J. C. Burant, S. S. Iyengar, 
 J. Tomasi, M. Cossi, J. M. Millam, M. Klene, C. Adamo, R. Cammi, 
 J. W. Ochterski, R. L. Martin, K. Morokuma, O. Farkas, 
 J. B. Foresman, and D. J. Fox, Gaussian, Inc., Wallingford CT, 2016.
 
 ******************************************
 Gaussian 16:  ES64L-G16RevB.01 20-Dec-2017
                 6-Mar-2022 
 ******************************************
 %nproc=28
 Will use up to   28 processors via shared memory.
 %mem=120GB
 %chk=hoono_a1_99p86234.chk
 ---------------------------------------
 #p freq mp2/aug-cc-pvtz density=current
 ---------------------------------------
 1/10=4,30=1,38=1/1,3;
 2/12=2,17=6,18=5,40=1/2;
 3/5=16,6=1,7=10,11=9,25=1,30=1,71=2,140=1/1,2,3;
 4//1;
 5/5=2,38=5,98=1/2;
 8/6=3,8=1,10=1,19=11,30=-1/1;
 9/15=3,16=-3/6;
 11/6=1,8=1,15=11,17=12,24=-1,27=1,28=-2,29=300,32=6,42=3/1,2,10;
 10/6=2,21=1/2;
 8/6=4,8=1,10=1,19=11,30=-1/11,4;
 10/5=1,20=4/2;
 11/12=2,14=11,16=1,17=2,28=-2,42=3,76=2/2,10,12;
 6/7=2,8=2,9=2,10=2,22=-1/1;
 7/8=1,10=1,12=2,25=1,44=2/1,2,3,16;
 1/10=4,30=1/3;
 99//99;
 Leave Link    1 at Sun Mar  6 19:23:19 2022, MaxMem= 16106127360 cpu:               2.5 elap:               0.1
 (Enter /sw/contrib/gaussian/g16/B01/g16/l101.exe)
 -----
 title
 -----
 Symbolic Z-matrix:
 Charge =  0 Multiplicity = 1
 H
 O                    1    r1
 O                    2    r2       1    a1
 N                    3    r3       2    a2       1    d1       0
 O                    4    r4       3    a3       2    d2       0
       Variables:
  r1                    0.98538                  
  r2                    1.42674                  
  r3                    1.38111                  
  r4                    1.19479                  
  a1                   99.86234                  
  a2                  113.13777                  
  a3                  114.33392                  
  d1                    0.                       
  d2                    0.                       
 
 ITRead=  0  0  0  0  0
 MicOpt= -1 -1 -1 -1 -1
 NAtoms=      5 NQM=        5 NQMF=       0 NMMI=      0 NMMIF=      0
                NMic=       0 NMicF=      0.
                    Isotopes and Nuclear Properties:
 (Nuclear quadrupole moments (NQMom) in fm**2, nuclear magnetic moments (NMagM)
  in nuclear magnetons)

  Atom         1           2           3           4           5
 IAtWgt=           1          16          16          14          16
 AtmWgt=   1.0078250  15.9949146  15.9949146  14.0030740  15.9949146
 NucSpn=           1           0           0           2           0
 AtZEff=  -0.0000000  -0.0000000  -0.0000000  -0.0000000  -0.0000000
 NQMom=    0.0000000   0.0000000   0.0000000   2.0440000   0.0000000
 NMagM=    2.7928460   0.0000000   0.0000000   0.4037610   0.0000000
 AtZNuc=   1.0000000   8.0000000   8.0000000   7.0000000   8.0000000
 Leave Link  101 at Sun Mar  6 19:23:19 2022, MaxMem= 16106127360 cpu:               2.5 elap:               0.1
 (Enter /sw/contrib/gaussian/g16/B01/g16/l103.exe)

 GradGradGradGradGradGradGradGradGradGradGradGradGradGradGradGradGradGrad
 Berny optimization.
 Initialization pass.
                       ----------------------------
                       !    Initial Parameters    !
                       ! (Angstroms and Degrees)  !
 ----------------------                            ----------------------
 !      Name          Value   Derivative information (Atomic Units)     !
 ------------------------------------------------------------------------
 !       r1          0.9854   calculate D2E/DX2 analytically            !
 !       r2          1.4267   calculate D2E/DX2 analytically            !
 !       r3          1.3811   calculate D2E/DX2 analytically            !
 !       r4          1.1948   calculate D2E/DX2 analytically            !
 !       a1         99.8623   calculate D2E/DX2 analytically            !
 !       a2        113.1378   calculate D2E/DX2 analytically            !
 !       a3        114.3339   calculate D2E/DX2 analytically            !
 !       d1          0.0      calculate D2E/DX2 analytically            !
 !       d2          0.0      calculate D2E/DX2 analytically            !
 ------------------------------------------------------------------------
 Trust Radius=3.00D-01 FncErr=1.00D-07 GrdErr=1.00D-07 EigMax=2.50D+02 EigMin=1.00D-04
 Number of steps in this run=      2 maximum allowed number of steps=      2.
 GradGradGradGradGradGradGradGradGradGradGradGradGradGradGradGradGradGrad

 Leave Link  103 at Sun Mar  6 19:23:19 2022, MaxMem= 16106127360 cpu:               1.5 elap:               0.1
 (Enter /sw/contrib/gaussian/g16/B01/g16/l202.exe)
                          Input orientation:                          
 ---------------------------------------------------------------------
 Center     Atomic      Atomic             Coordinates (Angstroms)
 Number     Number       Type             X           Y           Z
 ---------------------------------------------------------------------
      1          1           0        0.000000    0.000000    0.000000
      2          8           0        0.000000    0.000000    0.985377
      3          8           0        1.405653    0.000000    1.229750
      4          7           0        2.157860    0.000000    0.071458
      5          8           0        1.512984    0.000000   -0.934353
 ---------------------------------------------------------------------
                    Distance matrix (angstroms):
                    1          2          3          4          5
     1  H    0.000000
     2  O    0.985377   0.000000
     3  O    1.867658   1.426737   0.000000
     4  N    2.159043   2.343418   1.381108   0.000000
     5  O    1.778240   2.444276   2.166763   1.194788   0.000000
 Stoichiometry    HNO3
 Framework group  CS[SG(HNO3)]
 Deg. of freedom     7
 Full point group                 CS      NOp   2
 Largest Abelian subgroup         CS      NOp   2
 Largest concise Abelian subgroup C1      NOp   1
                         Standard orientation:                         
 ---------------------------------------------------------------------
 Center     Atomic      Atomic             Coordinates (Angstroms)
 Number     Number       Type             X           Y           Z
 ---------------------------------------------------------------------
      1          1           0        1.096879   -0.594723    0.000000
      2          8           0        1.316073    0.365964    0.000000
      3          8           0       -0.000000    0.916899    0.000000
      4          7           0       -0.991020   -0.045047    0.000000
      5          8           0       -0.586041   -1.169107    0.000000
 ---------------------------------------------------------------------
 Rotational constants (GHZ):          21.3722503           8.1084281           5.8782689
 Leave Link  202 at Sun Mar  6 19:23:19 2022, MaxMem= 16106127360 cpu:               0.2 elap:               0.0
 (Enter /sw/contrib/gaussian/g16/B01/g16/l301.exe)
 Standard basis: Aug-CC-pVTZ (5D, 7F)
 Ernie: Thresh=  0.10000D-02 Tol=  0.10000D-05 Strict=F.
 Ernie:  12 primitive shells out of 131 were deleted.
 There are   166 symmetry adapted cartesian basis functions of A'  symmetry.
 There are    79 symmetry adapted cartesian basis functions of A"  symmetry.
 There are   136 symmetry adapted basis functions of A'  symmetry.
 There are    71 symmetry adapted basis functions of A"  symmetry.
   207 basis functions,   315 primitive gaussians,   245 cartesian basis functions
    16 alpha electrons       16 beta electrons
       nuclear repulsion energy       122.7879820666 Hartrees.
 IExCor=    0 DFT=F Ex=HF Corr=None ExCW=0 ScaHFX=  1.000000
 ScaDFX=  1.000000  1.000000  1.000000  1.000000 ScalE2=  1.000000  1.000000
 IRadAn=      5 IRanWt=     -1 IRanGd=            0 ICorTp=0 IEmpDi=  4
 NAtoms=    5 NActive=    5 NUniq=    5 SFac= 1.00D+00 NAtFMM=   60 NAOKFM=F Big=F
 Integral buffers will be    131072 words long.
 Raffenetti 1 integral format.
 Two-electron integral symmetry is turned on.
 Leave Link  301 at Sun Mar  6 19:23:19 2022, MaxMem= 16106127360 cpu:               1.4 elap:               0.1
 (Enter /sw/contrib/gaussian/g16/B01/g16/l302.exe)
 NPDir=0 NMtPBC=     1 NCelOv=     1 NCel=       1 NClECP=     1 NCelD=      1
         NCelK=      1 NCelE2=     1 NClLst=     1 CellRange=     0.0.
 One-electron integrals computed using PRISM.
 One-electron integral symmetry used in STVInt
 NBasis=   207 RedAO= T EigKep=  1.31D-04  NBF=   136    71
 NBsUse=   207 1.00D-06 EigRej= -1.00D+00 NBFU=   136    71
 Leave Link  302 at Sun Mar  6 19:23:19 2022, MaxMem= 16106127360 cpu:               4.8 elap:               0.2
 (Enter /sw/contrib/gaussian/g16/B01/g16/l303.exe)
 DipDrv:  MaxL=1.
 Leave Link  303 at Sun Mar  6 19:23:20 2022, MaxMem= 16106127360 cpu:               1.4 elap:               0.1
 (Enter /sw/contrib/gaussian/g16/B01/g16/l401.exe)
 ExpMin= 2.53D-02 ExpMax= 1.53D+04 ExpMxC= 5.22D+02 IAcc=3 IRadAn=         5 AccDes= 0.00D+00
 Harris functional with IExCor=  205 and IRadAn=       5 diagonalized for initial guess.
 HarFok:  IExCor=  205 AccDes= 0.00D+00 IRadAn=         5 IDoV= 1 UseB2=F ITyADJ=14
 ICtDFT=  3500011 ScaDFX=  1.000000  1.000000  1.000000  1.000000
 FoFCou: FMM=F IPFlag=           0 FMFlag=      100000 FMFlg1=           0
         NFxFlg=           0 DoJE=T BraDBF=F KetDBF=T FulRan=T
         wScrn=  0.000000 ICntrl=       500 IOpCl=  0 I1Cent=   200000004 NGrid=           0
         NMat0=    1 NMatS0=      1 NMatT0=    0 NMatD0=    1 NMtDS0=    0 NMtDT0=    0
 Petite list used in FoFCou.
 Harris En= -279.644941429805    
 JPrj=0 DoOrth=F DoCkMO=F.
 Initial guess orbital symmetries:
       Occupied  (A') (A') (A') (A') (A') (A') (A') (A') (A') (A')
                 (A") (A') (A") (A') (A") (A')
       Virtual   (A") (A') (A') (A') (A') (A") (A') (A') (A') (A')
                 (A") (A') (A") (A') (A') (A") (A') (A') (A") (A')
                 (A') (A') (A') (A') (A") (A') (A') (A') (A") (A')
                 (A') (A") (A") (A') (A') (A") (A') (A") (A') (A")
                 (A') (A") (A') (A") (A') (A') (A') (A") (A') (A')
                 (A') (A") (A') (A") (A') (A") (A') (A') (A') (A")
                 (A') (A') (A") (A') (A') (A') (A") (A") (A') (A')
                 (A") (A') (A") (A") (A') (A') (A") (A') (A') (A')
                 (A") (A') (A') (A") (A') (A") (A') (A") (A') (A')
                 (A') (A") (A') (A") (A') (A') (A") (A') (A") (A')
                 (A") (A') (A') (A") (A") (A') (A') (A') (A") (A')
                 (A") (A') (A') (A') (A") (A') (A') (A') (A") (A')
                 (A") (A') (A') (A") (A") (A") (A") (A') (A') (A')
                 (A') (A') (A') (A") (A') (A") (A') (A") (A') (A')
                 (A") (A") (A') (A') (A') (A") (A') (A') (A') (A")
                 (A') (A') (A') (A") (A') (A") (A") (A') (A') (A")
                 (A') (A") (A") (A') (A") (A') (A') (A") (A") (A')
                 (A") (A") (A") (A') (A") (A') (A') (A') (A") (A')
                 (A') (A') (A') (A') (A') (A') (A') (A') (A') (A')
                 (A')
 The electronic state of the initial guess is 1-A'.
 Leave Link  401 at Sun Mar  6 19:23:20 2022, MaxMem= 16106127360 cpu:               7.4 elap:               0.3
 (Enter /sw/contrib/gaussian/g16/B01/g16/l502.exe)
 Keep R1 ints in memory in symmetry-blocked form, NReq=348887737.
 FoFCou: FMM=F IPFlag=           0 FMFlag=           0 FMFlg1=           0
         NFxFlg=           0 DoJE=F BraDBF=F KetDBF=F FulRan=T
         wScrn=  0.000000 ICntrl=       600 IOpCl=  0 I1Cent=           0 NGrid=           0
         NMat0=    1 NMatS0=  21528 NMatT0=    0 NMatD0=    1 NMtDS0=    0 NMtDT0=    0
 Petite list used in FoFCou.
 Closed shell SCF:
 Using DIIS extrapolation, IDIIS=  1040.
 NGot= 16106127360 LenX= 15988850015 LenY= 15988789549
 Requested convergence on RMS density matrix=1.00D-08 within 128 cycles.
 Requested convergence on MAX density matrix=1.00D-06.
 Requested convergence on             energy=1.00D-06.
 No special actions if energy rises.

 Cycle   1  Pass 1  IDiag  1:
 E= -279.364047628742    
 DIIS: error= 2.74D-02 at cycle   1 NSaved=   1.
 NSaved= 1 IEnMin= 1 EnMin= -279.364047628742     IErMin= 1 ErrMin= 2.74D-02
 ErrMax= 2.74D-02  0.00D+00 EMaxC= 1.00D-01 BMatC= 4.50D-01 BMatP= 4.50D-01
 IDIUse=3 WtCom= 7.26D-01 WtEn= 2.74D-01
 Coeff-Com:  0.100D+01
 Coeff-En:   0.100D+01
 Coeff:      0.100D+01
 Gap=     0.497 Goal=   None    Shift=    0.000
 GapD=    0.497 DampG=2.000 DampE=0.500 DampFc=1.0000 IDamp=-1.
 RMSDP=1.68D-03 MaxDP=8.81D-02              OVMax= 1.23D-01

 Cycle   2  Pass 1  IDiag  1:
 E= -279.446195689764     Delta-E=       -0.082148061022 Rises=F Damp=F
 DIIS: error= 1.95D-02 at cycle   2 NSaved=   2.
 NSaved= 2 IEnMin= 2 EnMin= -279.446195689764     IErMin= 2 ErrMin= 1.95D-02
 ErrMax= 1.95D-02  0.00D+00 EMaxC= 1.00D-01 BMatC= 8.57D-02 BMatP= 4.50D-01
 IDIUse=3 WtCom= 8.05D-01 WtEn= 1.95D-01
 Coeff-Com:  0.218D+00 0.782D+00
 Coeff-En:   0.753D-01 0.925D+00
 Coeff:      0.190D+00 0.810D+00
 Gap=     0.562 Goal=   None    Shift=    0.000
 RMSDP=9.67D-04 MaxDP=3.70D-02 DE=-8.21D-02 OVMax= 9.13D-02

 Cycle   3  Pass 1  IDiag  1:
 E= -279.483819377095     Delta-E=       -0.037623687331 Rises=F Damp=F
 DIIS: error= 1.13D-02 at cycle   3 NSaved=   3.
 NSaved= 3 IEnMin= 3 EnMin= -279.483819377095     IErMin= 3 ErrMin= 1.13D-02
 ErrMax= 1.13D-02  0.00D+00 EMaxC= 1.00D-01 BMatC= 3.10D-02 BMatP= 8.57D-02
 IDIUse=3 WtCom= 8.87D-01 WtEn= 1.13D-01
 Coeff-Com: -0.347D-01 0.365D+00 0.670D+00
 Coeff-En:   0.000D+00 0.218D+00 0.782D+00
 Coeff:     -0.308D-01 0.348D+00 0.682D+00
 Gap=     0.541 Goal=   None    Shift=    0.000
 RMSDP=4.11D-04 MaxDP=1.59D-02 DE=-3.76D-02 OVMax= 3.88D-02

 Cycle   4  Pass 1  IDiag  1:
 E= -279.504964988893     Delta-E=       -0.021145611798 Rises=F Damp=F
 DIIS: error= 1.66D-03 at cycle   4 NSaved=   4.
 NSaved= 4 IEnMin= 4 EnMin= -279.504964988893     IErMin= 4 ErrMin= 1.66D-03
 ErrMax= 1.66D-03  0.00D+00 EMaxC= 1.00D-01 BMatC= 6.03D-04 BMatP= 3.10D-02
 IDIUse=3 WtCom= 9.83D-01 WtEn= 1.66D-02
 Coeff-Com: -0.120D-01 0.474D-01 0.155D+00 0.810D+00
 Coeff-En:   0.000D+00 0.000D+00 0.000D+00 0.100D+01
 Coeff:     -0.118D-01 0.467D-01 0.152D+00 0.813D+00
 Gap=     0.528 Goal=   None    Shift=    0.000
 RMSDP=9.88D-05 MaxDP=2.31D-03 DE=-2.11D-02 OVMax= 1.18D-02

 Cycle   5  Pass 1  IDiag  1:
 E= -279.505778207349     Delta-E=       -0.000813218456 Rises=F Damp=F
 DIIS: error= 1.11D-03 at cycle   5 NSaved=   5.
 NSaved= 5 IEnMin= 5 EnMin= -279.505778207349     IErMin= 5 ErrMin= 1.11D-03
 ErrMax= 1.11D-03  0.00D+00 EMaxC= 1.00D-01 BMatC= 1.03D-04 BMatP= 6.03D-04
 IDIUse=3 WtCom= 9.89D-01 WtEn= 1.11D-02
 Coeff-Com:  0.540D-02-0.663D-01-0.111D+00 0.598D-01 0.111D+01
 Coeff-En:   0.000D+00 0.000D+00 0.000D+00 0.000D+00 0.100D+01
 Coeff:      0.534D-02-0.655D-01-0.110D+00 0.591D-01 0.111D+01
 Gap=     0.532 Goal=   None    Shift=    0.000
 RMSDP=8.00D-05 MaxDP=2.12D-03 DE=-8.13D-04 OVMax= 1.29D-02

 Cycle   6  Pass 1  IDiag  1:
 E= -279.506141920094     Delta-E=       -0.000363712745 Rises=F Damp=F
 DIIS: error= 3.35D-04 at cycle   6 NSaved=   6.
 NSaved= 6 IEnMin= 6 EnMin= -279.506141920094     IErMin= 6 ErrMin= 3.35D-04
 ErrMax= 3.35D-04  0.00D+00 EMaxC= 1.00D-01 BMatC= 2.41D-05 BMatP= 1.03D-04
 IDIUse=3 WtCom= 9.97D-01 WtEn= 3.35D-03
 Coeff-Com:  0.188D-02-0.708D-02-0.179D-01-0.183D+00 0.124D-01 0.119D+01
 Coeff-En:   0.000D+00 0.000D+00 0.000D+00 0.000D+00 0.000D+00 0.100D+01
 Coeff:      0.188D-02-0.705D-02-0.178D-01-0.182D+00 0.123D-01 0.119D+01
 Gap=     0.532 Goal=   None    Shift=    0.000
 RMSDP=4.67D-05 MaxDP=1.07D-03 DE=-3.64D-04 OVMax= 6.10D-03

 Cycle   7  Pass 1  IDiag  1:
 E= -279.506227843792     Delta-E=       -0.000085923699 Rises=F Damp=F
 DIIS: error= 1.28D-04 at cycle   7 NSaved=   7.
 NSaved= 7 IEnMin= 7 EnMin= -279.506227843792     IErMin= 7 ErrMin= 1.28D-04
 ErrMax= 1.28D-04  0.00D+00 EMaxC= 1.00D-01 BMatC= 3.56D-06 BMatP= 2.41D-05
 IDIUse=3 WtCom= 9.99D-01 WtEn= 1.28D-03
 Coeff-Com: -0.109D-02 0.114D-01 0.250D-01 0.163D-01-0.181D+00-0.151D+00
 Coeff-Com:  0.128D+01
 Coeff-En:   0.000D+00 0.000D+00 0.000D+00 0.000D+00 0.000D+00 0.000D+00
 Coeff-En:   0.100D+01
 Coeff:     -0.109D-02 0.114D-01 0.249D-01 0.163D-01-0.180D+00-0.151D+00
 Coeff:      0.128D+01
 Gap=     0.533 Goal=   None    Shift=    0.000
 RMSDP=1.75D-05 MaxDP=5.11D-04 DE=-8.59D-05 OVMax= 2.33D-03

 Cycle   8  Pass 1  IDiag  1:
 E= -279.506239816581     Delta-E=       -0.000011972788 Rises=F Damp=F
 DIIS: error= 4.71D-05 at cycle   8 NSaved=   8.
 NSaved= 8 IEnMin= 8 EnMin= -279.506239816581     IErMin= 8 ErrMin= 4.71D-05
 ErrMax= 4.71D-05  0.00D+00 EMaxC= 1.00D-01 BMatC= 5.99D-07 BMatP= 3.56D-06
 IDIUse=1 WtCom= 1.00D+00 WtEn= 0.00D+00
 Coeff-Com: -0.560D-03 0.410D-02 0.971D-02 0.248D-01-0.567D-01-0.193D+00
 Coeff-Com:  0.354D+00 0.858D+00
 Coeff:     -0.560D-03 0.410D-02 0.971D-02 0.248D-01-0.567D-01-0.193D+00
 Coeff:      0.354D+00 0.858D+00
 Gap=     0.533 Goal=   None    Shift=    0.000
 RMSDP=5.44D-06 MaxDP=1.54D-04 DE=-1.20D-05 OVMax= 6.49D-04

 Cycle   9  Pass 1  IDiag  1:
 E= -279.506241193000     Delta-E=       -0.000001376420 Rises=F Damp=F
 DIIS: error= 2.43D-05 at cycle   9 NSaved=   9.
 NSaved= 9 IEnMin= 9 EnMin= -279.506241193000     IErMin= 9 ErrMin= 2.43D-05
 ErrMax= 2.43D-05  0.00D+00 EMaxC= 1.00D-01 BMatC= 1.17D-07 BMatP= 5.99D-07
 IDIUse=1 WtCom= 1.00D+00 WtEn= 0.00D+00
 Coeff-Com:  0.241D-03-0.256D-02-0.533D-02-0.558D-02 0.468D-01 0.490D-01
 Coeff-Com: -0.340D+00 0.322D-01 0.122D+01
 Coeff:      0.241D-03-0.256D-02-0.533D-02-0.558D-02 0.468D-01 0.490D-01
 Coeff:     -0.340D+00 0.322D-01 0.122D+01
 Gap=     0.533 Goal=   None    Shift=    0.000
 RMSDP=2.46D-06 MaxDP=6.70D-05 DE=-1.38D-06 OVMax= 2.58D-04

 Cycle  10  Pass 1  IDiag  1:
 E= -279.506241456564     Delta-E=       -0.000000263563 Rises=F Damp=F
 DIIS: error= 5.75D-06 at cycle  10 NSaved=  10.
 NSaved=10 IEnMin=10 EnMin= -279.506241456564     IErMin=10 ErrMin= 5.75D-06
 ErrMax= 5.75D-06  0.00D+00 EMaxC= 1.00D-01 BMatC= 8.23D-09 BMatP= 1.17D-07
 IDIUse=1 WtCom= 1.00D+00 WtEn= 0.00D+00
 Coeff-Com: -0.375D-04 0.487D-03 0.118D-02-0.188D-02-0.108D-01 0.552D-02
 Coeff-Com:  0.714D-01-0.537D-01-0.431D+00 0.142D+01
 Coeff:     -0.375D-04 0.487D-03 0.118D-02-0.188D-02-0.108D-01 0.552D-02
 Coeff:      0.714D-01-0.537D-01-0.431D+00 0.142D+01
 Gap=     0.533 Goal=   None    Shift=    0.000
 RMSDP=7.02D-07 MaxDP=2.53D-05 DE=-2.64D-07 OVMax= 7.52D-05

 Cycle  11  Pass 1  IDiag  1:
 E= -279.506241481386     Delta-E=       -0.000000024822 Rises=F Damp=F
 DIIS: error= 2.22D-06 at cycle  11 NSaved=  11.
 NSaved=11 IEnMin=11 EnMin= -279.506241481386     IErMin=11 ErrMin= 2.22D-06
 ErrMax= 2.22D-06  0.00D+00 EMaxC= 1.00D-01 BMatC= 8.45D-10 BMatP= 8.23D-09
 IDIUse=1 WtCom= 1.00D+00 WtEn= 0.00D+00
 Coeff-Com: -0.166D-04 0.169D-03 0.352D-03 0.882D-03-0.223D-02-0.720D-02
 Coeff-Com:  0.194D-01 0.191D-01-0.523D-01-0.317D+00 0.134D+01
 Coeff:     -0.166D-04 0.169D-03 0.352D-03 0.882D-03-0.223D-02-0.720D-02
 Coeff:      0.194D-01 0.191D-01-0.523D-01-0.317D+00 0.134D+01
 Gap=     0.533 Goal=   None    Shift=    0.000
 RMSDP=2.44D-07 MaxDP=9.04D-06 DE=-2.48D-08 OVMax= 2.85D-05

 Cycle  12  Pass 1  IDiag  1:
 E= -279.506241484408     Delta-E=       -0.000000003022 Rises=F Damp=F
 DIIS: error= 7.37D-07 at cycle  12 NSaved=  12.
 NSaved=12 IEnMin=12 EnMin= -279.506241484408     IErMin=12 ErrMin= 7.37D-07
 ErrMax= 7.37D-07  0.00D+00 EMaxC= 1.00D-01 BMatC= 8.99D-11 BMatP= 8.45D-10
 IDIUse=1 WtCom= 1.00D+00 WtEn= 0.00D+00
 Coeff-Com:  0.254D-05-0.450D-04-0.978D-04 0.147D-03 0.114D-02-0.837D-03
 Coeff-Com: -0.728D-02 0.676D-02 0.415D-01-0.119D+00-0.174D+00 0.125D+01
 Coeff:      0.254D-05-0.450D-04-0.978D-04 0.147D-03 0.114D-02-0.837D-03
 Coeff:     -0.728D-02 0.676D-02 0.415D-01-0.119D+00-0.174D+00 0.125D+01
 Gap=     0.533 Goal=   None    Shift=    0.000
 RMSDP=8.58D-08 MaxDP=2.81D-06 DE=-3.02D-09 OVMax= 9.98D-06

 Cycle  13  Pass 1  IDiag  1:
 E= -279.506241484722     Delta-E=       -0.000000000314 Rises=F Damp=F
 DIIS: error= 1.66D-07 at cycle  13 NSaved=  13.
 NSaved=13 IEnMin=13 EnMin= -279.506241484722     IErMin=13 ErrMin= 1.66D-07
 ErrMax= 1.66D-07  0.00D+00 EMaxC= 1.00D-01 BMatC= 7.57D-12 BMatP= 8.99D-11
 IDIUse=1 WtCom= 1.00D+00 WtEn= 0.00D+00
 Coeff-Com:  0.134D-05-0.128D-04-0.187D-04-0.122D-03 0.556D-04 0.940D-03
 Coeff-Com: -0.113D-02-0.253D-02-0.166D-02 0.546D-01-0.129D+00-0.151D+00
 Coeff-Com:  0.123D+01
 Coeff:      0.134D-05-0.128D-04-0.187D-04-0.122D-03 0.556D-04 0.940D-03
 Coeff:     -0.113D-02-0.253D-02-0.166D-02 0.546D-01-0.129D+00-0.151D+00
 Coeff:      0.123D+01
 Gap=     0.533 Goal=   None    Shift=    0.000
 RMSDP=2.29D-08 MaxDP=6.82D-07 DE=-3.14D-10 OVMax= 2.09D-06

 Cycle  14  Pass 1  IDiag  1:
 E= -279.506241484742     Delta-E=       -0.000000000020 Rises=F Damp=F
 DIIS: error= 4.13D-08 at cycle  14 NSaved=  14.
 NSaved=14 IEnMin=14 EnMin= -279.506241484742     IErMin=14 ErrMin= 4.13D-08
 ErrMax= 4.13D-08  0.00D+00 EMaxC= 1.00D-01 BMatC= 5.01D-13 BMatP= 7.57D-12
 IDIUse=1 WtCom= 1.00D+00 WtEn= 0.00D+00
 Coeff-Com: -0.297D-06 0.446D-05 0.897D-05-0.480D-05-0.114D-03 0.672D-04
 Coeff-Com:  0.645D-03-0.342D-03-0.363D-02 0.840D-02 0.165D-01-0.896D-01
 Coeff-Com: -0.229D-01 0.109D+01
 Coeff:     -0.297D-06 0.446D-05 0.897D-05-0.480D-05-0.114D-03 0.672D-04
 Coeff:      0.645D-03-0.342D-03-0.363D-02 0.840D-02 0.165D-01-0.896D-01
 Coeff:     -0.229D-01 0.109D+01
 Gap=     0.533 Goal=   None    Shift=    0.000
 RMSDP=4.45D-09 MaxDP=1.11D-07 DE=-2.02D-11 OVMax= 4.73D-07

 SCF Done:  E(RHF) =  -279.506241485     A.U. after   14 cycles
            NFock= 14  Conv=0.45D-08     -V/T= 2.0022
 KE= 2.788885019062D+02 PE=-9.064372274920D+02 EE= 2.252545020344D+02
 Leave Link  502 at Sun Mar  6 19:23:23 2022, MaxMem= 16106127360 cpu:              49.6 elap:               3.2
 (Enter /sw/contrib/gaussian/g16/B01/g16/l801.exe)
 ExpMin= 2.53D-02 ExpMax= 1.53D+04 ExpMxC= 5.22D+02 IAcc=3 IRadAn=         5 AccDes= 0.00D+00
 HarFok:  IExCor=  205 AccDes= 0.00D+00 IRadAn=         5 IDoV=-2 UseB2=F ITyADJ=14
 ICtDFT= 12500011 ScaDFX=  1.000000  1.000000  1.000000  1.000000
 DSYEVD-2 returned Info=          93 IAlg= 4 N=    46 NDim=    46 NE2=   350130240 trying  DSYEV.
 DSYEVD-2 returned Info=          93 IAlg= 4 N=    46 NDim=    46 NE2=   350130240 trying  DSYEV.
 Largest valence mixing into a core orbital is  2.07D-04
 Largest core mixing into a valence orbital is  3.11D-05
 Range of M.O.s used for correlation:     5   207
 NBasis=   207 NAE=    16 NBE=    16 NFC=     4 NFV=     0
 NROrb=    203 NOA=    12 NOB=    12 NVA=   191 NVB=   191

 **** Warning!!: The largest alpha MO coefficient is  0.16496776D+02

 Leave Link  801 at Sun Mar  6 19:23:23 2022, MaxMem= 16106127360 cpu:               1.4 elap:               0.1
 (Enter /sw/contrib/gaussian/g16/B01/g16/l906.exe)
 Frozen-core derivative calculation, NFC=   4 NFV=   0.
 FulOut=F Deriv=T AODrv=T NAtomX=     5
   MMem=           0  MDisk=          12 MDiskD=          12
  W3Min=      811440 MinDsk=     2425030 NBas6D=         245
 NBas2D=       30762    NTT=       30135    LW2=     7400000
    MDV= 16105571532 MDiskM=      328644 NBas2p=       30759
 Disk-based method using ON**2 memory for 12 occupieds at a time.
 Permanent disk used for amplitudes=    11516536 words.
 Estimated scratch disk usage=   321863743 words.
 IMap=   1   2   3   4   5   6   7   8   9  10  11  12  13  14  15  16
 Actual    scratch disk usage=   310892607 words.
 JobTyp=1 Pass  1:  I=   5 to  16 NPSUse= 28 ParTrn=T ParDer=T DoDerP=T.
 (rs|ai) integrals will be sorted in core.
 Spin components of T(2) and E(2):
     alpha-alpha T2 =       0.3481424942D-01 E2=     -0.1245926130D+00
     alpha-beta  T2 =       0.1845276481D+00 E2=     -0.6997911740D+00
     beta-beta   T2 =       0.3481424942D-01 E2=     -0.1245926130D+00
 The integrals were generated   1 times.
 ANorm=    0.1119891132D+01
 E2 =    -0.9489763999D+00 EUMP2 =    -0.28045521788469D+03
 Leave Link  906 at Sun Mar  6 19:24:57 2022, MaxMem= 16106127360 cpu:            2622.7 elap:              93.9
 (Enter /sw/contrib/gaussian/g16/B01/g16/l1101.exe)
 Using compressed Sx but separate Hx and Fx, NAtomX=     5.
 Will process      6 centers per pass.
 Leave Link 1101 at Sun Mar  6 19:24:57 2022, MaxMem= 16106127360 cpu:               5.2 elap:               0.2
 (Enter /sw/contrib/gaussian/g16/B01/g16/l1102.exe)
 Leave Link 1102 at Sun Mar  6 19:24:57 2022, MaxMem= 16106127360 cpu:               1.4 elap:               0.1
 (Enter /sw/contrib/gaussian/g16/B01/g16/l1110.exe)
 Forming Gx(P) for the SCF density, NAtomX=     5.
 Integral derivatives from FoFJK, PRISM(SPDF).
 Do as many integral derivatives as possible in FoFJK.
 G2DrvN: MDV=   16106126844.
 G2DrvN: will do     6 centers at a time, making    1 passes.
 Calling FoFCou, ICntrl=  3107 FMM=F I1Cent=   0 AccDes= 0.00D+00.
 FoFJK:  IHMeth= 1 ICntrl=    3107 DoSepK=F KAlg= 0 I1Cent=           0 FoldK=F
 IRaf=         0 NMat=       1 IRICut=       1 DoRegI=T DoRafI=F ISym2E= 1 IDoP0=0 IntGTp=1.
 FoFCou: FMM=F IPFlag=           0 FMFlag=      100000 FMFlg1=           0
         NFxFlg=           0 DoJE=F BraDBF=F KetDBF=F FulRan=T
         wScrn=  0.000000 ICntrl=      3107 IOpCl=  0 I1Cent=           0 NGrid=           0
         NMat0=    1 NMatS0=      1 NMatT0=    0 NMatD0=    1 NMtDS0=    0 NMtDT0=    0
 Petite list used in FoFCou.
 End of G2Drv F.D. properties file   721 does not exist.
 End of G2Drv F.D. properties file   722 does not exist.
 End of G2Drv F.D. properties file   788 does not exist.
 Leave Link 1110 at Sun Mar  6 19:25:00 2022, MaxMem= 16106127360 cpu:              80.5 elap:               2.9
 (Enter /sw/contrib/gaussian/g16/B01/g16/l1002.exe)
 Minotr:  Closed shell wavefunction.
          IDoAtm=11111
          Frozen-core window.
          Direct CPHF calculation.
          Differentiating once with respect to electric field.
                with respect to dipole field.
          Differentiating once with respect to nuclear coordinates.
          Requested convergence is 1.0D-08 RMS, and 1.0D-07 maximum.
          Secondary convergence is 1.0D-12 RMS, and 1.0D-12 maximum.
          NewPWx=T KeepS1=T KeepF1=T KeepIn=T MapXYZ=F SortEE=F KeepMc=T.
 Keep R1 ints in memory in symmetry-blocked form, NReq=348888983.
 FoFCou: FMM=F IPFlag=           0 FMFlag=           0 FMFlg1=           0
         NFxFlg=           0 DoJE=F BraDBF=F KetDBF=F FulRan=T
         wScrn=  0.000000 ICntrl=       600 IOpCl=  0 I1Cent=           0 NGrid=           0
         NMat0=    1 NMatS0=  21528 NMatT0=    0 NMatD0=    1 NMtDS0=    0 NMtDT0=    0
 Petite list used in FoFCou.
          MDV=   16106127360 using IRadAn=       1.
          Solving linear equations simultaneously, MaxMat=       0.
          There are    18 degrees of freedom in the 1st order CPHF.  IDoFFX=6 NUNeed=    18.
     15 vectors produced by pass  0 Test12= 1.70D-14 5.56D-09 XBig12= 7.90D+00 1.23D+00.
 AX will form    15 AO Fock derivatives at one time.
     15 vectors produced by pass  1 Test12= 1.70D-14 5.56D-09 XBig12= 1.35D+00 2.24D-01.
     15 vectors produced by pass  2 Test12= 1.70D-14 5.56D-09 XBig12= 6.76D-02 5.75D-02.
     15 vectors produced by pass  3 Test12= 1.70D-14 5.56D-09 XBig12= 1.91D-03 1.05D-02.
     15 vectors produced by pass  4 Test12= 1.70D-14 5.56D-09 XBig12= 4.20D-05 1.24D-03.
     15 vectors produced by pass  5 Test12= 1.70D-14 5.56D-09 XBig12= 5.78D-07 1.16D-04.
     15 vectors produced by pass  6 Test12= 1.70D-14 5.56D-09 XBig12= 4.45D-09 1.16D-05.
     14 vectors produced by pass  7 Test12= 1.70D-14 5.56D-09 XBig12= 3.41D-11 7.41D-07.
      3 vectors produced by pass  8 Test12= 1.70D-14 5.56D-09 XBig12= 2.41D-13 6.08D-08.
      1 vectors produced by pass  9 Test12= 1.70D-14 5.56D-09 XBig12= 1.64D-15 7.01D-09.
 InvSVY:  IOpt=1 It=  1 EMax= 1.67D-15
 Solved reduced A of dimension   123 with    15 vectors.
 FullF1:  Do perturbations      1 to      18.
 Saving first derivative matrices.
 End of Minotr F.D. properties file   721 does not exist.
 End of Minotr F.D. properties file   722 does not exist.
 End of Minotr F.D. properties file   788 does not exist.
 Leave Link 1002 at Sun Mar  6 19:25:03 2022, MaxMem= 16106127360 cpu:              73.7 elap:               2.8
 (Enter /sw/contrib/gaussian/g16/B01/g16/l811.exe)
 MDV= 16106127360.
 Form MO integral derivatives with frozen-active canonical formalism.
 MOERI=1 MOERIx=1 NAtoms=     5 NAtomX=     5.
 Discarding MO integrals.
 MO basis two electron integral derivatives will not be stored on disk.
 IAlg= 3 DoFC=T DoPWx=T Debug=F.
 Frozen-core window:  NFC=   4 NFV=   0.
 Reordered first order wavefunction length =     18678272
 In DefCFB: NBatch=  1 ICI= 16 ICA=191 LFMax= 96
            Large arrays: LIAPS=   619940160 LIARS=   288257200 words.
 In StABat: MaxSiz= 55 MinSiz= 25 NAtomB=  5
 DoIAMN: NPSUse= 28.
 Leave Link  811 at Sun Mar  6 19:26:33 2022, MaxMem= 16106127360 cpu:            2499.3 elap:              89.5
 (Enter /sw/contrib/gaussian/g16/B01/g16/l804.exe)
 Frozen-core window:  NFC=   4 NFV=   0.
 Closed-shell transformation, MDV= 16106127360 ITran=4 ISComp=1.
 Semi-Direct transformation.
 ModeAB=           2 MOrb=            16 LenV=   16104919911
 LASXX=     67341636 LTotXX=    67341636 LenRXX=    67341636
 LTotAB=    68301760 MaxLAS=    99807120 LenRXY=    99807120
 NonZer=   134683272 LenScr=   202817536 LnRSAI=           0
 LnScr1=           0 LExtra=           0 Total=    369966292
 MaxDsk=          -1 SrtSym=           F ITran=            4
 DoSDTr:  NPSUse= 28
 JobTyp=0 Pass  1:  I=   1 to  16.
 (rs|ai) integrals will be sorted in core.
 Complete sort for first half transformation.
 First half transformation complete.
 Begin second half transformation for I=  10.
 Begin second half transformation for I=  10.
 Complete sort for second half transformation.
 Second half transformation complete.
 Spin components of T(2) and E(2):
     alpha-alpha T2 =       0.3481424942D-01 E2=     -0.1245926130D+00
     alpha-beta  T2 =       0.1845276481D+00 E2=     -0.6997911740D+00
     beta-beta   T2 =       0.3481424942D-01 E2=     -0.1245926130D+00
 ANorm=    0.1583765227D+01
 E2 =    -0.9489763999D+00 EUMP2 =    -0.28045521788469D+03
 Leave Link  804 at Sun Mar  6 19:26:49 2022, MaxMem= 16106127360 cpu:             440.9 elap:              15.8
 (Enter /sw/contrib/gaussian/g16/B01/g16/l1002.exe)
 Minotr:  Closed shell wavefunction.
          Computing MP2/KS-MP2 derivatives.
          Using Z-Vector for PSCF gradient.
          Skipping F1 and S1 gradient terms here.
          IDoAtm=11111
          Frozen-core window.
          Using MO integrals in the linear equations.
          Forming densities via direct SCF.
          Differentiating once with respect to electric field.
                with respect to dipole field.
          Differentiating once with respect to nuclear coordinates.
          Using symmetry in CPHF.
          Requested convergence is 1.0D-10 RMS, and 1.0D-09 maximum.
          NewPWx=F KeepS1=T KeepF1=T KeepIn=T MapXYZ=F SortEE=F KeepMc=T.
          MDV=   16106127360 using IRadAn=       5.
          Solving linear equations separately, MaxMat=       0.
          There are     1 degrees of freedom in the 1st order CPHF.  IDoFFX=0 NUNeed=     1.
 FoFJK:  IHMeth= 1 ICntrl=       0 DoSepK=F KAlg= 0 I1Cent=           0 FoldK=F
 IRaf=         0 NMat=       1 IRICut=       1 DoRegI=T DoRafI=F ISym2E= 0 IDoP0=0 IntGTp=1.
 FoFCou: FMM=F IPFlag=           0 FMFlag=      100000 FMFlg1=           0
         NFxFlg=           0 DoJE=F BraDBF=F KetDBF=F FulRan=T
         wScrn=  0.000000 ICntrl=         0 IOpCl=  0 I1Cent=           0 NGrid=           0
         NMat0=    1 NMatS0=      1 NMatT0=    0 NMatD0=    1 NMtDS0=    0 NMtDT0=    0
 Symmetry not used in FoFCou.
 LinEq1:  Iter=  0 NonCon=     1 RMS=6.60D-03 Max=1.71D-01 NDo=     1
 LinEq1:  Iter=  1 NonCon=     1 RMS=2.00D-03 Max=3.06D-02 NDo=     1
 LinEq1:  Iter=  2 NonCon=     1 RMS=8.89D-04 Max=1.44D-02 NDo=     1
 LinEq1:  Iter=  3 NonCon=     1 RMS=3.79D-04 Max=8.08D-03 NDo=     1
 LinEq1:  Iter=  4 NonCon=     1 RMS=1.37D-04 Max=1.66D-03 NDo=     1
 LinEq1:  Iter=  5 NonCon=     1 RMS=7.64D-05 Max=1.39D-03 NDo=     1
 LinEq1:  Iter=  6 NonCon=     1 RMS=2.44D-05 Max=2.92D-04 NDo=     1
 LinEq1:  Iter=  7 NonCon=     1 RMS=8.22D-06 Max=1.11D-04 NDo=     1
 LinEq1:  Iter=  8 NonCon=     1 RMS=4.01D-06 Max=6.21D-05 NDo=     1
 LinEq1:  Iter=  9 NonCon=     1 RMS=1.04D-06 Max=1.20D-05 NDo=     1
 LinEq1:  Iter= 10 NonCon=     1 RMS=2.32D-07 Max=2.93D-06 NDo=     1
 LinEq1:  Iter= 11 NonCon=     1 RMS=4.97D-08 Max=8.14D-07 NDo=     1
 LinEq1:  Iter= 12 NonCon=     1 RMS=1.17D-08 Max=1.76D-07 NDo=     1
 LinEq1:  Iter= 13 NonCon=     1 RMS=2.06D-09 Max=2.31D-08 NDo=     1
 LinEq1:  Iter= 14 NonCon=     1 RMS=4.29D-10 Max=5.68D-09 NDo=     1
 LinEq1:  Iter= 15 NonCon=     0 RMS=8.79D-11 Max=9.27D-10 NDo=     1
 Linear equations converged to 1.000D-10 1.000D-09 after    15 iterations.
 End of Minotr F.D. properties file   721 does not exist.
 End of Minotr F.D. properties file   722 does not exist.
 End of Minotr F.D. properties file   788 does not exist.
 Leave Link 1002 at Sun Mar  6 19:26:51 2022, MaxMem= 16106127360 cpu:              73.4 elap:               2.7
 (Enter /sw/contrib/gaussian/g16/B01/g16/l1102.exe)
 Use density number 2.
 Symmetrizing basis deriv contribution to polar:
 IMax=3 JMax=2 DiffMx= 0.00D+00
 Leave Link 1102 at Sun Mar  6 19:26:51 2022, MaxMem= 16106127360 cpu:               0.7 elap:               0.1
 (Enter /sw/contrib/gaussian/g16/B01/g16/l1110.exe)
 Forming Gx(P) for generalized density number  2 NAtomX=     5.
 Integral derivatives from FoFJK, PRISM(SPDF).
 Do as many integral derivatives as possible in FoFJK.
 G2DrvN: MDV=   16106126844.
 G2DrvN: will do     6 centers at a time, making    1 passes.
 Calling FoFCou, ICntrl=  3107 FMM=F I1Cent=   0 AccDes= 0.00D+00.
 FoFJK:  IHMeth= 1 ICntrl=    3107 DoSepK=F KAlg= 0 I1Cent=           0 FoldK=F
 IRaf=         0 NMat=       1 IRICut=       1 DoRegI=T DoRafI=F ISym2E= 1 IDoP0=0 IntGTp=1.
 FoFCou: FMM=F IPFlag=           0 FMFlag=      100000 FMFlg1=           0
         NFxFlg=           0 DoJE=F BraDBF=F KetDBF=F FulRan=T
         wScrn=  0.000000 ICntrl=      3107 IOpCl=  0 I1Cent=           0 NGrid=           0
         NMat0=    1 NMatS0=      1 NMatT0=    0 NMatD0=    1 NMtDS0=    0 NMtDT0=    0
 Petite list used in FoFCou.
 End of G2Drv F.D. properties file   721 does not exist.
 End of G2Drv F.D. properties file   722 does not exist.
 End of G2Drv F.D. properties file   788 does not exist.
 Leave Link 1110 at Sun Mar  6 19:26:54 2022, MaxMem= 16106127360 cpu:              79.7 elap:               2.9
 (Enter /sw/contrib/gaussian/g16/B01/g16/l1112.exe)
 MP22nd: MDV=   16106127360
 This link is doing NAtomX=     5 total of    18 degrees of freedom.
 Using ON3 I/O method in MakUI.
 Frozen-core window:  NFC=   4 NFV=   0.
 Using Ix for Sx.
 Use MO integrals over full window.
 Using OV2 memory method for fx*t*t/D, MaxI=    16 DoOO2=F NP=  28.
 R2 and R3 integrals will be kept in memory, NReq=   915591705.
 FoFCou: FMM=F IPFlag=           0 FMFlag=           0 FMFlg1=           0
         NFxFlg=           0 DoJE=F BraDBF=F KetDBF=F FulRan=T
         wScrn=  0.000000 ICntrl=       600 IOpCl=  0 I1Cent=           0 NGrid=           0
         NMat0=    1 NMatS0=      1 NMatT0=    0 NMatD0=    1 NMtDS0=    0 NMtDT0=    0
 Symmetry not used in FoFCou.
 DD1Dir will call FoFMem   1 times, MxPair=       272
 NAB=   136 NAA=     0 NBB=     0.
 Symmetry is being used.
 FoFJK:  IHMeth= 1 ICntrl=       0 DoSepK=F KAlg= 0 I1Cent=           0 FoldK=F
 IRaf=         0 NMat=      18 IRICut=      45 DoRegI=T DoRafI=T ISym2E= 2 IDoP0=3 IntGTp=3.
 Discarding MO integrals.
 Leave Link 1112 at Sun Mar  6 19:27:25 2022, MaxMem= 16106127360 cpu:             847.6 elap:              30.5
 (Enter /sw/contrib/gaussian/g16/B01/g16/l601.exe)
 Copying SCF densities to generalized density rwf, IOpCl= 0 IROHF=0.

 **********************************************************************

            Population analysis using the MP2 Density.

 **********************************************************************

 Orbital symmetries:
       Occupied  (A') (A') (A') (A') (A') (A') (A') (A') (A') (A')
                 (A") (A') (A') (A") (A') (A")
       Virtual   (A') (A") (A') (A') (A") (A') (A') (A') (A") (A')
                 (A") (A') (A') (A') (A") (A') (A') (A") (A') (A')
                 (A') (A') (A') (A') (A") (A') (A') (A") (A') (A')
                 (A') (A") (A") (A') (A') (A') (A") (A') (A") (A')
                 (A") (A") (A') (A') (A") (A') (A') (A") (A') (A')
                 (A') (A") (A') (A') (A") (A') (A") (A') (A') (A")
                 (A') (A') (A") (A') (A') (A') (A") (A") (A') (A')
                 (A") (A') (A") (A") (A') (A') (A") (A') (A') (A')
                 (A") (A') (A') (A") (A') (A") (A") (A') (A') (A')
                 (A') (A') (A") (A") (A') (A') (A") (A") (A') (A")
                 (A') (A') (A") (A') (A") (A') (A') (A') (A") (A")
                 (A') (A') (A') (A') (A") (A') (A') (A') (A") (A')
                 (A") (A') (A") (A') (A") (A") (A') (A") (A') (A')
                 (A') (A') (A") (A') (A') (A") (A") (A') (A') (A')
                 (A") (A") (A') (A') (A') (A") (A') (A') (A') (A")
                 (A') (A') (A') (A") (A') (A") (A") (A') (A') (A")
                 (A') (A") (A') (A") (A") (A') (A") (A') (A") (A")
                 (A') (A") (A") (A') (A') (A") (A') (A') (A") (A')
                 (A') (A') (A') (A') (A') (A') (A') (A') (A') (A')
                 (A')
 The electronic state is 1-A'.
 Alpha  occ. eigenvalues --  -20.71972 -20.68773 -20.66846 -15.82641  -1.64491
 Alpha  occ. eigenvalues --   -1.50560  -1.29383  -0.96034  -0.83539  -0.75922
 Alpha  occ. eigenvalues --   -0.74027  -0.63765  -0.61882  -0.61871  -0.50521
 Alpha  occ. eigenvalues --   -0.49759
 Alpha virt. eigenvalues --    0.03521   0.05992   0.09507   0.10035   0.11957
 Alpha virt. eigenvalues --    0.12261   0.14933   0.15244   0.17746   0.18009
 Alpha virt. eigenvalues --    0.18971   0.21092   0.21682   0.24243   0.24633
 Alpha virt. eigenvalues --    0.26882   0.31307   0.31726   0.33791   0.34393
 Alpha virt. eigenvalues --    0.34734   0.39269   0.44946   0.48990   0.50533
 Alpha virt. eigenvalues --    0.51827   0.54409   0.56086   0.59829   0.62041
 Alpha virt. eigenvalues --    0.63866   0.69028   0.71665   0.72409   0.74270
 Alpha virt. eigenvalues --    0.76423   0.76717   0.79563   0.80645   0.83888
 Alpha virt. eigenvalues --    0.84317   0.85224   0.88511   0.90805   0.93005
 Alpha virt. eigenvalues --    0.94847   0.95370   1.01885   1.03369   1.06555
 Alpha virt. eigenvalues --    1.06681   1.09600   1.14518   1.15626   1.16960
 Alpha virt. eigenvalues --    1.22214   1.22768   1.24700   1.35612   1.35639
 Alpha virt. eigenvalues --    1.37101   1.46843   1.48484   1.50378   1.54380
 Alpha virt. eigenvalues --    1.59721   1.59732   1.60472   1.62910   1.69511
 Alpha virt. eigenvalues --    1.74390   1.80078   1.82941   1.88801   1.90188
 Alpha virt. eigenvalues --    1.93092   1.97909   1.98921   2.05236   2.12459
 Alpha virt. eigenvalues --    2.13187   2.16721   2.18914   2.24310   2.26004
 Alpha virt. eigenvalues --    2.29571   2.35394   2.36734   2.38760   2.40298
 Alpha virt. eigenvalues --    2.43466   2.46946   2.47987   2.53019   2.53965
 Alpha virt. eigenvalues --    2.54884   2.55951   2.61639   2.63081   2.67260
 Alpha virt. eigenvalues --    2.67468   2.75373   2.80699   2.81541   2.84503
 Alpha virt. eigenvalues --    2.91829   2.98588   3.04762   3.05081   3.11640
 Alpha virt. eigenvalues --    3.12065   3.17610   3.21756   3.31036   3.33195
 Alpha virt. eigenvalues --    3.35957   3.48003   3.67790   3.87013   3.93623
 Alpha virt. eigenvalues --    4.18654   4.22351   4.22495   4.26853   4.36900
 Alpha virt. eigenvalues --    4.49898   4.53096   4.55558   4.60390   4.69234
 Alpha virt. eigenvalues --    4.81113   4.89828   4.91457   4.93964   4.99840
 Alpha virt. eigenvalues --    5.00526   5.10765   5.13313   5.17848   5.25188
 Alpha virt. eigenvalues --    5.25675   5.31821   5.34851   5.36282   5.54672
 Alpha virt. eigenvalues --    5.64468   5.70757   5.89223   5.99689   6.26488
 Alpha virt. eigenvalues --    6.29776   6.35913   6.37523   6.60010   6.65715
 Alpha virt. eigenvalues --    6.66171   6.69070   6.72571   6.79614   6.80600
 Alpha virt. eigenvalues --    6.85069   6.96842   7.02716   7.06631   7.07781
 Alpha virt. eigenvalues --    7.13400   7.17508   7.17796   7.20498   7.24644
 Alpha virt. eigenvalues --    7.24871   7.27211   7.35009   7.39759   7.43190
 Alpha virt. eigenvalues --    7.44188   7.46397   7.55943   7.66335   7.67178
 Alpha virt. eigenvalues --    7.79575   7.88647   7.95286   8.07235   8.31296
 Alpha virt. eigenvalues --    8.49844   8.65220  13.62040  14.77185  15.11242
 Alpha virt. eigenvalues --   15.78382
          Condensed to atoms (all electrons):
               1          2          3          4          5
     1  H    0.580829   0.123228   0.023211   0.000550  -0.003571
     2  O    0.123228   8.391144  -0.229816  -0.000900  -0.009151
     3  O    0.023211  -0.229816   8.371399  -0.169455  -0.033555
     4  N    0.000550  -0.000900  -0.169455   7.136782  -0.122054
     5  O   -0.003571  -0.009151  -0.033555  -0.122054   8.362871
 Mulliken charges:
               1
     1  H    0.275753
     2  O   -0.274505
     3  O    0.038215
     4  N    0.155077
     5  O   -0.194540
 Sum of Mulliken charges =  -0.00000
 Mulliken charges with hydrogens summed into heavy atoms:
               1
     2  O    0.001247
     3  O    0.038215
     4  N    0.155077
     5  O   -0.194540
 APT charges:
               1
     1  H    0.272180
     2  O   -0.303244
     3  O   -0.308571
     4  N    0.643123
     5  O   -0.303488
 Sum of APT charges =  -0.00000
 APT charges with hydrogens summed into heavy atoms:
               1
     2  O   -0.031064
     3  O   -0.308571
     4  N    0.643123
     5  O   -0.303488
 Electronic spatial extent (au):  <R**2>=            207.1135
 Charge=             -0.0000 electrons
 Dipole moment (field-independent basis, Debye):
    X=              0.0329    Y=             -1.0873    Z=              0.0000  Tot=              1.0878
 Quadrupole moment (field-independent basis, Debye-Ang):
   XX=            -23.4083   YY=            -22.9451   ZZ=            -21.9304
   XY=             -1.9398   XZ=              0.0000   YZ=              0.0000
 Traceless Quadrupole moment (field-independent basis, Debye-Ang):
   XX=             -0.6470   YY=             -0.1838   ZZ=              0.8309
   XY=             -1.9398   XZ=              0.0000   YZ=              0.0000
 Octapole moment (field-independent basis, Debye-Ang**2):
  XXX=              2.4911  YYY=              0.2825  ZZZ=              0.0000  XYY=              2.3419
  XXY=             -2.7627  XXZ=              0.0000  XZZ=             -0.5864  YZZ=             -0.7053
  YYZ=              0.0000  XYZ=              0.0000
 Hexadecapole moment (field-independent basis, Debye-Ang**3):
 XXXX=           -126.9554 YYYY=            -94.8004 ZZZZ=            -18.0360 XXXY=            -21.5087
 XXXZ=              0.0000 YYYX=            -19.8057 YYYZ=              0.0000 ZZZX=              0.0000
 ZZZY=              0.0000 XXYY=            -35.6284 XXZZ=            -24.3160 YYZZ=            -18.5789
 XXYZ=              0.0000 YYXZ=              0.0000 ZZXY=             -5.9269
 N-N= 1.227879820666D+02 E-N=-9.071251065788D+02  KE= 2.802054762544D+02
 Symmetry A'   KE= 2.663553224869D+02
 Symmetry A"   KE= 1.385015376743D+01
  Exact polarizability:  30.912   4.174  29.842   0.000   0.000  17.606
 Approx polarizability:  24.584   0.555  27.641  -0.000  -0.000  15.507
 No NMR shielding tensors so no spin-rotation constants.
 Leave Link  601 at Sun Mar  6 19:27:25 2022, MaxMem= 16106127360 cpu:               3.8 elap:               0.2
 (Enter /sw/contrib/gaussian/g16/B01/g16/l701.exe)
 ... and contract with generalized density number  2.
 Compute integral second derivatives.
 Leave Link  701 at Sun Mar  6 19:27:25 2022, MaxMem= 16106127360 cpu:               8.6 elap:               0.4
 (Enter /sw/contrib/gaussian/g16/B01/g16/l702.exe)
 L702 exits ... SP integral derivatives will be done elsewhere.
 Leave Link  702 at Sun Mar  6 19:27:25 2022, MaxMem= 16106127360 cpu:               1.5 elap:               0.1
 (Enter /sw/contrib/gaussian/g16/B01/g16/l703.exe)
 Integral derivatives from FoFJK, PRISM(SPDF).
 Compute integral second derivatives, UseDBF=F ICtDFT=           0.
 Calling FoFJK, ICntrl=  10100127 FMM=F ISym2X=1 I1Cent= 0 IOpClX= 0 NMat=1 NMatS=1 NMatT=0.
 FoFJK:  IHMeth= 1 ICntrl=10100127 DoSepK=F KAlg= 0 I1Cent=           0 FoldK=F
 IRaf=         0 NMat=       1 IRICut=       1 DoRegI=T DoRafI=F ISym2E= 1 IDoP0=0 IntGTp=1.
 FoFCou: FMM=F IPFlag=           0 FMFlag=      100000 FMFlg1=         800
         NFxFlg=           0 DoJE=F BraDBF=F KetDBF=F FulRan=T
         wScrn=  0.000000 ICntrl=  10100127 IOpCl=  0 I1Cent=           0 NGrid=           0
         NMat0=    1 NMatS0=      1 NMatT0=    0 NMatD0=    1 NMtDS0=    0 NMtDT0=    0
 Petite list used in FoFCou.
 Leave Link  703 at Sun Mar  6 19:27:40 2022, MaxMem= 16106127360 cpu:             395.6 elap:              14.2
 (Enter /sw/contrib/gaussian/g16/B01/g16/l716.exe)
 Dipole        = 1.29629631D-02-4.27786083D-01 0.00000000D+00
 Polarizability= 3.09117588D+01 4.17413288D+00 2.98416264D+01
                 0.00000000D+00 0.00000000D+00 1.76062429D+01
 Full mass-weighted force constant matrix:
 Low frequencies ---  -47.1695  -17.4460   -0.0014   -0.0006   -0.0006   18.9868
 Low frequencies ---  362.5672  397.5452  522.7921
 Diagonal vibrational polarizability:
        7.1766436       9.9838303      15.1862881
 Harmonic frequencies (cm**-1), IR intensities (KM/Mole), Raman scattering
 activities (A**4/AMU), depolarization ratios for plane and unpolarized
 incident light, reduced masses (AMU), force constants (mDyne/A),
 and normal coordinates:
                      1                      2                      3
                     A"                     A'                     A"
 Frequencies --    362.3774               397.5439               522.7679
 Red. masses --      1.5573                 7.1270                 2.9002
 Frc consts  --      0.1205                 0.6636                 0.4670
 IR Inten    --     61.9400                 7.8406                25.3144
  Atom  AN      X      Y      Z        X      Y      Z        X      Y      Z
     1   1     0.00  -0.00   0.98    -0.73  -0.25   0.00     0.00   0.00   0.93
     2   8    -0.00  -0.00  -0.11    -0.33  -0.32   0.00     0.00   0.00   0.05
     3   8     0.00   0.00   0.12    -0.07   0.08  -0.00     0.00  -0.00  -0.18
     4   7    -0.00  -0.00  -0.11     0.06   0.09   0.00     0.00  -0.00   0.27
     5   8     0.00   0.00   0.03     0.39   0.17  -0.00    -0.00  -0.00  -0.17
                      4                      5                      6
                     A'                     A'                     A'
 Frequencies --    712.1332               838.4323               972.1590
 Red. masses --     13.3760                12.7076                 9.7745
 Frc consts  --      3.9967                 5.2632                 5.4428
 IR Inten    --    216.5715                31.1443                12.7321
  Atom  AN      X      Y      Z        X      Y      Z        X      Y      Z
     1   1    -0.35   0.01  -0.00     0.41  -0.15   0.00    -0.63   0.00   0.00
     2   8    -0.01  -0.08   0.00     0.54  -0.21  -0.00     0.19  -0.17   0.00
     3   8     0.37   0.58  -0.00    -0.39  -0.02  -0.00    -0.36   0.41  -0.00
     4   7    -0.41  -0.46   0.00    -0.44  -0.06   0.00     0.38   0.04   0.00
     5   8     0.02  -0.10  -0.00     0.21   0.29  -0.00    -0.13  -0.28  -0.00
                      7                      8                      9
                     A'                     A'                     A'
 Frequencies --   1442.3153              1572.7619              3482.9765
 Red. masses --      1.3274                 5.7906                 1.0637
 Frc consts  --      1.6269                 8.4392                 7.6025
 IR Inten    --     80.7186               150.4418                43.8197
  Atom  AN      X      Y      Z        X      Y      Z        X      Y      Z
     1   1     0.97  -0.21  -0.00    -0.79   0.18   0.00     0.16   0.98   0.00
     2   8    -0.06  -0.05  -0.00     0.02   0.02   0.00    -0.01  -0.06  -0.00
     3   8    -0.03   0.06   0.00    -0.03  -0.06  -0.00     0.00  -0.00   0.00
     4   7     0.07  -0.06  -0.00     0.23  -0.38   0.00    -0.00   0.00   0.00
     5   8    -0.03   0.05   0.00    -0.14   0.35  -0.00     0.00  -0.00  -0.00

 -------------------
 - Thermochemistry -
 -------------------
 Temperature   298.150 Kelvin.  Pressure   1.00000 Atm.
 Atom     1 has atomic number  1 and mass   1.00783
 Atom     2 has atomic number  8 and mass  15.99491
 Atom     3 has atomic number  8 and mass  15.99491
 Atom     4 has atomic number  7 and mass  14.00307
 Atom     5 has atomic number  8 and mass  15.99491
 Molecular mass:    62.99564 amu.
 Principal axes and moments of inertia in atomic units:
                           1         2         3
     Eigenvalues --    84.44320 222.57596 307.01916
           X            0.79581  -0.60555   0.00000
           Y            0.60555   0.79581   0.00000
           Z            0.00000   0.00000   1.00000
 This molecule is an asymmetric top.
 Rotational symmetry number  1.
 Rotational temperatures (Kelvin)      1.02571     0.38914     0.28211
 Rotational constants (GHZ):          21.37225     8.10843     5.87827
 Zero-point vibrational energy      61628.4 (Joules/Mol)
                                   14.72955 (Kcal/Mol)
 Warning -- explicit consideration of   3 degrees of freedom as
           vibrations may cause significant error
 Vibrational temperatures:    521.38   571.98   752.15  1024.60  1206.32
          (Kelvin)           1398.72  2075.17  2262.85  5011.23
 
 Zero-point correction=                           0.023473 (Hartree/Particle)
 Thermal correction to Energy=                    0.027400
 Thermal correction to Enthalpy=                  0.028344
 Thermal correction to Gibbs Free Energy=        -0.002491
 Sum of electronic and zero-point Energies=           -280.431745
 Sum of electronic and thermal Energies=              -280.427818
 Sum of electronic and thermal Enthalpies=            -280.426874
 Sum of electronic and thermal Free Energies=         -280.457709
 
                     E (Thermal)             CV                S
                      KCal/Mol        Cal/Mol-Kelvin    Cal/Mol-Kelvin
 Total                   17.194             12.140             64.898
 Electronic               0.000              0.000              0.000
 Translational            0.889              2.981             38.341
 Rotational               0.889              2.981             23.272
 Vibrational             15.416              6.179              3.286
 Vibration     1          0.736              1.550              1.112
 Vibration     2          0.764              1.475              0.972
 Vibration     3          0.878              1.200              0.604
                       Q            Log10(Q)             Ln(Q)
 Total Bot       0.139911D+02          1.145852          2.638423
 Total V=0       0.876366D+12         11.942685         27.499049
 Vib (Bot)       0.261808D-10        -10.582017        -24.365995
 Vib (Bot)    1  0.504997D+00         -0.296711         -0.683202
 Vib (Bot)    2  0.449148D+00         -0.347611         -0.800403
 Vib (Bot)    3  0.307983D+00         -0.511474         -1.177711
 Vib (V=0)       0.163989D+01          0.214816          0.494632
 Vib (V=0)    1  0.121065D+01          0.083018          0.191157
 Vib (V=0)    2  0.117211D+01          0.068969          0.158807
 Vib (V=0)    3  0.108724D+01          0.036326          0.083644
 Electronic      0.100000D+01          0.000000          0.000000
 Translational   0.196526D+08          7.293420         16.793719
 Rotational      0.271925D+05          4.434450         10.210698
 
                                                                title
                                                             IR Spectrum
 
     3                                                                     1    1                                                    
     4                                                                     5    4                9    8    7     5    33             
     8                                                                     7    4                7    3    1     2    96             
     3                                                                     3    2                2    8    2     3    82             
 
     X                                                                     X    X                X    X    X     X    XX             
     X                                                                     X    X                     X    X     X     X             
     X                                                                     X    X                     X    X           X             
     X                                                                     X    X                          X           X             
                                                                           X    X                          X           X             
                                                                           X    X                          X           X             
                                                                           X    X                          X                         
                                                                           X                               X                         
                                                                           X                               X                         
                                                                           X                               X                         
                                                                           X                               X                         
                                                                           X                               X                         
                                                                           X                               X                         
                                                                           X                               X                         
                                                                                                           X                         
                                                                                                           X                         
                                                                                                           X                         
                                                                                                           X                         
                                                                                                           X                         
                                                                                                           X                         
 
 ***** Axes restored to original set *****
 -------------------------------------------------------------------
 Center     Atomic                   Forces (Hartrees/Bohr)
 Number     Number              X              Y              Z
 -------------------------------------------------------------------
      1        1          -0.001810528   -0.000000000   -0.000640625
      2        8           0.001115260   -0.000000000   -0.000691623
      3        8           0.000806708   -0.000000000    0.000733387
      4        7           0.000372200   -0.000000000    0.000980712
      5        8          -0.000483639   -0.000000000   -0.000381851
 -------------------------------------------------------------------
 Cartesian Forces:  Max     0.001810528 RMS     0.000733905
 -----------------------------------------------------------------------------------------------
                       Internal Coordinate Forces (Hartree/Bohr or radian)
  Cent   Atom   N1       Length/X         N2         Alpha/Y        N3         Beta/Z          J
 -----------------------------------------------------------------------------------------------
      1  H 
      2  O        1   0.000641(     1)
      3  O        2   0.000913(     2)      1   0.003371(     5)
      4  N        3  -0.000563(     3)      2   0.000153(     6)      1   0.000000(     8)     0
      5  O        4   0.000582(     4)      3  -0.000454(     7)      2   0.000000(     9)     0
 -----------------------------------------------------------------------------------------------
 Internal  Forces:  Max     0.003371192 RMS     0.001224519
 Force constants in Cartesian coordinates: 
                1             2             3             4             5 
      1  0.736193D-01
      2  0.000000D+00  0.615185D-02
      3  0.256781D-01  0.000000D+00  0.435317D+00
      4 -0.507923D-01  0.000000D+00 -0.495628D-02  0.279556D+00
      5  0.000000D+00 -0.307043D-02  0.000000D+00  0.000000D+00  0.134046D-01
      6  0.313582D-01  0.000000D+00 -0.419257D+00 -0.131114D-01  0.000000D+00
      7 -0.269111D-01  0.000000D+00 -0.167101D-01 -0.171640D+00  0.000000D+00
      8  0.000000D+00 -0.355160D-02  0.000000D+00  0.000000D+00 -0.197144D-01
      9 -0.441102D-01  0.000000D+00 -0.207830D-01  0.110280D-01  0.000000D+00
     10 -0.676613D-02  0.000000D+00  0.692053D-02 -0.833514D-01  0.000000D+00
     11  0.000000D+00  0.812424D-02  0.000000D+00  0.000000D+00  0.200493D-01
     12 -0.194509D-01  0.000000D+00  0.128731D-01  0.114936D-01  0.000000D+00
     13  0.108503D-01  0.000000D+00 -0.109322D-01  0.262283D-01  0.000000D+00
     14  0.000000D+00 -0.765406D-02  0.000000D+00  0.000000D+00 -0.106690D-01
     15  0.652476D-02  0.000000D+00 -0.814975D-02 -0.445394D-02  0.000000D+00
                6             7             8             9            10 
      6  0.521373D+00
      7 -0.907531D-01  0.306938D+00
      8  0.000000D+00  0.000000D+00  0.413235D-01
      9 -0.947150D-01  0.828495D-01  0.000000D+00  0.315383D+00
     10  0.408331D-01 -0.143919D+00  0.000000D+00 -0.340901D-01  0.561676D+00
     11  0.000000D+00  0.000000D+00 -0.483706D-01  0.000000D+00  0.000000D+00
     12 -0.115606D-01  0.178847D-01  0.000000D+00 -0.253691D-01  0.242314D+00
     13  0.316731D-01  0.355320D-01  0.000000D+00 -0.156772D-01 -0.327640D+00
     14  0.000000D+00  0.000000D+00  0.303132D-01  0.000000D+00  0.000000D+00
     15  0.415937D-02  0.672899D-02  0.000000D+00 -0.174516D+00 -0.255977D+00
               11            12            13            14            15 
     11  0.577446D-01
     12  0.000000D+00  0.442539D+00
     13  0.000000D+00 -0.252241D+00  0.255030D+00
     14 -0.375475D-01  0.000000D+00  0.000000D+00  0.255574D-01
     15  0.000000D+00 -0.418482D+00  0.247177D+00  0.000000D+00  0.596988D+00
 Force constants in internal coordinates: 
                1             2             3             4             5 
      1  0.435317D+00
      2  0.231663D-01  0.260828D+00
      3  0.614623D-02  0.168222D-01  0.207469D+00
      4 -0.127613D-01  0.227766D-01  0.149116D+00  0.721989D+00
      5  0.460043D-01  0.600692D-01 -0.243282D-01  0.211328D-01  0.256459D+00
      6  0.129143D-01  0.230626D-01  0.917908D-01  0.103664D-01 -0.602843D-02
      7  0.108473D-01 -0.745329D-01  0.121186D+00  0.118090D+00 -0.235967D-01
      8  0.000000D+00  0.000000D+00  0.000000D+00  0.000000D+00  0.000000D+00
      9  0.000000D+00  0.000000D+00  0.000000D+00  0.000000D+00  0.000000D+00
                6             7             8             9 
      6  0.525836D+00
      7  0.626577D-01  0.664172D+00
      8  0.000000D+00  0.000000D+00  0.212940D-01
      9  0.000000D+00  0.000000D+00  0.288879D-01  0.109427D+00
 Leave Link  716 at Sun Mar  6 19:27:40 2022, MaxMem= 16106127360 cpu:               1.5 elap:               0.1
 (Enter /sw/contrib/gaussian/g16/B01/g16/l103.exe)

 GradGradGradGradGradGradGradGradGradGradGradGradGradGradGradGradGradGrad
 Berny optimization.
 Search for a local minimum.
 Step number   1 out of a maximum of    2
 All quantities printed in internal units (Hartrees-Bohrs-Radians)
 Second derivative matrix not updated -- analytic derivatives used.
 The second derivative matrix:
                          r1        r2        r3        r4        a1
           r1           0.43532
           r2           0.02317   0.26083
           r3           0.00615   0.01682   0.20747
           r4          -0.01276   0.02278   0.14912   0.72199
           a1           0.04600   0.06007  -0.02433   0.02113   0.25646
           a2           0.01291   0.02306   0.09179   0.01037  -0.00603
           a3           0.01085  -0.07453   0.12119   0.11809  -0.02360
           d1           0.00000   0.00000   0.00000   0.00000   0.00000
           d2           0.00000   0.00000   0.00000   0.00000   0.00000
                          a2        a3        d1        d2
           a2           0.52584
           a3           0.06266   0.66417
           d1           0.00000   0.00000   0.02129
           d2           0.00000   0.00000   0.02889   0.10943
 ITU=  0
     Eigenvalues ---    0.01267   0.11805   0.12466   0.20403   0.27995
     Eigenvalues ---    0.44907   0.52009   0.60873   0.88554
 Angle between quadratic step and forces=  17.97 degrees.
 Linear search not attempted -- first point.
 Variable       Old X    -DE/DX   Delta X   Delta X   Delta X     New X
                                 (Linear)    (Quad)   (Total)
    r1        1.86209   0.00064   0.00000   0.00013   0.00013   1.86222
    r2        2.69614   0.00091   0.00000   0.00056   0.00056   2.69670
    r3        2.60992  -0.00056   0.00000  -0.00225  -0.00225   2.60767
    r4        2.25782   0.00058   0.00000   0.00087   0.00087   2.25869
    a1        1.74293   0.00337   0.00000   0.01272   0.01272   1.75565
    a2        1.97463   0.00015   0.00000   0.00078   0.00078   1.97541
    a3        1.99550  -0.00045   0.00000   0.00001   0.00001   1.99551
    d1        0.00000   0.00000   0.00000   0.00000   0.00000   0.00000
    d2        0.00000   0.00000   0.00000   0.00000   0.00000   0.00000
         Item               Value     Threshold  Converged?
 Maximum Force            0.003371     0.000450     NO 
 RMS     Force            0.001225     0.000300     NO 
 Maximum Displacement     0.012724     0.001800     NO 
 RMS     Displacement     0.004329     0.001200     NO 
 Predicted change in Energy=-2.269101D-05
                       ----------------------------
                       ! Non-Optimized Parameters !
                       ! (Angstroms and Degrees)  !
 ----------------------                            ----------------------
 !      Name          Value   Derivative information (Atomic Units)     !
 ------------------------------------------------------------------------
 !       r1          0.9854   -DE/DX =    0.0006                        !
 !       r2          1.427    -DE/DX =    0.0009                        !
 !       r3          1.3799   -DE/DX =   -0.0006                        !
 !       r4          1.1952   -DE/DX =    0.0006                        !
 !       a1        100.5914   -DE/DX =    0.0034                        !
 !       a2        113.1827   -DE/DX =    0.0002                        !
 !       a3        114.3346   -DE/DX =   -0.0005                        !
 !       d1          0.0      -DE/DX =    0.0                           !
 !       d2          0.0      -DE/DX =    0.0                           !
 ------------------------------------------------------------------------
 GradGradGradGradGradGradGradGradGradGradGradGradGradGradGradGradGradGrad

 Leave Link  103 at Sun Mar  6 19:27:40 2022, MaxMem= 16106127360 cpu:               1.0 elap:               0.1
 (Enter /sw/contrib/gaussian/g16/B01/g16/l9999.exe)

 ----------------------------------------------------------------------

 Electric dipole moment (input orientation):
 (Debye = 10**-18 statcoulomb cm , SI units = C m)
                  (au)            (Debye)         (10**-30 SI)
   Tot        0.427982D+00      0.108782D+01      0.362859D+01
   x         -0.107798D+00     -0.273995D+00     -0.913949D+00
   y          0.000000D+00      0.000000D+00      0.000000D+00
   z         -0.414184D+00     -0.105275D+01     -0.351160D+01

 Dipole polarizability, Alpha (input orientation).
 (esu units = cm**3 , SI units = C**2 m**2 J**-1)
 Alpha(0;0):
               (au)            (10**-24 esu)      (10**-40 SI)
   iso        0.261199D+02      0.387057D+01      0.430659D+01
   aniso      0.147042D+02      0.217894D+01      0.242439D+01
   xx         0.290483D+02      0.430451D+01      0.478942D+01
   yx         0.000000D+00      0.000000D+00      0.000000D+00
   yy         0.176062D+02      0.260898D+01      0.290288D+01
   zx        -0.399312D+01     -0.591720D+00     -0.658377D+00
   zy         0.000000D+00      0.000000D+00      0.000000D+00
   zz         0.317051D+02      0.469821D+01      0.522746D+01

 ----------------------------------------------------------------------

 Dipole orientation:
     1         -0.00000000          0.00000000          0.00000000
     8         -0.46901377          0.00000000         -1.80205789
     8          1.98532948         -0.00000000         -2.91802312
     7          3.91228469         -0.00000000         -1.15776719
     8          3.21167539          0.00000000          0.98860443

 Electric dipole moment (dipole orientation):
 (Debye = 10**-18 statcoulomb cm , SI units = C m)
                  (au)            (Debye)         (10**-30 SI)
   Tot        0.427982D+00      0.108782D+01      0.362859D+01
   x          0.000000D+00      0.000000D+00      0.000000D+00
   y          0.000000D+00      0.000000D+00      0.000000D+00
   z          0.427982D+00      0.108782D+01      0.362859D+01

 Dipole polarizability, Alpha (dipole orientation).
 (esu units = cm**3 , SI units = C**2 m**2 J**-1)
 Alpha(0;0):
               (au)            (10**-24 esu)      (10**-40 SI)
   iso        0.261199D+02      0.387057D+01      0.430659D+01
   aniso      0.147042D+02      0.217894D+01      0.242439D+01
   xx         0.311635D+02      0.461796D+01      0.513817D+01
   yx         0.000000D+00      0.000000D+00      0.000000D+00
   yy         0.176062D+02      0.260898D+01      0.290288D+01
   zx         0.413408D+01      0.612607D+00      0.681617D+00
   zy         0.000000D+00      0.000000D+00      0.000000D+00
   zz         0.295899D+02      0.438477D+01      0.487871D+01

 ----------------------------------------------------------------------
 1\1\GINC-N2398\Freq\RMP2-FC\Aug-CC-pVTZ\H1N1O3\CGAVINH\06-Mar-2022\1\\
 #p freq mp2/aug-cc-pvtz density=current\\title\\0,1\H\O,1,r1\O,2,r2,1,
 a1\N,3,r3,2,a2,1,d1,0\O,4,r4,3,a3,2,d2,0\\r1=0.98537664\r2=1.42673666\
 r3=1.38110764\r4=1.19478846\a1=99.86234401\a2=113.13777052\a3=114.3339
 2022\d1=0.\d2=0.\\Version=ES64L-G16RevB.01\State=1-A'\HF=-279.5062415\
 MP2=-280.4552179\RMSD=4.453e-09\RMSF=7.339e-04\ZeroPoint=0.023473\Ther
 mal=0.0273997\Dipole=-0.1077979,0.,-0.4141842\DipoleDeriv=0.3185414,0.
 ,0.034861,0.,0.2962545,0.,-0.0311132,0.,0.2017445,-0.5271571,0.,0.2887
 849,0.,-0.2524842,0.,-0.0945687,0.,-0.1300914,0.0163655,0.,0.3209702,0
 .,-0.0109796,0.,0.4266447,0.,-0.9310983,0.1882923,0.,-0.1175445,0.,0.0
 124071,0.,-0.6431491,0.,1.7286687,0.0039579,0.,-0.5270716,0.,-0.045197
 9,0.,0.3421862,0.,-0.8692234\Polar=29.0482874,0.,17.6062429,-3.9931217
 ,0.,31.7050979\Quadrupole=0.1615346,0.6177175,-0.7792521,0.,1.3741233,
 0.\PG=CS [SG(H1N1O3)]\NImag=0\\0.07361930,0.,0.00615185,0.02567808,0.,
 0.43531665,-0.05079233,0.,-0.00495628,0.27955574,0.,-0.00307043,0.,0.,
 0.01340456,0.03135822,0.,-0.41925698,-0.01311137,0.,0.52137321,-0.0269
 1110,0.,-0.01671011,-0.17164031,0.,-0.09075307,0.30693791,0.,-0.003551
 60,0.,0.,-0.01971442,0.,0.,0.04132346,-0.04411019,0.,-0.02078298,0.011
 02797,0.,-0.09471501,0.08284950,0.,0.31538331,-0.00676613,0.,0.0069205
 3,-0.08335139,0.,0.04083313,-0.14391855,0.,-0.03409011,0.56167648,0.,0
 .00812424,0.,0.,0.02004933,0.,0.,-0.04837065,0.,0.,0.05774460,-0.01945
 087,0.,0.01287307,0.01149361,0.,-0.01156059,0.01788469,0.,-0.02536913,
 0.24231371,0.,0.44253856,0.01085026,0.,-0.01093222,0.02622828,0.,0.031
 67309,0.03553205,0.,-0.01567717,-0.32764040,0.,-0.25224114,0.25502981,
 0.,-0.00765406,0.,0.,-0.01066904,0.,0.,0.03031320,0.,0.,-0.03754753,0.
 ,0.,0.02555743,0.00652476,0.,-0.00814975,-0.00445394,0.,0.00415937,0.0
 0672899,0.,-0.17451618,-0.25597726,0.,-0.41848191,0.24717744,0.,0.5969
 8846\\0.00181053,0.,0.00064063,-0.00111526,0.,0.00069162,-0.00080671,0
 .,-0.00073339,-0.00037220,0.,-0.00098071,0.00048364,0.,0.00038185\\\@


 IT IS THE GODS' CUSTOM TO BRING LOW ALL THINGS OF SURPASSING GREATNESS.
     -- HERODOTUS
 IT IS THE LOFTY PINE THAT BY THE STORM IS OFTENER TOSSED;
 TOWERS FALL WITH HEAVIER CRASH WHICH HIGHER SOAR.
     -- HORACE
 THE BIGGER THEY COME, THE HARDER THEY FALL.
     -- BOB FITZSIMONS HEAVYWEIGHT CHAMPION, 1897-1899
 Job cpu time:       0 days  2 hours  0 minutes 12.1 seconds.
 Elapsed time:       0 days  0 hours  4 minutes 20.8 seconds.
 File lengths (MBytes):  RWF=   7239 Int=      0 D2E=      0 Chk=      8 Scr=      1
 Normal termination of Gaussian 16 at Sun Mar  6 19:27:41 2022.
