title                                                                   
Freq      RMP2-FC                                                     Aug-CC-pVTZ         
Number of atoms                            I                5
Info1-9                                    I   N=           9
          33          24           0           0           0         100
           6           2           1
Full Title                                 C   N=           1
title       
Route                                      C   N=           4
#p freq mp2/aug-cc-pvtz density=current         
Charge                                     I                0
Multiplicity                               I                1
Number of electrons                        I               32
Number of alpha electrons                  I               16
Number of beta electrons                   I               16
Number of basis functions                  I              207
Number of independent functions            I              207
Number of point charges in /Mol/           I                0
Number of translation vectors              I                0
Atomic numbers                             I   N=           5
           1           8           8           7           8
Nuclear charges                            R   N=           5
  1.00000000E+00  8.00000000E+00  8.00000000E+00  7.00000000E+00  8.00000000E+00
Current cartesian coordinates              R   N=          15
  1.03843139E+00 -2.14444438E+00  2.32845877E-01  2.41254049E+00 -9.14843476E-01
 -2.65617943E-02  1.02491069E+00  1.39654659E+00  7.18304383E-03 -1.56061402E+00
  1.04057501E+00  9.05410315E-03 -2.20171784E+00 -1.12415069E+00 -1.76493244E-02
Number of symbols in /Mol/                 I                0
Force Field                                I                0
Atom Types                                 C   N=           5
                                                            
Int Atom Types                             I   N=           5
           0           0           0           0           0
MM charges                                 R   N=           5
  0.00000000E+00  0.00000000E+00  0.00000000E+00  0.00000000E+00  0.00000000E+00
Integer atomic weights                     I   N=           5
           1          16          16          14          16
Real atomic weights                        R   N=           5
  1.00782504E+00  1.59949146E+01  1.59949146E+01  1.40030740E+01  1.59949146E+01
Atom fragment info                         I   N=           5
           0           0           0           0           0
Atom residue num                           I   N=           5
           0           0           0           0           0
Nuclear spins                              I   N=           5
           1           0           0           2           0
Nuclear ZEff                               R   N=           5
 -1.00000000E+00 -5.60000000E+00 -5.60000000E+00 -4.55000000E+00 -5.60000000E+00
Nuclear ZNuc                               R   N=           5
  1.00000000E+00  8.00000000E+00  8.00000000E+00  7.00000000E+00  8.00000000E+00
Nuclear QMom                               R   N=           5
  0.00000000E+00  0.00000000E+00  0.00000000E+00  2.04400000E+00  0.00000000E+00
Nuclear GFac                               R   N=           5
  2.79284600E+00  0.00000000E+00  0.00000000E+00  4.03761000E-01  0.00000000E+00
MicOpt                                     I   N=           5
          -1          -1          -1          -1          -1
Number of residues                         I                0
Number of secondary structures             I                0
SymInf integers                            I   N=          26
           1           1           1           1           1           0
           0           0           0           0           0           0
           0           0           0           0           0           0
           0           0           0           0           0           0
           0           0
RotTr to input orientation                 R   N=          12
 -6.62243248E-01  1.29926367E-01  7.37938358E-01  7.48278720E-01  6.35546983E-02
  6.60333066E-01  3.88952267E-02  9.89484684E-01 -1.39309806E-01  2.28327968E+00
 -2.29027532E-01  6.82186891E-01
Number of contracted shells                I               65
Number of primitive shells                 I              119
Pure/Cartesian d shells                    I                0
Pure/Cartesian f shells                    I                0
Highest angular momentum                   I                3
Largest degree of contraction              I                7
Shell types                                I   N=          65
           0           0           0           0           1           1
           1          -2          -2           0           0           0
           0           0           1           1           1           1
          -2          -2          -2          -3          -3           0
           0           0           0           0           1           1
           1           1          -2          -2          -2          -3
          -3           0           0           0           0           0
           1           1           1           1          -2          -2
          -2          -3          -3           0           0           0
           0           0           1           1           1           1
          -2          -2          -2          -3          -3
Number of primitives per shell             I   N=          65
           3           1           1           1           1           1
           1           1           1           7           6           1
           1           1           3           1           1           1
           1           1           1           1           1           7
           6           1           1           1           3           1
           1           1           1           1           1           1
           1           7           6           1           1           1
           3           1           1           1           1           1
           1           1           1           7           6           1
           1           1           3           1           1           1
           1           1           1           1           1
Shell to atom map                          I   N=          65
           1           1           1           1           1           1
           1           1           1           2           2           2
           2           2           2           2           2           2
           2           2           2           2           2           3
           3           3           3           3           3           3
           3           3           3           3           3           3
           3           4           4           4           4           4
           4           4           4           4           4           4
           4           4           4           5           5           5
           5           5           5           5           5           5
           5           5           5           5           5
Primitive exponents                        R   N=         119
  3.38700000E+01  5.09500000E+00  1.15900000E+00  3.25800000E-01  1.02700000E-01
  2.52600000E-02  1.40700000E+00  3.88000000E-01  1.02000000E-01  1.05700000E+00
  2.47000000E-01  1.53300000E+04  2.29900000E+03  5.22400000E+02  1.47300000E+02
  4.75500000E+01  1.67600000E+01  6.20700000E+00  5.22400000E+02  1.47300000E+02
  4.75500000E+01  1.67600000E+01  6.20700000E+00  6.88200000E-01  1.75200000E+00
  2.38400000E-01  7.37600000E-02  3.44600000E+01  7.74900000E+00  2.28000000E+00
  7.15600000E-01  2.14000000E-01  5.97400000E-02  2.31400000E+00  6.45000000E-01
  2.14000000E-01  1.42800000E+00  5.00000000E-01  1.53300000E+04  2.29900000E+03
  5.22400000E+02  1.47300000E+02  4.75500000E+01  1.67600000E+01  6.20700000E+00
  5.22400000E+02  1.47300000E+02  4.75500000E+01  1.67600000E+01  6.20700000E+00
  6.88200000E-01  1.75200000E+00  2.38400000E-01  7.37600000E-02  3.44600000E+01
  7.74900000E+00  2.28000000E+00  7.15600000E-01  2.14000000E-01  5.97400000E-02
  2.31400000E+00  6.45000000E-01  2.14000000E-01  1.42800000E+00  5.00000000E-01
  1.14200000E+04  1.71200000E+03  3.89300000E+02  1.10000000E+02  3.55700000E+01
  1.25400000E+01  4.64400000E+00  3.89300000E+02  1.10000000E+02  3.55700000E+01
  1.25400000E+01  4.64400000E+00  5.11800000E-01  1.29300000E+00  1.78700000E-01
  5.76000000E-02  2.66300000E+01  5.94800000E+00  1.74200000E+00  5.55000000E-01
  1.72500000E-01  4.91000000E-02  1.65400000E+00  4.69000000E-01  1.51000000E-01
  1.09300000E+00  3.64000000E-01  1.53300000E+04  2.29900000E+03  5.22400000E+02
  1.47300000E+02  4.75500000E+01  1.67600000E+01  6.20700000E+00  5.22400000E+02
  1.47300000E+02  4.75500000E+01  1.67600000E+01  6.20700000E+00  6.88200000E-01
  1.75200000E+00  2.38400000E-01  7.37600000E-02  3.44600000E+01  7.74900000E+00
  2.28000000E+00  7.15600000E-01  2.14000000E-01  5.97400000E-02  2.31400000E+00
  6.45000000E-01  2.14000000E-01  1.42800000E+00  5.00000000E-01
Contraction coefficients                   R   N=         119
  2.54948632E-02  1.90362766E-01  8.52162022E-01  1.00000000E+00  1.00000000E+00
  1.00000000E+00  1.00000000E+00  1.00000000E+00  1.00000000E+00  1.00000000E+00
  1.00000000E+00  5.19808943E-04  4.02025621E-03  2.07128267E-02  8.10105536E-02
  2.35962985E-01  4.42653446E-01  3.57064423E-01 -4.42115008E-05 -1.22591041E-03
 -1.05517725E-02 -6.74452633E-02 -1.71198607E-01  1.07329856E+00  1.00000000E+00
  1.00000000E+00  1.00000000E+00  4.11634896E-02  2.57762836E-01  8.02419274E-01
  1.00000000E+00  1.00000000E+00  1.00000000E+00  1.00000000E+00  1.00000000E+00
  1.00000000E+00  1.00000000E+00  1.00000000E+00  5.19808943E-04  4.02025621E-03
  2.07128267E-02  8.10105536E-02  2.35962985E-01  4.42653446E-01  3.57064423E-01
 -4.42115008E-05 -1.22591041E-03 -1.05517725E-02 -6.74452633E-02 -1.71198607E-01
  1.07329856E+00  1.00000000E+00  1.00000000E+00  1.00000000E+00  4.11634896E-02
  2.57762836E-01  8.02419274E-01  1.00000000E+00  1.00000000E+00  1.00000000E+00
  1.00000000E+00  1.00000000E+00  1.00000000E+00  1.00000000E+00  1.00000000E+00
  5.34563860E-04  4.13435660E-03  2.12335358E-02  8.25006224E-02  2.38138871E-01
  4.42551547E-01  3.53757422E-01 -4.89867350E-05 -1.19527323E-03 -1.03490714E-02
 -6.48680190E-02 -1.71552477E-01  1.07289568E+00  1.00000000E+00  1.00000000E+00
  1.00000000E+00  3.98072123E-02  2.49002660E-01  8.10479727E-01  1.00000000E+00
  1.00000000E+00  1.00000000E+00  1.00000000E+00  1.00000000E+00  1.00000000E+00
  1.00000000E+00  1.00000000E+00  5.19808943E-04  4.02025621E-03  2.07128267E-02
  8.10105536E-02  2.35962985E-01  4.42653446E-01  3.57064423E-01 -4.42115008E-05
 -1.22591041E-03 -1.05517725E-02 -6.74452633E-02 -1.71198607E-01  1.07329856E+00
  1.00000000E+00  1.00000000E+00  1.00000000E+00  4.11634896E-02  2.57762836E-01
  8.02419274E-01  1.00000000E+00  1.00000000E+00  1.00000000E+00  1.00000000E+00
  1.00000000E+00  1.00000000E+00  1.00000000E+00  1.00000000E+00
Coordinates of each shell                  R   N=         195
  1.03843139E+00 -2.14444438E+00  2.32845877E-01  1.03843139E+00 -2.14444438E+00
  2.32845877E-01  1.03843139E+00 -2.14444438E+00  2.32845877E-01  1.03843139E+00
 -2.14444438E+00  2.32845877E-01  1.03843139E+00 -2.14444438E+00  2.32845877E-01
  1.03843139E+00 -2.14444438E+00  2.32845877E-01  1.03843139E+00 -2.14444438E+00
  2.32845877E-01  1.03843139E+00 -2.14444438E+00  2.32845877E-01  1.03843139E+00
 -2.14444438E+00  2.32845877E-01  2.41254049E+00 -9.14843476E-01 -2.65617943E-02
  2.41254049E+00 -9.14843476E-01 -2.65617943E-02  2.41254049E+00 -9.14843476E-01
 -2.65617943E-02  2.41254049E+00 -9.14843476E-01 -2.65617943E-02  2.41254049E+00
 -9.14843476E-01 -2.65617943E-02  2.41254049E+00 -9.14843476E-01 -2.65617943E-02
  2.41254049E+00 -9.14843476E-01 -2.65617943E-02  2.41254049E+00 -9.14843476E-01
 -2.65617943E-02  2.41254049E+00 -9.14843476E-01 -2.65617943E-02  2.41254049E+00
 -9.14843476E-01 -2.65617943E-02  2.41254049E+00 -9.14843476E-01 -2.65617943E-02
  2.41254049E+00 -9.14843476E-01 -2.65617943E-02  2.41254049E+00 -9.14843476E-01
 -2.65617943E-02  2.41254049E+00 -9.14843476E-01 -2.65617943E-02  1.02491069E+00
  1.39654659E+00  7.18304383E-03  1.02491069E+00  1.39654659E+00  7.18304383E-03
  1.02491069E+00  1.39654659E+00  7.18304383E-03  1.02491069E+00  1.39654659E+00
  7.18304383E-03  1.02491069E+00  1.39654659E+00  7.18304383E-03  1.02491069E+00
  1.39654659E+00  7.18304383E-03  1.02491069E+00  1.39654659E+00  7.18304383E-03
  1.02491069E+00  1.39654659E+00  7.18304383E-03  1.02491069E+00  1.39654659E+00
  7.18304383E-03  1.02491069E+00  1.39654659E+00  7.18304383E-03  1.02491069E+00
  1.39654659E+00  7.18304383E-03  1.02491069E+00  1.39654659E+00  7.18304383E-03
  1.02491069E+00  1.39654659E+00  7.18304383E-03  1.02491069E+00  1.39654659E+00
  7.18304383E-03 -1.56061402E+00  1.04057501E+00  9.05410315E-03 -1.56061402E+00
  1.04057501E+00  9.05410315E-03 -1.56061402E+00  1.04057501E+00  9.05410315E-03
 -1.56061402E+00  1.04057501E+00  9.05410315E-03 -1.56061402E+00  1.04057501E+00
  9.05410315E-03 -1.56061402E+00  1.04057501E+00  9.05410315E-03 -1.56061402E+00
  1.04057501E+00  9.05410315E-03 -1.56061402E+00  1.04057501E+00  9.05410315E-03
 -1.56061402E+00  1.04057501E+00  9.05410315E-03 -1.56061402E+00  1.04057501E+00
  9.05410315E-03 -1.56061402E+00  1.04057501E+00  9.05410315E-03 -1.56061402E+00
  1.04057501E+00  9.05410315E-03 -1.56061402E+00  1.04057501E+00  9.05410315E-03
 -1.56061402E+00  1.04057501E+00  9.05410315E-03 -2.20171784E+00 -1.12415069E+00
 -1.76493244E-02 -2.20171784E+00 -1.12415069E+00 -1.76493244E-02 -2.20171784E+00
 -1.12415069E+00 -1.76493244E-02 -2.20171784E+00 -1.12415069E+00 -1.76493244E-02
 -2.20171784E+00 -1.12415069E+00 -1.76493244E-02 -2.20171784E+00 -1.12415069E+00
 -1.76493244E-02 -2.20171784E+00 -1.12415069E+00 -1.76493244E-02 -2.20171784E+00
 -1.12415069E+00 -1.76493244E-02 -2.20171784E+00 -1.12415069E+00 -1.76493244E-02
 -2.20171784E+00 -1.12415069E+00 -1.76493244E-02 -2.20171784E+00 -1.12415069E+00
 -1.76493244E-02 -2.20171784E+00 -1.12415069E+00 -1.76493244E-02 -2.20171784E+00
 -1.12415069E+00 -1.76493244E-02 -2.20171784E+00 -1.12415069E+00 -1.76493244E-02
Num ILSW                                   I              100
ILSW                                       I   N=         100
           0           0           0           0           2           0
           0           0           0           0           0          -1
           5           0           0           0           2           0
           0           0           0           0           1           0
           1           0           0           0           0           0
           0           0      100000           0          -1           0
           0           0           0           0           0           0
           0           0           0           1           1           0
           0 -2000000000           1           0           0           0
           0           0           4          52           0           0
           0           0           0           0           0           0
           0           0           0           5           4           1
           0           0           0           0           0           0
           0           0           0           0           0           0
           0           0           0           0           0           0
           0           0           0           0           0           0
           0           0           0           0
Num RLSW                                   I               52
RLSW                                       R   N=          52
  1.00000000E+00  1.00000000E+00  1.00000000E+00  1.00000000E+00  1.00000000E+00
  0.00000000E+00  0.00000000E+00  1.00000000E+00  0.00000000E+00  0.00000000E+00
  0.00000000E+00  0.00000000E+00  1.00000000E+00  0.00000000E+00  0.00000000E+00
  0.00000000E+00  0.00000000E+00  1.00000000E+00  0.00000000E+00  0.00000000E+00
  0.00000000E+00  0.00000000E+00  1.00000000E+00  0.00000000E+00  0.00000000E+00
  0.00000000E+00  0.00000000E+00  1.00000000E+00  0.00000000E+00  0.00000000E+00
  0.00000000E+00  0.00000000E+00  1.00000000E+00  0.00000000E+00  0.00000000E+00
  0.00000000E+00  0.00000000E+00  0.00000000E+00  1.00000000E+00  1.00000000E+00
  0.00000000E+00  1.00000000E+00  0.00000000E+00  0.00000000E+00  0.00000000E+00
  0.00000000E+00  0.00000000E+00  0.00000000E+00  0.00000000E+00  0.00000000E+00
  0.00000000E+00  0.00000000E+00
MxBond                                     I                2
NBond                                      I   N=           5
           1           2           2           2           1
IBond                                      I   N=          10
           2           0           1           3           2           4
           3           5           4           0
RBond                                      R   N=          10
  1.00000000E+00  0.00000000E+00  1.00000000E+00  1.00000000E+00  1.00000000E+00
  1.00000000E+00  1.00000000E+00  2.00000000E+00  2.00000000E+00  0.00000000E+00
Virial Ratio                               R      2.002229894975211E+00
SCF Energy                                 R     -2.795063150768788E+02
MP2 Energy                                 R     -2.804550190610835E+02
Total Energy                               R     -2.804550190610835E+02
Post-SCF wavefunction norm                 R      1.583709070409725E+00
RMS Force                                  R      9.477731012827034E-04
RMS Density                                R      6.902231454852269E-09
NImag                                      I                0
Job Status                                 I                1
Nuclear derivative order                   I                2
External E-field                           R   N=          35
  0.00000000E+00  0.00000000E+00  0.00000000E+00  0.00000000E+00  0.00000000E+00
  0.00000000E+00  0.00000000E+00  0.00000000E+00  0.00000000E+00  0.00000000E+00
  0.00000000E+00  0.00000000E+00  0.00000000E+00  0.00000000E+00  0.00000000E+00
  0.00000000E+00  0.00000000E+00  0.00000000E+00  0.00000000E+00  0.00000000E+00
  0.00000000E+00  0.00000000E+00  0.00000000E+00  0.00000000E+00  0.00000000E+00
  0.00000000E+00  0.00000000E+00  0.00000000E+00  0.00000000E+00  0.00000000E+00
  0.00000000E+00  0.00000000E+00  0.00000000E+00  0.00000000E+00  0.00000000E+00
IOpCl                                      I                0
IROHF                                      I                0
Alpha Orbital Energies                     R   N=         207
 -2.07196215E+01 -2.06867394E+01 -2.06686280E+01 -1.58255652E+01 -1.64380190E+00
 -1.50505211E+00 -1.29366807E+00 -9.60091316E-01 -8.33653313E-01 -7.58617498E-01
 -7.40162383E-01 -6.38724440E-01 -6.19299796E-01 -6.15896706E-01 -5.04382125E-01
 -4.97659807E-01  3.49178555E-02  6.05883898E-02  9.51179662E-02  1.00426093E-01
  1.18771309E-01  1.22664920E-01  1.50141139E-01  1.51802449E-01  1.76426924E-01
  1.81438169E-01  1.88847449E-01  2.12219524E-01  2.17004064E-01  2.42173504E-01
  2.46186330E-01  2.68858937E-01  3.00811083E-01  3.27932536E-01  3.38497650E-01
  3.44027978E-01  3.47413701E-01  3.92724104E-01  4.41787653E-01  4.85310635E-01
  5.10382058E-01  5.18630171E-01  5.44401975E-01  5.61872696E-01  5.98496221E-01
  6.20562444E-01  6.37201504E-01  6.89934698E-01  7.11098018E-01  7.29302591E-01
  7.43352125E-01  7.59802101E-01  7.71994071E-01  7.90168519E-01  8.06046345E-01
  8.40185457E-01  8.45304921E-01  8.54628491E-01  8.90267212E-01  9.06642958E-01
  9.28200260E-01  9.54022471E-01  9.54738674E-01  1.01679917E+00  1.03584155E+00
  1.05516006E+00  1.06376868E+00  1.09685916E+00  1.13878979E+00  1.15542912E+00
  1.17211719E+00  1.21312605E+00  1.23488123E+00  1.24716645E+00  1.34546969E+00
  1.36019819E+00  1.36903659E+00  1.45901695E+00  1.50002289E+00  1.50811476E+00
  1.53451195E+00  1.57515230E+00  1.60278173E+00  1.61952308E+00  1.63123110E+00
  1.69409001E+00  1.73696140E+00  1.80309085E+00  1.82874322E+00  1.89011086E+00
  1.89409266E+00  1.92923063E+00  1.97473292E+00  1.99673323E+00  2.04985981E+00
  2.12212849E+00  2.12742156E+00  2.17132109E+00  2.19114148E+00  2.24015197E+00
  2.26363946E+00  2.29966743E+00  2.34942814E+00  2.36411906E+00  2.38948354E+00
  2.39978174E+00  2.43056827E+00  2.46426413E+00  2.48314329E+00  2.52538056E+00
  2.53273530E+00  2.54918843E+00  2.56715673E+00  2.61562269E+00  2.63068043E+00
  2.65837417E+00  2.67358398E+00  2.75324298E+00  2.80772592E+00  2.82035131E+00
  2.84948623E+00  2.91794132E+00  2.98171793E+00  3.04164515E+00  3.05206767E+00
  3.11026093E+00  3.12447227E+00  3.16549598E+00  3.20962969E+00  3.30147630E+00
  3.33679183E+00  3.36007869E+00  3.47439836E+00  3.67824344E+00  3.85880636E+00
  3.93051268E+00  4.15866225E+00  4.22084604E+00  4.24401282E+00  4.28267511E+00
  4.37653335E+00  4.49931795E+00  4.51612321E+00  4.55428820E+00  4.60843854E+00
  4.69396315E+00  4.80953032E+00  4.89413477E+00  4.92145278E+00  4.94611324E+00
  4.99427542E+00  5.00835276E+00  5.10460580E+00  5.13087086E+00  5.18530078E+00
  5.24928542E+00  5.26080806E+00  5.31430480E+00  5.33988715E+00  5.35792273E+00
  5.54811631E+00  5.64455065E+00  5.70396237E+00  5.88895509E+00  5.99584165E+00
  6.26970310E+00  6.29689477E+00  6.35649942E+00  6.37589707E+00  6.60172726E+00
  6.65201429E+00  6.67083422E+00  6.69294054E+00  6.72523304E+00  6.77600962E+00
  6.81280247E+00  6.85956341E+00  6.96481404E+00  7.01436950E+00  7.07007065E+00
  7.08780928E+00  7.14036298E+00  7.16699059E+00  7.18067697E+00  7.20185678E+00
  7.24478011E+00  7.24977198E+00  7.27631176E+00  7.34911133E+00  7.39400829E+00
  7.42449200E+00  7.44437903E+00  7.45997147E+00  7.56083672E+00  7.65856185E+00
  7.66385267E+00  7.79866658E+00  7.88436582E+00  7.95067059E+00  8.04474511E+00
  8.30507258E+00  8.49392878E+00  8.64944045E+00  1.36185768E+01  1.47649554E+01
  1.50786002E+01  1.57476444E+01
Alpha MO coefficients                      R   N=       42849
  6.53393133E-05 -9.87535917E-05 -1.00350704E-03  1.14392608E-05 -1.62688920E-05
  6.36722663E-05  6.57336740E-06 -2.40496617E-04 -2.08852720E-04 -1.61978802E-05
 -2.04588856E-04 -2.59898933E-04 -3.09340073E-05  4.47062168E-05  9.74117191E-06
 -6.59699401E-06  6.82680264E-06  2.73550677E-05  2.14736123E-04  5.18321314E-05
 -2.41692108E-05 -1.82897294E-04 -2.45134374E-05  3.10208053E-03 -1.00139438E-04
 -9.80695536E-05  3.54635361E-03  2.42613078E-03  5.11785739E-05 -1.03817979E-04
 -3.82557186E-06 -4.18817078E-04  6.61918718E-04  2.97119135E-05 -9.91975232E-04
  2.05979630E-03  1.20022803E-04 -3.99828235E-04  3.48579478E-04  4.13807117E-05
  1.99635648E-05  2.55231872E-06  1.05850712E-06  3.88431795E-05  2.17047942E-05
 -4.41040229E-04 -2.32652464E-05  5.57009726E-06 -4.99542066E-04 -6.05047103E-04
 -3.68324194E-04 -2.33526574E-05  1.31069837E-05 -5.10564378E-04 -7.32732974E-04
  5.57521895E-07  2.89619794E-05 -8.56248612E-05 -2.95640470E-06 -2.69662995E-06
  1.11853110E-04 -8.89161786E-06 -2.09592091E-05  1.37416640E-04 -1.64615927E-04
 -3.36640645E-06 -1.50882214E-05  3.34935693E-04  6.09990325E-05  9.76903528E-01
 -9.17325703E-03  4.34077342E-02  4.80378393E-04 -2.19829595E-03 -9.07114676E-04
 -1.99770981E-03 -1.78410697E-05  1.07532981E-03  2.00614784E-03  1.34143034E-05
 -2.12846697E-03  9.93299970E-04  3.90795747E-05 -1.17844917E-04  2.03951595E-04
  1.76876789E-06  7.12319619E-06  3.72383966E-07 -7.52532506E-07  3.47061151E-05
  1.63663972E-05  8.28049810E-04  5.15791459E-06 -1.08278269E-05 -3.05842370E-04
  4.00868576E-04 -1.40225460E-04 -1.03833658E-05 -7.63899247E-06  1.81808064E-04
  6.18281467E-04  1.21799720E-07 -5.21155599E-05 -6.00272878E-05 -5.20159200E-07
 -7.39315558E-07  4.86310876E-05 -7.12323700E-06 -6.88340654E-06  7.49132975E-05
 -5.46028846E-05 -1.75415980E-06 -3.57665320E-06  4.66833013E-04  1.95359398E-04
  1.04527909E-04  4.58533679E-04 -3.23378398E-04 -8.13381255E-04  3.91912538E-04
 -9.46628629E-05 -5.46324953E-05  1.20451283E-06  1.21840417E-03  4.81733020E-04
 -2.72516152E-06 -1.01318408E-03 -8.52035574E-05 -1.00268670E-05  2.87257389E-04
  5.26304745E-05  4.12099119E-07 -5.23780302E-05  5.34353846E-07 -5.41856256E-07
  9.43606217E-05  8.94139966E-06 -4.16286388E-04 -8.94142315E-06 -2.88295429E-06
  1.04588789E-03  2.89890871E-04  2.28063154E-05 -7.34547847E-06 -4.85864904E-06
 -6.19876758E-05  3.14355861E-04  6.52249922E-07 -1.30682492E-04 -4.54710115E-05
 -1.34620176E-06  1.84298623E-06  1.31880621E-04  5.67461283E-05  3.58979542E-06
 -7.25551046E-05  1.12182838E-04 -5.13448375E-06 -5.07481287E-06  4.91996082E-04
 -1.83106094E-04 -6.97661456E-04  5.00226105E-05 -6.98312125E-05  1.67077037E-04
 -2.23916392E-04 -4.72580888E-05 -1.60962231E-05  1.44918878E-06  2.84316465E-04
  1.02766011E-04 -8.13642950E-06  6.04084482E-04 -4.52467556E-05  4.99249489E-05
 -2.18737762E-04  6.98609900E-05  5.40584797E-06 -1.33301330E-05 -1.25372069E-06
  4.32223516E-07  1.57564071E-05  7.63963421E-07 -6.54823575E-07  4.75796675E-06
 -7.75183215E-07 -4.01225033E-05  1.63190363E-04 -1.32226709E-05  4.71794345E-05
 -1.52717818E-05 -8.78390133E-05  1.63346614E-04  3.83883631E-06 -1.11788686E-05
 -3.21308010E-06 -3.57268071E-06  2.63666510E-06  1.50259551E-05  1.68335677E-05
 -1.34238345E-05  7.19612871E-05  2.31998872E-05  1.26597806E-05 -7.35892285E-06
 -1.47554533E-04 -1.11336816E-04  4.09122321E-05  8.57348839E-05 -1.93303876E-04
 -3.27197647E-05  1.87487954E-05 -1.29015331E-06 -1.24155511E-06  2.23420301E-04
 -7.21881011E-05 -7.43525916E-06  9.86424019E-05 -6.00110964E-05  1.60242144E-05
  1.42568561E-05 -7.07751653E-06  3.56340765E-06  6.49154490E-06  1.92320254E-05
  3.32373275E-05  2.54790412E-06  2.20162562E-06  7.89250241E-06  1.13091403E-04
 -2.67404622E-04  2.63361147E-05 -1.58430432E-05 -5.55512385E-04  2.01809029E-04
  1.36904188E-05  7.03331447E-06  1.41982161E-06 -2.28864991E-05 -3.45727988E-05
 -1.07352144E-05  2.62942813E-04 -2.32571166E-05 -2.11488243E-05 -1.70722030E-05
  5.70052695E-05 -4.23010502E-06 -1.19185226E-06  9.49385372E-07 -1.24156026E-06
 -1.25252309E-05  4.59237977E-06  2.02567148E-05  9.90458472E-08  8.12923242E-06
  1.11061096E-04 -1.63752898E-05  6.02513367E-05 -1.01814875E-06  1.02463814E-05
 -1.07246750E-04  1.06770474E-06  2.38571805E-06  1.25761185E-05  3.38947416E-06
 -2.04121813E-06 -4.62976342E-07 -2.29240023E-05  8.79029692E-06 -5.98170837E-06
 -3.35400264E-05 -1.79030116E-05  1.12498542E-05 -5.80746358E-06 -1.08522585E-05
  1.35573184E-05  7.26297006E-04  2.24298321E-05 -1.83716540E-05  2.77726311E-04
 -4.07382181E-04  2.94239515E-05  1.15952154E-05  7.95890234E-07 -1.44394256E-04
 -8.07093983E-05 -3.80553068E-06  2.12221984E-05 -2.61668248E-04  1.61566476E-05
 -3.52555608E-05  2.08931451E-04  8.63489071E-06 -4.02084053E-06  9.99320803E-07
 -2.82481193E-07 -1.80885780E-05  2.50183991E-05 -5.04002426E-05 -4.81673649E-06
  2.83393421E-06  1.40022336E-04 -3.79859288E-05 -6.28426192E-05 -1.16989875E-05
 -4.56188620E-06  2.56509543E-05 -3.47786171E-05  1.24223785E-06  4.78579810E-06
  7.92945597E-07  4.24880358E-07 -1.71781946E-07  4.96640283E-07  8.18606067E-06
 -4.34887155E-06 -1.37083033E-05 -2.20832542E-05  3.63987653E-06  5.07843238E-06
 -1.74942695E-04 -4.07857721E-05  2.37584682E-04  1.36033869E-03 -1.48091238E-04
 -6.08198592E-04  9.19619212E-04  9.07586915E-06 -9.45711687E-05 -2.96558923E-07
 -7.71053024E-04 -2.01961441E-03 -2.69879170E-05  4.05503313E-04  3.07461042E-04
 -2.10340092E-05 -2.99464444E-05 -3.58038190E-04 -4.24659162E-06 -1.27548496E-04
  2.40835132E-06  4.99397851E-06 -2.12508542E-04  1.46870827E-04 -4.64115021E-04
 -4.34458143E-06  2.17171407E-05 -1.05730481E-03  3.04480589E-04 -4.53340269E-05
 -9.13967892E-06  1.93304677E-06  1.26497661E-04 -2.81474811E-05  9.14018496E-07
  2.86937804E-05  2.49387845E-05  7.15527412E-07  1.15648424E-06  4.54333242E-06
  2.48101361E-05  7.88694522E-06 -1.57271036E-05  2.07682952E-04  3.87625908E-06
 -2.35226769E-06  7.03155908E-05  3.08594762E-04  9.76646275E-01 -9.88702050E-03
  4.35755677E-02  3.65939819E-03 -9.04315778E-04  8.96240939E-04  1.98582020E-03
  3.59531256E-05 -1.06881139E-03 -2.32551371E-03 -3.95576322E-05  4.26346820E-04
  6.68739217E-04  4.00635548E-05  4.44799738E-05 -1.14976465E-04 -1.07140264E-06
 -1.94546540E-04 -1.72204230E-06  6.22668214E-06 -6.37001185E-05  5.74910775E-05
  4.09906772E-04 -7.25767594E-06 -2.14321875E-05  7.20207387E-04 -6.74004827E-04
 -2.06335517E-04  2.17437887E-05  9.42963287E-06 -7.02760283E-05  1.11349354E-04
  4.09126795E-06  3.78471156E-05  5.93608924E-05 -9.34264543E-07 -7.46302696E-07
  1.95799027E-05  2.49157569E-05 -5.30645108E-06 -1.70435595E-05  1.27473136E-04
  1.53384177E-05 -6.91182482E-06  2.46585465E-04  8.99830697E-05  3.77635415E-04
  1.96586845E-03  1.30025401E-03 -1.30577090E-05  2.00260224E-04  1.86423096E-04
 -3.18583184E-05  8.92140573E-04  5.83727721E-04 -1.72328981E-04  5.66431849E-05
  2.39327871E-04 -6.23672833E-05 -2.25023288E-05  4.54372543E-06 -1.27536364E-06
 -1.68205363E-05 -3.95094985E-05 -2.02505643E-04 -6.24279836E-05 -6.75508001E-05
  2.79231025E-04  4.37186997E-04  9.76835660E-01 -9.18324282E-03  4.34639462E-02
  1.59664210E-04 -1.87636792E-03 -2.12855558E-03  5.41263289E-04  2.41018542E-04
  2.12250026E-03 -6.18632552E-04 -2.20486827E-04  2.06687842E-05  7.32132588E-04
 -9.22390263E-05 -3.34117678E-06 -3.60094839E-04  1.43571310E-06  3.16574023E-05
 -1.54084028E-06 -3.78995047E-06  3.78155208E-05  8.98744515E-05  7.47599565E-04
  1.03890776E-04  7.75820753E-05  2.77112878E-04  3.11611696E-04 -2.41485514E-04
 -2.62186062E-06  4.17585187E-05  1.19955531E-04 -3.12513217E-04  7.70988443E-06
 -6.27947483E-05  4.89468571E-05 -5.20712772E-06 -4.39388193E-07 -4.61080060E-05