 Entering Gaussian System, Link 0=g16
 Input=hoono_r1_0p956752.gjf
 Output=hoono_r1_0p956752.log
 Initial command:
 /sw/contrib/gaussian/g16/B01/g16/l1.exe "/scr/Gau-9072.inp" -scrdir="/scr/"
 Entering Link 1 = /sw/contrib/gaussian/g16/B01/g16/l1.exe PID=      9073.
  
 Copyright (c) 1988-2017, Gaussian, Inc.  All Rights Reserved.
  
 This is part of the Gaussian(R) 16 program.  It is based on
 the Gaussian(R) 09 system (copyright 2009, Gaussian, Inc.),
 the Gaussian(R) 03 system (copyright 2003, Gaussian, Inc.),
 the Gaussian(R) 98 system (copyright 1998, Gaussian, Inc.),
 the Gaussian(R) 94 system (copyright 1995, Gaussian, Inc.),
 the Gaussian 92(TM) system (copyright 1992, Gaussian, Inc.),
 the Gaussian 90(TM) system (copyright 1990, Gaussian, Inc.),
 the Gaussian 88(TM) system (copyright 1988, Gaussian, Inc.),
 the Gaussian 86(TM) system (copyright 1986, Carnegie Mellon
 University), and the Gaussian 82(TM) system (copyright 1983,
 Carnegie Mellon University). Gaussian is a federally registered
 trademark of Gaussian, Inc.
  
 This software contains proprietary and confidential information,
 including trade secrets, belonging to Gaussian, Inc.
  
 This software is provided under written license and may be
 used, copied, transmitted, or stored only in accord with that
 written license.
  
 The following legend is applicable only to US Government
 contracts under FAR:
  
                    RESTRICTED RIGHTS LEGEND
  
 Use, reproduction and disclosure by the US Government is
 subject to restrictions as set forth in subparagraphs (a)
 and (c) of the Commercial Computer Software - Restricted
 Rights clause in FAR 52.227-19.
  
 Gaussian, Inc.
 340 Quinnipiac St., Bldg. 40, Wallingford CT 06492
  
  
 ---------------------------------------------------------------
 Warning -- This program may not be used in any manner that
 competes with the business of Gaussian, Inc. or will provide
 assistance to any competitor of Gaussian, Inc.  The licensee
 of this program is prohibited from giving any competitor of
 Gaussian, Inc. access to this program.  By using this program,
 the user acknowledges that Gaussian, Inc. is engaged in the
 business of creating and licensing software in the field of
 computational chemistry and represents and warrants to the
 licensee that it is not a competitor of Gaussian, Inc. and that
 it will not use this program in any manner prohibited above.
 ---------------------------------------------------------------
  

 Cite this work as:
 Gaussian 16, Revision B.01,
 M. J. Frisch, G. W. Trucks, H. B. Schlegel, G. E. Scuseria, 
 M. A. Robb, J. R. Cheeseman, G. Scalmani, V. Barone, 
 G. A. Petersson, H. Nakatsuji, X. Li, M. Caricato, A. V. Marenich, 
 J. Bloino, B. G. Janesko, R. Gomperts, B. Mennucci, H. P. Hratchian, 
 J. V. Ortiz, A. F. Izmaylov, J. L. Sonnenberg, D. Williams-Young, 
 F. Ding, F. Lipparini, F. Egidi, J. Goings, B. Peng, A. Petrone, 
 T. Henderson, D. Ranasinghe, V. G. Zakrzewski, J. Gao, N. Rega, 
 G. Zheng, W. Liang, M. Hada, M. Ehara, K. Toyota, R. Fukuda, 
 J. Hasegawa, M. Ishida, T. Nakajima, Y. Honda, O. Kitao, H. Nakai, 
 T. Vreven, K. Throssell, J. A. Montgomery, Jr., J. E. Peralta, 
 F. Ogliaro, M. J. Bearpark, J. J. Heyd, E. N. Brothers, K. N. Kudin, 
 V. N. Staroverov, T. A. Keith, R. Kobayashi, J. Normand, 
 K. Raghavachari, A. P. Rendell, J. C. Burant, S. S. Iyengar, 
 J. Tomasi, M. Cossi, J. M. Millam, M. Klene, C. Adamo, R. Cammi, 
 J. W. Ochterski, R. L. Martin, K. Morokuma, O. Farkas, 
 J. B. Foresman, and D. J. Fox, Gaussian, Inc., Wallingford CT, 2016.
 
 ******************************************
 Gaussian 16:  ES64L-G16RevB.01 20-Dec-2017
                21-Feb-2022 
 ******************************************
 %nproc=28
 Will use up to   28 processors via shared memory.
 %mem=120GB
 %chk=hoono_r1_0p956752.chk
 ---------------------------------------
 #p freq mp2/aug-cc-pvtz density=current
 ---------------------------------------
 1/10=4,30=1,38=1/1,3;
 2/12=2,17=6,18=5,40=1/2;
 3/5=16,6=1,7=10,11=9,25=1,30=1,71=2,140=1/1,2,3;
 4//1;
 5/5=2,38=5,98=1/2;
 8/6=3,8=1,10=1,19=11,30=-1/1;
 9/15=3,16=-3/6;
 11/6=1,8=1,15=11,17=12,24=-1,27=1,28=-2,29=300,32=6,42=3/1,2,10;
 10/6=2,21=1/2;
 8/6=4,8=1,10=1,19=11,30=-1/11,4;
 10/5=1,20=4/2;
 11/12=2,14=11,16=1,17=2,28=-2,42=3,76=2/2,10,12;
 6/7=2,8=2,9=2,10=2,22=-1/1;
 7/8=1,10=1,12=2,25=1,44=2/1,2,3,16;
 1/10=4,30=1/3;
 99//99;
 Leave Link    1 at Mon Feb 21 20:02:20 2022, MaxMem= 16106127360 cpu:               2.3 elap:               0.1
 (Enter /sw/contrib/gaussian/g16/B01/g16/l101.exe)
 -----
 title
 -----
 Symbolic Z-matrix:
 Charge =  0 Multiplicity = 1
 H
 O                    1    r1
 O                    2    r2       1    a1
 N                    3    r3       2    a2       1    d1       0
 O                    4    r4       3    a3       2    d2       0
       Variables:
  r1                    0.95675                  
  r2                    1.45492                  
  r3                    1.45878                  
  r4                    1.17073                  
  a1                   97.59495                  
  a2                  102.29752                  
  a3                  109.06955                  
  d1                  180.                       
  d2                  180.                       
 
 ITRead=  0  0  0  0  0
 MicOpt= -1 -1 -1 -1 -1
 NAtoms=      5 NQM=        5 NQMF=       0 NMMI=      0 NMMIF=      0
                NMic=       0 NMicF=      0.
                    Isotopes and Nuclear Properties:
 (Nuclear quadrupole moments (NQMom) in fm**2, nuclear magnetic moments (NMagM)
  in nuclear magnetons)

  Atom         1           2           3           4           5
 IAtWgt=           1          16          16          14          16
 AtmWgt=   1.0078250  15.9949146  15.9949146  14.0030740  15.9949146
 NucSpn=           1           0           0           2           0
 AtZEff=  -0.0000000  -0.0000000  -0.0000000  -0.0000000  -0.0000000
 NQMom=    0.0000000   0.0000000   0.0000000   2.0440000   0.0000000
 NMagM=    2.7928460   0.0000000   0.0000000   0.4037610   0.0000000
 AtZNuc=   1.0000000   8.0000000   8.0000000   7.0000000   8.0000000
 Leave Link  101 at Mon Feb 21 20:02:20 2022, MaxMem= 16106127360 cpu:               3.2 elap:               0.1
 (Enter /sw/contrib/gaussian/g16/B01/g16/l103.exe)

 GradGradGradGradGradGradGradGradGradGradGradGradGradGradGradGradGradGrad
 Berny optimization.
 Initialization pass.
                       ----------------------------
                       !    Initial Parameters    !
                       ! (Angstroms and Degrees)  !
 ----------------------                            ----------------------
 !      Name          Value   Derivative information (Atomic Units)     !
 ------------------------------------------------------------------------
 !       r1          0.9568   calculate D2E/DX2 analytically            !
 !       r2          1.4549   calculate D2E/DX2 analytically            !
 !       r3          1.4588   calculate D2E/DX2 analytically            !
 !       r4          1.1707   calculate D2E/DX2 analytically            !
 !       a1         97.5949   calculate D2E/DX2 analytically            !
 !       a2        102.2975   calculate D2E/DX2 analytically            !
 !       a3        109.0696   calculate D2E/DX2 analytically            !
 !       d1        180.0      calculate D2E/DX2 analytically            !
 !       d2        180.0      calculate D2E/DX2 analytically            !
 ------------------------------------------------------------------------
 Trust Radius=3.00D-01 FncErr=1.00D-07 GrdErr=1.00D-07 EigMax=2.50D+02 EigMin=1.00D-04
 Number of steps in this run=      2 maximum allowed number of steps=      2.
 GradGradGradGradGradGradGradGradGradGradGradGradGradGradGradGradGradGrad

 Leave Link  103 at Mon Feb 21 20:02:21 2022, MaxMem= 16106127360 cpu:               0.5 elap:               0.0
 (Enter /sw/contrib/gaussian/g16/B01/g16/l202.exe)
                          Input orientation:                          
 ---------------------------------------------------------------------
 Center     Atomic      Atomic             Coordinates (Angstroms)
 Number     Number       Type             X           Y           Z
 ---------------------------------------------------------------------
      1          1           0        0.000000    0.000000    0.000000
      2          8           0        0.000000    0.000000    0.956752
      3          8           0        1.442156    0.000000    1.149047
      4          7           0        1.561752    0.000000    2.602921
      5          8           0        2.695867    0.000000    2.893415
 ---------------------------------------------------------------------
                    Distance matrix (angstroms):
                    1          2          3          4          5
     1  H    0.000000
     2  O    0.956752   0.000000
     3  O    1.843942   1.454919   0.000000
     4  N    3.035501   2.269127   1.458784   0.000000
     5  O    3.954688   3.319392   2.148165   1.170729   0.000000
 Stoichiometry    HNO3
 Framework group  CS[SG(HNO3)]
 Deg. of freedom     7
 Full point group                 CS      NOp   2
 Largest Abelian subgroup         CS      NOp   2
 Largest concise Abelian subgroup C1      NOp   1
                         Standard orientation:                         
 ---------------------------------------------------------------------
 Center     Atomic      Atomic             Coordinates (Angstroms)
 Number     Number       Type             X           Y           Z
 ---------------------------------------------------------------------
      1          1           0        1.547857    1.675517    0.000000
      2          8           0        1.454060    0.723374    0.000000
      3          8           0        0.000000    0.673389   -0.000000
      4          7           0       -0.261552   -0.761756    0.000000
      5          8           0       -1.418684   -0.939667   -0.000000
 ---------------------------------------------------------------------
 Rotational constants (GHZ):          55.0059920           5.0129762           4.5942764
 Leave Link  202 at Mon Feb 21 20:02:21 2022, MaxMem= 16106127360 cpu:               0.4 elap:               0.0
 (Enter /sw/contrib/gaussian/g16/B01/g16/l301.exe)
 Standard basis: Aug-CC-pVTZ (5D, 7F)
 Ernie: Thresh=  0.10000D-02 Tol=  0.10000D-05 Strict=F.
 Ernie:  12 primitive shells out of 131 were deleted.
 There are   166 symmetry adapted cartesian basis functions of A'  symmetry.
 There are    79 symmetry adapted cartesian basis functions of A"  symmetry.
 There are   136 symmetry adapted basis functions of A'  symmetry.
 There are    71 symmetry adapted basis functions of A"  symmetry.
   207 basis functions,   315 primitive gaussians,   245 cartesian basis functions
    16 alpha electrons       16 beta electrons
       nuclear repulsion energy       116.9439244358 Hartrees.
 IExCor=    0 DFT=F Ex=HF Corr=None ExCW=0 ScaHFX=  1.000000
 ScaDFX=  1.000000  1.000000  1.000000  1.000000 ScalE2=  1.000000  1.000000
 IRadAn=      5 IRanWt=     -1 IRanGd=            0 ICorTp=0 IEmpDi=  4
 NAtoms=    5 NActive=    5 NUniq=    5 SFac= 1.00D+00 NAtFMM=   60 NAOKFM=F Big=F
 Integral buffers will be    131072 words long.
 Raffenetti 1 integral format.
 Two-electron integral symmetry is turned on.
 Leave Link  301 at Mon Feb 21 20:02:21 2022, MaxMem= 16106127360 cpu:               1.6 elap:               0.1
 (Enter /sw/contrib/gaussian/g16/B01/g16/l302.exe)
 NPDir=0 NMtPBC=     1 NCelOv=     1 NCel=       1 NClECP=     1 NCelD=      1
         NCelK=      1 NCelE2=     1 NClLst=     1 CellRange=     0.0.
 One-electron integrals computed using PRISM.
 One-electron integral symmetry used in STVInt
 NBasis=   207 RedAO= T EigKep=  1.80D-04  NBF=   136    71
 NBsUse=   207 1.00D-06 EigRej= -1.00D+00 NBFU=   136    71
 Leave Link  302 at Mon Feb 21 20:02:21 2022, MaxMem= 16106127360 cpu:               4.9 elap:               0.2
 (Enter /sw/contrib/gaussian/g16/B01/g16/l303.exe)
 DipDrv:  MaxL=1.
 Leave Link  303 at Mon Feb 21 20:02:21 2022, MaxMem= 16106127360 cpu:               1.4 elap:               0.1
 (Enter /sw/contrib/gaussian/g16/B01/g16/l401.exe)
 ExpMin= 2.53D-02 ExpMax= 1.53D+04 ExpMxC= 5.22D+02 IAcc=3 IRadAn=         5 AccDes= 0.00D+00
 Harris functional with IExCor=  205 and IRadAn=       5 diagonalized for initial guess.
 HarFok:  IExCor=  205 AccDes= 0.00D+00 IRadAn=         5 IDoV= 1 UseB2=F ITyADJ=14
 ICtDFT=  3500011 ScaDFX=  1.000000  1.000000  1.000000  1.000000
 FoFCou: FMM=F IPFlag=           0 FMFlag=      100000 FMFlg1=           0
         NFxFlg=           0 DoJE=T BraDBF=F KetDBF=T FulRan=T
         wScrn=  0.000000 ICntrl=       500 IOpCl=  0 I1Cent=   200000004 NGrid=           0
         NMat0=    1 NMatS0=      1 NMatT0=    0 NMatD0=    1 NMtDS0=    0 NMtDT0=    0
 Petite list used in FoFCou.
 Harris En= -279.628730130260    
 JPrj=0 DoOrth=F DoCkMO=F.
 Initial guess orbital symmetries:
       Occupied  (A') (A') (A') (A') (A') (A') (A') (A') (A') (A')
                 (A") (A') (A') (A") (A") (A')
       Virtual   (A") (A') (A') (A') (A') (A') (A") (A') (A') (A')
                 (A") (A') (A") (A') (A') (A") (A') (A") (A') (A')
                 (A') (A') (A') (A') (A') (A") (A') (A") (A') (A')
                 (A") (A') (A") (A') (A') (A") (A') (A") (A') (A')
                 (A") (A') (A") (A') (A") (A') (A') (A') (A") (A")
                 (A') (A') (A') (A') (A") (A') (A") (A') (A") (A')
                 (A') (A') (A") (A') (A') (A") (A') (A") (A') (A')
                 (A") (A') (A') (A") (A") (A') (A') (A") (A') (A')
                 (A') (A") (A') (A") (A') (A") (A') (A") (A') (A')
                 (A') (A") (A') (A") (A') (A") (A") (A') (A') (A")
                 (A') (A') (A") (A') (A') (A') (A') (A") (A") (A')
                 (A") (A') (A') (A') (A") (A') (A') (A') (A") (A')
                 (A") (A') (A') (A") (A") (A') (A") (A') (A") (A')
                 (A') (A') (A') (A") (A") (A') (A") (A') (A') (A')
                 (A') (A") (A") (A') (A') (A") (A') (A') (A') (A')
                 (A") (A') (A') (A") (A') (A") (A') (A") (A') (A")
                 (A') (A") (A') (A") (A') (A") (A") (A") (A') (A')
                 (A") (A') (A") (A') (A") (A') (A") (A") (A') (A')
                 (A') (A') (A') (A') (A') (A') (A') (A') (A') (A')
                 (A')
 The electronic state of the initial guess is 1-A'.
 Leave Link  401 at Mon Feb 21 20:02:21 2022, MaxMem= 16106127360 cpu:               6.9 elap:               0.3
 (Enter /sw/contrib/gaussian/g16/B01/g16/l502.exe)
 Keep R1 ints in memory in symmetry-blocked form, NReq=348887737.
 FoFCou: FMM=F IPFlag=           0 FMFlag=           0 FMFlg1=           0
         NFxFlg=           0 DoJE=F BraDBF=F KetDBF=F FulRan=T
         wScrn=  0.000000 ICntrl=       600 IOpCl=  0 I1Cent=           0 NGrid=           0
         NMat0=    1 NMatS0=  21528 NMatT0=    0 NMatD0=    1 NMtDS0=    0 NMtDT0=    0
 Petite list used in FoFCou.
 Closed shell SCF:
 Using DIIS extrapolation, IDIIS=  1040.
 NGot= 16106127360 LenX= 15988850015 LenY= 15988789549
 Requested convergence on RMS density matrix=1.00D-08 within 128 cycles.
 Requested convergence on MAX density matrix=1.00D-06.
 Requested convergence on             energy=1.00D-06.
 No special actions if energy rises.

 Cycle   1  Pass 1  IDiag  1:
 E= -279.370107611104    
 DIIS: error= 2.56D-02 at cycle   1 NSaved=   1.
 NSaved= 1 IEnMin= 1 EnMin= -279.370107611104     IErMin= 1 ErrMin= 2.56D-02
 ErrMax= 2.56D-02  0.00D+00 EMaxC= 1.00D-01 BMatC= 4.40D-01 BMatP= 4.40D-01
 IDIUse=3 WtCom= 7.44D-01 WtEn= 2.56D-01
 Coeff-Com:  0.100D+01
 Coeff-En:   0.100D+01
 Coeff:      0.100D+01
 Gap=     0.513 Goal=   None    Shift=    0.000
 GapD=    0.513 DampG=2.000 DampE=0.500 DampFc=1.0000 IDamp=-1.
 RMSDP=1.63D-03 MaxDP=9.91D-02              OVMax= 1.14D-01

 Cycle   2  Pass 1  IDiag  1:
 E= -279.452248677152     Delta-E=       -0.082141066049 Rises=F Damp=F
 DIIS: error= 1.81D-02 at cycle   2 NSaved=   2.
 NSaved= 2 IEnMin= 2 EnMin= -279.452248677152     IErMin= 2 ErrMin= 1.81D-02
 ErrMax= 1.81D-02  0.00D+00 EMaxC= 1.00D-01 BMatC= 7.28D-02 BMatP= 4.40D-01
 IDIUse=3 WtCom= 8.19D-01 WtEn= 1.81D-01
 Coeff-Com:  0.197D+00 0.803D+00
 Coeff-En:   0.000D+00 0.100D+01
 Coeff:      0.161D+00 0.839D+00
 Gap=     0.530 Goal=   None    Shift=    0.000
 RMSDP=9.06D-04 MaxDP=3.73D-02 DE=-8.21D-02 OVMax= 6.92D-02

 Cycle   3  Pass 1  IDiag  1:
 E= -279.481842821184     Delta-E=       -0.029594144032 Rises=F Damp=F
 DIIS: error= 1.05D-02 at cycle   3 NSaved=   3.
 NSaved= 3 IEnMin= 3 EnMin= -279.481842821184     IErMin= 3 ErrMin= 1.05D-02
 ErrMax= 1.05D-02  0.00D+00 EMaxC= 1.00D-01 BMatC= 2.89D-02 BMatP= 7.28D-02
 IDIUse=3 WtCom= 8.95D-01 WtEn= 1.05D-01
 Coeff-Com: -0.329D-01 0.377D+00 0.656D+00
 Coeff-En:   0.000D+00 0.239D+00 0.761D+00
 Coeff:     -0.294D-01 0.363D+00 0.667D+00
 Gap=     0.511 Goal=   None    Shift=    0.000
 RMSDP=3.78D-04 MaxDP=1.54D-02 DE=-2.96D-02 OVMax= 3.84D-02

 Cycle   4  Pass 1  IDiag  1:
 E= -279.501049559863     Delta-E=       -0.019206738679 Rises=F Damp=F
 DIIS: error= 1.32D-03 at cycle   4 NSaved=   4.
 NSaved= 4 IEnMin= 4 EnMin= -279.501049559863     IErMin= 4 ErrMin= 1.32D-03
 ErrMax= 1.32D-03  0.00D+00 EMaxC= 1.00D-01 BMatC= 5.03D-04 BMatP= 2.89D-02
 IDIUse=3 WtCom= 9.87D-01 WtEn= 1.32D-02
 Coeff-Com: -0.118D-01 0.585D-01 0.161D+00 0.792D+00
 Coeff-En:   0.000D+00 0.000D+00 0.000D+00 0.100D+01
 Coeff:     -0.117D-01 0.577D-01 0.159D+00 0.795D+00
 Gap=     0.503 Goal=   None    Shift=    0.000
 RMSDP=9.03D-05 MaxDP=2.78D-03 DE=-1.92D-02 OVMax= 1.12D-02

 Cycle   5  Pass 1  IDiag  1:
 E= -279.501730236610     Delta-E=       -0.000680676747 Rises=F Damp=F
 DIIS: error= 7.34D-04 at cycle   5 NSaved=   5.
 NSaved= 5 IEnMin= 5 EnMin= -279.501730236610     IErMin= 5 ErrMin= 7.34D-04
 ErrMax= 7.34D-04  0.00D+00 EMaxC= 1.00D-01 BMatC= 8.70D-05 BMatP= 5.03D-04
 IDIUse=3 WtCom= 9.93D-01 WtEn= 7.34D-03
 Coeff-Com:  0.613D-02-0.720D-01-0.118D+00 0.139D-01 0.117D+01
 Coeff-En:   0.000D+00 0.000D+00 0.000D+00 0.000D+00 0.100D+01
 Coeff:      0.609D-02-0.715D-01-0.117D+00 0.138D-01 0.117D+01
 Gap=     0.503 Goal=   None    Shift=    0.000
 RMSDP=7.66D-05 MaxDP=2.11D-03 DE=-6.81D-04 OVMax= 1.11D-02

 Cycle   6  Pass 1  IDiag  1:
 E= -279.502046716469     Delta-E=       -0.000316479859 Rises=F Damp=F
 DIIS: error= 2.87D-04 at cycle   6 NSaved=   6.
 NSaved= 6 IEnMin= 6 EnMin= -279.502046716469     IErMin= 6 ErrMin= 2.87D-04
 ErrMax= 2.87D-04  0.00D+00 EMaxC= 1.00D-01 BMatC= 1.66D-05 BMatP= 8.70D-05
 IDIUse=3 WtCom= 9.97D-01 WtEn= 2.87D-03
 Coeff-Com:  0.566D-03 0.194D-02 0.510D-02-0.127D+00-0.241D+00 0.136D+01
 Coeff-En:   0.000D+00 0.000D+00 0.000D+00 0.000D+00 0.000D+00 0.100D+01
 Coeff:      0.564D-03 0.194D-02 0.509D-02-0.127D+00-0.240D+00 0.136D+01
 Gap=     0.503 Goal=   None    Shift=    0.000
 RMSDP=4.54D-05 MaxDP=1.25D-03 DE=-3.16D-04 OVMax= 5.55D-03

 Cycle   7  Pass 1  IDiag  1:
 E= -279.502119482617     Delta-E=       -0.000072766148 Rises=F Damp=F
 DIIS: error= 1.20D-04 at cycle   7 NSaved=   7.
 NSaved= 7 IEnMin= 7 EnMin= -279.502119482617     IErMin= 7 ErrMin= 1.20D-04
 ErrMax= 1.20D-04  0.00D+00 EMaxC= 1.00D-01 BMatC= 4.44D-06 BMatP= 1.66D-05
 IDIUse=3 WtCom= 9.99D-01 WtEn= 1.20D-03
 Coeff-Com: -0.943D-03 0.135D-01 0.265D-01-0.220D-01-0.288D+00 0.386D+00
 Coeff-Com:  0.885D+00
 Coeff-En:   0.000D+00 0.000D+00 0.000D+00 0.000D+00 0.000D+00 0.000D+00
 Coeff-En:   0.100D+01
 Coeff:     -0.942D-03 0.135D-01 0.265D-01-0.220D-01-0.288D+00 0.385D+00
 Coeff:      0.885D+00
 Gap=     0.503 Goal=   None    Shift=    0.000
 RMSDP=1.32D-05 MaxDP=3.79D-04 DE=-7.28D-05 OVMax= 1.54D-03

 Cycle   8  Pass 1  IDiag  1:
 E= -279.502128267946     Delta-E=       -0.000008785330 Rises=F Damp=F
 DIIS: error= 5.81D-05 at cycle   8 NSaved=   8.
 NSaved= 8 IEnMin= 8 EnMin= -279.502128267946     IErMin= 8 ErrMin= 5.81D-05
 ErrMax= 5.81D-05  0.00D+00 EMaxC= 1.00D-01 BMatC= 6.02D-07 BMatP= 4.44D-06
 IDIUse=1 WtCom= 1.00D+00 WtEn= 0.00D+00
 Coeff-Com: -0.446D-03 0.341D-02 0.755D-02 0.270D-01-0.399D-01-0.198D+00
 Coeff-Com:  0.177D+00 0.102D+01
 Coeff:     -0.446D-03 0.341D-02 0.755D-02 0.270D-01-0.399D-01-0.198D+00
 Coeff:      0.177D+00 0.102D+01
 Gap=     0.503 Goal=   None    Shift=    0.000
 RMSDP=6.84D-06 MaxDP=2.02D-04 DE=-8.79D-06 OVMax= 7.41D-04

 Cycle   9  Pass 1  IDiag  1:
 E= -279.502130018215     Delta-E=       -0.000001750268 Rises=F Damp=F
 DIIS: error= 1.59D-05 at cycle   9 NSaved=   9.
 NSaved= 9 IEnMin= 9 EnMin= -279.502130018215     IErMin= 9 ErrMin= 1.59D-05
 ErrMax= 1.59D-05  0.00D+00 EMaxC= 1.00D-01 BMatC= 6.95D-08 BMatP= 6.02D-07
 IDIUse=1 WtCom= 1.00D+00 WtEn= 0.00D+00
 Coeff-Com:  0.124D-03-0.172D-02-0.309D-02-0.219D-02 0.344D-01 0.138D-03
 Coeff-Com: -0.170D+00-0.100D+00 0.124D+01
 Coeff:      0.124D-03-0.172D-02-0.309D-02-0.219D-02 0.344D-01 0.138D-03
 Coeff:     -0.170D+00-0.100D+00 0.124D+01
 Gap=     0.503 Goal=   None    Shift=    0.000
 RMSDP=1.94D-06 MaxDP=6.65D-05 DE=-1.75D-06 OVMax= 1.75D-04

 Cycle  10  Pass 1  IDiag  1:
 E= -279.502130177882     Delta-E=       -0.000000159668 Rises=F Damp=F
 DIIS: error= 4.11D-06 at cycle  10 NSaved=  10.
 NSaved=10 IEnMin=10 EnMin= -279.502130177882     IErMin=10 ErrMin= 4.11D-06
 ErrMax= 4.11D-06  0.00D+00 EMaxC= 1.00D-01 BMatC= 5.48D-09 BMatP= 6.95D-08
 IDIUse=1 WtCom= 1.00D+00 WtEn= 0.00D+00
 Coeff-Com:  0.301D-04-0.231D-03-0.306D-03-0.264D-02 0.138D-02 0.196D-01
 Coeff-Com: -0.128D-01-0.726D-01-0.850D-01 0.115D+01
 Coeff:      0.301D-04-0.231D-03-0.306D-03-0.264D-02 0.138D-02 0.196D-01
 Coeff:     -0.128D-01-0.726D-01-0.850D-01 0.115D+01
 Gap=     0.503 Goal=   None    Shift=    0.000
 RMSDP=5.03D-07 MaxDP=2.10D-05 DE=-1.60D-07 OVMax= 4.18D-05

 Cycle  11  Pass 1  IDiag  1:
 E= -279.502130190318     Delta-E=       -0.000000012436 Rises=F Damp=F
 DIIS: error= 2.03D-06 at cycle  11 NSaved=  11.
 NSaved=11 IEnMin=11 EnMin= -279.502130190318     IErMin=11 ErrMin= 2.03D-06
 ErrMax= 2.03D-06  0.00D+00 EMaxC= 1.00D-01 BMatC= 6.55D-10 BMatP= 5.48D-09
 IDIUse=1 WtCom= 1.00D+00 WtEn= 0.00D+00
 Coeff-Com: -0.212D-04 0.242D-03 0.486D-03 0.534D-03-0.427D-02-0.354D-02
 Coeff-Com:  0.214D-01 0.304D-01-0.139D+00-0.177D+00 0.127D+01
 Coeff:     -0.212D-04 0.242D-03 0.486D-03 0.534D-03-0.427D-02-0.354D-02
 Coeff:      0.214D-01 0.304D-01-0.139D+00-0.177D+00 0.127D+01
 Gap=     0.503 Goal=   None    Shift=    0.000
 RMSDP=1.77D-07 MaxDP=6.50D-06 DE=-1.24D-08 OVMax= 1.72D-05

 Cycle  12  Pass 1  IDiag  1:
 E= -279.502130192112     Delta-E=       -0.000000001793 Rises=F Damp=F
 DIIS: error= 5.86D-07 at cycle  12 NSaved=  12.
 NSaved=12 IEnMin=12 EnMin= -279.502130192112     IErMin=12 ErrMin= 5.86D-07
 ErrMax= 5.86D-07  0.00D+00 EMaxC= 1.00D-01 BMatC= 7.15D-11 BMatP= 6.55D-10
 IDIUse=1 WtCom= 1.00D+00 WtEn= 0.00D+00
 Coeff-Com:  0.127D-05-0.293D-04-0.638D-04 0.175D-03 0.110D-02-0.232D-02
 Coeff-Com: -0.415D-02 0.554D-02 0.419D-01-0.116D+00-0.277D+00 0.135D+01
 Coeff:      0.127D-05-0.293D-04-0.638D-04 0.175D-03 0.110D-02-0.232D-02
 Coeff:     -0.415D-02 0.554D-02 0.419D-01-0.116D+00-0.277D+00 0.135D+01
 Gap=     0.503 Goal=   None    Shift=    0.000
 RMSDP=7.19D-08 MaxDP=2.83D-06 DE=-1.79D-09 OVMax= 6.66D-06

 Cycle  13  Pass 1  IDiag  1:
 E= -279.502130192342     Delta-E=       -0.000000000230 Rises=F Damp=F
 DIIS: error= 1.69D-07 at cycle  13 NSaved=  13.
 NSaved=13 IEnMin=13 EnMin= -279.502130192342     IErMin=13 ErrMin= 1.69D-07
 ErrMax= 1.69D-07  0.00D+00 EMaxC= 1.00D-01 BMatC= 4.01D-12 BMatP= 7.15D-11
 IDIUse=1 WtCom= 1.00D+00 WtEn= 0.00D+00
 Coeff-Com:  0.127D-05-0.138D-04-0.223D-04-0.882D-04 0.117D-03 0.763D-03
 Coeff-Com: -0.864D-03-0.323D-02 0.530D-03 0.415D-01-0.367D-01-0.325D+00
 Coeff-Com:  0.132D+01
 Coeff:      0.127D-05-0.138D-04-0.223D-04-0.882D-04 0.117D-03 0.763D-03
 Coeff:     -0.864D-03-0.323D-02 0.530D-03 0.415D-01-0.367D-01-0.325D+00
 Coeff:      0.132D+01
 Gap=     0.503 Goal=   None    Shift=    0.000
 RMSDP=1.92D-08 MaxDP=5.59D-07 DE=-2.30D-10 OVMax= 1.57D-06

 Cycle  14  Pass 1  IDiag  1:
 E= -279.502130192354     Delta-E=       -0.000000000013 Rises=F Damp=F
 DIIS: error= 2.43D-08 at cycle  14 NSaved=  14.
 NSaved=14 IEnMin=14 EnMin= -279.502130192354     IErMin=14 ErrMin= 2.43D-08
 ErrMax= 2.43D-08  0.00D+00 EMaxC= 1.00D-01 BMatC= 1.95D-13 BMatP= 4.01D-12
 IDIUse=1 WtCom= 1.00D+00 WtEn= 0.00D+00
 Coeff-Com: -0.189D-06 0.309D-05 0.556D-05 0.468D-05-0.825D-04 0.459D-04
 Coeff-Com:  0.284D-03 0.218D-03-0.244D-02 0.149D-02 0.169D-01-0.255D-01
 Coeff-Com: -0.200D+00 0.121D+01
 Coeff:     -0.189D-06 0.309D-05 0.556D-05 0.468D-05-0.825D-04 0.459D-04
 Coeff:      0.284D-03 0.218D-03-0.244D-02 0.149D-02 0.169D-01-0.255D-01
 Coeff:     -0.200D+00 0.121D+01
 Gap=     0.503 Goal=   None    Shift=    0.000
 RMSDP=3.79D-09 MaxDP=9.14D-08 DE=-1.26D-11 OVMax= 3.41D-07

 SCF Done:  E(RHF) =  -279.502130192     A.U. after   14 cycles
            NFock= 14  Conv=0.38D-08     -V/T= 2.0023
 KE= 2.788687815699D+02 PE=-8.952183752481D+02 EE= 2.199035390500D+02
 Leave Link  502 at Mon Feb 21 20:02:25 2022, MaxMem= 16106127360 cpu:              54.5 elap:               3.5
 (Enter /sw/contrib/gaussian/g16/B01/g16/l801.exe)
 ExpMin= 2.53D-02 ExpMax= 1.53D+04 ExpMxC= 5.22D+02 IAcc=3 IRadAn=         5 AccDes= 0.00D+00
 HarFok:  IExCor=  205 AccDes= 0.00D+00 IRadAn=         5 IDoV=-2 UseB2=F ITyADJ=14
 ICtDFT= 12500011 ScaDFX=  1.000000  1.000000  1.000000  1.000000
 Largest valence mixing into a core orbital is  2.08D-04
 Largest core mixing into a valence orbital is  3.63D-05
 Range of M.O.s used for correlation:     5   207
 NBasis=   207 NAE=    16 NBE=    16 NFC=     4 NFV=     0
 NROrb=    203 NOA=    12 NOB=    12 NVA=   191 NVB=   191

 **** Warning!!: The largest alpha MO coefficient is  0.17899573D+02

 Leave Link  801 at Mon Feb 21 20:02:25 2022, MaxMem= 16106127360 cpu:               2.1 elap:               0.1
 (Enter /sw/contrib/gaussian/g16/B01/g16/l906.exe)
 Frozen-core derivative calculation, NFC=   4 NFV=   0.
 FulOut=F Deriv=T AODrv=T NAtomX=     5
   MMem=           0  MDisk=          12 MDiskD=          12
  W3Min=      811440 MinDsk=     2425030 NBas6D=         245
 NBas2D=       30762    NTT=       30135    LW2=     7400000
    MDV= 16105574283 MDiskM=      328644 NBas2p=       30702
 Disk-based method using ON**2 memory for 12 occupieds at a time.
 Permanent disk used for amplitudes=    11516536 words.
 Estimated scratch disk usage=   321251614 words.
 IMap=   1   2   3   4   5   6   7   8   9  10  11  12  13  14  15  16
 Actual    scratch disk usage=   310331678 words.
 JobTyp=1 Pass  1:  I=   5 to  16 NPSUse= 28 ParTrn=T ParDer=T DoDerP=T.
 (rs|ai) integrals will be sorted in core.
 Spin components of T(2) and E(2):
     alpha-alpha T2 =       0.3396608080D-01 E2=     -0.1223281046D+00
     alpha-beta  T2 =       0.1864956869D+00 E2=     -0.6998078231D+00
     beta-beta   T2 =       0.3396608080D-01 E2=     -0.1223281046D+00
 The integrals were generated   1 times.
 ANorm=    0.1120012432D+01
 E2 =    -0.9444640323D+00 EUMP2 =    -0.28044659422463D+03
 Leave Link  906 at Mon Feb 21 20:04:02 2022, MaxMem= 16106127360 cpu:            2716.0 elap:              97.1
 (Enter /sw/contrib/gaussian/g16/B01/g16/l1101.exe)
 Using compressed Sx but separate Hx and Fx, NAtomX=     5.
 Will process      6 centers per pass.
 Leave Link 1101 at Mon Feb 21 20:04:02 2022, MaxMem= 16106127360 cpu:               5.4 elap:               0.2
 (Enter /sw/contrib/gaussian/g16/B01/g16/l1102.exe)
 Leave Link 1102 at Mon Feb 21 20:04:02 2022, MaxMem= 16106127360 cpu:               1.9 elap:               0.1
 (Enter /sw/contrib/gaussian/g16/B01/g16/l1110.exe)
 Forming Gx(P) for the SCF density, NAtomX=     5.
 Integral derivatives from FoFJK, PRISM(SPDF).
 Do as many integral derivatives as possible in FoFJK.
 G2DrvN: MDV=   16106126844.
 G2DrvN: will do     6 centers at a time, making    1 passes.
 Calling FoFCou, ICntrl=  3107 FMM=F I1Cent=   0 AccDes= 0.00D+00.
 FoFJK:  IHMeth= 1 ICntrl=    3107 DoSepK=F KAlg= 0 I1Cent=           0 FoldK=F
 IRaf=         0 NMat=       1 IRICut=       1 DoRegI=T DoRafI=F ISym2E= 1 IDoP0=0 IntGTp=1.
 FoFCou: FMM=F IPFlag=           0 FMFlag=      100000 FMFlg1=           0
         NFxFlg=           0 DoJE=F BraDBF=F KetDBF=F FulRan=T
         wScrn=  0.000000 ICntrl=      3107 IOpCl=  0 I1Cent=           0 NGrid=           0
         NMat0=    1 NMatS0=      1 NMatT0=    0 NMatD0=    1 NMtDS0=    0 NMtDT0=    0
 Petite list used in FoFCou.
 End of G2Drv F.D. properties file   721 does not exist.
 End of G2Drv F.D. properties file   722 does not exist.
 End of G2Drv F.D. properties file   788 does not exist.
 Leave Link 1110 at Mon Feb 21 20:04:06 2022, MaxMem= 16106127360 cpu:              86.2 elap:               3.1
 (Enter /sw/contrib/gaussian/g16/B01/g16/l1002.exe)
 Minotr:  Closed shell wavefunction.
          IDoAtm=11111
          Frozen-core window.
          Direct CPHF calculation.
          Differentiating once with respect to electric field.
                with respect to dipole field.
          Differentiating once with respect to nuclear coordinates.
          Requested convergence is 1.0D-08 RMS, and 1.0D-07 maximum.
          Secondary convergence is 1.0D-12 RMS, and 1.0D-12 maximum.
          NewPWx=T KeepS1=T KeepF1=T KeepIn=T MapXYZ=F SortEE=F KeepMc=T.
 Keep R1 ints in memory in symmetry-blocked form, NReq=348888983.
 FoFCou: FMM=F IPFlag=           0 FMFlag=           0 FMFlg1=           0
         NFxFlg=           0 DoJE=F BraDBF=F KetDBF=F FulRan=T
         wScrn=  0.000000 ICntrl=       600 IOpCl=  0 I1Cent=           0 NGrid=           0
         NMat0=    1 NMatS0=  21528 NMatT0=    0 NMatD0=    1 NMtDS0=    0 NMtDT0=    0
 Petite list used in FoFCou.
          MDV=   16106127360 using IRadAn=       1.
          Solving linear equations simultaneously, MaxMat=       0.
          There are    18 degrees of freedom in the 1st order CPHF.  IDoFFX=6 NUNeed=    18.
     15 vectors produced by pass  0 Test12= 1.70D-14 5.56D-09 XBig12= 8.28D+00 1.06D+00.
 AX will form    15 AO Fock derivatives at one time.
     15 vectors produced by pass  1 Test12= 1.70D-14 5.56D-09 XBig12= 1.34D+00 2.64D-01.
     15 vectors produced by pass  2 Test12= 1.70D-14 5.56D-09 XBig12= 1.42D-01 9.81D-02.
     15 vectors produced by pass  3 Test12= 1.70D-14 5.56D-09 XBig12= 5.01D-03 1.12D-02.
     15 vectors produced by pass  4 Test12= 1.70D-14 5.56D-09 XBig12= 1.01D-04 1.96D-03.
     15 vectors produced by pass  5 Test12= 1.70D-14 5.56D-09 XBig12= 1.43D-06 1.81D-04.
     15 vectors produced by pass  6 Test12= 1.70D-14 5.56D-09 XBig12= 1.12D-08 1.41D-05.
     13 vectors produced by pass  7 Test12= 1.70D-14 5.56D-09 XBig12= 8.31D-11 1.30D-06.
      3 vectors produced by pass  8 Test12= 1.70D-14 5.56D-09 XBig12= 5.74D-13 1.23D-07.
      2 vectors produced by pass  9 Test12= 1.70D-14 5.56D-09 XBig12= 3.72D-15 9.86D-09.
 InvSVY:  IOpt=1 It=  1 EMax= 1.11D-15
 Solved reduced A of dimension   123 with    15 vectors.
 FullF1:  Do perturbations      1 to      18.
 Saving first derivative matrices.
 End of Minotr F.D. properties file   721 does not exist.
 End of Minotr F.D. properties file   722 does not exist.
 End of Minotr F.D. properties file   788 does not exist.
 Leave Link 1002 at Mon Feb 21 20:04:09 2022, MaxMem= 16106127360 cpu:              80.7 elap:               2.9
 (Enter /sw/contrib/gaussian/g16/B01/g16/l811.exe)
 MDV= 16106127360.
 Form MO integral derivatives with frozen-active canonical formalism.
 MOERI=1 MOERIx=1 NAtoms=     5 NAtomX=     5.
 Discarding MO integrals.
 MO basis two electron integral derivatives will not be stored on disk.
 IAlg= 3 DoFC=T DoPWx=T Debug=F.
 Frozen-core window:  NFC=   4 NFV=   0.
 Reordered first order wavefunction length =     18678272
 In DefCFB: NBatch=  1 ICI= 16 ICA=191 LFMax= 96
            Large arrays: LIAPS=   619940160 LIARS=   288257200 words.
 In StABat: MaxSiz= 55 MinSiz= 25 NAtomB=  5
 DoIAMN: NPSUse= 28.
 Leave Link  811 at Mon Feb 21 20:05:29 2022, MaxMem= 16106127360 cpu:            2250.3 elap:              80.5
 (Enter /sw/contrib/gaussian/g16/B01/g16/l804.exe)
 Frozen-core window:  NFC=   4 NFV=   0.
 Closed-shell transformation, MDV= 16106127360 ITran=4 ISComp=1.
 Semi-Direct transformation.
 ModeAB=           2 MOrb=            16 LenV=   16104923037
 LASXX=     67341636 LTotXX=    67341636 LenRXX=    67341636
 LTotAB=    68301760 MaxLAS=    99807120 LenRXY=    99807120
 NonZer=   134683272 LenScr=   202817536 LnRSAI=           0
 LnScr1=           0 LExtra=           0 Total=    369966292
 MaxDsk=          -1 SrtSym=           F ITran=            4
 DoSDTr:  NPSUse= 28
 JobTyp=0 Pass  1:  I=   1 to  16.
 (rs|ai) integrals will be sorted in core.
 Complete sort for first half transformation.
 First half transformation complete.
 Begin second half transformation for I=  10.
 Begin second half transformation for I=  10.
 Complete sort for second half transformation.
 Second half transformation complete.
 Spin components of T(2) and E(2):
     alpha-alpha T2 =       0.3396608080D-01 E2=     -0.1223281046D+00
     alpha-beta  T2 =       0.1864956869D+00 E2=     -0.6998078231D+00
     beta-beta   T2 =       0.3396608080D-01 E2=     -0.1223281046D+00
 ANorm=    0.1583936772D+01
 E2 =    -0.9444640323D+00 EUMP2 =    -0.28044659422463D+03
 Leave Link  804 at Mon Feb 21 20:05:45 2022, MaxMem= 16106127360 cpu:             431.0 elap:              15.4
 (Enter /sw/contrib/gaussian/g16/B01/g16/l1002.exe)
 Minotr:  Closed shell wavefunction.
          Computing MP2/KS-MP2 derivatives.
          Using Z-Vector for PSCF gradient.
          Skipping F1 and S1 gradient terms here.
          IDoAtm=11111
          Frozen-core window.
          Using MO integrals in the linear equations.
          Forming densities via direct SCF.
          Differentiating once with respect to electric field.
                with respect to dipole field.
          Differentiating once with respect to nuclear coordinates.
          Using symmetry in CPHF.
          Requested convergence is 1.0D-10 RMS, and 1.0D-09 maximum.
          NewPWx=F KeepS1=T KeepF1=T KeepIn=T MapXYZ=F SortEE=F KeepMc=T.
          MDV=   16106127360 using IRadAn=       5.
          Solving linear equations separately, MaxMat=       0.
          There are     1 degrees of freedom in the 1st order CPHF.  IDoFFX=0 NUNeed=     1.
 FoFJK:  IHMeth= 1 ICntrl=       0 DoSepK=F KAlg= 0 I1Cent=           0 FoldK=F
 IRaf=         0 NMat=       1 IRICut=       1 DoRegI=T DoRafI=F ISym2E= 0 IDoP0=0 IntGTp=1.
 FoFCou: FMM=F IPFlag=           0 FMFlag=      100000 FMFlg1=           0
         NFxFlg=           0 DoJE=F BraDBF=F KetDBF=F FulRan=T
         wScrn=  0.000000 ICntrl=         0 IOpCl=  0 I1Cent=           0 NGrid=           0
         NMat0=    1 NMatS0=      1 NMatT0=    0 NMatD0=    1 NMtDS0=    0 NMtDT0=    0
 Symmetry not used in FoFCou.
 LinEq1:  Iter=  0 NonCon=     1 RMS=5.95D-03 Max=1.32D-01 NDo=     1
 LinEq1:  Iter=  1 NonCon=     1 RMS=1.90D-03 Max=3.83D-02 NDo=     1
 LinEq1:  Iter=  2 NonCon=     1 RMS=8.67D-04 Max=1.42D-02 NDo=     1
 LinEq1:  Iter=  3 NonCon=     1 RMS=3.87D-04 Max=7.82D-03 NDo=     1
 LinEq1:  Iter=  4 NonCon=     1 RMS=1.19D-04 Max=1.90D-03 NDo=     1
 LinEq1:  Iter=  5 NonCon=     1 RMS=4.57D-05 Max=7.27D-04 NDo=     1
 LinEq1:  Iter=  6 NonCon=     1 RMS=2.04D-05 Max=2.31D-04 NDo=     1
 LinEq1:  Iter=  7 NonCon=     1 RMS=8.16D-06 Max=1.60D-04 NDo=     1
 LinEq1:  Iter=  8 NonCon=     1 RMS=3.45D-06 Max=3.42D-05 NDo=     1
 LinEq1:  Iter=  9 NonCon=     1 RMS=9.37D-07 Max=1.30D-05 NDo=     1
 LinEq1:  Iter= 10 NonCon=     1 RMS=1.84D-07 Max=2.00D-06 NDo=     1
 LinEq1:  Iter= 11 NonCon=     1 RMS=3.41D-08 Max=3.54D-07 NDo=     1
 LinEq1:  Iter= 12 NonCon=     1 RMS=8.24D-09 Max=1.27D-07 NDo=     1
 LinEq1:  Iter= 13 NonCon=     1 RMS=1.49D-09 Max=2.55D-08 NDo=     1
 LinEq1:  Iter= 14 NonCon=     1 RMS=2.70D-10 Max=3.80D-09 NDo=     1
 LinEq1:  Iter= 15 NonCon=     0 RMS=4.87D-11 Max=5.48D-10 NDo=     1
 Linear equations converged to 1.000D-10 1.000D-09 after    15 iterations.
 End of Minotr F.D. properties file   721 does not exist.
 End of Minotr F.D. properties file   722 does not exist.
 End of Minotr F.D. properties file   788 does not exist.
 Leave Link 1002 at Mon Feb 21 20:05:47 2022, MaxMem= 16106127360 cpu:              64.9 elap:               2.4
 (Enter /sw/contrib/gaussian/g16/B01/g16/l1102.exe)
 Use density number 2.
 Symmetrizing basis deriv contribution to polar:
 IMax=3 JMax=2 DiffMx= 0.00D+00
 Leave Link 1102 at Mon Feb 21 20:05:47 2022, MaxMem= 16106127360 cpu:               0.8 elap:               0.1
 (Enter /sw/contrib/gaussian/g16/B01/g16/l1110.exe)
 Forming Gx(P) for generalized density number  2 NAtomX=     5.
 Integral derivatives from FoFJK, PRISM(SPDF).
 Do as many integral derivatives as possible in FoFJK.
 G2DrvN: MDV=   16106126844.
 G2DrvN: will do     6 centers at a time, making    1 passes.
 Calling FoFCou, ICntrl=  3107 FMM=F I1Cent=   0 AccDes= 0.00D+00.
 FoFJK:  IHMeth= 1 ICntrl=    3107 DoSepK=F KAlg= 0 I1Cent=           0 FoldK=F
 IRaf=         0 NMat=       1 IRICut=       1 DoRegI=T DoRafI=F ISym2E= 1 IDoP0=0 IntGTp=1.
 FoFCou: FMM=F IPFlag=           0 FMFlag=      100000 FMFlg1=           0
         NFxFlg=           0 DoJE=F BraDBF=F KetDBF=F FulRan=T
         wScrn=  0.000000 ICntrl=      3107 IOpCl=  0 I1Cent=           0 NGrid=           0
         NMat0=    1 NMatS0=      1 NMatT0=    0 NMatD0=    1 NMtDS0=    0 NMtDT0=    0
 Petite list used in FoFCou.
 End of G2Drv F.D. properties file   721 does not exist.
 End of G2Drv F.D. properties file   722 does not exist.
 End of G2Drv F.D. properties file   788 does not exist.
 Leave Link 1110 at Mon Feb 21 20:05:50 2022, MaxMem= 16106127360 cpu:              83.6 elap:               3.0
 (Enter /sw/contrib/gaussian/g16/B01/g16/l1112.exe)
 MP22nd: MDV=   16106127360
 This link is doing NAtomX=     5 total of    18 degrees of freedom.
 Using ON3 I/O method in MakUI.
 Frozen-core window:  NFC=   4 NFV=   0.
 Using Ix for Sx.
 Use MO integrals over full window.
 Using OV2 memory method for fx*t*t/D, MaxI=    16 DoOO2=F NP=  28.
 R2 and R3 integrals will be kept in memory, NReq=   915591705.
 FoFCou: FMM=F IPFlag=           0 FMFlag=           0 FMFlg1=           0
         NFxFlg=           0 DoJE=F BraDBF=F KetDBF=F FulRan=T
         wScrn=  0.000000 ICntrl=       600 IOpCl=  0 I1Cent=           0 NGrid=           0
         NMat0=    1 NMatS0=      1 NMatT0=    0 NMatD0=    1 NMtDS0=    0 NMtDT0=    0
 Symmetry not used in FoFCou.
 DD1Dir will call FoFMem   1 times, MxPair=       272
 NAB=   136 NAA=     0 NBB=     0.
 Symmetry is being used.
 FoFJK:  IHMeth= 1 ICntrl=       0 DoSepK=F KAlg= 0 I1Cent=           0 FoldK=F
 IRaf=         0 NMat=      18 IRICut=      45 DoRegI=T DoRafI=T ISym2E= 2 IDoP0=3 IntGTp=3.
 Discarding MO integrals.
 Leave Link 1112 at Mon Feb 21 20:06:32 2022, MaxMem= 16106127360 cpu:            1140.0 elap:              41.2
 (Enter /sw/contrib/gaussian/g16/B01/g16/l601.exe)
 Copying SCF densities to generalized density rwf, IOpCl= 0 IROHF=0.

 **********************************************************************

            Population analysis using the MP2 Density.

 **********************************************************************

 Orbital symmetries:
       Occupied  (A') (A') (A') (A') (A') (A') (A') (A') (A') (A')
                 (A") (A') (A") (A') (A") (A')
       Virtual   (A') (A") (A') (A') (A") (A') (A') (A') (A") (A')
                 (A") (A') (A') (A') (A") (A') (A') (A") (A') (A')
                 (A') (A') (A') (A') (A") (A') (A') (A") (A') (A')
                 (A") (A') (A") (A') (A') (A") (A') (A') (A") (A')
                 (A") (A') (A") (A') (A') (A") (A') (A') (A") (A')
                 (A") (A') (A') (A') (A") (A') (A") (A') (A") (A')
                 (A') (A') (A") (A') (A') (A") (A') (A") (A') (A')
                 (A") (A') (A') (A") (A") (A') (A') (A") (A') (A')
                 (A') (A") (A') (A") (A') (A") (A') (A") (A') (A')
                 (A") (A') (A') (A") (A') (A") (A') (A") (A') (A')
                 (A") (A') (A") (A') (A') (A") (A') (A') (A") (A')
                 (A") (A') (A') (A') (A") (A') (A') (A') (A") (A')
                 (A") (A') (A") (A') (A') (A") (A") (A') (A") (A')
                 (A') (A') (A') (A") (A") (A") (A') (A') (A') (A')
                 (A") (A') (A') (A") (A') (A") (A') (A') (A') (A')
                 (A") (A') (A') (A") (A') (A") (A') (A") (A') (A")
                 (A') (A") (A') (A") (A') (A") (A") (A') (A") (A')
                 (A") (A') (A") (A') (A") (A') (A") (A") (A') (A')
                 (A') (A') (A') (A') (A') (A') (A') (A') (A') (A')
                 (A')
 The electronic state is 1-A'.
 Alpha  occ. eigenvalues --  -20.69121 -20.68453 -20.65901 -15.81309  -1.62432
 Alpha  occ. eigenvalues --   -1.49729  -1.25683  -0.94835  -0.77384  -0.76015
 Alpha  occ. eigenvalues --   -0.71208  -0.68122  -0.62083  -0.59002  -0.48565
 Alpha  occ. eigenvalues --   -0.47284
 Alpha virt. eigenvalues --    0.02986   0.07148   0.08589   0.10168   0.13387
 Alpha virt. eigenvalues --    0.13393   0.14457   0.15500   0.17808   0.19414
 Alpha virt. eigenvalues --    0.19977   0.20637   0.22077   0.23508   0.23726
 Alpha virt. eigenvalues --    0.26634   0.29365   0.30445   0.31093   0.34333
 Alpha virt. eigenvalues --    0.34907   0.38737   0.42339   0.43341   0.52724
 Alpha virt. eigenvalues --    0.52908   0.55846   0.58145   0.62581   0.63827
 Alpha virt. eigenvalues --    0.67430   0.68558   0.70634   0.71160   0.72513
 Alpha virt. eigenvalues --    0.72947   0.74492   0.79122   0.79222   0.81050
 Alpha virt. eigenvalues --    0.81258   0.83076   0.86805   0.90803   0.92256
 Alpha virt. eigenvalues --    0.92650   0.95760   0.97605   0.98628   1.01902
 Alpha virt. eigenvalues --    1.05142   1.05487   1.08347   1.11956   1.14264
 Alpha virt. eigenvalues --    1.18907   1.22152   1.23503   1.33848   1.34981
 Alpha virt. eigenvalues --    1.38604   1.45691   1.49117   1.51106   1.53769
 Alpha virt. eigenvalues --    1.56698   1.57897   1.61471   1.66305   1.66904
 Alpha virt. eigenvalues --    1.70339   1.79349   1.83168   1.83443   1.87789
 Alpha virt. eigenvalues --    1.91132   1.96249   1.99260   2.00819   2.07783
 Alpha virt. eigenvalues --    2.12240   2.13186   2.14985   2.22509   2.26326
 Alpha virt. eigenvalues --    2.26545   2.28960   2.31559   2.34470   2.38859
 Alpha virt. eigenvalues --    2.42452   2.42985   2.45409   2.46303   2.47733
 Alpha virt. eigenvalues --    2.50216   2.58486   2.59707   2.62040   2.62623
 Alpha virt. eigenvalues --    2.63420   2.66578   2.75749   2.82093   2.85617
 Alpha virt. eigenvalues --    2.88485   2.89364   2.92532   2.95772   3.02716
 Alpha virt. eigenvalues --    3.06895   3.12001   3.20432   3.22764   3.31838
 Alpha virt. eigenvalues --    3.34289   3.51654   3.64812   3.83859   3.85796
 Alpha virt. eigenvalues --    4.15974   4.16723   4.18663   4.25882   4.36226
 Alpha virt. eigenvalues --    4.39583   4.46737   4.52371   4.66309   4.71533
 Alpha virt. eigenvalues --    4.80643   4.82421   4.84956   4.89598   5.02320
 Alpha virt. eigenvalues --    5.07754   5.11390   5.15189   5.18589   5.26079
 Alpha virt. eigenvalues --    5.27550   5.31109   5.35849   5.35978   5.61292
 Alpha virt. eigenvalues --    5.67362   5.77290   5.83578   5.95878   6.16600
 Alpha virt. eigenvalues --    6.30903   6.33645   6.39754   6.49359   6.50541
 Alpha virt. eigenvalues --    6.61572   6.66683   6.69974   6.75712   6.76311
 Alpha virt. eigenvalues --    6.83299   6.89822   7.02062   7.05751   7.05880
 Alpha virt. eigenvalues --    7.09134   7.12681   7.15238   7.18161   7.22816
 Alpha virt. eigenvalues --    7.26368   7.31940   7.32573   7.35163   7.39884
 Alpha virt. eigenvalues --    7.43367   7.48444   7.60885   7.62051   7.62936
 Alpha virt. eigenvalues --    7.66983   7.80382   7.88730   8.09810   8.31816
 Alpha virt. eigenvalues --    8.42490   8.54869  13.39433  14.40496  15.34455
 Alpha virt. eigenvalues --   16.15238
          Condensed to atoms (all electrons):
               1          2          3          4          5
     1  H    0.603149   0.123604   0.021460   0.012727  -0.000690
     2  O    0.123604   8.318345  -0.175097  -0.091387   0.015640
     3  O    0.021460  -0.175097   8.470498  -0.130247  -0.038668
     4  N    0.012727  -0.091387  -0.130247   6.972081  -0.055744
     5  O   -0.000690   0.015640  -0.038668  -0.055744   8.272729
 Mulliken charges:
               1
     1  H    0.239750
     2  O   -0.191105
     3  O   -0.147946
     4  N    0.292570
     5  O   -0.193268
 Sum of Mulliken charges =  -0.00000
 Mulliken charges with hydrogens summed into heavy atoms:
               1
     2  O    0.048645
     3  O   -0.147946
     4  N    0.292570
     5  O   -0.193268
 APT charges:
               1
     1  H    0.299782
     2  O   -0.290164
     3  O   -0.494933
     4  N    0.876745
     5  O   -0.391430
 Sum of APT charges =  -0.00000
 APT charges with hydrogens summed into heavy atoms:
               1
     2  O    0.009618
     3  O   -0.494933
     4  N    0.876745
     5  O   -0.391430
 Electronic spatial extent (au):  <R**2>=            252.7555
 Charge=             -0.0000 electrons
 Dipole moment (field-independent basis, Debye):
    X=              0.5017    Y=              1.3451    Z=              0.0000  Tot=              1.4356
 Quadrupole moment (field-independent basis, Debye-Ang):
   XX=            -22.4636   YY=            -18.6630   ZZ=            -21.9949
   XY=              3.2318   XZ=             -0.0000   YZ=             -0.0000
 Traceless Quadrupole moment (field-independent basis, Debye-Ang):
   XX=             -1.4231   YY=              2.3775   ZZ=             -0.9544
   XY=              3.2318   XZ=             -0.0000   YZ=             -0.0000
 Octapole moment (field-independent basis, Debye-Ang**2):
  XXX=              2.8843  YYY=             11.1556  ZZZ=             -0.0000  XYY=              7.8238
  XXY=              6.5485  XXZ=             -0.0000  XZZ=             -1.5576  YZZ=             -0.8378
  YYZ=              0.0000  XYZ=              0.0000
 Hexadecapole moment (field-independent basis, Debye-Ang**3):
 XXXX=           -158.2926 YYYY=            -89.9027 ZZZZ=            -18.2155 XXXY=            -36.6479
 XXXZ=             -0.0000 YYYX=            -30.9172 YYYZ=             -0.0000 ZZZX=             -0.0000
 ZZZY=             -0.0000 XXYY=            -34.0447 XXZZ=            -30.8255 YYZZ=            -20.6164
 XXYZ=             -0.0000 YYXZ=             -0.0000 ZZXY=            -15.0188
 N-N= 1.169439244358D+02 E-N=-8.960015306552D+02  KE= 2.802189375697D+02
 Symmetry A'   KE= 2.662465933857D+02
 Symmetry A"   KE= 1.397234418403D+01
  Exact polarizability:  33.945   9.415  30.084   0.000   0.000  17.898
 Approx polarizability:  28.974   5.090  23.395   0.000  -0.000  15.502
 No NMR shielding tensors so no spin-rotation constants.
 Leave Link  601 at Mon Feb 21 20:06:32 2022, MaxMem= 16106127360 cpu:               5.7 elap:               0.2
 (Enter /sw/contrib/gaussian/g16/B01/g16/l701.exe)
 ... and contract with generalized density number  2.
 Compute integral second derivatives.
 Leave Link  701 at Mon Feb 21 20:06:32 2022, MaxMem= 16106127360 cpu:               5.8 elap:               0.2
 (Enter /sw/contrib/gaussian/g16/B01/g16/l702.exe)
 L702 exits ... SP integral derivatives will be done elsewhere.
 Leave Link  702 at Mon Feb 21 20:06:32 2022, MaxMem= 16106127360 cpu:               0.8 elap:               0.1
 (Enter /sw/contrib/gaussian/g16/B01/g16/l703.exe)
 Integral derivatives from FoFJK, PRISM(SPDF).
 Compute integral second derivatives, UseDBF=F ICtDFT=           0.
 Calling FoFJK, ICntrl=  10100127 FMM=F ISym2X=1 I1Cent= 0 IOpClX= 0 NMat=1 NMatS=1 NMatT=0.
 FoFJK:  IHMeth= 1 ICntrl=10100127 DoSepK=F KAlg= 0 I1Cent=           0 FoldK=F
 IRaf=         0 NMat=       1 IRICut=       1 DoRegI=T DoRafI=F ISym2E= 1 IDoP0=0 IntGTp=1.
 FoFCou: FMM=F IPFlag=           0 FMFlag=      100000 FMFlg1=         800
         NFxFlg=           0 DoJE=F BraDBF=F KetDBF=F FulRan=T
         wScrn=  0.000000 ICntrl=  10100127 IOpCl=  0 I1Cent=           0 NGrid=           0
         NMat0=    1 NMatS0=      1 NMatT0=    0 NMatD0=    1 NMtDS0=    0 NMtDT0=    0
 Petite list used in FoFCou.
 Leave Link  703 at Mon Feb 21 20:06:47 2022, MaxMem= 16106127360 cpu:             421.3 elap:              15.1
 (Enter /sw/contrib/gaussian/g16/B01/g16/l716.exe)
 Dipole        = 1.97396572D-01 5.29211526D-01 3.05293633D-32
 Polarizability= 3.39448202D+01 9.41493399D+00 3.00841653D+01
                 4.50255282D-30 1.73762301D-30 1.78975749D+01
 Full mass-weighted force constant matrix:
 Low frequencies --- -510.5478  -54.3814  -41.8187   -0.0015   -0.0008    0.0012
 Low frequencies ---    9.3742  228.3881  328.5220
 ******    1 imaginary frequencies (negative Signs) ****** 
 Diagonal vibrational polarizability:
       13.9968083      25.3592193      13.5392278
 Harmonic frequencies (cm**-1), IR intensities (KM/Mole), Raman scattering
 activities (A**4/AMU), depolarization ratios for plane and unpolarized
 incident light, reduced masses (AMU), force constants (mDyne/A),
 and normal coordinates:
                      1                      2                      3
                     A"                     A"                     A'
 Frequencies --   -502.9789               228.2429               328.3321
 Red. masses --      1.1208                12.1991                 8.0476
 Frc consts  --      0.1671                 0.3744                 0.5111
 IR Inten    --    126.7422                 0.1108                 5.6155
  Atom  AN      X      Y      Z        X      Y      Z        X      Y      Z
     1   1     0.00  -0.00   1.00     0.00  -0.00  -0.46     0.58  -0.43   0.00
     2   8    -0.00  -0.00  -0.06    -0.00  -0.00  -0.34    -0.09  -0.36   0.00
     3   8     0.00   0.00  -0.05     0.00   0.00   0.34    -0.14   0.42  -0.00
     4   7     0.00   0.00   0.05    -0.00   0.00   0.57     0.04   0.24  -0.00
     5   8     0.00  -0.00  -0.00     0.00  -0.00  -0.48     0.16  -0.24   0.00
                      4                      5                      6
                     A'                     A'                     A'
 Frequencies --    451.8600               780.3862               966.3840
 Red. masses --     12.3015                12.2763                15.6345
 Frc consts  --      1.4798                 4.4049                 8.6027
 IR Inten    --    198.9122               161.1384                25.7024
  Atom  AN      X      Y      Z        X      Y      Z        X      Y      Z
     1   1     0.41   0.20   0.00    -0.41   0.18  -0.00    -0.11  -0.03  -0.00
     2   8     0.32   0.21   0.00     0.42   0.07   0.00    -0.52   0.04   0.00
     3   8     0.18   0.43  -0.00    -0.07  -0.24  -0.00     0.75  -0.03  -0.00
     4   7    -0.35  -0.41  -0.00    -0.14   0.61  -0.00    -0.12   0.25  -0.00
     5   8    -0.22  -0.30   0.00    -0.20  -0.36   0.00    -0.12  -0.23   0.00
                      7                      8                      9
                     A'                     A'                     A'
 Frequencies --   1329.3112              1677.0817              3939.8391
 Red. masses --      1.1458                13.4685                 1.0675
 Frc consts  --      1.1929                22.3192                 9.7630
 IR Inten    --    155.2514               142.7389                84.0296
  Atom  AN      X      Y      Z        X      Y      Z        X      Y      Z
     1   1     0.99  -0.05   0.00    -0.32   0.00  -0.00     0.10   0.99  -0.00
     2   8    -0.02   0.06   0.00    -0.01  -0.04   0.00    -0.01  -0.06   0.00
     3   8    -0.02  -0.06  -0.00     0.00   0.15   0.00     0.00   0.00   0.00
     4   7     0.02   0.02  -0.00     0.71  -0.05  -0.00    -0.00  -0.00  -0.00
     5   8    -0.03  -0.01   0.00    -0.60  -0.07  -0.00     0.00   0.00  -0.00

 -------------------
 - Thermochemistry -
 -------------------
 Temperature   298.150 Kelvin.  Pressure   1.00000 Atm.
 Atom     1 has atomic number  1 and mass   1.00783
 Atom     2 has atomic number  8 and mass  15.99491
 Atom     3 has atomic number  8 and mass  15.99491
 Atom     4 has atomic number  7 and mass  14.00307
 Atom     5 has atomic number  8 and mass  15.99491
 Molecular mass:    62.99564 amu.
 Principal axes and moments of inertia in atomic units:
                           1         2         3
     Eigenvalues --    32.80990 360.01392 392.82382
           X            0.81028  -0.58604   0.00000
           Y            0.58604   0.81028   0.00000
           Z           -0.00000   0.00000   1.00000
 This molecule is an asymmetric top.
 Rotational symmetry number  1.
 Rotational temperatures (Kelvin)      2.63987     0.24058     0.22049
 Rotational constants (GHZ):          55.00599     5.01298     4.59428
    1 imaginary frequencies ignored.
 Zero-point vibrational energy      58027.5 (Joules/Mol)
                                   13.86890 (Kcal/Mol)
 Warning -- explicit consideration of   3 degrees of freedom as
           vibrations may cause significant error
 Vibrational temperatures:    328.39   472.40   650.13  1122.80  1390.41
          (Kelvin)           1912.58  2412.95  5668.55
 
 Zero-point correction=                           0.022101 (Hartree/Particle)
 Thermal correction to Energy=                    0.026238
 Thermal correction to Enthalpy=                  0.027183
 Thermal correction to Gibbs Free Energy=        -0.004037
 Sum of electronic and zero-point Energies=           -280.424493
 Sum of electronic and thermal Energies=              -280.420356
 Sum of electronic and thermal Enthalpies=            -280.419412
 Sum of electronic and thermal Free Energies=         -280.450631
 
                     E (Thermal)             CV                S
                      KCal/Mol        Cal/Mol-Kelvin    Cal/Mol-Kelvin
 Total                   16.465             12.008             65.707
 Electronic               0.000              0.000              0.000
 Translational            0.889              2.981             38.341
 Rotational               0.889              2.981             23.055
 Vibrational             14.687              6.047              4.312
 Vibration     1          0.651              1.798              1.893
 Vibration     2          0.712              1.619              1.268
 Vibration     3          0.811              1.357              0.790
                       Q            Log10(Q)             Ln(Q)
 Total Bot       0.719283D+02          1.856900          4.275669
 Total V=0       0.105408D+13         12.022875         27.683692
 Vib (Bot)       0.150097D-09         -9.823627        -22.619736
 Vib (Bot)    1  0.863593D+00         -0.063691         -0.146654
 Vib (Bot)    2  0.569659D+00         -0.244385         -0.562717
 Vib (Bot)    3  0.378940D+00         -0.421429         -0.970377
 Vib (V=0)       0.219962D+01          0.342349          0.788287
 Vib (V=0)    1  0.149789D+01          0.175481          0.404060
 Vib (V=0)    2  0.125797D+01          0.099669          0.229496
 Vib (V=0)    3  0.112737D+01          0.052067          0.119889
 Electronic      0.100000D+01          0.000000          0.000000
 Translational   0.196526D+08          7.293420         16.793719
 Rotational      0.243841D+05          4.387107         10.101686
 
                                                                title
                                                             IR Spectrum
 
     3                                                                        1           1                                          
     9                                                                        6           3          9     7          4   3  2       
     4                                                                        7           2          6     8          5   2  2       
     0                                                                        7           9          6     0          2   8  8       
 
     X                                                                        X           X          X     X          X   X  X       
     X                                                                        X           X          X     X          X              
     X                                                                        X           X          X     X          X              
     X                                                                        X           X                X          X              
     X                                                                        X           X                X          X              
     X                                                                        X           X                X          X              
     X                                                                        X           X                X          X              
     X                                                                        X           X                X          X              
                                                                              X           X                X          X              
                                                                              X           X                X          X              
                                                                              X           X                X          X              
                                                                              X           X                X          X              
                                                                              X           X                X          X              
                                                                              X           X                X          X              
                                                                                          X                X          X              
                                                                                          X                X          X              
                                                                                                                      X              
                                                                                                                      X              
                                                                                                                      X              
                                                                                                                      X              
 
 ***** Axes restored to original set *****
 -------------------------------------------------------------------
 Center     Atomic                   Forces (Hartrees/Bohr)
 Number     Number              X              Y              Z
 -------------------------------------------------------------------
      1        1          -0.000056438    0.000000000   -0.012341752
      2        8           0.000549640   -0.000000000    0.012351052
      3        8          -0.000483240   -0.000000000   -0.000001240
      4        7          -0.000307585   -0.000000000   -0.000048189
      5        8           0.000297622    0.000000000    0.000040130
 -------------------------------------------------------------------
 Cartesian Forces:  Max     0.012351052 RMS     0.004513633
 -----------------------------------------------------------------------------------------------
                       Internal Coordinate Forces (Hartree/Bohr or radian)
  Cent   Atom   N1       Length/X         N2         Alpha/Y        N3         Beta/Z          J
 -----------------------------------------------------------------------------------------------
      1  H 
      2  O        1   0.012342(     1)
      3  O        2  -0.000490(     2)      1   0.000102(     5)
      4  N        3  -0.000009(     3)      2   0.000052(     6)      1  -0.000000(     8)     0
      5  O        4   0.000298(     4)      3  -0.000077(     7)      2   0.000000(     9)     0
 -----------------------------------------------------------------------------------------------
 Internal  Forces:  Max     0.012341752 RMS     0.004118619
 Force constants in Cartesian coordinates: 
                1             2             3             4             5 
      1  0.598329D-01
      2  0.000000D+00 -0.924312D-02
      3  0.542097D-02  0.000000D+00  0.556982D+00
      4 -0.303254D-01  0.000000D+00 -0.167152D-01  0.266891D+00
      5  0.000000D+00  0.989794D-02  0.000000D+00  0.000000D+00 -0.459590D-02
      6  0.491505D-01  0.000000D+00 -0.553201D+00  0.331858D-01  0.000000D+00
      7 -0.188164D-01  0.000000D+00  0.128215D-01 -0.219952D+00  0.000000D+00
      8  0.000000D+00  0.105677D-02  0.000000D+00  0.000000D+00 -0.675618D-02
      9 -0.541447D-01  0.000000D+00 -0.355429D-03 -0.188531D-01  0.000000D+00
     10 -0.942224D-02  0.000000D+00 -0.488209D-02 -0.170675D-01  0.000000D+00
     11  0.000000D+00 -0.275124D-02  0.000000D+00  0.000000D+00 -0.487821D-02
     12  0.540226D-02  0.000000D+00 -0.486573D-02  0.116354D-01  0.000000D+00
     13 -0.126887D-02  0.000000D+00  0.335482D-02  0.454222D-03  0.000000D+00
     14  0.000000D+00  0.103966D-02  0.000000D+00  0.000000D+00  0.633236D-02
     15 -0.582905D-02  0.000000D+00  0.143957D-02 -0.925297D-02  0.000000D+00
                6             7             8             9            10 
      6  0.639815D+00
      7 -0.215957D-01  0.341767D+00
      8  0.000000D+00  0.000000D+00  0.432558D-02
      9 -0.790716D-01  0.362432D-01  0.000000D+00  0.181556D+00
     10 -0.526044D-01 -0.780627D-01  0.000000D+00  0.175016D+00  0.828484D+00
     11  0.000000D+00  0.000000D+00  0.854074D-02  0.000000D+00  0.000000D+00
     12  0.171533D-01  0.628598D-01  0.000000D+00 -0.818808D-01 -0.178418D-01
     13 -0.813626D-02 -0.249358D-01  0.000000D+00 -0.138262D+00 -0.723932D+00
     14  0.000000D+00  0.000000D+00 -0.716689D-02  0.000000D+00  0.000000D+00
     15 -0.246959D-01 -0.903288D-01  0.000000D+00 -0.202483D-01 -0.996879D-01
               11            12            13            14            15 
     11  0.855069D-02
     12  0.000000D+00  0.186929D+00
     13  0.000000D+00 -0.620557D-01  0.749682D+00
     14 -0.946196D-02  0.000000D+00  0.000000D+00  0.925684D-02
     15  0.000000D+00 -0.117336D+00  0.205099D+00  0.000000D+00  0.160840D+00
 Force constants in internal coordinates: 
                1             2             3             4             5 
      1  0.556982D+00
      2 -0.106953D-01  0.281618D+00
      3  0.353984D-02  0.240646D-02  0.117383D+00
      4 -0.360711D-02  0.586663D-02  0.153051D+00  0.812028D+00
      5  0.974471D-02  0.659219D-01  0.235387D-02  0.483739D-02  0.217900D+00
      6  0.466533D-02  0.592429D-01  0.412456D-01  0.218657D-01  0.316038D-01
      7 -0.124360D-02  0.378371D-01  0.320261D-01  0.847731D-01  0.213286D-01
      8  0.000000D+00  0.000000D+00  0.000000D+00  0.000000D+00  0.000000D+00
      9  0.000000D+00  0.000000D+00  0.000000D+00  0.000000D+00  0.000000D+00
                6             7             8             9 
      6  0.283353D+00
      7  0.957689D-01  0.482747D+00
      8  0.000000D+00  0.000000D+00 -0.777525D-02
      9  0.000000D+00  0.000000D+00 -0.389517D-02  0.410849D-01
 Leave Link  716 at Mon Feb 21 20:06:48 2022, MaxMem= 16106127360 cpu:               3.2 elap:               0.2
 (Enter /sw/contrib/gaussian/g16/B01/g16/l103.exe)

 GradGradGradGradGradGradGradGradGradGradGradGradGradGradGradGradGradGrad
 Berny optimization.
 Search for a local minimum.
 Step number   1 out of a maximum of    2
 All quantities printed in internal units (Hartrees-Bohrs-Radians)
 Second derivative matrix not updated -- analytic derivatives used.
 The second derivative matrix:
                          r1        r2        r3        r4        a1
           r1           0.55698
           r2          -0.01070   0.28162
           r3           0.00354   0.00241   0.11738
           r4          -0.00361   0.00587   0.15305   0.81203
           a1           0.00974   0.06592   0.00235   0.00484   0.21790
           a2           0.00467   0.05924   0.04125   0.02187   0.03160
           a3          -0.00124   0.03784   0.03203   0.08477   0.02133
           d1           0.00000  -0.00000   0.00000   0.00000  -0.00000
           d2          -0.00000  -0.00000   0.00000   0.00000  -0.00000
                          a2        a3        d1        d2
           a2           0.28335
           a3           0.09577   0.48275
           d1          -0.00000  -0.00000  -0.00778
           d2          -0.00000  -0.00000  -0.00390   0.04108
 ITU=  0
     Eigenvalues ---   -0.00808   0.04139   0.07835   0.17575   0.22589
     Eigenvalues ---    0.32595   0.51746   0.55763   0.87099
 Eigenvalue     1 is  -8.08D-03 should be greater than     0.000000 Eigenvector:
                          d1        d2        r3        a3        a2
   1                    0.99688   0.07897  -0.00000   0.00000   0.00000
                          r4        a1        r2        r1
   1                    0.00000  -0.00000   0.00000   0.00000
 Angle between quadratic step and forces=   5.01 degrees.
 Linear search not attempted -- first point.
 Variable       Old X    -DE/DX   Delta X   Delta X   Delta X     New X
                                 (Linear)    (Quad)   (Total)
    r1        1.80800   0.01234   0.00000   0.02216   0.02216   1.83016
    r2        2.74940  -0.00049   0.00000  -0.00088  -0.00088   2.74852
    r3        2.75670  -0.00001   0.00000  -0.00187  -0.00187   2.75483
    r4        2.21236   0.00030   0.00000   0.00083   0.00083   2.21319
    a1        1.70335   0.00010   0.00000  -0.00029  -0.00029   1.70307
    a2        1.78543   0.00005   0.00000   0.00027   0.00027   1.78570
    a3        1.90362  -0.00008   0.00000  -0.00010  -0.00010   1.90352
    d1        3.14159  -0.00000   0.00000   0.00000   0.00000   3.14159
    d2        3.14159   0.00000   0.00000   0.00000   0.00000   3.14159
         Item               Value     Threshold  Converged?
 Maximum Force            0.012342     0.000450     NO 
 RMS     Force            0.004119     0.000300     NO 
 Maximum Displacement     0.022161     0.001800     NO 
 RMS     Displacement     0.007425     0.001200     NO 
 Predicted change in Energy=-1.370970D-04
                       ----------------------------
                       ! Non-Optimized Parameters !
                       ! (Angstroms and Degrees)  !
 ----------------------                            ----------------------
 !      Name          Value   Derivative information (Atomic Units)     !
 ------------------------------------------------------------------------
 !       r1          0.9685   -DE/DX =    0.0123                        !
 !       r2          1.4545   -DE/DX =   -0.0005                        !
 !       r3          1.4578   -DE/DX =    0.0                           !
 !       r4          1.1712   -DE/DX =    0.0003                        !
 !       a1         97.5786   -DE/DX =    0.0001                        !
 !       a2        102.3133   -DE/DX =    0.0001                        !
 !       a3        109.0639   -DE/DX =   -0.0001                        !
 !       d1        180.0      -DE/DX =    0.0                           !
 !       d2        180.0      -DE/DX =    0.0                           !
 ------------------------------------------------------------------------
 GradGradGradGradGradGradGradGradGradGradGradGradGradGradGradGradGradGrad

 Leave Link  103 at Mon Feb 21 20:06:48 2022, MaxMem= 16106127360 cpu:               2.9 elap:               0.2
 (Enter /sw/contrib/gaussian/g16/B01/g16/l9999.exe)

 ----------------------------------------------------------------------

 Electric dipole moment (input orientation):
 (Debye = 10**-18 statcoulomb cm , SI units = C m)
                  (au)            (Debye)         (10**-30 SI)
   Tot        0.564828D+00      0.143565D+01      0.478881D+01
   x         -0.144564D+00     -0.367444D+00     -0.122566D+01
   y          0.000000D+00      0.000000D+00      0.000000D+00
   z         -0.546014D+00     -0.138783D+01     -0.462930D+01

 Dipole polarizability, Alpha (input orientation).
 (esu units = cm**3 , SI units = C**2 m**2 J**-1)
 Alpha(0;0):
               (au)            (10**-24 esu)      (10**-40 SI)
   iso        0.273089D+02      0.404675D+01      0.450262D+01
   aniso      0.218263D+02      0.323433D+01      0.359868D+01
   xx         0.320706D+02      0.475237D+01      0.528773D+01
   yx         0.000000D+00      0.000000D+00      0.000000D+00
   yy         0.178976D+02      0.265215D+01      0.295091D+01
   zx         0.961062D+01      0.142415D+01      0.158458D+01
   zy         0.000000D+00      0.000000D+00      0.000000D+00
   zz         0.319584D+02      0.473575D+01      0.526923D+01

 ----------------------------------------------------------------------

 Dipole orientation:
     1         -0.00000000          0.00000000          0.00000000
     8         -0.46274468          0.00000000         -1.74777829
     8          2.07875459         -0.00000000         -2.79657592
     7          1.59404700         -0.00000000         -5.51033096
     8          3.52532919         -0.00000000         -6.58953072

 Electric dipole moment (dipole orientation):
 (Debye = 10**-18 statcoulomb cm , SI units = C m)
                  (au)            (Debye)         (10**-30 SI)
   Tot        0.564828D+00      0.143565D+01      0.478881D+01
   x          0.000000D+00      0.000000D+00      0.000000D+00
   y          0.000000D+00      0.000000D+00      0.000000D+00
   z          0.564828D+00      0.143565D+01      0.478881D+01

 Dipole polarizability, Alpha (dipole orientation).
 (esu units = cm**3 , SI units = C**2 m**2 J**-1)
 Alpha(0;0):
               (au)            (10**-24 esu)      (10**-40 SI)
   iso        0.273089D+02      0.404675D+01      0.450262D+01
   aniso      0.218263D+02      0.323433D+01      0.359868D+01
   xx         0.273076D+02      0.404656D+01      0.450241D+01
   yx         0.000000D+00      0.000000D+00      0.000000D+00
   yy         0.178976D+02      0.265215D+01      0.295091D+01
   zx        -0.837926D+01     -0.124168D+01     -0.138155D+01
   zy         0.000000D+00      0.000000D+00      0.000000D+00
   zz         0.367214D+02      0.544155D+01      0.605454D+01

 ----------------------------------------------------------------------
 1\1\GINC-N2125\Freq\RMP2-FC\Aug-CC-pVTZ\H1N1O3\CGAVINH\21-Feb-2022\1\\
 #p freq mp2/aug-cc-pvtz density=current\\title\\0,1\H\O,1,r1\O,2,r2,1,
 a1\N,3,r3,2,a2,1,d1,0\O,4,r4,3,a3,2,d2,0\\r1=0.95675204\r2=1.45491931\
 r3=1.45878406\r4=1.17072885\a1=97.59494903\a2=102.29752444\a3=109.0695
 5123\d1=180.\d2=180.\\Version=ES64L-G16RevB.01\State=1-A'\HF=-279.5021
 302\MP2=-280.4465942\RMSD=3.788e-09\RMSF=4.514e-03\ZeroPoint=0.0221015
 \Thermal=0.0262384\Dipole=-0.1445636,0.,-0.5460143\DipoleDeriv=0.26484
 15,0.,0.0486225,0.,0.35727,0.,0.0845451,0.,0.2772336,-0.3280943,0.,-0.
 2054334,0.,-0.3165234,0.,-0.115856,0.,-0.2258742,-0.0464291,0.,0.14439
 09,0.,-0.086599,0.,-0.749953,0.,-1.3517709,0.8957917,0.,0.9100468,0.,0
 .0663269,0.,0.9221439,0.,1.6681168,-0.7861099,0.,-0.8976269,0.,-0.0204
 745,0.,-0.1408799,0.,-0.3677052\Polar=32.0705937,0.,17.8975749,9.61061
 91,0.,31.9583918\Quadrupole=-1.49972,-0.7095694,2.2092895,0.,2.0808798
 ,0.\PG=CS [SG(H1N1O3)]\NImag=1\\0.05983287,0.,-0.00924312,0.00542097,0
 .,0.55698230,-0.03032541,0.,-0.01671517,0.26689052,0.,0.00989794,0.,0.
 ,-0.00459590,0.04915055,0.,-0.55320070,0.03318579,0.,0.63981495,-0.018
 81636,0.,0.01282147,-0.21995182,0.,-0.02159571,0.34176667,0.,0.0010567
 7,0.,0.,-0.00675618,0.,0.,0.00432558,-0.05414473,0.,-0.00035543,-0.018
 85307,0.,-0.07907164,0.03624321,0.,0.18155613,-0.00942224,0.,-0.004882
 09,-0.01706751,0.,-0.05260437,-0.07806267,0.,0.17501610,0.82848443,0.,
 -0.00275124,0.,0.,-0.00487821,0.,0.,0.00854074,0.,0.,0.00855069,0.0054
 0226,0.,-0.00486573,0.01163541,0.,0.01715332,0.06285980,0.,-0.08188081
 ,-0.01784176,0.,0.18692908,-0.00126887,0.,0.00335482,0.00045422,0.,-0.
 00813626,-0.02493582,0.,-0.13826151,-0.72393201,0.,-0.06205571,0.74968
 248,0.,0.00103966,0.,0.,0.00633236,0.,0.,-0.00716689,0.,0.,-0.00946196
 ,0.,0.,0.00925684,-0.00582905,0.,0.00143957,-0.00925297,0.,-0.02469592
 ,-0.09032877,0.,-0.02024825,-0.09968787,0.,-0.11733586,0.20509866,0.,0
 .16084046\\0.00005644,0.,0.01234175,-0.00054964,0.,-0.01235105,0.00048
 324,0.,0.00000124,0.00030758,0.,0.00004819,-0.00029762,0.,-0.00004013\
 \\@


 MISERY NO LONGER LOVES COMPANY.  NOWADAYS IT INSISTS ON IT.

                                              -- BAKER'S LAW
 Job cpu time:       0 days  2 hours  3 minutes  0.1 seconds.
 Elapsed time:       0 days  0 hours  4 minutes 26.9 seconds.
 File lengths (MBytes):  RWF=   7239 Int=      0 D2E=      0 Chk=      8 Scr=      1
 Normal termination of Gaussian 16 at Mon Feb 21 20:06:49 2022.
