title                                                                   
Freq      RMP2-FC                                                     Aug-CC-pVTZ         
Number of atoms                            I                5
Info1-9                                    I   N=           9
          33          24           0           0           0         100
           6           2           1
Full Title                                 C   N=           1
title       
Route                                      C   N=           4
#p freq mp2/aug-cc-pvtz density=current         
Charge                                     I                0
Multiplicity                               I                1
Number of electrons                        I               32
Number of alpha electrons                  I               16
Number of beta electrons                   I               16
Number of basis functions                  I              207
Number of independent functions            I              207
Number of point charges in /Mol/           I                0
Number of translation vectors              I                0
Atomic numbers                             I   N=           5
           1           8           8           7           8
Nuclear charges                            R   N=           5
  1.00000000E+00  8.00000000E+00  8.00000000E+00  7.00000000E+00  8.00000000E+00
Current cartesian coordinates              R   N=          15
  2.10333904E+00 -1.12313887E+00  0.00000000E+00  2.48919806E+00  6.98536004E-01
  0.00000000E+00  1.57726549E-16  1.73442800E+00  0.00000000E+00 -1.86893566E+00
 -8.73120409E-02 -4.93038066E-32 -1.11679673E+00 -2.21617361E+00 -2.46519033E-32
Number of symbols in /Mol/                 I                0
Force Field                                I                0
Atom Types                                 C   N=           5
                                                            
Int Atom Types                             I   N=           5
           0           0           0           0           0
MM charges                                 R   N=           5
  0.00000000E+00  0.00000000E+00  0.00000000E+00  0.00000000E+00  0.00000000E+00
Integer atomic weights                     I   N=           5
           1          16          16          14          16
Real atomic weights                        R   N=           5
  1.00782504E+00  1.59949146E+01  1.59949146E+01  1.40030740E+01  1.59949146E+01
Atom fragment info                         I   N=           5
           0           0           0           0           0
Atom residue num                           I   N=           5
           0           0           0           0           0
Nuclear spins                              I   N=           5
           1           0           0           2           0
Nuclear ZEff                               R   N=           5
 -1.00000000E+00 -5.60000000E+00 -5.60000000E+00 -4.55000000E+00 -5.60000000E+00
Nuclear ZNuc                               R   N=           5
  1.00000000E+00  8.00000000E+00  8.00000000E+00  7.00000000E+00  8.00000000E+00
Nuclear QMom                               R   N=           5
  0.00000000E+00  0.00000000E+00  0.00000000E+00  2.04400000E+00  0.00000000E+00
Nuclear GFac                               R   N=           5
  2.79284600E+00  0.00000000E+00  0.00000000E+00  4.03761000E-01  0.00000000E+00
MicOpt                                     I   N=           5
          -1          -1          -1          -1          -1
Number of residues                         I                0
Number of secondary structures             I                0
SymInf integers                            I   N=          26
           1           2           1           1           1           1
           1          -1           0           0           0           0
           0           0           0           0           0           0
           0           0           0           0           0           0
           0           0
RotTr to input orientation                 R   N=          12
 -9.78294788E-01  1.23609527E-16  2.07218021E-01  2.07218021E-01 -2.61824165E-17
  9.78294788E-01  1.26352025E-16  1.00000000E+00  0.00000000E+00  2.29042024E+00
  0.00000000E+00  6.62911153E-01
Number of contracted shells                I               65
Number of primitive shells                 I              119
Pure/Cartesian d shells                    I                0
Pure/Cartesian f shells                    I                0
Highest angular momentum                   I                3
Largest degree of contraction              I                7
Shell types                                I   N=          65
           0           0           0           0           1           1
           1          -2          -2           0           0           0
           0           0           1           1           1           1
          -2          -2          -2          -3          -3           0
           0           0           0           0           1           1
           1           1          -2          -2          -2          -3
          -3           0           0           0           0           0
           1           1           1           1          -2          -2
          -2          -3          -3           0           0           0
           0           0           1           1           1           1
          -2          -2          -2          -3          -3
Number of primitives per shell             I   N=          65
           3           1           1           1           1           1
           1           1           1           7           6           1
           1           1           3           1           1           1
           1           1           1           1           1           7
           6           1           1           1           3           1
           1           1           1           1           1           1
           1           7           6           1           1           1
           3           1           1           1           1           1
           1           1           1           7           6           1
           1           1           3           1           1           1
           1           1           1           1           1
Shell to atom map                          I   N=          65
           1           1           1           1           1           1
           1           1           1           2           2           2
           2           2           2           2           2           2
           2           2           2           2           2           3
           3           3           3           3           3           3
           3           3           3           3           3           3
           3           4           4           4           4           4
           4           4           4           4           4           4
           4           4           4           5           5           5
           5           5           5           5           5           5
           5           5           5           5           5
Primitive exponents                        R   N=         119
  3.38700000E+01  5.09500000E+00  1.15900000E+00  3.25800000E-01  1.02700000E-01
  2.52600000E-02  1.40700000E+00  3.88000000E-01  1.02000000E-01  1.05700000E+00
  2.47000000E-01  1.53300000E+04  2.29900000E+03  5.22400000E+02  1.47300000E+02
  4.75500000E+01  1.67600000E+01  6.20700000E+00  5.22400000E+02  1.47300000E+02
  4.75500000E+01  1.67600000E+01  6.20700000E+00  6.88200000E-01  1.75200000E+00
  2.38400000E-01  7.37600000E-02  3.44600000E+01  7.74900000E+00  2.28000000E+00
  7.15600000E-01  2.14000000E-01  5.97400000E-02  2.31400000E+00  6.45000000E-01
  2.14000000E-01  1.42800000E+00  5.00000000E-01  1.53300000E+04  2.29900000E+03
  5.22400000E+02  1.47300000E+02  4.75500000E+01  1.67600000E+01  6.20700000E+00
  5.22400000E+02  1.47300000E+02  4.75500000E+01  1.67600000E+01  6.20700000E+00
  6.88200000E-01  1.75200000E+00  2.38400000E-01  7.37600000E-02  3.44600000E+01
  7.74900000E+00  2.28000000E+00  7.15600000E-01  2.14000000E-01  5.97400000E-02
  2.31400000E+00  6.45000000E-01  2.14000000E-01  1.42800000E+00  5.00000000E-01
  1.14200000E+04  1.71200000E+03  3.89300000E+02  1.10000000E+02  3.55700000E+01
  1.25400000E+01  4.64400000E+00  3.89300000E+02  1.10000000E+02  3.55700000E+01
  1.25400000E+01  4.64400000E+00  5.11800000E-01  1.29300000E+00  1.78700000E-01
  5.76000000E-02  2.66300000E+01  5.94800000E+00  1.74200000E+00  5.55000000E-01
  1.72500000E-01  4.91000000E-02  1.65400000E+00  4.69000000E-01  1.51000000E-01
  1.09300000E+00  3.64000000E-01  1.53300000E+04  2.29900000E+03  5.22400000E+02
  1.47300000E+02  4.75500000E+01  1.67600000E+01  6.20700000E+00  5.22400000E+02
  1.47300000E+02  4.75500000E+01  1.67600000E+01  6.20700000E+00  6.88200000E-01
  1.75200000E+00  2.38400000E-01  7.37600000E-02  3.44600000E+01  7.74900000E+00
  2.28000000E+00  7.15600000E-01  2.14000000E-01  5.97400000E-02  2.31400000E+00
  6.45000000E-01  2.14000000E-01  1.42800000E+00  5.00000000E-01
Contraction coefficients                   R   N=         119
  2.54948632E-02  1.90362766E-01  8.52162022E-01  1.00000000E+00  1.00000000E+00
  1.00000000E+00  1.00000000E+00  1.00000000E+00  1.00000000E+00  1.00000000E+00
  1.00000000E+00  5.19808943E-04  4.02025621E-03  2.07128267E-02  8.10105536E-02
  2.35962985E-01  4.42653446E-01  3.57064423E-01 -4.42115008E-05 -1.22591041E-03
 -1.05517725E-02 -6.74452633E-02 -1.71198607E-01  1.07329856E+00  1.00000000E+00
  1.00000000E+00  1.00000000E+00  4.11634896E-02  2.57762836E-01  8.02419274E-01
  1.00000000E+00  1.00000000E+00  1.00000000E+00  1.00000000E+00  1.00000000E+00
  1.00000000E+00  1.00000000E+00  1.00000000E+00  5.19808943E-04  4.02025621E-03
  2.07128267E-02  8.10105536E-02  2.35962985E-01  4.42653446E-01  3.57064423E-01
 -4.42115008E-05 -1.22591041E-03 -1.05517725E-02 -6.74452633E-02 -1.71198607E-01
  1.07329856E+00  1.00000000E+00  1.00000000E+00  1.00000000E+00  4.11634896E-02
  2.57762836E-01  8.02419274E-01  1.00000000E+00  1.00000000E+00  1.00000000E+00
  1.00000000E+00  1.00000000E+00  1.00000000E+00  1.00000000E+00  1.00000000E+00
  5.34563860E-04  4.13435660E-03  2.12335358E-02  8.25006224E-02  2.38138871E-01
  4.42551547E-01  3.53757422E-01 -4.89867350E-05 -1.19527323E-03 -1.03490714E-02
 -6.48680190E-02 -1.71552477E-01  1.07289568E+00  1.00000000E+00  1.00000000E+00
  1.00000000E+00  3.98072123E-02  2.49002660E-01  8.10479727E-01  1.00000000E+00
  1.00000000E+00  1.00000000E+00  1.00000000E+00  1.00000000E+00  1.00000000E+00
  1.00000000E+00  1.00000000E+00  5.19808943E-04  4.02025621E-03  2.07128267E-02
  8.10105536E-02  2.35962985E-01  4.42653446E-01  3.57064423E-01 -4.42115008E-05
 -1.22591041E-03 -1.05517725E-02 -6.74452633E-02 -1.71198607E-01  1.07329856E+00
  1.00000000E+00  1.00000000E+00  1.00000000E+00  4.11634896E-02  2.57762836E-01
  8.02419274E-01  1.00000000E+00  1.00000000E+00  1.00000000E+00  1.00000000E+00
  1.00000000E+00  1.00000000E+00  1.00000000E+00  1.00000000E+00
Coordinates of each shell                  R   N=         195
  2.10333904E+00 -1.12313887E+00 -3.92765120E-33  2.10333904E+00 -1.12313887E+00
 -3.92765120E-33  2.10333904E+00 -1.12313887E+00 -3.92765120E-33  2.10333904E+00
 -1.12313887E+00 -3.92765120E-33  2.10333904E+00 -1.12313887E+00 -3.92765120E-33
  2.10333904E+00 -1.12313887E+00 -3.92765120E-33  2.10333904E+00 -1.12313887E+00
 -3.92765120E-33  2.10333904E+00 -1.12313887E+00 -3.92765120E-33  2.10333904E+00
 -1.12313887E+00 -3.92765120E-33  2.48919806E+00  6.98536004E-01  7.10497023E-33
  2.48919806E+00  6.98536004E-01  7.10497023E-33  2.48919806E+00  6.98536004E-01
  7.10497023E-33  2.48919806E+00  6.98536004E-01  7.10497023E-33  2.48919806E+00
  6.98536004E-01  7.10497023E-33  2.48919806E+00  6.98536004E-01  7.10497023E-33
  2.48919806E+00  6.98536004E-01  7.10497023E-33  2.48919806E+00  6.98536004E-01
  7.10497023E-33  2.48919806E+00  6.98536004E-01  7.10497023E-33  2.48919806E+00
  6.98536004E-01  7.10497023E-33  2.48919806E+00  6.98536004E-01  7.10497023E-33
  2.48919806E+00  6.98536004E-01  7.10497023E-33  2.48919806E+00  6.98536004E-01
  7.10497023E-33  2.48919806E+00  6.98536004E-01  7.10497023E-33  1.41745556E-17
  1.73442800E+00  1.00531833E-32  1.41745556E-17  1.73442800E+00  1.00531833E-32
  1.41745556E-17  1.73442800E+00  1.00531833E-32  1.41745556E-17  1.73442800E+00
  1.00531833E-32  1.41745556E-17  1.73442800E+00  1.00531833E-32  1.41745556E-17
  1.73442800E+00  1.00531833E-32  1.41745556E-17  1.73442800E+00  1.00531833E-32
  1.41745556E-17  1.73442800E+00  1.00531833E-32  1.41745556E-17  1.73442800E+00
  1.00531833E-32  1.41745556E-17  1.73442800E+00  1.00531833E-32  1.41745556E-17
  1.73442800E+00  1.00531833E-32  1.41745556E-17  1.73442800E+00  1.00531833E-32
  1.41745556E-17  1.73442800E+00  1.00531833E-32  1.41745556E-17  1.73442800E+00
  1.00531833E-32 -1.86893566E+00 -8.73120409E-02 -2.80064288E-33 -1.86893566E+00
 -8.73120409E-02 -2.80064288E-33 -1.86893566E+00 -8.73120409E-02 -2.80064288E-33
 -1.86893566E+00 -8.73120409E-02 -2.80064288E-33 -1.86893566E+00 -8.73120409E-02
 -2.80064288E-33 -1.86893566E+00 -8.73120409E-02 -2.80064288E-33 -1.86893566E+00
 -8.73120409E-02 -2.80064288E-33 -1.86893566E+00 -8.73120409E-02 -2.80064288E-33
 -1.86893566E+00 -8.73120409E-02 -2.80064288E-33 -1.86893566E+00 -8.73120409E-02
 -2.80064288E-33 -1.86893566E+00 -8.73120409E-02 -2.80064288E-33 -1.86893566E+00
 -8.73120409E-02 -2.80064288E-33 -1.86893566E+00 -8.73120409E-02 -2.80064288E-33
 -1.86893566E+00 -8.73120409E-02 -2.80064288E-33 -1.11679673E+00 -2.21617361E+00
 -1.42166346E-32 -1.11679673E+00 -2.21617361E+00 -1.42166346E-32 -1.11679673E+00
 -2.21617361E+00 -1.42166346E-32 -1.11679673E+00 -2.21617361E+00 -1.42166346E-32
 -1.11679673E+00 -2.21617361E+00 -1.42166346E-32 -1.11679673E+00 -2.21617361E+00
 -1.42166346E-32 -1.11679673E+00 -2.21617361E+00 -1.42166346E-32 -1.11679673E+00
 -2.21617361E+00 -1.42166346E-32 -1.11679673E+00 -2.21617361E+00 -1.42166346E-32
 -1.11679673E+00 -2.21617361E+00 -1.42166346E-32 -1.11679673E+00 -2.21617361E+00
 -1.42166346E-32 -1.11679673E+00 -2.21617361E+00 -1.42166346E-32 -1.11679673E+00
 -2.21617361E+00 -1.42166346E-32 -1.11679673E+00 -2.21617361E+00 -1.42166346E-32
Num ILSW                                   I              100
ILSW                                       I   N=         100
           0           0           0           0           2           0
           0           0           0           0           0          -1
           5           0           0           0           2           0
           0           0           0           0           1           0
           1           0           0           0           0           0
           0           0      100000           0          -1           0
           0           0           0           0           0           0
           0           0           0           1           1           0
           0 -2000000000           1           0           0           0
           0           0           4          52           0           0
           0           0           0           0           0           0
           0           0           0           5           4           1
           0           0           0           0           0           0
           0           0           0           0           0           0
           0           0           0           0           0           0
           0           0           0           0           0           0
           0           0           0           0
Num RLSW                                   I               52
RLSW                                       R   N=          52
  1.00000000E+00  1.00000000E+00  1.00000000E+00  1.00000000E+00  1.00000000E+00
  0.00000000E+00  0.00000000E+00  1.00000000E+00  0.00000000E+00  0.00000000E+00
  0.00000000E+00  0.00000000E+00  1.00000000E+00  0.00000000E+00  0.00000000E+00
  0.00000000E+00  0.00000000E+00  1.00000000E+00  0.00000000E+00  0.00000000E+00
  0.00000000E+00  0.00000000E+00  1.00000000E+00  0.00000000E+00  0.00000000E+00
  0.00000000E+00  0.00000000E+00  1.00000000E+00  0.00000000E+00  0.00000000E+00
  0.00000000E+00  0.00000000E+00  1.00000000E+00  0.00000000E+00  0.00000000E+00
  0.00000000E+00  0.00000000E+00  0.00000000E+00  1.00000000E+00  1.00000000E+00
  0.00000000E+00  1.00000000E+00  0.00000000E+00  0.00000000E+00  0.00000000E+00
  0.00000000E+00  0.00000000E+00  0.00000000E+00  0.00000000E+00  0.00000000E+00
  0.00000000E+00  0.00000000E+00
MxBond                                     I                2
NBond                                      I   N=           5
           1           2           2           2           1
IBond                                      I   N=          10
           2           0           1           3           2           4
           3           5           4           0
RBond                                      R   N=          10
  1.00000000E+00  0.00000000E+00  1.00000000E+00  1.00000000E+00  1.00000000E+00
  1.00000000E+00  1.00000000E+00  2.00000000E+00  2.00000000E+00  0.00000000E+00
Virial Ratio                               R      2.002241163132081E+00
SCF Energy                                 R     -2.795064239015414E+02
MP2 Energy                                 R     -2.804552164487297E+02
Total Energy                               R     -2.804552164487297E+02
Post-SCF wavefunction norm                 R      1.583760085805486E+00
RMS Force                                  R      1.112208862917417E-03
RMS Density                                R      4.376144321880557E-09
NImag                                      I                0
Job Status                                 I                1
Nuclear derivative order                   I                2
External E-field                           R   N=          35
  0.00000000E+00  0.00000000E+00  0.00000000E+00  0.00000000E+00  0.00000000E+00
  0.00000000E+00  0.00000000E+00  0.00000000E+00  0.00000000E+00  0.00000000E+00
  0.00000000E+00  0.00000000E+00  0.00000000E+00  0.00000000E+00  0.00000000E+00
  0.00000000E+00  0.00000000E+00  0.00000000E+00  0.00000000E+00  0.00000000E+00
  0.00000000E+00  0.00000000E+00  0.00000000E+00  0.00000000E+00  0.00000000E+00
  0.00000000E+00  0.00000000E+00  0.00000000E+00  0.00000000E+00  0.00000000E+00
  0.00000000E+00  0.00000000E+00  0.00000000E+00  0.00000000E+00  0.00000000E+00
IOpCl                                      I                0
IROHF                                      I                0
Alpha Orbital Energies                     R   N=         207
 -2.07202897E+01 -2.06874923E+01 -2.06685916E+01 -1.58257182E+01 -1.64370041E+00
 -1.50581368E+00 -1.29398275E+00 -9.60504059E-01 -8.34091241E-01 -7.58828431E-01
 -7.39893395E-01 -6.38037196E-01 -6.19181617E-01 -6.18695939E-01 -5.03873238E-01
 -4.97777838E-01  3.50261887E-02  6.05237766E-02  9.51140222E-02  1.00453544E-01
  1.19729436E-01  1.22633333E-01  1.49169429E-01  1.51964655E-01  1.77600249E-01
  1.80352389E-01  1.89686633E-01  2.11050715E-01  2.16719382E-01  2.42568596E-01
  2.46351908E-01  2.68708224E-01  3.12123695E-01  3.16243040E-01  3.38101518E-01
  3.43470496E-01  3.46482944E-01  3.92623778E-01  4.48156242E-01  4.88641932E-01
  5.04845476E-01  5.18680775E-01  5.44595273E-01  5.61592818E-01  5.99157862E-01
  6.20496616E-01  6.39083297E-01  6.89440008E-01  7.17190977E-01  7.24055574E-01
  7.41569343E-01  7.64251609E-01  7.67384176E-01  7.95688021E-01  8.05752322E-01
  8.39952914E-01  8.43153352E-01  8.51347219E-01  8.85072088E-01  9.07361018E-01
  9.29326656E-01  9.48310293E-01  9.54320924E-01  1.01817286E+00  1.03198013E+00
  1.05984399E+00  1.06566050E+00  1.09434228E+00  1.14347007E+00  1.15602495E+00
  1.17050928E+00  1.22173624E+00  1.22704353E+00  1.24602686E+00  1.35239798E+00
  1.36244466E+00  1.37103167E+00  1.46884707E+00  1.48460691E+00  1.50568157E+00
  1.54169793E+00  1.59421832E+00  1.59700556E+00  1.60539862E+00  1.62866648E+00
  1.69571384E+00  1.74049673E+00  1.80121949E+00  1.82918398E+00  1.88787338E+00
  1.89639788E+00  1.92841841E+00  1.97964314E+00  1.99010832E+00  2.05085530E+00
  2.12272122E+00  2.13026561E+00  2.16503363E+00  2.18707682E+00  2.24290928E+00
  2.25960262E+00  2.29442861E+00  2.35209172E+00  2.36450684E+00  2.38655964E+00
  2.40206625E+00  2.43371995E+00  2.46971301E+00  2.47917021E+00  2.52822982E+00
  2.53797557E+00  2.54795581E+00  2.55784846E+00  2.61433385E+00  2.62904094E+00
  2.67187781E+00  2.67228229E+00  2.75540645E+00  2.80928627E+00  2.81463230E+00
  2.84123988E+00  2.91817645E+00  2.98157131E+00  3.04798164E+00  3.05238070E+00
  3.11655088E+00  3.11707835E+00  3.17290275E+00  3.21316599E+00  3.30746247E+00
  3.33321031E+00  3.36060824E+00  3.47950857E+00  3.67787907E+00  3.86921450E+00
  3.92819026E+00  4.18285248E+00  4.22133831E+00  4.22150691E+00  4.26716868E+00
  4.36785822E+00  4.50060208E+00  4.52113245E+00  4.55738687E+00  4.59942596E+00
  4.69308252E+00  4.80947672E+00  4.90088103E+00  4.91343902E+00  4.94226288E+00
  4.99754701E+00  5.00519850E+00  5.10766191E+00  5.13375390E+00  5.17834512E+00
  5.24944825E+00  5.25709839E+00  5.31726630E+00  5.34400542E+00  5.35429733E+00
  5.54524501E+00  5.64405577E+00  5.70396700E+00  5.88710713E+00  5.99951510E+00
  6.26450107E+00  6.29609087E+00  6.36037663E+00  6.37661225E+00  6.59841190E+00
  6.65512607E+00  6.65881420E+00  6.68743098E+00  6.72513797E+00  6.80179056E+00
  6.80551072E+00  6.84532791E+00  6.96876959E+00  7.01999336E+00  7.06625438E+00
  7.08015641E+00  7.13994079E+00  7.17057608E+00  7.17524977E+00  7.20317286E+00
  7.24532247E+00  7.24622307E+00  7.27055747E+00  7.34871775E+00  7.39503243E+00
  7.42612571E+00  7.44238332E+00  7.46264845E+00  7.55950259E+00  7.66144042E+00
  7.66357610E+00  7.79446365E+00  7.88313492E+00  7.95275477E+00  8.06105607E+00
  8.30573384E+00  8.50146124E+00  8.65230913E+00  1.36160983E+01  1.47618651E+01
  1.51035356E+01  1.57516223E+01
Alpha MO coefficients                      R   N=       42849
  6.49177300E-05 -3.46543665E-05 -1.11512006E-03  1.13867531E-05 -5.17666531E-05
  4.21736991E-05  0.00000000E+00 -8.68016698E-05 -2.94362323E-04  0.00000000E+00
  7.11390442E-07 -3.49123498E-04  0.00000000E+00  4.27086052E-05  0.00000000E+00
  0.00000000E+00 -2.51153868E-05  1.25503758E-05  2.27230603E-04  0.00000000E+00
  0.00000000E+00 -3.86758913E-05 -2.07566394E-04  3.05853380E-03 -9.54768072E-05
 -1.00425804E-04  3.56308635E-03  2.48360039E-03  1.03236345E-04 -5.28587694E-05
  0.00000000E+00 -7.32649414E-04  2.82648130E-04  0.00000000E+00 -1.99164085E-03
  1.10188959E-03  0.00000000E+00 -5.38183088E-04  3.87746920E-05  0.00000000E+00
  2.05248279E-05  0.00000000E+00  0.00000000E+00 -9.09288649E-06  4.41489944E-05
 -4.44357144E-04  0.00000000E+00  0.00000000E+00  4.31633890E-04 -6.59957350E-04
 -3.64938875E-04  0.00000000E+00  0.00000000E+00  5.48663772E-04 -7.38450340E-04
  0.00000000E+00  7.44670537E-05 -5.21295100E-05  0.00000000E+00  0.00000000E+00
 -2.82131884E-05  1.07800530E-04  0.00000000E+00  2.07631823E-04 -5.07305867E-05
  0.00000000E+00  0.00000000E+00 -1.72541572E-04  2.99637855E-04  9.76905192E-01
 -9.17249320E-03  4.34052395E-02  5.03407296E-04 -2.21138881E-03  4.57452770E-04
 -2.14663538E-03  0.00000000E+00 -3.27734347E-04  2.25249931E-03  0.00000000E+00
 -2.32893349E-03 -4.86797726E-04  0.00000000E+00 -2.24391675E-04  9.75285600E-05
  0.00000000E+00  7.40988252E-06  0.00000000E+00  0.00000000E+00 -4.66645056E-06
  3.77461151E-05  8.27591691E-04  0.00000000E+00  0.00000000E+00 -4.74015735E-04
 -1.74062402E-04 -1.36093402E-04  0.00000000E+00  0.00000000E+00 -5.49730468E-04
  3.55322869E-04  0.00000000E+00 -6.29947516E-06 -7.90751101E-05  0.00000000E+00
  0.00000000E+00 -9.24814717E-06  4.83391822E-05  0.00000000E+00  9.29086870E-05
 -5.13637942E-08  0.00000000E+00  0.00000000E+00 -3.40628067E-04  3.77992751E-04
  1.04395909E-04  4.58202604E-04 -3.23236772E-04 -8.26738317E-04  3.56813301E-04
 -4.34183569E-05 -1.00308158E-04  0.00000000E+00  6.95502570E-04  1.11405301E-03
  0.00000000E+00 -7.87604374E-04 -6.94220476E-04  0.00000000E+00  1.92721154E-04
  2.10586386E-04  0.00000000E+00 -5.24301239E-05  0.00000000E+00  0.00000000E+00
  1.95201902E-05  9.29289752E-05 -4.15506025E-04  0.00000000E+00  0.00000000E+00
  3.20798237E-05  1.08463667E-03  2.74163739E-05  0.00000000E+00  0.00000000E+00
 -3.28150425E-04  2.57879517E-05  0.00000000E+00 -7.81951986E-05 -1.14184443E-04
  0.00000000E+00  0.00000000E+00 -9.69777826E-05  1.05747195E-04  0.00000000E+00
 -1.22347372E-04  4.84683772E-05  0.00000000E+00  0.00000000E+00  1.37422968E-05
  5.24588544E-04 -6.96930201E-04  3.72636134E-05 -7.12278627E-05  1.90731816E-04
 -1.77684964E-04 -2.95836877E-05 -4.22476764E-05  0.00000000E+00  1.72266757E-04
  2.52282970E-04  0.00000000E+00  5.55479255E-04  3.32663324E-04  0.00000000E+00
 -2.12599888E-04 -6.29347438E-05  0.00000000E+00 -1.24771850E-05  0.00000000E+00
  0.00000000E+00  3.97811332E-06  1.40636352E-05 -5.22282306E-06  0.00000000E+00
  0.00000000E+00 -1.67944981E-04  1.88655959E-05 -2.72798921E-05  0.00000000E+00
  0.00000000E+00 -1.72469053E-04 -2.82621547E-05  0.00000000E+00 -6.18430170E-06
 -9.93108330E-06  0.00000000E+00  0.00000000E+00 -2.21447930E-05  8.87224578E-06
  0.00000000E+00  4.02871308E-05  5.96359998E-05  0.00000000E+00  0.00000000E+00
  1.52422517E-04 -1.04608630E-04  4.09416965E-05  6.27683923E-05 -1.23950156E-04
 -3.01319621E-05  1.63608504E-05  9.07084097E-06  0.00000000E+00  2.44937740E-04
  6.91157094E-05  0.00000000E+00  1.30086401E-04  2.76917083E-05  0.00000000E+00
  1.45454498E-05  0.00000000E+00  0.00000000E+00 -1.42814195E-05  1.48758638E-05
  2.36818185E-05  0.00000000E+00  0.00000000E+00 -1.02598989E-04  5.99696983E-05
 -2.55063392E-04  2.21552861E-05 -1.53151837E-05 -5.60657643E-04  1.59425404E-04
  7.48406923E-06  1.37093529E-05  0.00000000E+00  3.70059690E-07 -4.03433678E-05
  0.00000000E+00  1.86172563E-04  1.25704056E-04  0.00000000E+00 -4.73518558E-05
  4.77547351E-05  0.00000000E+00 -1.03091685E-06  0.00000000E+00  0.00000000E+00
 -8.55715042E-06 -1.22990686E-05  1.92697948E-05  0.00000000E+00  0.00000000E+00
  5.02551575E-05  1.09704637E-04  5.97262305E-05  0.00000000E+00  0.00000000E+00
 -2.85352884E-05 -7.58617909E-05  0.00000000E+00  7.85690477E-06  1.04447125E-05
  0.00000000E+00  0.00000000E+00 -1.19572559E-06 -2.39764067E-05  0.00000000E+00
 -1.31182918E-05 -3.42182021E-05  0.00000000E+00  0.00000000E+00 -3.11406915E-06
 -2.08499028E-05  7.23434605E-04  2.13763781E-05 -2.08579195E-05  3.04859336E-04
 -3.87115983E-04  1.69740724E-05  2.85512830E-05  0.00000000E+00 -6.76215278E-05
 -1.57730551E-04  0.00000000E+00  1.66494063E-04 -2.14322667E-04  0.00000000E+00
 -1.55413868E-04  1.42568762E-04  0.00000000E+00 -3.92764392E-06  0.00000000E+00
  0.00000000E+00 -2.85964039E-05 -1.03803564E-05 -5.35083895E-05  0.00000000E+00
  0.00000000E+00  7.32581233E-05  1.26151591E-04 -6.65479013E-05  0.00000000E+00
  0.00000000E+00  3.77542565E-05  2.52768276E-05  0.00000000E+00  3.41827005E-06
  4.31457690E-06  0.00000000E+00  0.00000000E+00 -7.06768686E-06 -1.62785972E-06
  0.00000000E+00  3.42183823E-06 -2.53671075E-05  0.00000000E+00  0.00000000E+00
  9.98387614E-05 -1.51703989E-04  2.37368578E-04  1.36051461E-03 -1.46201839E-04
 -6.86945530E-04  9.04759312E-04  6.34759800E-05 -7.05376832E-05  0.00000000E+00
  5.60728753E-04 -2.09354359E-03  0.00000000E+00  1.12065527E-04  5.08994792E-04
  0.00000000E+00  1.82709764E-04 -3.09795337E-04  0.00000000E+00 -1.28045581E-04
  0.00000000E+00  0.00000000E+00 -2.05205396E-04 -1.56324618E-04 -4.59197927E-04
  0.00000000E+00  0.00000000E+00 -6.16301829E-04 -9.19402867E-04 -4.17390053E-05
  0.00000000E+00  0.00000000E+00  5.63858638E-05  1.18067277E-04  0.00000000E+00
  8.87638532E-06  3.76021028E-05  0.00000000E+00  0.00000000E+00 -2.46550092E-05
 -3.93587708E-06  0.00000000E+00 -1.33757594E-04  1.56970975E-04  0.00000000E+00
  0.00000000E+00 -3.19464475E-04 -3.32611722E-05  9.76647306E-01 -9.88792372E-03
  4.35731958E-02  3.68934166E-03 -8.95407749E-04 -4.32887956E-04  2.13673136E-03
  0.00000000E+00  4.94314517E-04 -2.51338286E-03  0.00000000E+00 -6.27837836E-05
  8.10734163E-04  0.00000000E+00  1.06343097E-04 -6.50162046E-05  0.00000000E+00
 -1.93555456E-04  0.00000000E+00  0.00000000E+00 -7.49328427E-05 -4.35537651E-05
  4.09447044E-04  0.00000000E+00  0.00000000E+00  8.68498390E-04  4.73449582E-04
 -2.05545028E-04  0.00000000E+00  0.00000000E+00 -1.35763161E-04 -3.53284086E-05
  0.00000000E+00 -4.33599549E-06  7.04636476E-05  0.00000000E+00  0.00000000E+00
 -2.93159305E-05  1.10086818E-05  0.00000000E+00 -8.87875660E-05  9.23741025E-05
  0.00000000E+00  0.00000000E+00 -1.62391234E-04  2.10008533E-04  3.76804536E-04
  1.98818147E-03  1.35931251E-03 -1.99858608E-05  4.96933527E-05  2.68722437E-04
  0.00000000E+00  3.88727808E-04  1.03071410E-03  0.00000000E+00 -1.21018244E-04
  2.39751248E-04  0.00000000E+00 -2.32681371E-05  0.00000000E+00  0.00000000E+00
  3.20722855E-05 -2.83729463E-05 -2.15760980E-04  0.00000000E+00  0.00000000E+00
 -3.48696566E-04  4.02757247E-04  9.76834726E-01 -9.18679857E-03  4.34647884E-02
  1.44520748E-04 -1.91213312E-03 -2.04237718E-03 -8.42050011E-04  0.00000000E+00
  2.07899277E-03  7.77764703E-04  0.00000000E+00 -4.11902420E-04  6.51096781E-04
  0.00000000E+00  2.25768937E-04 -2.98088433E-04  0.00000000E+00  3.09447639E-05
  0.00000000E+00  0.00000000E+00 -7.43036344E-05  6.25667224E-05  7.65878258E-04
  0.00000000E+00  0.00000000E+00 -2.09324656E-04  3.52267204E-04 -2.36954836E-04
  0.00000000E+00  0.00000000E+00  3.38596422E-04  3.00498111E-06  0.00000000E+00
 -8.04659543E-05  1.63228023E-06  0.00000000E+00  0.00000000E+00  1.63292116E-05