 Entering Gaussian System, Link 0=g16
 Input=hoono_a1_99p08918.gjf
 Output=hoono_a1_99p08918.log
 Initial command:
 /sw/contrib/gaussian/g16/B01/g16/l1.exe "/scr/Gau-5209.inp" -scrdir="/scr/"
 Entering Link 1 = /sw/contrib/gaussian/g16/B01/g16/l1.exe PID=      5210.
  
 Copyright (c) 1988-2017, Gaussian, Inc.  All Rights Reserved.
  
 This is part of the Gaussian(R) 16 program.  It is based on
 the Gaussian(R) 09 system (copyright 2009, Gaussian, Inc.),
 the Gaussian(R) 03 system (copyright 2003, Gaussian, Inc.),
 the Gaussian(R) 98 system (copyright 1998, Gaussian, Inc.),
 the Gaussian(R) 94 system (copyright 1995, Gaussian, Inc.),
 the Gaussian 92(TM) system (copyright 1992, Gaussian, Inc.),
 the Gaussian 90(TM) system (copyright 1990, Gaussian, Inc.),
 the Gaussian 88(TM) system (copyright 1988, Gaussian, Inc.),
 the Gaussian 86(TM) system (copyright 1986, Carnegie Mellon
 University), and the Gaussian 82(TM) system (copyright 1983,
 Carnegie Mellon University). Gaussian is a federally registered
 trademark of Gaussian, Inc.
  
 This software contains proprietary and confidential information,
 including trade secrets, belonging to Gaussian, Inc.
  
 This software is provided under written license and may be
 used, copied, transmitted, or stored only in accord with that
 written license.
  
 The following legend is applicable only to US Government
 contracts under FAR:
  
                    RESTRICTED RIGHTS LEGEND
  
 Use, reproduction and disclosure by the US Government is
 subject to restrictions as set forth in subparagraphs (a)
 and (c) of the Commercial Computer Software - Restricted
 Rights clause in FAR 52.227-19.
  
 Gaussian, Inc.
 340 Quinnipiac St., Bldg. 40, Wallingford CT 06492
  
  
 ---------------------------------------------------------------
 Warning -- This program may not be used in any manner that
 competes with the business of Gaussian, Inc. or will provide
 assistance to any competitor of Gaussian, Inc.  The licensee
 of this program is prohibited from giving any competitor of
 Gaussian, Inc. access to this program.  By using this program,
 the user acknowledges that Gaussian, Inc. is engaged in the
 business of creating and licensing software in the field of
 computational chemistry and represents and warrants to the
 licensee that it is not a competitor of Gaussian, Inc. and that
 it will not use this program in any manner prohibited above.
 ---------------------------------------------------------------
  

 Cite this work as:
 Gaussian 16, Revision B.01,
 M. J. Frisch, G. W. Trucks, H. B. Schlegel, G. E. Scuseria, 
 M. A. Robb, J. R. Cheeseman, G. Scalmani, V. Barone, 
 G. A. Petersson, H. Nakatsuji, X. Li, M. Caricato, A. V. Marenich, 
 J. Bloino, B. G. Janesko, R. Gomperts, B. Mennucci, H. P. Hratchian, 
 J. V. Ortiz, A. F. Izmaylov, J. L. Sonnenberg, D. Williams-Young, 
 F. Ding, F. Lipparini, F. Egidi, J. Goings, B. Peng, A. Petrone, 
 T. Henderson, D. Ranasinghe, V. G. Zakrzewski, J. Gao, N. Rega, 
 G. Zheng, W. Liang, M. Hada, M. Ehara, K. Toyota, R. Fukuda, 
 J. Hasegawa, M. Ishida, T. Nakajima, Y. Honda, O. Kitao, H. Nakai, 
 T. Vreven, K. Throssell, J. A. Montgomery, Jr., J. E. Peralta, 
 F. Ogliaro, M. J. Bearpark, J. J. Heyd, E. N. Brothers, K. N. Kudin, 
 V. N. Staroverov, T. A. Keith, R. Kobayashi, J. Normand, 
 K. Raghavachari, A. P. Rendell, J. C. Burant, S. S. Iyengar, 
 J. Tomasi, M. Cossi, J. M. Millam, M. Klene, C. Adamo, R. Cammi, 
 J. W. Ochterski, R. L. Martin, K. Morokuma, O. Farkas, 
 J. B. Foresman, and D. J. Fox, Gaussian, Inc., Wallingford CT, 2016.
 
 ******************************************
 Gaussian 16:  ES64L-G16RevB.01 20-Dec-2017
                 6-Mar-2022 
 ******************************************
 %nproc=28
 Will use up to   28 processors via shared memory.
 %mem=120GB
 %chk=hoono_a1_99p08918.chk
 ---------------------------------------
 #p freq mp2/aug-cc-pvtz density=current
 ---------------------------------------
 1/10=4,30=1,38=1/1,3;
 2/12=2,17=6,18=5,40=1/2;
 3/5=16,6=1,7=10,11=9,25=1,30=1,71=2,140=1/1,2,3;
 4//1;
 5/5=2,38=5,98=1/2;
 8/6=3,8=1,10=1,19=11,30=-1/1;
 9/15=3,16=-3/6;
 11/6=1,8=1,15=11,17=12,24=-1,27=1,28=-2,29=300,32=6,42=3/1,2,10;
 10/6=2,21=1/2;
 8/6=4,8=1,10=1,19=11,30=-1/11,4;
 10/5=1,20=4/2;
 11/12=2,14=11,16=1,17=2,28=-2,42=3,76=2/2,10,12;
 6/7=2,8=2,9=2,10=2,22=-1/1;
 7/8=1,10=1,12=2,25=1,44=2/1,2,3,16;
 1/10=4,30=1/3;
 99//99;
 Leave Link    1 at Sun Mar  6 19:25:29 2022, MaxMem= 16106127360 cpu:               3.1 elap:               0.1
 (Enter /sw/contrib/gaussian/g16/B01/g16/l101.exe)
 -----
 title
 -----
 Symbolic Z-matrix:
 Charge =  0 Multiplicity = 1
 H
 O                    1    r1
 O                    2    r2       1    a1
 N                    3    r3       2    a2       1    d1       0
 O                    4    r4       3    a3       2    d2       0
       Variables:
  r1                    0.98538                  
  r2                    1.42674                  
  r3                    1.38111                  
  r4                    1.19479                  
  a1                   99.08918                  
  a2                  113.13777                  
  a3                  114.33392                  
  d1                    0.                       
  d2                    0.                       
 
 ITRead=  0  0  0  0  0
 MicOpt= -1 -1 -1 -1 -1
 NAtoms=      5 NQM=        5 NQMF=       0 NMMI=      0 NMMIF=      0
                NMic=       0 NMicF=      0.
                    Isotopes and Nuclear Properties:
 (Nuclear quadrupole moments (NQMom) in fm**2, nuclear magnetic moments (NMagM)
  in nuclear magnetons)

  Atom         1           2           3           4           5
 IAtWgt=           1          16          16          14          16
 AtmWgt=   1.0078250  15.9949146  15.9949146  14.0030740  15.9949146
 NucSpn=           1           0           0           2           0
 AtZEff=  -0.0000000  -0.0000000  -0.0000000  -0.0000000  -0.0000000
 NQMom=    0.0000000   0.0000000   0.0000000   2.0440000   0.0000000
 NMagM=    2.7928460   0.0000000   0.0000000   0.4037610   0.0000000
 AtZNuc=   1.0000000   8.0000000   8.0000000   7.0000000   8.0000000
 Leave Link  101 at Sun Mar  6 19:25:29 2022, MaxMem= 16106127360 cpu:               2.1 elap:               0.1
 (Enter /sw/contrib/gaussian/g16/B01/g16/l103.exe)

 GradGradGradGradGradGradGradGradGradGradGradGradGradGradGradGradGradGrad
 Berny optimization.
 Initialization pass.
                       ----------------------------
                       !    Initial Parameters    !
                       ! (Angstroms and Degrees)  !
 ----------------------                            ----------------------
 !      Name          Value   Derivative information (Atomic Units)     !
 ------------------------------------------------------------------------
 !       r1          0.9854   calculate D2E/DX2 analytically            !
 !       r2          1.4267   calculate D2E/DX2 analytically            !
 !       r3          1.3811   calculate D2E/DX2 analytically            !
 !       r4          1.1948   calculate D2E/DX2 analytically            !
 !       a1         99.0892   calculate D2E/DX2 analytically            !
 !       a2        113.1378   calculate D2E/DX2 analytically            !
 !       a3        114.3339   calculate D2E/DX2 analytically            !
 !       d1          0.0      calculate D2E/DX2 analytically            !
 !       d2          0.0      calculate D2E/DX2 analytically            !
 ------------------------------------------------------------------------
 Trust Radius=3.00D-01 FncErr=1.00D-07 GrdErr=1.00D-07 EigMax=2.50D+02 EigMin=1.00D-04
 Number of steps in this run=      2 maximum allowed number of steps=      2.
 GradGradGradGradGradGradGradGradGradGradGradGradGradGradGradGradGradGrad

 Leave Link  103 at Sun Mar  6 19:25:29 2022, MaxMem= 16106127360 cpu:               0.5 elap:               0.0
 (Enter /sw/contrib/gaussian/g16/B01/g16/l202.exe)
                          Input orientation:                          
 ---------------------------------------------------------------------
 Center     Atomic      Atomic             Coordinates (Angstroms)
 Number     Number       Type             X           Y           Z
 ---------------------------------------------------------------------
      1          1           0        0.000000    0.000000    0.000000
      2          8           0        0.000000    0.000000    0.985377
      3          8           0        1.408822    0.000000    1.210761
      4          7           0        2.145331    0.000000    0.042423
      5          8           0        1.486942    0.000000   -0.954594
 ---------------------------------------------------------------------
                    Distance matrix (angstroms):
                    1          2          3          4          5
     1  H    0.000000
     2  O    0.985377   0.000000
     3  O    1.857612   1.426737   0.000000
     4  N    2.145751   2.343418   1.381108   0.000000
     5  O    1.766988   2.444276   2.166763   1.194788   0.000000
 Stoichiometry    HNO3
 Framework group  CS[SG(HNO3)]
 Deg. of freedom     7
 Full point group                 CS      NOp   2
 Largest Abelian subgroup         CS      NOp   2
 Largest concise Abelian subgroup C1      NOp   1
                         Standard orientation:                         
 ---------------------------------------------------------------------
 Center     Atomic      Atomic             Coordinates (Angstroms)
 Number     Number       Type             X           Y           Z
 ---------------------------------------------------------------------
      1          1           0        1.084601   -0.591295   -0.000000
      2          8           0        1.316316    0.366450   -0.000000
      3          8           0       -0.000000    0.916804    0.000000
      4          7           0       -0.990595   -0.045579    0.000000
      5          8           0       -0.585121   -1.169460   -0.000000
 ---------------------------------------------------------------------
 Rotational constants (GHZ):          21.3937833           8.1095734           5.8804989
 Leave Link  202 at Sun Mar  6 19:25:29 2022, MaxMem= 16106127360 cpu:               1.0 elap:               0.1
 (Enter /sw/contrib/gaussian/g16/B01/g16/l301.exe)
 Standard basis: Aug-CC-pVTZ (5D, 7F)
 Ernie: Thresh=  0.10000D-02 Tol=  0.10000D-05 Strict=F.
 Ernie:  12 primitive shells out of 131 were deleted.
 There are   166 symmetry adapted cartesian basis functions of A'  symmetry.
 There are    79 symmetry adapted cartesian basis functions of A"  symmetry.
 There are   136 symmetry adapted basis functions of A'  symmetry.
 There are    71 symmetry adapted basis functions of A"  symmetry.
   207 basis functions,   315 primitive gaussians,   245 cartesian basis functions
    16 alpha electrons       16 beta electrons
       nuclear repulsion energy       122.8260282367 Hartrees.
 IExCor=    0 DFT=F Ex=HF Corr=None ExCW=0 ScaHFX=  1.000000
 ScaDFX=  1.000000  1.000000  1.000000  1.000000 ScalE2=  1.000000  1.000000
 IRadAn=      5 IRanWt=     -1 IRanGd=            0 ICorTp=0 IEmpDi=  4
 NAtoms=    5 NActive=    5 NUniq=    5 SFac= 1.00D+00 NAtFMM=   60 NAOKFM=F Big=F
 Integral buffers will be    131072 words long.
 Raffenetti 1 integral format.
 Two-electron integral symmetry is turned on.
 Leave Link  301 at Sun Mar  6 19:25:29 2022, MaxMem= 16106127360 cpu:               1.4 elap:               0.1
 (Enter /sw/contrib/gaussian/g16/B01/g16/l302.exe)
 NPDir=0 NMtPBC=     1 NCelOv=     1 NCel=       1 NClECP=     1 NCelD=      1
         NCelK=      1 NCelE2=     1 NClLst=     1 CellRange=     0.0.
 One-electron integrals computed using PRISM.
 One-electron integral symmetry used in STVInt
 NBasis=   207 RedAO= T EigKep=  1.31D-04  NBF=   136    71
 NBsUse=   207 1.00D-06 EigRej= -1.00D+00 NBFU=   136    71
 Leave Link  302 at Sun Mar  6 19:25:29 2022, MaxMem= 16106127360 cpu:               4.4 elap:               0.2
 (Enter /sw/contrib/gaussian/g16/B01/g16/l303.exe)
 DipDrv:  MaxL=1.
 Leave Link  303 at Sun Mar  6 19:25:29 2022, MaxMem= 16106127360 cpu:               0.7 elap:               0.0
 (Enter /sw/contrib/gaussian/g16/B01/g16/l401.exe)
 ExpMin= 2.53D-02 ExpMax= 1.53D+04 ExpMxC= 5.22D+02 IAcc=3 IRadAn=         5 AccDes= 0.00D+00
 Harris functional with IExCor=  205 and IRadAn=       5 diagonalized for initial guess.
 HarFok:  IExCor=  205 AccDes= 0.00D+00 IRadAn=         5 IDoV= 1 UseB2=F ITyADJ=14
 ICtDFT=  3500011 ScaDFX=  1.000000  1.000000  1.000000  1.000000
 FoFCou: FMM=F IPFlag=           0 FMFlag=      100000 FMFlg1=           0
         NFxFlg=           0 DoJE=T BraDBF=F KetDBF=T FulRan=T
         wScrn=  0.000000 ICntrl=       500 IOpCl=  0 I1Cent=   200000004 NGrid=           0
         NMat0=    1 NMatS0=      1 NMatT0=    0 NMatD0=    1 NMtDS0=    0 NMtDT0=    0
 Petite list used in FoFCou.
 Harris En= -279.644859157189    
 JPrj=0 DoOrth=F DoCkMO=F.
 Initial guess orbital symmetries:
       Occupied  (A') (A') (A') (A') (A') (A') (A') (A') (A') (A')
                 (A") (A') (A") (A') (A") (A')
       Virtual   (A") (A') (A') (A') (A') (A") (A') (A') (A') (A')
                 (A") (A') (A") (A') (A') (A") (A') (A') (A") (A')
                 (A') (A') (A') (A') (A") (A') (A') (A') (A") (A')
                 (A') (A") (A") (A') (A') (A") (A') (A") (A') (A")
                 (A') (A") (A') (A") (A') (A') (A') (A") (A') (A')
                 (A') (A") (A') (A") (A') (A") (A') (A') (A') (A")
                 (A') (A') (A") (A') (A') (A') (A") (A") (A') (A')
                 (A") (A') (A") (A") (A') (A') (A") (A') (A') (A')
                 (A") (A') (A') (A") (A') (A") (A') (A") (A') (A')
                 (A') (A") (A') (A") (A') (A') (A") (A') (A") (A')
                 (A") (A') (A') (A") (A") (A') (A') (A') (A") (A')
                 (A") (A') (A') (A') (A") (A') (A') (A') (A") (A')
                 (A") (A') (A') (A") (A") (A") (A") (A') (A') (A')
                 (A') (A') (A') (A") (A') (A") (A') (A") (A') (A')
                 (A") (A") (A') (A') (A') (A") (A') (A') (A') (A")
                 (A') (A') (A') (A") (A') (A") (A") (A') (A') (A")
                 (A') (A") (A") (A') (A") (A') (A") (A') (A") (A')
                 (A") (A") (A") (A') (A") (A') (A') (A') (A") (A')
                 (A') (A') (A') (A') (A') (A') (A') (A') (A') (A')
                 (A')
 The electronic state of the initial guess is 1-A'.
 Leave Link  401 at Sun Mar  6 19:25:29 2022, MaxMem= 16106127360 cpu:               6.2 elap:               0.3
 (Enter /sw/contrib/gaussian/g16/B01/g16/l502.exe)
 Keep R1 ints in memory in symmetry-blocked form, NReq=348887737.
 FoFCou: FMM=F IPFlag=           0 FMFlag=           0 FMFlg1=           0
         NFxFlg=           0 DoJE=F BraDBF=F KetDBF=F FulRan=T
         wScrn=  0.000000 ICntrl=       600 IOpCl=  0 I1Cent=           0 NGrid=           0
         NMat0=    1 NMatS0=  21528 NMatT0=    0 NMatD0=    1 NMtDS0=    0 NMtDT0=    0
 Petite list used in FoFCou.
 Closed shell SCF:
 Using DIIS extrapolation, IDIIS=  1040.
 NGot= 16106127360 LenX= 15988850015 LenY= 15988789549
 Requested convergence on RMS density matrix=1.00D-08 within 128 cycles.
 Requested convergence on MAX density matrix=1.00D-06.
 Requested convergence on             energy=1.00D-06.
 No special actions if energy rises.

 Cycle   1  Pass 1  IDiag  1:
 E= -279.363841981766    
 DIIS: error= 2.74D-02 at cycle   1 NSaved=   1.
 NSaved= 1 IEnMin= 1 EnMin= -279.363841981766     IErMin= 1 ErrMin= 2.74D-02
 ErrMax= 2.74D-02  0.00D+00 EMaxC= 1.00D-01 BMatC= 4.50D-01 BMatP= 4.50D-01
 IDIUse=3 WtCom= 7.26D-01 WtEn= 2.74D-01
 Coeff-Com:  0.100D+01
 Coeff-En:   0.100D+01
 Coeff:      0.100D+01
 Gap=     0.496 Goal=   None    Shift=    0.000
 GapD=    0.496 DampG=2.000 DampE=0.500 DampFc=1.0000 IDamp=-1.
 RMSDP=1.68D-03 MaxDP=8.83D-02              OVMax= 1.22D-01

 Cycle   2  Pass 1  IDiag  1:
 E= -279.446092500026     Delta-E=       -0.082250518260 Rises=F Damp=F
 DIIS: error= 1.96D-02 at cycle   2 NSaved=   2.
 NSaved= 2 IEnMin= 2 EnMin= -279.446092500026     IErMin= 2 ErrMin= 1.96D-02
 ErrMax= 1.96D-02  0.00D+00 EMaxC= 1.00D-01 BMatC= 8.55D-02 BMatP= 4.50D-01
 IDIUse=3 WtCom= 8.04D-01 WtEn= 1.96D-01
 Coeff-Com:  0.218D+00 0.782D+00
 Coeff-En:   0.736D-01 0.926D+00
 Coeff:      0.189D+00 0.811D+00
 Gap=     0.563 Goal=   None    Shift=    0.000
 RMSDP=9.67D-04 MaxDP=3.72D-02 DE=-8.23D-02 OVMax= 9.13D-02

 Cycle   3  Pass 1  IDiag  1:
 E= -279.483565660111     Delta-E=       -0.037473160085 Rises=F Damp=F
 DIIS: error= 1.14D-02 at cycle   3 NSaved=   3.
 NSaved= 3 IEnMin= 3 EnMin= -279.483565660111     IErMin= 3 ErrMin= 1.14D-02
 ErrMax= 1.14D-02  0.00D+00 EMaxC= 1.00D-01 BMatC= 3.10D-02 BMatP= 8.55D-02
 IDIUse=3 WtCom= 8.86D-01 WtEn= 1.14D-01
 Coeff-Com: -0.348D-01 0.365D+00 0.669D+00
 Coeff-En:   0.000D+00 0.219D+00 0.781D+00
 Coeff:     -0.308D-01 0.349D+00 0.682D+00
 Gap=     0.542 Goal=   None    Shift=    0.000
 RMSDP=4.11D-04 MaxDP=1.59D-02 DE=-3.75D-02 OVMax= 3.87D-02

 Cycle   4  Pass 1  IDiag  1:
 E= -279.504720032349     Delta-E=       -0.021154372238 Rises=F Damp=F
 DIIS: error= 1.68D-03 at cycle   4 NSaved=   4.
 NSaved= 4 IEnMin= 4 EnMin= -279.504720032349     IErMin= 4 ErrMin= 1.68D-03
 ErrMax= 1.68D-03  0.00D+00 EMaxC= 1.00D-01 BMatC= 6.08D-04 BMatP= 3.10D-02
 IDIUse=3 WtCom= 9.83D-01 WtEn= 1.68D-02
 Coeff-Com: -0.120D-01 0.480D-01 0.156D+00 0.808D+00
 Coeff-En:   0.000D+00 0.000D+00 0.000D+00 0.100D+01
 Coeff:     -0.118D-01 0.472D-01 0.153D+00 0.811D+00
 Gap=     0.529 Goal=   None    Shift=    0.000
 RMSDP=9.89D-05 MaxDP=2.31D-03 DE=-2.12D-02 OVMax= 1.18D-02

 Cycle   5  Pass 1  IDiag  1:
 E= -279.505535806590     Delta-E=       -0.000815774241 Rises=F Damp=F
 DIIS: error= 1.12D-03 at cycle   5 NSaved=   5.
 NSaved= 5 IEnMin= 5 EnMin= -279.505535806590     IErMin= 5 ErrMin= 1.12D-03
 ErrMax= 1.12D-03  0.00D+00 EMaxC= 1.00D-01 BMatC= 1.03D-04 BMatP= 6.08D-04
 IDIUse=3 WtCom= 9.89D-01 WtEn= 1.12D-02
 Coeff-Com:  0.542D-02-0.666D-01-0.112D+00 0.598D-01 0.111D+01
 Coeff-En:   0.000D+00 0.000D+00 0.000D+00 0.000D+00 0.100D+01
 Coeff:      0.536D-02-0.658D-01-0.110D+00 0.591D-01 0.111D+01
 Gap=     0.532 Goal=   None    Shift=    0.000
 RMSDP=8.03D-05 MaxDP=2.12D-03 DE=-8.16D-04 OVMax= 1.30D-02

 Cycle   6  Pass 1  IDiag  1:
 E= -279.505901256276     Delta-E=       -0.000365449686 Rises=F Damp=F
 DIIS: error= 3.40D-04 at cycle   6 NSaved=   6.
 NSaved= 6 IEnMin= 6 EnMin= -279.505901256276     IErMin= 6 ErrMin= 3.40D-04
 ErrMax= 3.40D-04  0.00D+00 EMaxC= 1.00D-01 BMatC= 2.41D-05 BMatP= 1.03D-04
 IDIUse=3 WtCom= 9.97D-01 WtEn= 3.40D-03
 Coeff-Com:  0.189D-02-0.709D-02-0.179D-01-0.182D+00 0.111D-01 0.119D+01
 Coeff-En:   0.000D+00 0.000D+00 0.000D+00 0.000D+00 0.000D+00 0.100D+01
 Coeff:      0.188D-02-0.706D-02-0.178D-01-0.182D+00 0.111D-01 0.119D+01
 Gap=     0.532 Goal=   None    Shift=    0.000
 RMSDP=4.68D-05 MaxDP=1.07D-03 DE=-3.65D-04 OVMax= 6.11D-03

 Cycle   7  Pass 1  IDiag  1:
 E= -279.505987436579     Delta-E=       -0.000086180303 Rises=F Damp=F
 DIIS: error= 1.28D-04 at cycle   7 NSaved=   7.
 NSaved= 7 IEnMin= 7 EnMin= -279.505987436579     IErMin= 7 ErrMin= 1.28D-04
 ErrMax= 1.28D-04  0.00D+00 EMaxC= 1.00D-01 BMatC= 3.56D-06 BMatP= 2.41D-05
 IDIUse=3 WtCom= 9.99D-01 WtEn= 1.28D-03
 Coeff-Com: -0.109D-02 0.114D-01 0.250D-01 0.160D-01-0.180D+00-0.150D+00
 Coeff-Com:  0.128D+01
 Coeff-En:   0.000D+00 0.000D+00 0.000D+00 0.000D+00 0.000D+00 0.000D+00
 Coeff-En:   0.100D+01
 Coeff:     -0.109D-02 0.114D-01 0.249D-01 0.160D-01-0.180D+00-0.150D+00
 Coeff:      0.128D+01
 Gap=     0.533 Goal=   None    Shift=    0.000
 RMSDP=1.75D-05 MaxDP=5.11D-04 DE=-8.62D-05 OVMax= 2.33D-03

 Cycle   8  Pass 1  IDiag  1:
 E= -279.505999424868     Delta-E=       -0.000011988289 Rises=F Damp=F
 DIIS: error= 4.71D-05 at cycle   8 NSaved=   8.
 NSaved= 8 IEnMin= 8 EnMin= -279.505999424868     IErMin= 8 ErrMin= 4.71D-05
 ErrMax= 4.71D-05  0.00D+00 EMaxC= 1.00D-01 BMatC= 6.01D-07 BMatP= 3.56D-06
 IDIUse=1 WtCom= 1.00D+00 WtEn= 0.00D+00
 Coeff-Com: -0.561D-03 0.412D-02 0.972D-02 0.247D-01-0.564D-01-0.193D+00
 Coeff-Com:  0.353D+00 0.858D+00
 Coeff:     -0.561D-03 0.412D-02 0.972D-02 0.247D-01-0.564D-01-0.193D+00
 Coeff:      0.353D+00 0.858D+00
 Gap=     0.533 Goal=   None    Shift=    0.000
 RMSDP=5.46D-06 MaxDP=1.54D-04 DE=-1.20D-05 OVMax= 6.52D-04

 Cycle   9  Pass 1  IDiag  1:
 E= -279.506000809755     Delta-E=       -0.000001384887 Rises=F Damp=F
 DIIS: error= 2.40D-05 at cycle   9 NSaved=   9.
 NSaved= 9 IEnMin= 9 EnMin= -279.506000809755     IErMin= 9 ErrMin= 2.40D-05
 ErrMax= 2.40D-05  0.00D+00 EMaxC= 1.00D-01 BMatC= 1.17D-07 BMatP= 6.01D-07
 IDIUse=1 WtCom= 1.00D+00 WtEn= 0.00D+00
 Coeff-Com:  0.242D-03-0.257D-02-0.535D-02-0.556D-02 0.467D-01 0.491D-01
 Coeff-Com: -0.340D+00 0.315D-01 0.123D+01
 Coeff:      0.242D-03-0.257D-02-0.535D-02-0.556D-02 0.467D-01 0.491D-01
 Coeff:     -0.340D+00 0.315D-01 0.123D+01
 Gap=     0.533 Goal=   None    Shift=    0.000
 RMSDP=2.47D-06 MaxDP=6.75D-05 DE=-1.38D-06 OVMax= 2.59D-04

 Cycle  10  Pass 1  IDiag  1:
 E= -279.506001074804     Delta-E=       -0.000000265049 Rises=F Damp=F
 DIIS: error= 5.81D-06 at cycle  10 NSaved=  10.
 NSaved=10 IEnMin=10 EnMin= -279.506001074804     IErMin=10 ErrMin= 5.81D-06
 ErrMax= 5.81D-06  0.00D+00 EMaxC= 1.00D-01 BMatC= 8.26D-09 BMatP= 1.17D-07
 IDIUse=1 WtCom= 1.00D+00 WtEn= 0.00D+00
 Coeff-Com: -0.373D-04 0.486D-03 0.117D-02-0.189D-02-0.107D-01 0.566D-02
 Coeff-Com:  0.708D-01-0.536D-01-0.429D+00 0.142D+01
 Coeff:     -0.373D-04 0.486D-03 0.117D-02-0.189D-02-0.107D-01 0.566D-02
 Coeff:      0.708D-01-0.536D-01-0.429D+00 0.142D+01
 Gap=     0.533 Goal=   None    Shift=    0.000
 RMSDP=7.05D-07 MaxDP=2.53D-05 DE=-2.65D-07 OVMax= 7.53D-05

 Cycle  11  Pass 1  IDiag  1:
 E= -279.506001099772     Delta-E=       -0.000000024968 Rises=F Damp=F
 DIIS: error= 2.24D-06 at cycle  11 NSaved=  11.
 NSaved=11 IEnMin=11 EnMin= -279.506001099772     IErMin=11 ErrMin= 2.24D-06
 ErrMax= 2.24D-06  0.00D+00 EMaxC= 1.00D-01 BMatC= 8.57D-10 BMatP= 8.26D-09
 IDIUse=1 WtCom= 1.00D+00 WtEn= 0.00D+00
 Coeff-Com: -0.169D-04 0.173D-03 0.360D-03 0.874D-03-0.229D-02-0.724D-02
 Coeff-Com:  0.199D-01 0.190D-01-0.550D-01-0.312D+00 0.134D+01
 Coeff:     -0.169D-04 0.173D-03 0.360D-03 0.874D-03-0.229D-02-0.724D-02
 Coeff:      0.199D-01 0.190D-01-0.550D-01-0.312D+00 0.134D+01
 Gap=     0.533 Goal=   None    Shift=    0.000
 RMSDP=2.45D-07 MaxDP=9.08D-06 DE=-2.50D-08 OVMax= 2.86D-05

 Cycle  12  Pass 1  IDiag  1:
 E= -279.506001102830     Delta-E=       -0.000000003058 Rises=F Damp=F
 DIIS: error= 7.48D-07 at cycle  12 NSaved=  12.
 NSaved=12 IEnMin=12 EnMin= -279.506001102830     IErMin=12 ErrMin= 7.48D-07
 ErrMax= 7.48D-07  0.00D+00 EMaxC= 1.00D-01 BMatC= 9.17D-11 BMatP= 8.57D-10
 IDIUse=1 WtCom= 1.00D+00 WtEn= 0.00D+00
 Coeff-Com:  0.253D-05-0.452D-04-0.982D-04 0.153D-03 0.115D-02-0.878D-03
 Coeff-Com: -0.729D-02 0.688D-02 0.418D-01-0.121D+00-0.173D+00 0.125D+01
 Coeff:      0.253D-05-0.452D-04-0.982D-04 0.153D-03 0.115D-02-0.878D-03
 Coeff:     -0.729D-02 0.688D-02 0.418D-01-0.121D+00-0.173D+00 0.125D+01
 Gap=     0.533 Goal=   None    Shift=    0.000
 RMSDP=8.68D-08 MaxDP=2.84D-06 DE=-3.06D-09 OVMax= 1.01D-05

 Cycle  13  Pass 1  IDiag  1:
 E= -279.506001103151     Delta-E=       -0.000000000321 Rises=F Damp=F
 DIIS: error= 1.69D-07 at cycle  13 NSaved=  13.
 NSaved=13 IEnMin=13 EnMin= -279.506001103151     IErMin=13 ErrMin= 1.69D-07
 ErrMax= 1.69D-07  0.00D+00 EMaxC= 1.00D-01 BMatC= 7.72D-12 BMatP= 9.17D-11
 IDIUse=1 WtCom= 1.00D+00 WtEn= 0.00D+00
 Coeff-Com:  0.136D-05-0.130D-04-0.191D-04-0.121D-03 0.574D-04 0.946D-03
 Coeff-Com: -0.116D-02-0.254D-02-0.150D-02 0.544D-01-0.129D+00-0.153D+00
 Coeff-Com:  0.123D+01
 Coeff:      0.136D-05-0.130D-04-0.191D-04-0.121D-03 0.574D-04 0.946D-03
 Coeff:     -0.116D-02-0.254D-02-0.150D-02 0.544D-01-0.129D+00-0.153D+00
 Coeff:      0.123D+01
 Gap=     0.533 Goal=   None    Shift=    0.000
 RMSDP=2.31D-08 MaxDP=6.91D-07 DE=-3.21D-10 OVMax= 2.13D-06

 Cycle  14  Pass 1  IDiag  1:
 E= -279.506001103173     Delta-E=       -0.000000000023 Rises=F Damp=F
 DIIS: error= 4.13D-08 at cycle  14 NSaved=  14.
 NSaved=14 IEnMin=14 EnMin= -279.506001103173     IErMin=14 ErrMin= 4.13D-08
 ErrMax= 4.13D-08  0.00D+00 EMaxC= 1.00D-01 BMatC= 5.07D-13 BMatP= 7.72D-12
 IDIUse=1 WtCom= 1.00D+00 WtEn= 0.00D+00
 Coeff-Com: -0.296D-06 0.447D-05 0.901D-05-0.510D-05-0.114D-03 0.698D-04
 Coeff-Com:  0.644D-03-0.348D-03-0.364D-02 0.849D-02 0.165D-01-0.896D-01
 Coeff-Com: -0.232D-01 0.109D+01
 Coeff:     -0.296D-06 0.447D-05 0.901D-05-0.510D-05-0.114D-03 0.698D-04
 Coeff:      0.644D-03-0.348D-03-0.364D-02 0.849D-02 0.165D-01-0.896D-01
 Coeff:     -0.232D-01 0.109D+01
 Gap=     0.533 Goal=   None    Shift=    0.000
 RMSDP=4.48D-09 MaxDP=1.12D-07 DE=-2.27D-11 OVMax= 4.83D-07

 SCF Done:  E(RHF) =  -279.506001103     A.U. after   14 cycles
            NFock= 14  Conv=0.45D-08     -V/T= 2.0022
 KE= 2.788919542222D+02 PE=-9.065070832534D+02 EE= 2.252830996914D+02
 Leave Link  502 at Sun Mar  6 19:25:33 2022, MaxMem= 16106127360 cpu:              54.2 elap:               3.4
 (Enter /sw/contrib/gaussian/g16/B01/g16/l801.exe)
 ExpMin= 2.53D-02 ExpMax= 1.53D+04 ExpMxC= 5.22D+02 IAcc=3 IRadAn=         5 AccDes= 0.00D+00
 HarFok:  IExCor=  205 AccDes= 0.00D+00 IRadAn=         5 IDoV=-2 UseB2=F ITyADJ=14
 ICtDFT= 12500011 ScaDFX=  1.000000  1.000000  1.000000  1.000000
 Largest valence mixing into a core orbital is  2.07D-04
 Largest core mixing into a valence orbital is  3.12D-05
 Range of M.O.s used for correlation:     5   207
 NBasis=   207 NAE=    16 NBE=    16 NFC=     4 NFV=     0
 NROrb=    203 NOA=    12 NOB=    12 NVA=   191 NVB=   191

 **** Warning!!: The largest alpha MO coefficient is  0.16959267D+02

 Leave Link  801 at Sun Mar  6 19:25:33 2022, MaxMem= 16106127360 cpu:               5.0 elap:               0.3
 (Enter /sw/contrib/gaussian/g16/B01/g16/l906.exe)
 Frozen-core derivative calculation, NFC=   4 NFV=   0.
 FulOut=F Deriv=T AODrv=T NAtomX=     5
   MMem=           0  MDisk=          12 MDiskD=          12
  W3Min=      811440 MinDsk=     2425030 NBas6D=         245
 NBas2D=       30762    NTT=       30135    LW2=     7400000
    MDV= 16105571532 MDiskM=      328644 NBas2p=       30759
 Disk-based method using ON**2 memory for 12 occupieds at a time.
 Permanent disk used for amplitudes=    11516536 words.
 Estimated scratch disk usage=   321863743 words.
 IMap=   1   2   3   4   5   6   7   8   9  10  11  12  13  14  15  16
 Actual    scratch disk usage=   310892607 words.
 JobTyp=1 Pass  1:  I=   5 to  16 NPSUse= 28 ParTrn=T ParDer=T DoDerP=T.
 (rs|ai) integrals will be sorted in core.
 Spin components of T(2) and E(2):
     alpha-alpha T2 =       0.3482930748D-01 E2=     -0.1246335083D+00
     alpha-beta  T2 =       0.1845530038D+00 E2=     -0.6998807270D+00
     beta-beta   T2 =       0.3482930748D-01 E2=     -0.1246335083D+00
 The integrals were generated   1 times.
 ANorm=    0.1119915898D+01
 E2 =    -0.9491477436D+00 EUMP2 =    -0.28045514884675D+03
 Leave Link  906 at Sun Mar  6 19:27:10 2022, MaxMem= 16106127360 cpu:            2702.0 elap:              96.7
 (Enter /sw/contrib/gaussian/g16/B01/g16/l1101.exe)
 Using compressed Sx but separate Hx and Fx, NAtomX=     5.
 Will process      6 centers per pass.
 Leave Link 1101 at Sun Mar  6 19:27:10 2022, MaxMem= 16106127360 cpu:               5.2 elap:               0.2
 (Enter /sw/contrib/gaussian/g16/B01/g16/l1102.exe)
 Leave Link 1102 at Sun Mar  6 19:27:10 2022, MaxMem= 16106127360 cpu:               0.6 elap:               0.0
 (Enter /sw/contrib/gaussian/g16/B01/g16/l1110.exe)
 Forming Gx(P) for the SCF density, NAtomX=     5.
 Integral derivatives from FoFJK, PRISM(SPDF).
 Do as many integral derivatives as possible in FoFJK.
 G2DrvN: MDV=   16106126844.
 G2DrvN: will do     6 centers at a time, making    1 passes.
 Calling FoFCou, ICntrl=  3107 FMM=F I1Cent=   0 AccDes= 0.00D+00.
 FoFJK:  IHMeth= 1 ICntrl=    3107 DoSepK=F KAlg= 0 I1Cent=           0 FoldK=F
 IRaf=         0 NMat=       1 IRICut=       1 DoRegI=T DoRafI=F ISym2E= 1 IDoP0=0 IntGTp=1.
 FoFCou: FMM=F IPFlag=           0 FMFlag=      100000 FMFlg1=           0
         NFxFlg=           0 DoJE=F BraDBF=F KetDBF=F FulRan=T
         wScrn=  0.000000 ICntrl=      3107 IOpCl=  0 I1Cent=           0 NGrid=           0
         NMat0=    1 NMatS0=      1 NMatT0=    0 NMatD0=    1 NMtDS0=    0 NMtDT0=    0
 Petite list used in FoFCou.
 End of G2Drv F.D. properties file   721 does not exist.
 End of G2Drv F.D. properties file   722 does not exist.
 End of G2Drv F.D. properties file   788 does not exist.
 Leave Link 1110 at Sun Mar  6 19:27:13 2022, MaxMem= 16106127360 cpu:              86.7 elap:               3.1
 (Enter /sw/contrib/gaussian/g16/B01/g16/l1002.exe)
 Minotr:  Closed shell wavefunction.
          IDoAtm=11111
          Frozen-core window.
          Direct CPHF calculation.
          Differentiating once with respect to electric field.
                with respect to dipole field.
          Differentiating once with respect to nuclear coordinates.
          Requested convergence is 1.0D-08 RMS, and 1.0D-07 maximum.
          Secondary convergence is 1.0D-12 RMS, and 1.0D-12 maximum.
          NewPWx=T KeepS1=T KeepF1=T KeepIn=T MapXYZ=F SortEE=F KeepMc=T.
 Keep R1 ints in memory in symmetry-blocked form, NReq=348888983.
 FoFCou: FMM=F IPFlag=           0 FMFlag=           0 FMFlg1=           0
         NFxFlg=           0 DoJE=F BraDBF=F KetDBF=F FulRan=T
         wScrn=  0.000000 ICntrl=       600 IOpCl=  0 I1Cent=           0 NGrid=           0
         NMat0=    1 NMatS0=  21528 NMatT0=    0 NMatD0=    1 NMtDS0=    0 NMtDT0=    0
 Petite list used in FoFCou.
          MDV=   16106127360 using IRadAn=       1.
          Solving linear equations simultaneously, MaxMat=       0.
          There are    18 degrees of freedom in the 1st order CPHF.  IDoFFX=6 NUNeed=    18.
     15 vectors produced by pass  0 Test12= 1.70D-14 5.56D-09 XBig12= 7.90D+00 1.22D+00.
 AX will form    15 AO Fock derivatives at one time.
     15 vectors produced by pass  1 Test12= 1.70D-14 5.56D-09 XBig12= 1.35D+00 2.23D-01.
     15 vectors produced by pass  2 Test12= 1.70D-14 5.56D-09 XBig12= 6.86D-02 5.73D-02.
     15 vectors produced by pass  3 Test12= 1.70D-14 5.56D-09 XBig12= 1.95D-03 1.05D-02.
     15 vectors produced by pass  4 Test12= 1.70D-14 5.56D-09 XBig12= 4.23D-05 1.25D-03.
     15 vectors produced by pass  5 Test12= 1.70D-14 5.56D-09 XBig12= 5.78D-07 1.14D-04.
     15 vectors produced by pass  6 Test12= 1.70D-14 5.56D-09 XBig12= 4.42D-09 1.13D-05.
     14 vectors produced by pass  7 Test12= 1.70D-14 5.56D-09 XBig12= 3.41D-11 7.33D-07.
      3 vectors produced by pass  8 Test12= 1.70D-14 5.56D-09 XBig12= 2.43D-13 6.04D-08.
      1 vectors produced by pass  9 Test12= 1.70D-14 5.56D-09 XBig12= 1.65D-15 7.13D-09.
 InvSVY:  IOpt=1 It=  1 EMax= 8.88D-16
 Solved reduced A of dimension   123 with    15 vectors.
 FullF1:  Do perturbations      1 to      18.
 Saving first derivative matrices.
 End of Minotr F.D. properties file   721 does not exist.
 End of Minotr F.D. properties file   722 does not exist.
 End of Minotr F.D. properties file   788 does not exist.
 Leave Link 1002 at Sun Mar  6 19:27:16 2022, MaxMem= 16106127360 cpu:              76.4 elap:               2.9
 (Enter /sw/contrib/gaussian/g16/B01/g16/l811.exe)
 MDV= 16106127360.
 Form MO integral derivatives with frozen-active canonical formalism.
 MOERI=1 MOERIx=1 NAtoms=     5 NAtomX=     5.
 Discarding MO integrals.
 MO basis two electron integral derivatives will not be stored on disk.
 IAlg= 3 DoFC=T DoPWx=T Debug=F.
 Frozen-core window:  NFC=   4 NFV=   0.
 Reordered first order wavefunction length =     18678272
 In DefCFB: NBatch=  1 ICI= 16 ICA=191 LFMax= 96
            Large arrays: LIAPS=   619940160 LIARS=   288257200 words.
 In StABat: MaxSiz= 55 MinSiz= 25 NAtomB=  5
 DoIAMN: NPSUse= 28.
 Leave Link  811 at Sun Mar  6 19:28:38 2022, MaxMem= 16106127360 cpu:            2279.7 elap:              81.5
 (Enter /sw/contrib/gaussian/g16/B01/g16/l804.exe)
 Frozen-core window:  NFC=   4 NFV=   0.
 Closed-shell transformation, MDV= 16106127360 ITran=4 ISComp=1.
 Semi-Direct transformation.
 ModeAB=           2 MOrb=            16 LenV=   16104919911
 LASXX=     67341636 LTotXX=    67341636 LenRXX=    67341636
 LTotAB=    68301760 MaxLAS=    99807120 LenRXY=    99807120
 NonZer=   134683272 LenScr=   202817536 LnRSAI=           0
 LnScr1=           0 LExtra=           0 Total=    369966292
 MaxDsk=          -1 SrtSym=           F ITran=            4
 DoSDTr:  NPSUse= 28
 JobTyp=0 Pass  1:  I=   1 to  16.
 (rs|ai) integrals will be sorted in core.
 Complete sort for first half transformation.
 First half transformation complete.
 Begin second half transformation for I=  10.
 Begin second half transformation for I=  10.
 Complete sort for second half transformation.
 Second half transformation complete.
 Spin components of T(2) and E(2):
     alpha-alpha T2 =       0.3482930748D-01 E2=     -0.1246335083D+00
     alpha-beta  T2 =       0.1845530038D+00 E2=     -0.6998807270D+00
     beta-beta   T2 =       0.3482930748D-01 E2=     -0.1246335083D+00
 ANorm=    0.1583800252D+01
 E2 =    -0.9491477436D+00 EUMP2 =    -0.28045514884675D+03
 Leave Link  804 at Sun Mar  6 19:28:54 2022, MaxMem= 16106127360 cpu:             440.6 elap:              15.8
 (Enter /sw/contrib/gaussian/g16/B01/g16/l1002.exe)
 Minotr:  Closed shell wavefunction.
          Computing MP2/KS-MP2 derivatives.
          Using Z-Vector for PSCF gradient.
          Skipping F1 and S1 gradient terms here.
          IDoAtm=11111
          Frozen-core window.
          Using MO integrals in the linear equations.
          Forming densities via direct SCF.
          Differentiating once with respect to electric field.
                with respect to dipole field.
          Differentiating once with respect to nuclear coordinates.
          Using symmetry in CPHF.
          Requested convergence is 1.0D-10 RMS, and 1.0D-09 maximum.
          NewPWx=F KeepS1=T KeepF1=T KeepIn=T MapXYZ=F SortEE=F KeepMc=T.
          MDV=   16106127360 using IRadAn=       5.
          Solving linear equations separately, MaxMat=       0.
          There are     1 degrees of freedom in the 1st order CPHF.  IDoFFX=0 NUNeed=     1.
 FoFJK:  IHMeth= 1 ICntrl=       0 DoSepK=F KAlg= 0 I1Cent=           0 FoldK=F
 IRaf=         0 NMat=       1 IRICut=       1 DoRegI=T DoRafI=F ISym2E= 0 IDoP0=0 IntGTp=1.
 FoFCou: FMM=F IPFlag=           0 FMFlag=      100000 FMFlg1=           0
         NFxFlg=           0 DoJE=F BraDBF=F KetDBF=F FulRan=T
         wScrn=  0.000000 ICntrl=         0 IOpCl=  0 I1Cent=           0 NGrid=           0
         NMat0=    1 NMatS0=      1 NMatT0=    0 NMatD0=    1 NMtDS0=    0 NMtDT0=    0
 Symmetry not used in FoFCou.
 LinEq1:  Iter=  0 NonCon=     1 RMS=6.61D-03 Max=1.71D-01 NDo=     1
 LinEq1:  Iter=  1 NonCon=     1 RMS=2.01D-03 Max=3.06D-02 NDo=     1
 LinEq1:  Iter=  2 NonCon=     1 RMS=8.91D-04 Max=1.44D-02 NDo=     1
 LinEq1:  Iter=  3 NonCon=     1 RMS=3.79D-04 Max=8.04D-03 NDo=     1
 LinEq1:  Iter=  4 NonCon=     1 RMS=1.37D-04 Max=1.66D-03 NDo=     1
 LinEq1:  Iter=  5 NonCon=     1 RMS=7.63D-05 Max=1.40D-03 NDo=     1
 LinEq1:  Iter=  6 NonCon=     1 RMS=2.44D-05 Max=2.91D-04 NDo=     1
 LinEq1:  Iter=  7 NonCon=     1 RMS=8.25D-06 Max=1.12D-04 NDo=     1
 LinEq1:  Iter=  8 NonCon=     1 RMS=4.02D-06 Max=6.25D-05 NDo=     1
 LinEq1:  Iter=  9 NonCon=     1 RMS=1.05D-06 Max=1.22D-05 NDo=     1
 LinEq1:  Iter= 10 NonCon=     1 RMS=2.32D-07 Max=2.99D-06 NDo=     1
 LinEq1:  Iter= 11 NonCon=     1 RMS=4.97D-08 Max=8.31D-07 NDo=     1
 LinEq1:  Iter= 12 NonCon=     1 RMS=1.17D-08 Max=1.81D-07 NDo=     1
 LinEq1:  Iter= 13 NonCon=     1 RMS=2.07D-09 Max=2.40D-08 NDo=     1
 LinEq1:  Iter= 14 NonCon=     1 RMS=4.30D-10 Max=5.67D-09 NDo=     1
 LinEq1:  Iter= 15 NonCon=     0 RMS=8.81D-11 Max=9.39D-10 NDo=     1
 Linear equations converged to 1.000D-10 1.000D-09 after    15 iterations.
 End of Minotr F.D. properties file   721 does not exist.
 End of Minotr F.D. properties file   722 does not exist.
 End of Minotr F.D. properties file   788 does not exist.
 Leave Link 1002 at Sun Mar  6 19:28:56 2022, MaxMem= 16106127360 cpu:              64.8 elap:               2.4
 (Enter /sw/contrib/gaussian/g16/B01/g16/l1102.exe)
 Use density number 2.
 Symmetrizing basis deriv contribution to polar:
 IMax=3 JMax=2 DiffMx= 0.00D+00
 Leave Link 1102 at Sun Mar  6 19:28:56 2022, MaxMem= 16106127360 cpu:               1.1 elap:               0.1
 (Enter /sw/contrib/gaussian/g16/B01/g16/l1110.exe)
 Forming Gx(P) for generalized density number  2 NAtomX=     5.
 Integral derivatives from FoFJK, PRISM(SPDF).
 Do as many integral derivatives as possible in FoFJK.
 G2DrvN: MDV=   16106126844.
 G2DrvN: will do     6 centers at a time, making    1 passes.
 Calling FoFCou, ICntrl=  3107 FMM=F I1Cent=   0 AccDes= 0.00D+00.
 FoFJK:  IHMeth= 1 ICntrl=    3107 DoSepK=F KAlg= 0 I1Cent=           0 FoldK=F
 IRaf=         0 NMat=       1 IRICut=       1 DoRegI=T DoRafI=F ISym2E= 1 IDoP0=0 IntGTp=1.
 FoFCou: FMM=F IPFlag=           0 FMFlag=      100000 FMFlg1=           0
         NFxFlg=           0 DoJE=F BraDBF=F KetDBF=F FulRan=T
         wScrn=  0.000000 ICntrl=      3107 IOpCl=  0 I1Cent=           0 NGrid=           0
         NMat0=    1 NMatS0=      1 NMatT0=    0 NMatD0=    1 NMtDS0=    0 NMtDT0=    0
 Petite list used in FoFCou.
 End of G2Drv F.D. properties file   721 does not exist.
 End of G2Drv F.D. properties file   722 does not exist.
 End of G2Drv F.D. properties file   788 does not exist.
 Leave Link 1110 at Sun Mar  6 19:28:59 2022, MaxMem= 16106127360 cpu:              87.2 elap:               3.1
 (Enter /sw/contrib/gaussian/g16/B01/g16/l1112.exe)
 MP22nd: MDV=   16106127360
 This link is doing NAtomX=     5 total of    18 degrees of freedom.
 Using ON3 I/O method in MakUI.
 Frozen-core window:  NFC=   4 NFV=   0.
 Using Ix for Sx.
 Use MO integrals over full window.
 Using OV2 memory method for fx*t*t/D, MaxI=    16 DoOO2=F NP=  28.
 R2 and R3 integrals will be kept in memory, NReq=   915591705.
 FoFCou: FMM=F IPFlag=           0 FMFlag=           0 FMFlg1=           0
         NFxFlg=           0 DoJE=F BraDBF=F KetDBF=F FulRan=T
         wScrn=  0.000000 ICntrl=       600 IOpCl=  0 I1Cent=           0 NGrid=           0
         NMat0=    1 NMatS0=      1 NMatT0=    0 NMatD0=    1 NMtDS0=    0 NMtDT0=    0
 Symmetry not used in FoFCou.
 DD1Dir will call FoFMem   1 times, MxPair=       272
 NAB=   136 NAA=     0 NBB=     0.
 Symmetry is being used.
 FoFJK:  IHMeth= 1 ICntrl=       0 DoSepK=F KAlg= 0 I1Cent=           0 FoldK=F
 IRaf=         0 NMat=      18 IRICut=      45 DoRegI=T DoRafI=T ISym2E= 2 IDoP0=3 IntGTp=3.
 Discarding MO integrals.
 Leave Link 1112 at Sun Mar  6 19:29:32 2022, MaxMem= 16106127360 cpu:             918.8 elap:              33.2
 (Enter /sw/contrib/gaussian/g16/B01/g16/l601.exe)
 Copying SCF densities to generalized density rwf, IOpCl= 0 IROHF=0.

 **********************************************************************

            Population analysis using the MP2 Density.

 **********************************************************************

 Orbital symmetries:
       Occupied  (A') (A') (A') (A') (A') (A') (A') (A') (A') (A')
                 (A") (A') (A") (A') (A') (A")
       Virtual   (A') (A") (A') (A') (A") (A') (A') (A') (A") (A')
                 (A") (A') (A') (A') (A") (A') (A') (A") (A') (A')
                 (A') (A') (A') (A') (A") (A') (A') (A") (A') (A')
                 (A') (A") (A") (A') (A') (A') (A") (A') (A") (A')
                 (A") (A") (A') (A') (A") (A') (A') (A") (A') (A')
                 (A') (A") (A') (A') (A") (A') (A") (A') (A') (A")
                 (A') (A') (A") (A') (A') (A") (A') (A") (A') (A')
                 (A") (A') (A") (A") (A') (A') (A") (A') (A') (A')
                 (A") (A') (A') (A") (A') (A") (A") (A') (A') (A')
                 (A') (A') (A") (A") (A') (A') (A") (A") (A') (A")
                 (A') (A') (A") (A') (A") (A') (A') (A') (A") (A")
                 (A') (A') (A') (A') (A") (A') (A') (A') (A") (A')
                 (A") (A') (A") (A') (A") (A") (A') (A") (A') (A')
                 (A') (A') (A") (A') (A') (A") (A") (A') (A') (A')
                 (A") (A") (A') (A') (A') (A") (A') (A') (A') (A")
                 (A') (A') (A') (A") (A') (A") (A") (A') (A') (A")
                 (A') (A") (A') (A") (A") (A') (A") (A') (A") (A")
                 (A') (A") (A") (A') (A') (A") (A') (A') (A") (A')
                 (A') (A') (A') (A') (A') (A') (A') (A') (A') (A')
                 (A')
 The electronic state is 1-A'.
 Alpha  occ. eigenvalues --  -20.71964 -20.68821 -20.66861 -15.82679  -1.64555
 Alpha  occ. eigenvalues --   -1.50605  -1.29388  -0.96033  -0.83607  -0.75953
 Alpha  occ. eigenvalues --   -0.74057  -0.63796  -0.61904  -0.61884  -0.50571
 Alpha  occ. eigenvalues --   -0.49767
 Alpha virt. eigenvalues --    0.03535   0.05959   0.09503   0.10031   0.11942
 Alpha virt. eigenvalues --    0.12261   0.14932   0.15284   0.17739   0.17984
 Alpha virt. eigenvalues --    0.18964   0.21084   0.21693   0.24231   0.24631
 Alpha virt. eigenvalues --    0.26861   0.31345   0.31775   0.33775   0.34398
 Alpha virt. eigenvalues --    0.34796   0.39277   0.44989   0.49111   0.50558
 Alpha virt. eigenvalues --    0.51812   0.54317   0.56059   0.59746   0.62064
 Alpha virt. eigenvalues --    0.63861   0.69099   0.71624   0.72394   0.74218
 Alpha virt. eigenvalues --    0.76473   0.76707   0.79558   0.80638   0.83793
 Alpha virt. eigenvalues --    0.84320   0.85282   0.88500   0.90824   0.92932
 Alpha virt. eigenvalues --    0.94905   0.95328   1.01936   1.03519   1.06726
 Alpha virt. eigenvalues --    1.06834   1.09674   1.14590   1.15618   1.16967
 Alpha virt. eigenvalues --    1.22171   1.22807   1.24829   1.35122   1.35927
 Alpha virt. eigenvalues --    1.37028   1.46839   1.48446   1.50277   1.54564
 Alpha virt. eigenvalues --    1.59727   1.59769   1.60375   1.62939   1.69449
 Alpha virt. eigenvalues --    1.74716   1.80055   1.82903   1.88774   1.90731
 Alpha virt. eigenvalues --    1.93287   1.97897   1.98857   2.05277   2.12521
 Alpha virt. eigenvalues --    2.13341   2.16875   2.19059   2.24256   2.26048
 Alpha virt. eigenvalues --    2.29709   2.35567   2.36781   2.38912   2.40367
 Alpha virt. eigenvalues --    2.43563   2.46954   2.48032   2.53089   2.54101
 Alpha virt. eigenvalues --    2.54812   2.56047   2.61675   2.63174   2.67228
 Alpha virt. eigenvalues --    2.67514   2.75271   2.80425   2.81329   2.84972
 Alpha virt. eigenvalues --    2.91757   2.98616   3.04783   3.05050   3.11729
 Alpha virt. eigenvalues --    3.12325   3.17845   3.22172   3.31220   3.33169
 Alpha virt. eigenvalues --    3.35808   3.48255   3.67752   3.87075   3.94156
 Alpha virt. eigenvalues --    4.18849   4.22204   4.22627   4.26873   4.36828
 Alpha virt. eigenvalues --    4.49793   4.53172   4.55512   4.60960   4.69071
 Alpha virt. eigenvalues --    4.81217   4.89798   4.91506   4.93789   4.99843
 Alpha virt. eigenvalues --    5.00494   5.10811   5.13328   5.17720   5.25329
 Alpha virt. eigenvalues --    5.25501   5.31820   5.34577   5.37381   5.54611
 Alpha virt. eigenvalues --    5.64446   5.70933   5.89517   5.99616   6.26499
 Alpha virt. eigenvalues --    6.29935   6.35625   6.37431   6.60187   6.65478
 Alpha virt. eigenvalues --    6.66351   6.69177   6.72485   6.79473   6.80746
 Alpha virt. eigenvalues --    6.85023   6.96880   7.03362   7.06636   7.07567
 Alpha virt. eigenvalues --    7.12925   7.17512   7.17970   7.20639   7.24698
 Alpha virt. eigenvalues --    7.25006   7.27288   7.35104   7.40098   7.43532
 Alpha virt. eigenvalues --    7.44148   7.46470   7.55940   7.66319   7.67585
 Alpha virt. eigenvalues --    7.79675   7.88918   7.95259   8.07918   8.31914
 Alpha virt. eigenvalues --    8.49627   8.65210  13.62278  14.78258  15.11847
 Alpha virt. eigenvalues --   15.80232
          Condensed to atoms (all electrons):
               1          2          3          4          5
     1  H    0.583155   0.122178   0.022232   0.001242  -0.002289
     2  O    0.122178   8.392226  -0.229075  -0.001068  -0.009398
     3  O    0.022232  -0.229075   8.371342  -0.169917  -0.033121
     4  N    0.001242  -0.001068  -0.169917   7.137985  -0.124384
     5  O   -0.002289  -0.009398  -0.033121  -0.124384   8.362492
 Mulliken charges:
               1
     1  H    0.273482
     2  O   -0.274863
     3  O    0.038539
     4  N    0.156143
     5  O   -0.193301
 Sum of Mulliken charges =  -0.00000
 Mulliken charges with hydrogens summed into heavy atoms:
               1
     2  O   -0.001382
     3  O    0.038539
     4  N    0.156143
     5  O   -0.193301
 APT charges:
               1
     1  H    0.272760
     2  O   -0.303847
     3  O   -0.308101
     4  N    0.643224
     5  O   -0.304036
 Sum of APT charges =  -0.00000
 APT charges with hydrogens summed into heavy atoms:
               1
     2  O   -0.031087
     3  O   -0.308101
     4  N    0.643224
     5  O   -0.304036
 Electronic spatial extent (au):  <R**2>=            207.0213
 Charge=             -0.0000 electrons
 Dipole moment (field-independent basis, Debye):
    X=              0.0141    Y=             -1.0806    Z=             -0.0000  Tot=              1.0807
 Quadrupole moment (field-independent basis, Debye-Ang):
   XX=            -23.4372   YY=            -22.9482   ZZ=            -21.9274
   XY=             -1.9053   XZ=              0.0000   YZ=             -0.0000
 Traceless Quadrupole moment (field-independent basis, Debye-Ang):
   XX=             -0.6663   YY=             -0.1773   ZZ=              0.8435
   XY=             -1.9053   XZ=              0.0000   YZ=             -0.0000
 Octapole moment (field-independent basis, Debye-Ang**2):
  XXX=              2.4236  YYY=              0.2868  ZZZ=             -0.0000  XYY=              2.3205
  XXY=             -2.7115  XXZ=             -0.0000  XZZ=             -0.5859  YZZ=             -0.7051
  YYZ=             -0.0000  XYZ=              0.0000
 Hexadecapole moment (field-independent basis, Debye-Ang**3):
 XXXX=           -126.8542 YYYY=            -94.8055 ZZZZ=            -18.0286 XXXY=            -21.4279
 XXXZ=              0.0000 YYYX=            -19.7867 YYYZ=             -0.0000 ZZZX=              0.0000
 ZZZY=             -0.0000 XXYY=            -35.6228 XXZZ=            -24.2875 YYZZ=            -18.5770
 XXYZ=             -0.0000 YYXZ=              0.0000 ZZXY=             -5.9319
 N-N= 1.228260282367D+02 E-N=-9.071947394237D+02  KE= 2.802085321288D+02
 Symmetry A'   KE= 2.663588445590D+02
 Symmetry A"   KE= 1.384968756984D+01
  Exact polarizability:  30.903   4.206  29.828  -0.000   0.000  17.593
 Approx polarizability:  24.607   0.591  27.623  -0.000   0.000  15.499
 No NMR shielding tensors so no spin-rotation constants.
 Leave Link  601 at Sun Mar  6 19:29:33 2022, MaxMem= 16106127360 cpu:               4.3 elap:               0.2
 (Enter /sw/contrib/gaussian/g16/B01/g16/l701.exe)
 ... and contract with generalized density number  2.
 Compute integral second derivatives.
 Leave Link  701 at Sun Mar  6 19:29:33 2022, MaxMem= 16106127360 cpu:               6.3 elap:               0.2
 (Enter /sw/contrib/gaussian/g16/B01/g16/l702.exe)
 L702 exits ... SP integral derivatives will be done elsewhere.
 Leave Link  702 at Sun Mar  6 19:29:33 2022, MaxMem= 16106127360 cpu:               0.9 elap:               0.1
 (Enter /sw/contrib/gaussian/g16/B01/g16/l703.exe)
 Integral derivatives from FoFJK, PRISM(SPDF).
 Compute integral second derivatives, UseDBF=F ICtDFT=           0.
 Calling FoFJK, ICntrl=  10100127 FMM=F ISym2X=1 I1Cent= 0 IOpClX= 0 NMat=1 NMatS=1 NMatT=0.
 FoFJK:  IHMeth= 1 ICntrl=10100127 DoSepK=F KAlg= 0 I1Cent=           0 FoldK=F
 IRaf=         0 NMat=       1 IRICut=       1 DoRegI=T DoRafI=F ISym2E= 1 IDoP0=0 IntGTp=1.
 FoFCou: FMM=F IPFlag=           0 FMFlag=      100000 FMFlg1=         800
         NFxFlg=           0 DoJE=F BraDBF=F KetDBF=F FulRan=T
         wScrn=  0.000000 ICntrl=  10100127 IOpCl=  0 I1Cent=           0 NGrid=           0
         NMat0=    1 NMatS0=      1 NMatT0=    0 NMatD0=    1 NMtDS0=    0 NMtDT0=    0
 Petite list used in FoFCou.
 Leave Link  703 at Sun Mar  6 19:29:49 2022, MaxMem= 16106127360 cpu:             447.0 elap:              16.0
 (Enter /sw/contrib/gaussian/g16/B01/g16/l716.exe)
 Dipole        = 5.53254765D-03-4.25131347D-01-3.50218423D-32
 Polarizability= 3.09026616D+01 4.20617531D+00 2.98275646D+01
                -1.20761788D-30 1.65703102D-30 1.75932907D+01
 Full mass-weighted force constant matrix:
 Low frequencies ---  -67.5162  -24.2765   -0.0014   -0.0012    0.0008   25.7368
 Low frequencies ---  370.6711  397.9109  521.9466
 Diagonal vibrational polarizability:
        7.1293218       9.9875494      14.5097858
 Harmonic frequencies (cm**-1), IR intensities (KM/Mole), Raman scattering
 activities (A**4/AMU), depolarization ratios for plane and unpolarized
 incident light, reduced masses (AMU), force constants (mDyne/A),
 and normal coordinates:
                      1                      2                      3
                     A"                     A'                     A"
 Frequencies --    369.9628               397.9055               521.8354
 Red. masses --      1.5535                 7.1964                 2.9050
 Frc consts  --      0.1253                 0.6713                 0.4661
 IR Inten    --     61.2552                 7.9029                24.9542
  Atom  AN      X      Y      Z        X      Y      Z        X      Y      Z
     1   1    -0.00  -0.00   0.98    -0.72  -0.25  -0.00    -0.00  -0.00   0.93
     2   8    -0.00  -0.00  -0.11    -0.33  -0.32   0.00    -0.00  -0.00   0.06
     3   8    -0.00   0.00   0.12    -0.07   0.08  -0.00    -0.00   0.00  -0.18
     4   7     0.00   0.00  -0.11     0.06   0.10   0.00     0.00   0.00   0.27
     5   8     0.00   0.00   0.03     0.39   0.17   0.00     0.00   0.00  -0.17
                      4                      5                      6
                     A'                     A'                     A'
 Frequencies --    712.7907               839.8859               973.3710
 Red. masses --     13.4106                13.0324                 9.7913
 Frc consts  --      4.0144                 5.4165                 5.4657
 IR Inten    --    215.8622                31.5705                12.7000
  Atom  AN      X      Y      Z        X      Y      Z        X      Y      Z
     1   1    -0.35   0.01   0.00     0.39  -0.14  -0.00    -0.63   0.01  -0.00
     2   8    -0.01  -0.08   0.00     0.55  -0.21   0.00     0.19  -0.17  -0.00
     3   8     0.37   0.58  -0.00    -0.40  -0.02  -0.00    -0.36   0.41   0.00
     4   7    -0.41  -0.46   0.00    -0.44  -0.06   0.00     0.38   0.04  -0.00
     5   8     0.02  -0.10  -0.00     0.21   0.29  -0.00    -0.13  -0.28   0.00
                      7                      8                      9
                     A'                     A'                     A'
 Frequencies --   1450.6830              1575.4620              3478.2423
 Red. masses --      1.3563                 5.1898                 1.0636
 Frc consts  --      1.6817                 7.5896                 7.5813
 IR Inten    --     81.5909               150.4476                45.0738
  Atom  AN      X      Y      Z        X      Y      Z        X      Y      Z
     1   1     0.96  -0.22  -0.00    -0.81   0.20   0.00     0.17   0.98   0.00
     2   8    -0.06  -0.05  -0.00     0.02   0.03   0.00    -0.01  -0.06  -0.00
     3   8    -0.03   0.06   0.00    -0.03  -0.06  -0.00     0.00  -0.00   0.00
     4   7     0.07  -0.07  -0.00     0.21  -0.35   0.00    -0.00   0.00   0.00
     5   8    -0.03   0.06   0.00    -0.13   0.33  -0.00     0.00  -0.00  -0.00

 -------------------
 - Thermochemistry -
 -------------------
 Temperature   298.150 Kelvin.  Pressure   1.00000 Atm.
 Atom     1 has atomic number  1 and mass   1.00783
 Atom     2 has atomic number  8 and mass  15.99491
 Atom     3 has atomic number  8 and mass  15.99491
 Atom     4 has atomic number  7 and mass  14.00307
 Atom     5 has atomic number  8 and mass  15.99491
 Molecular mass:    62.99564 amu.
 Principal axes and moments of inertia in atomic units:
                           1         2         3
     Eigenvalues --    84.35821 222.54453 306.90274
           X            0.79530  -0.60621   0.00000
           Y            0.60621   0.79530   0.00000
           Z            0.00000  -0.00000   1.00000
 This molecule is an asymmetric top.
 Rotational symmetry number  1.
 Rotational temperatures (Kelvin)      1.02674     0.38920     0.28222
 Rotational constants (GHZ):          21.39378     8.10957     5.88050
 Zero-point vibrational energy      61728.1 (Joules/Mol)
                                   14.75338 (Kcal/Mol)
 Warning -- explicit consideration of   3 degrees of freedom as
           vibrations may cause significant error
 Vibrational temperatures:    532.29   572.50   750.80  1025.55  1208.41
          (Kelvin)           1400.46  2087.21  2266.74  5004.41
 
 Zero-point correction=                           0.023511 (Hartree/Particle)
 Thermal correction to Energy=                    0.027429
 Thermal correction to Enthalpy=                  0.028373
 Thermal correction to Gibbs Free Energy=        -0.002445
 Sum of electronic and zero-point Energies=           -280.431638
 Sum of electronic and thermal Energies=              -280.427720
 Sum of electronic and thermal Enthalpies=            -280.426776
 Sum of electronic and thermal Free Energies=         -280.457594
 
                     E (Thermal)             CV                S
                      KCal/Mol        Cal/Mol-Kelvin    Cal/Mol-Kelvin
 Total                   17.212             12.118             64.862
 Electronic               0.000              0.000              0.000
 Translational            0.889              2.981             38.341
 Rotational               0.889              2.981             23.270
 Vibrational             15.434              6.156              3.252
 Vibration     1          0.742              1.534              1.080
 Vibration     2          0.764              1.475              0.970
 Vibration     3          0.877              1.202              0.606
                       Q            Log10(Q)             Ln(Q)
 Total Bot       0.133252D+02          1.124674          2.589657
 Total V=0       0.868913D+12         11.938976         27.490508
 Vib (Bot)       0.249538D-10        -10.602864        -24.413996
 Vib (Bot)    1  0.492113D+00         -0.307935         -0.709047
 Vib (Bot)    2  0.448621D+00         -0.348120         -0.801576
 Vib (Bot)    3  0.308798D+00         -0.510325         -1.175068
 Vib (V=0)       0.162719D+01          0.211438          0.486855
 Vib (V=0)    1  0.120155D+01          0.079742          0.183614
 Vib (V=0)    2  0.117176D+01          0.068839          0.158507
 Vib (V=0)    3  0.108767D+01          0.036497          0.084038
 Electronic      0.100000D+01          0.000000          0.000000
 Translational   0.196526D+08          7.293420         16.793719
 Rotational      0.271718D+05          4.434118         10.209934
 
                                                                title
                                                             IR Spectrum
 
     3                                                                     1    1                                                    
     4                                                                     5    4                9    8   7      5    33             
     7                                                                     7    5                7    4   1      2    97             
     8                                                                     5    1                3    0   3      2    80             
 
     X                                                                     X    X                X    X   X      X    XX             
     X                                                                     X    X                     X   X      X     X             
     X                                                                     X    X                     X   X            X             
     X                                                                     X    X                         X            X             
                                                                           X    X                         X            X             
                                                                           X    X                         X            X             
                                                                           X    X                         X                          
                                                                           X    X                         X                          
                                                                           X                              X                          
                                                                           X                              X                          
                                                                           X                              X                          
                                                                           X                              X                          
                                                                           X                              X                          
                                                                           X                              X                          
                                                                                                          X                          
                                                                                                          X                          
                                                                                                          X                          
                                                                                                          X                          
                                                                                                          X                          
                                                                                                          X                          
 
 ***** Axes restored to original set *****
 -------------------------------------------------------------------
 Center     Atomic                   Forces (Hartrees/Bohr)
 Number     Number              X              Y              Z
 -------------------------------------------------------------------
      1        1          -0.003692285   -0.000000000   -0.001266748
      2        8           0.002361994    0.000000000   -0.001493444
      3        8           0.001523184    0.000000000    0.001827997
      4        7           0.000572352    0.000000000    0.001465558
      5        8          -0.000765246   -0.000000000   -0.000533364
 -------------------------------------------------------------------
 Cartesian Forces:  Max     0.003692285 RMS     0.001461830
 -----------------------------------------------------------------------------------------------
                       Internal Coordinate Forces (Hartree/Bohr or radian)
  Cent   Atom   N1       Length/X         N2         Alpha/Y        N3         Beta/Z          J
 -----------------------------------------------------------------------------------------------
      1  H 
      2  O        1   0.001267(     1)
      3  O        2   0.001750(     2)      1   0.006875(     5)
      4  N        3  -0.000891(     3)      2   0.000093(     6)      1  -0.000000(     8)     0
      5  O        4   0.000867(     4)      3  -0.000778(     7)      2  -0.000000(     9)     0
 -----------------------------------------------------------------------------------------------
 Internal  Forces:  Max     0.006875194 RMS     0.002451629
 Force constants in Cartesian coordinates: 
                1             2             3             4             5 
      1  0.751434D-01
      2  0.000000D+00  0.617713D-02
      3  0.271033D-01  0.000000D+00  0.433915D+00
      4 -0.496070D-01  0.000000D+00 -0.518173D-02  0.278216D+00
      5  0.000000D+00 -0.370216D-02  0.000000D+00  0.000000D+00  0.145380D-01
      6  0.305862D-01  0.000000D+00 -0.418088D+00 -0.136797D-01  0.000000D+00
      7 -0.287442D-01  0.000000D+00 -0.175361D-01 -0.172776D+00  0.000000D+00
      8  0.000000D+00 -0.287965D-02  0.000000D+00  0.000000D+00 -0.203119D-01
      9 -0.442572D-01  0.000000D+00 -0.216698D-01  0.114708D-01  0.000000D+00
     10 -0.785854D-02  0.000000D+00  0.749938D-02 -0.825520D-01  0.000000D+00
     11  0.000000D+00  0.821576D-02  0.000000D+00  0.000000D+00  0.201638D-01
     12 -0.196359D-01  0.000000D+00  0.138534D-01  0.121636D-01  0.000000D+00
     13  0.110664D-01  0.000000D+00 -0.118849D-01  0.267194D-01  0.000000D+00
     14  0.000000D+00 -0.781109D-02  0.000000D+00  0.000000D+00 -0.106877D-01
     15  0.620363D-02  0.000000D+00 -0.801097D-02 -0.477294D-02  0.000000D+00
                6             7             8             9            10 
      6  0.520274D+00
      7 -0.903522D-01  0.310355D+00
      8  0.000000D+00  0.000000D+00  0.414371D-01
      9 -0.928475D-01  0.841662D-01  0.000000D+00  0.314152D+00
     10  0.412959D-01 -0.143944D+00  0.000000D+00 -0.325708D-01  0.568891D+00
     11  0.000000D+00  0.000000D+00 -0.486853D-01  0.000000D+00  0.000000D+00
     12 -0.127150D-01  0.197664D-01  0.000000D+00 -0.254614D-01  0.240955D+00
     13  0.321499D-01  0.351087D-01  0.000000D+00 -0.188090D-01 -0.334537D+00
     14  0.000000D+00  0.000000D+00  0.304398D-01  0.000000D+00  0.000000D+00
     15  0.337652D-02  0.395564D-02  0.000000D+00 -0.174173D+00 -0.257179D+00
               11            12            13            14            15 
     11  0.578583D-01
     12  0.000000D+00  0.436354D+00
     13  0.000000D+00 -0.253249D+00  0.261642D+00
     14 -0.375526D-01  0.000000D+00  0.000000D+00  0.256116D-01
     15  0.000000D+00 -0.412031D+00  0.251793D+00  0.000000D+00  0.590839D+00
 Force constants in internal coordinates: 
                1             2             3             4             5 
      1  0.433915D+00
      2  0.241466D-01  0.262861D+00
      3  0.728104D-02  0.163794D-01  0.207232D+00
      4 -0.132341D-01  0.228924D-01  0.149362D+00  0.722443D+00
      5  0.467763D-01  0.639240D-01 -0.243439D-01  0.209945D-01  0.262910D+00
      6  0.139761D-01  0.242309D-01  0.913524D-01  0.109374D-01 -0.282821D-02
      7  0.124251D-01 -0.754825D-01  0.120850D+00  0.118882D+00 -0.244527D-01
      8  0.000000D+00  0.000000D+00  0.000000D+00  0.000000D+00  0.000000D+00
      9  0.000000D+00  0.000000D+00  0.000000D+00  0.000000D+00  0.000000D+00
                6             7             8             9 
      6  0.530651D+00
      7  0.629840D-01  0.664861D+00
      8  0.000000D+00  0.000000D+00  0.221115D-01
      9  0.000000D+00  0.000000D+00  0.295470D-01  0.110311D+00
 Leave Link  716 at Sun Mar  6 19:29:49 2022, MaxMem= 16106127360 cpu:               1.2 elap:               0.1
 (Enter /sw/contrib/gaussian/g16/B01/g16/l103.exe)

 GradGradGradGradGradGradGradGradGradGradGradGradGradGradGradGradGradGrad
 Berny optimization.
 Search for a local minimum.
 Step number   1 out of a maximum of    2
 All quantities printed in internal units (Hartrees-Bohrs-Radians)
 Second derivative matrix not updated -- analytic derivatives used.
 The second derivative matrix:
                          r1        r2        r3        r4        a1
           r1           0.43391
           r2           0.02415   0.26286
           r3           0.00728   0.01638   0.20723
           r4          -0.01323   0.02289   0.14936   0.72244
           a1           0.04678   0.06392  -0.02434   0.02099   0.26291
           a2           0.01398   0.02423   0.09135   0.01094  -0.00283
           a3           0.01243  -0.07548   0.12085   0.11888  -0.02445
           d1           0.00000   0.00000   0.00000  -0.00000  -0.00000
           d2           0.00000  -0.00000  -0.00000  -0.00000  -0.00000
                          a2        a3        d1        d2
           a2           0.53065
           a3           0.06298   0.66486
           d1           0.00000  -0.00000   0.02211
           d2          -0.00000   0.00000   0.02955   0.11031
 ITU=  0
     Eigenvalues ---    0.01313   0.11929   0.12492   0.20443   0.28494
     Eigenvalues ---    0.44874   0.52528   0.60947   0.88709
 Angle between quadratic step and forces=  18.24 degrees.
 Linear search not attempted -- first point.
 Variable       Old X    -DE/DX   Delta X   Delta X   Delta X     New X
                                 (Linear)    (Quad)   (Total)
    r1        1.86209   0.00127   0.00000   0.00017   0.00017   1.86226
    r2        2.69614   0.00175   0.00000   0.00038   0.00038   2.69652
    r3        2.60992  -0.00089   0.00000  -0.00225  -0.00225   2.60766
    r4        2.25782   0.00087   0.00000   0.00090   0.00090   2.25872
    a1        1.72943   0.00688   0.00000   0.02576   0.02576   1.75519
    a2        1.97463   0.00009   0.00000   0.00066   0.00066   1.97529
    a3        1.99550  -0.00078   0.00000   0.00000   0.00000   1.99551
    d1        0.00000  -0.00000   0.00000   0.00000   0.00000   0.00000
    d2        0.00000  -0.00000   0.00000   0.00000   0.00000   0.00000
         Item               Value     Threshold  Converged?
 Maximum Force            0.006875     0.000450     NO 
 RMS     Force            0.002452     0.000300     NO 
 Maximum Displacement     0.025756     0.001800     NO 
 RMS     Displacement     0.008627     0.001200     NO 
 Predicted change in Energy=-9.039735D-05
                       ----------------------------
                       ! Non-Optimized Parameters !
                       ! (Angstroms and Degrees)  !
 ----------------------                            ----------------------
 !      Name          Value   Derivative information (Atomic Units)     !
 ------------------------------------------------------------------------
 !       r1          0.9855   -DE/DX =    0.0013                        !
 !       r2          1.4269   -DE/DX =    0.0017                        !
 !       r3          1.3799   -DE/DX =   -0.0009                        !
 !       r4          1.1953   -DE/DX =    0.0009                        !
 !       a1        100.5649   -DE/DX =    0.0069                        !
 !       a2        113.1756   -DE/DX =    0.0001                        !
 !       a3        114.3341   -DE/DX =   -0.0008                        !
 !       d1          0.0      -DE/DX =    0.0                           !
 !       d2          0.0      -DE/DX =    0.0                           !
 ------------------------------------------------------------------------
 GradGradGradGradGradGradGradGradGradGradGradGradGradGradGradGradGradGrad

 Leave Link  103 at Sun Mar  6 19:29:49 2022, MaxMem= 16106127360 cpu:               0.6 elap:               0.0
 (Enter /sw/contrib/gaussian/g16/B01/g16/l9999.exe)

 ----------------------------------------------------------------------

 Electric dipole moment (input orientation):
 (Debye = 10**-18 statcoulomb cm , SI units = C m)
                  (au)            (Debye)         (10**-30 SI)
   Tot        0.425167D+00      0.108067D+01      0.360472D+01
   x         -0.105349D+00     -0.267769D+00     -0.893183D+00
   y          0.000000D+00      0.000000D+00      0.000000D+00
   z         -0.411909D+00     -0.104697D+01     -0.349231D+01

 Dipole polarizability, Alpha (input orientation).
 (esu units = cm**3 , SI units = C**2 m**2 J**-1)
 Alpha(0;0):
               (au)            (10**-24 esu)      (10**-40 SI)
   iso        0.261078D+02      0.386878D+01      0.430460D+01
   aniso      0.147330D+02      0.218321D+01      0.242915D+01
   xx         0.289205D+02      0.428557D+01      0.476834D+01
   yx         0.000000D+00      0.000000D+00      0.000000D+00
   yy         0.175933D+02      0.260706D+01      0.290074D+01
   zx        -0.398672D+01     -0.590771D+00     -0.657321D+00
   zy         0.000000D+00      0.000000D+00      0.000000D+00
   zz         0.318097D+02      0.471372D+01      0.524472D+01

 ----------------------------------------------------------------------

 Dipole orientation:
     1          0.00000000          0.00000000         -0.00000000
     8         -0.46139205          0.00000000         -1.80402437
     8          2.01234120          0.00000000         -2.87632236
     7          3.90780135         -0.00000000         -1.08219635
     8          3.16926744         -0.00000000          1.05142315

 Electric dipole moment (dipole orientation):
 (Debye = 10**-18 statcoulomb cm , SI units = C m)
                  (au)            (Debye)         (10**-30 SI)
   Tot        0.425167D+00      0.108067D+01      0.360472D+01
   x          0.000000D+00      0.000000D+00      0.000000D+00
   y          0.000000D+00      0.000000D+00      0.000000D+00
   z          0.425167D+00      0.108067D+01      0.360472D+01

 Dipole polarizability, Alpha (dipole orientation).
 (esu units = cm**3 , SI units = C**2 m**2 J**-1)
 Alpha(0;0):
               (au)            (10**-24 esu)      (10**-40 SI)
   iso        0.261078D+02      0.386878D+01      0.430460D+01
   aniso      0.147330D+02      0.218321D+01      0.242915D+01
   xx         0.310119D+02      0.459549D+01      0.511318D+01
   yx         0.000000D+00      0.000000D+00      0.000000D+00
   yy         0.175933D+02      0.260706D+01      0.290074D+01
   zx         0.419076D+01      0.621007D+00      0.690963D+00
   zy         0.000000D+00      0.000000D+00      0.000000D+00
   zz         0.297183D+02      0.440380D+01      0.489988D+01

 ----------------------------------------------------------------------
 1\1\GINC-N2228\Freq\RMP2-FC\Aug-CC-pVTZ\H1N1O3\CGAVINH\06-Mar-2022\1\\
 #p freq mp2/aug-cc-pvtz density=current\\title\\0,1\H\O,1,r1\O,2,r2,1,
 a1\N,3,r3,2,a2,1,d1,0\O,4,r4,3,a3,2,d2,0\\r1=0.98537664\r2=1.42673666\
 r3=1.38110764\r4=1.19478846\a1=99.08918232\a2=113.13777052\a3=114.3339
 2022\d1=0.\d2=0.\\Version=ES64L-G16RevB.01\State=1-A'\HF=-279.5060011\
 MP2=-280.4551488\RMSD=4.481e-09\RMSF=1.462e-03\ZeroPoint=0.023511\Ther
 mal=0.0274289\Dipole=-0.1053486,0.,-0.4119089\DipoleDeriv=0.3200079,0.
 ,0.0317564,0.,0.2944449,0.,-0.0376957,0.,0.203828,-0.5259453,0.,0.2961
 242,0.,-0.2507967,0.,-0.0844983,0.,-0.1348,0.0280681,0.,0.3057219,0.,-
 0.0115484,0.,0.4112338,0.,-0.9408236,0.1779461,0.,-0.0953988,0.,0.0125
 337,0.,-0.6200665,0.,1.7391917,-0.0000768,0.,-0.5382038,0.,-0.0446336,
 0.,0.3310267,0.,-0.8673961\Polar=28.9204882,0.,17.5932907,-3.986719,0.
 ,31.809738\Quadrupole=0.172288,0.6271468,-0.7994348,0.,1.3430046,0.\PG
 =CS [SG(H1N1O3)]\NImag=0\\0.07514337,0.,0.00617713,0.02710328,0.,0.433
 91496,-0.04960696,0.,-0.00518173,0.27821574,0.,-0.00370216,0.,0.,0.014
 53797,0.03058617,0.,-0.41808762,-0.01367972,0.,0.52027358,-0.02874424,
 0.,-0.01753605,-0.17277614,0.,-0.09035222,0.31035529,0.,-0.00287965,0.
 ,0.,-0.02031192,0.,0.,0.04143709,-0.04425716,0.,-0.02166978,0.01147077
 ,0.,-0.09284750,0.08416624,0.,0.31415203,-0.00785854,0.,0.00749938,-0.
 08255200,0.,0.04129587,-0.14394357,0.,-0.03257082,0.56889097,0.,0.0082
 1576,0.,0.,0.02016384,0.,0.,-0.04868532,0.,0.,0.05785829,-0.01963592,0
 .,0.01385341,0.01216362,0.,-0.01271498,0.01976640,0.,-0.02546145,0.240
 95482,0.,0.43635397,0.01106637,0.,-0.01188487,0.02671936,0.,0.03214990
 ,0.03510865,0.,-0.01880903,-0.33453686,0.,-0.25324892,0.26164248,0.,-0
 .00781109,0.,0.,-0.01068774,0.,0.,0.03043980,0.,0.,-0.03755257,0.,0.,0
 .02561159,0.00620363,0.,-0.00801097,-0.00477294,0.,0.00337652,0.003955
 64,0.,-0.17417331,-0.25717925,0.,-0.41203096,0.25179293,0.,0.59083872\
 \0.00369228,0.,0.00126675,-0.00236199,0.,0.00149344,-0.00152318,0.,-0.
 00182800,-0.00057235,0.,-0.00146556,0.00076525,0.,0.00053336\\\@


 "I COULD HAVE DONE IT IN A MUCH MORE COMPLICATED WAY"
 SAID THE RED QUEEN, IMMENSELY PROUD.

                                      -- LEWIS CARROLL
 Job cpu time:       0 days  2 hours  0 minutes  3.6 seconds.
 Elapsed time:       0 days  0 hours  4 minutes 20.3 seconds.
 File lengths (MBytes):  RWF=   7239 Int=      0 D2E=      0 Chk=      8 Scr=      1
 Normal termination of Gaussian 16 at Sun Mar  6 19:29:50 2022.
