 Entering Gaussian System, Link 0=g16
 Input=hoono_r4_1p182173.gjf
 Output=hoono_r4_1p182173.log
 Initial command:
 /sw/contrib/gaussian/g16/B01/g16/l1.exe "/scr/Gau-26123.inp" -scrdir="/scr/"
 Entering Link 1 = /sw/contrib/gaussian/g16/B01/g16/l1.exe PID=     26124.
  
 Copyright (c) 1988-2017, Gaussian, Inc.  All Rights Reserved.
  
 This is part of the Gaussian(R) 16 program.  It is based on
 the Gaussian(R) 09 system (copyright 2009, Gaussian, Inc.),
 the Gaussian(R) 03 system (copyright 2003, Gaussian, Inc.),
 the Gaussian(R) 98 system (copyright 1998, Gaussian, Inc.),
 the Gaussian(R) 94 system (copyright 1995, Gaussian, Inc.),
 the Gaussian 92(TM) system (copyright 1992, Gaussian, Inc.),
 the Gaussian 90(TM) system (copyright 1990, Gaussian, Inc.),
 the Gaussian 88(TM) system (copyright 1988, Gaussian, Inc.),
 the Gaussian 86(TM) system (copyright 1986, Carnegie Mellon
 University), and the Gaussian 82(TM) system (copyright 1983,
 Carnegie Mellon University). Gaussian is a federally registered
 trademark of Gaussian, Inc.
  
 This software contains proprietary and confidential information,
 including trade secrets, belonging to Gaussian, Inc.
  
 This software is provided under written license and may be
 used, copied, transmitted, or stored only in accord with that
 written license.
  
 The following legend is applicable only to US Government
 contracts under FAR:
  
                    RESTRICTED RIGHTS LEGEND
  
 Use, reproduction and disclosure by the US Government is
 subject to restrictions as set forth in subparagraphs (a)
 and (c) of the Commercial Computer Software - Restricted
 Rights clause in FAR 52.227-19.
  
 Gaussian, Inc.
 340 Quinnipiac St., Bldg. 40, Wallingford CT 06492
  
  
 ---------------------------------------------------------------
 Warning -- This program may not be used in any manner that
 competes with the business of Gaussian, Inc. or will provide
 assistance to any competitor of Gaussian, Inc.  The licensee
 of this program is prohibited from giving any competitor of
 Gaussian, Inc. access to this program.  By using this program,
 the user acknowledges that Gaussian, Inc. is engaged in the
 business of creating and licensing software in the field of
 computational chemistry and represents and warrants to the
 licensee that it is not a competitor of Gaussian, Inc. and that
 it will not use this program in any manner prohibited above.
 ---------------------------------------------------------------
  

 Cite this work as:
 Gaussian 16, Revision B.01,
 M. J. Frisch, G. W. Trucks, H. B. Schlegel, G. E. Scuseria, 
 M. A. Robb, J. R. Cheeseman, G. Scalmani, V. Barone, 
 G. A. Petersson, H. Nakatsuji, X. Li, M. Caricato, A. V. Marenich, 
 J. Bloino, B. G. Janesko, R. Gomperts, B. Mennucci, H. P. Hratchian, 
 J. V. Ortiz, A. F. Izmaylov, J. L. Sonnenberg, D. Williams-Young, 
 F. Ding, F. Lipparini, F. Egidi, J. Goings, B. Peng, A. Petrone, 
 T. Henderson, D. Ranasinghe, V. G. Zakrzewski, J. Gao, N. Rega, 
 G. Zheng, W. Liang, M. Hada, M. Ehara, K. Toyota, R. Fukuda, 
 J. Hasegawa, M. Ishida, T. Nakajima, Y. Honda, O. Kitao, H. Nakai, 
 T. Vreven, K. Throssell, J. A. Montgomery, Jr., J. E. Peralta, 
 F. Ogliaro, M. J. Bearpark, J. J. Heyd, E. N. Brothers, K. N. Kudin, 
 V. N. Staroverov, T. A. Keith, R. Kobayashi, J. Normand, 
 K. Raghavachari, A. P. Rendell, J. C. Burant, S. S. Iyengar, 
 J. Tomasi, M. Cossi, J. M. Millam, M. Klene, C. Adamo, R. Cammi, 
 J. W. Ochterski, R. L. Martin, K. Morokuma, O. Farkas, 
 J. B. Foresman, and D. J. Fox, Gaussian, Inc., Wallingford CT, 2016.
 
 ******************************************
 Gaussian 16:  ES64L-G16RevB.01 20-Dec-2017
                 6-Mar-2022 
 ******************************************
 %nproc=28
 Will use up to   28 processors via shared memory.
 %mem=120GB
 %chk=hoono_r4_1p182173.chk
 ---------------------------------------
 #p freq mp2/aug-cc-pvtz density=current
 ---------------------------------------
 1/10=4,30=1,38=1/1,3;
 2/12=2,17=6,18=5,40=1/2;
 3/5=16,6=1,7=10,11=9,25=1,30=1,71=2,140=1/1,2,3;
 4//1;
 5/5=2,38=5,98=1/2;
 8/6=3,8=1,10=1,19=11,30=-1/1;
 9/15=3,16=-3/6;
 11/6=1,8=1,15=11,17=12,24=-1,27=1,28=-2,29=300,32=6,42=3/1,2,10;
 10/6=2,21=1/2;
 8/6=4,8=1,10=1,19=11,30=-1/11,4;
 10/5=1,20=4/2;
 11/12=2,14=11,16=1,17=2,28=-2,42=3,76=2/2,10,12;
 6/7=2,8=2,9=2,10=2,22=-1/1;
 7/8=1,10=1,12=2,25=1,44=2/1,2,3,16;
 1/10=4,30=1/3;
 99//99;
 Leave Link    1 at Sun Mar  6 19:17:47 2022, MaxMem= 16106127360 cpu:               2.2 elap:               0.1
 (Enter /sw/contrib/gaussian/g16/B01/g16/l101.exe)
 -----
 title
 -----
 Symbolic Z-matrix:
 Charge =  0 Multiplicity = 1
 H
 O                    1    r1
 O                    2    r2       1    a1
 N                    3    r3       2    a2       1    d1       0
 O                    4    r4       3    a3       2    d2       0
       Variables:
  r1                    0.98538                  
  r2                    1.42674                  
  r3                    1.38111                  
  r4                    1.18217                  
  a1                  100.63551                  
  a2                  113.13777                  
  a3                  114.33392                  
  d1                    0.                       
  d2                    0.                       
 
 ITRead=  0  0  0  0  0
 MicOpt= -1 -1 -1 -1 -1
 NAtoms=      5 NQM=        5 NQMF=       0 NMMI=      0 NMMIF=      0
                NMic=       0 NMicF=      0.
                    Isotopes and Nuclear Properties:
 (Nuclear quadrupole moments (NQMom) in fm**2, nuclear magnetic moments (NMagM)
  in nuclear magnetons)

  Atom         1           2           3           4           5
 IAtWgt=           1          16          16          14          16
 AtmWgt=   1.0078250  15.9949146  15.9949146  14.0030740  15.9949146
 NucSpn=           1           0           0           2           0
 AtZEff=  -0.0000000  -0.0000000  -0.0000000  -0.0000000  -0.0000000
 NQMom=    0.0000000   0.0000000   0.0000000   2.0440000   0.0000000
 NMagM=    2.7928460   0.0000000   0.0000000   0.4037610   0.0000000
 AtZNuc=   1.0000000   8.0000000   8.0000000   7.0000000   8.0000000
 Leave Link  101 at Sun Mar  6 19:17:48 2022, MaxMem= 16106127360 cpu:               4.4 elap:               0.2
 (Enter /sw/contrib/gaussian/g16/B01/g16/l103.exe)

 GradGradGradGradGradGradGradGradGradGradGradGradGradGradGradGradGradGrad
 Berny optimization.
 Initialization pass.
                       ----------------------------
                       !    Initial Parameters    !
                       ! (Angstroms and Degrees)  !
 ----------------------                            ----------------------
 !      Name          Value   Derivative information (Atomic Units)     !
 ------------------------------------------------------------------------
 !       r1          0.9854   calculate D2E/DX2 analytically            !
 !       r2          1.4267   calculate D2E/DX2 analytically            !
 !       r3          1.3811   calculate D2E/DX2 analytically            !
 !       r4          1.1822   calculate D2E/DX2 analytically            !
 !       a1        100.6355   calculate D2E/DX2 analytically            !
 !       a2        113.1378   calculate D2E/DX2 analytically            !
 !       a3        114.3339   calculate D2E/DX2 analytically            !
 !       d1          0.0      calculate D2E/DX2 analytically            !
 !       d2          0.0      calculate D2E/DX2 analytically            !
 ------------------------------------------------------------------------
 Trust Radius=3.00D-01 FncErr=1.00D-07 GrdErr=1.00D-07 EigMax=2.50D+02 EigMin=1.00D-04
 Number of steps in this run=      2 maximum allowed number of steps=      2.
 GradGradGradGradGradGradGradGradGradGradGradGradGradGradGradGradGradGrad

 Leave Link  103 at Sun Mar  6 19:17:48 2022, MaxMem= 16106127360 cpu:               0.5 elap:               0.0
 (Enter /sw/contrib/gaussian/g16/B01/g16/l202.exe)
                          Input orientation:                          
 ---------------------------------------------------------------------
 Center     Atomic      Atomic             Coordinates (Angstroms)
 Number     Number       Type             X           Y           Z
 ---------------------------------------------------------------------
      1          1           0        0.000000    0.000000    0.000000
      2          8           0        0.000000    0.000000    0.985377
      3          8           0        1.402227    0.000000    1.248696
      4          7           0        2.169996    0.000000    0.100659
      5          8           0        1.545416    0.000000   -0.903051
 ---------------------------------------------------------------------
                    Distance matrix (angstroms):
                    1          2          3          4          5
     1  H    0.000000
     2  O    0.985377   0.000000
     3  O    1.877627   1.426737   0.000000
     4  N    2.172329   2.343418   1.381108   0.000000
     5  O    1.789920   2.440179   2.156506   1.182173   0.000000
 Stoichiometry    HNO3
 Framework group  CS[SG(HNO3)]
 Deg. of freedom     7
 Full point group                 CS      NOp   2
 Largest Abelian subgroup         CS      NOp   2
 Largest concise Abelian subgroup C1      NOp   1
                         Standard orientation:                         
 ---------------------------------------------------------------------
 Center     Atomic      Atomic             Coordinates (Angstroms)
 Number     Number       Type             X           Y           Z
 ---------------------------------------------------------------------
      1          1           0        1.110961   -0.599665    0.000000
      2          8           0        1.316473    0.364042    0.000000
      3          8           0        0.000000    0.914021    0.000000
      4          7           0       -0.990321   -0.048643    0.000000
      5          8           0       -0.588812   -1.160544    0.000000
 ---------------------------------------------------------------------
 Rotational constants (GHZ):          21.5590686           8.1253705           5.9012541
 Leave Link  202 at Sun Mar  6 19:17:48 2022, MaxMem= 16106127360 cpu:               2.1 elap:               0.1
 (Enter /sw/contrib/gaussian/g16/B01/g16/l301.exe)
 Standard basis: Aug-CC-pVTZ (5D, 7F)
 Ernie: Thresh=  0.10000D-02 Tol=  0.10000D-05 Strict=F.
 Ernie:  12 primitive shells out of 131 were deleted.
 There are   166 symmetry adapted cartesian basis functions of A'  symmetry.
 There are    79 symmetry adapted cartesian basis functions of A"  symmetry.
 There are   136 symmetry adapted basis functions of A'  symmetry.
 There are    71 symmetry adapted basis functions of A"  symmetry.
   207 basis functions,   315 primitive gaussians,   245 cartesian basis functions
    16 alpha electrons       16 beta electrons
       nuclear repulsion energy       123.1122031193 Hartrees.
 IExCor=    0 DFT=F Ex=HF Corr=None ExCW=0 ScaHFX=  1.000000
 ScaDFX=  1.000000  1.000000  1.000000  1.000000 ScalE2=  1.000000  1.000000
 IRadAn=      5 IRanWt=     -1 IRanGd=            0 ICorTp=0 IEmpDi=  4
 NAtoms=    5 NActive=    5 NUniq=    5 SFac= 1.00D+00 NAtFMM=   60 NAOKFM=F Big=F
 Integral buffers will be    131072 words long.
 Raffenetti 1 integral format.
 Two-electron integral symmetry is turned on.
 Leave Link  301 at Sun Mar  6 19:17:48 2022, MaxMem= 16106127360 cpu:               2.1 elap:               0.1
 (Enter /sw/contrib/gaussian/g16/B01/g16/l302.exe)
 NPDir=0 NMtPBC=     1 NCelOv=     1 NCel=       1 NClECP=     1 NCelD=      1
         NCelK=      1 NCelE2=     1 NClLst=     1 CellRange=     0.0.
 One-electron integrals computed using PRISM.
 One-electron integral symmetry used in STVInt
 NBasis=   207 RedAO= T EigKep=  1.29D-04  NBF=   136    71
 NBsUse=   207 1.00D-06 EigRej= -1.00D+00 NBFU=   136    71
 Leave Link  302 at Sun Mar  6 19:17:48 2022, MaxMem= 16106127360 cpu:               4.6 elap:               0.2
 (Enter /sw/contrib/gaussian/g16/B01/g16/l303.exe)
 DipDrv:  MaxL=1.
 Leave Link  303 at Sun Mar  6 19:17:48 2022, MaxMem= 16106127360 cpu:               0.8 elap:               0.1
 (Enter /sw/contrib/gaussian/g16/B01/g16/l401.exe)
 ExpMin= 2.53D-02 ExpMax= 1.53D+04 ExpMxC= 5.22D+02 IAcc=3 IRadAn=         5 AccDes= 0.00D+00
 Harris functional with IExCor=  205 and IRadAn=       5 diagonalized for initial guess.
 HarFok:  IExCor=  205 AccDes= 0.00D+00 IRadAn=         5 IDoV= 1 UseB2=F ITyADJ=14
 ICtDFT=  3500011 ScaDFX=  1.000000  1.000000  1.000000  1.000000
 FoFCou: FMM=F IPFlag=           0 FMFlag=      100000 FMFlg1=           0
         NFxFlg=           0 DoJE=T BraDBF=F KetDBF=T FulRan=T
         wScrn=  0.000000 ICntrl=       500 IOpCl=  0 I1Cent=   200000004 NGrid=           0
         NMat0=    1 NMatS0=      1 NMatT0=    0 NMatD0=    1 NMtDS0=    0 NMtDT0=    0
 Petite list used in FoFCou.
 Harris En= -279.644693395789    
 JPrj=0 DoOrth=F DoCkMO=F.
 Initial guess orbital symmetries:
       Occupied  (A') (A') (A') (A') (A') (A') (A') (A') (A') (A')
                 (A") (A') (A") (A') (A") (A')
       Virtual   (A") (A') (A') (A') (A') (A") (A') (A') (A') (A')
                 (A") (A') (A") (A') (A') (A") (A') (A') (A") (A')
                 (A') (A') (A') (A') (A") (A') (A') (A") (A') (A')
                 (A') (A") (A") (A') (A') (A") (A') (A") (A') (A")
                 (A') (A") (A') (A") (A') (A') (A') (A") (A') (A')
                 (A') (A") (A') (A") (A') (A") (A') (A') (A') (A")
                 (A') (A') (A") (A') (A') (A') (A") (A") (A') (A')
                 (A") (A') (A") (A") (A') (A') (A") (A') (A') (A')
                 (A") (A') (A') (A") (A') (A") (A') (A") (A') (A')
                 (A') (A") (A') (A") (A') (A') (A") (A') (A") (A')
                 (A") (A') (A') (A") (A") (A') (A') (A') (A") (A')
                 (A") (A') (A') (A') (A") (A') (A') (A') (A") (A')
                 (A") (A') (A') (A") (A") (A") (A") (A') (A') (A')
                 (A') (A') (A') (A") (A') (A") (A") (A') (A') (A')
                 (A") (A") (A') (A') (A') (A") (A') (A') (A') (A")
                 (A') (A') (A') (A") (A') (A") (A") (A') (A') (A")
                 (A') (A") (A") (A') (A") (A') (A') (A") (A") (A')
                 (A") (A") (A") (A') (A') (A") (A') (A') (A") (A')
                 (A') (A') (A') (A') (A') (A') (A') (A') (A') (A')
                 (A')
 The electronic state of the initial guess is 1-A'.
 Leave Link  401 at Sun Mar  6 19:17:48 2022, MaxMem= 16106127360 cpu:               7.2 elap:               0.3
 (Enter /sw/contrib/gaussian/g16/B01/g16/l502.exe)
 Keep R1 ints in memory in symmetry-blocked form, NReq=348887737.
 FoFCou: FMM=F IPFlag=           0 FMFlag=           0 FMFlg1=           0
         NFxFlg=           0 DoJE=F BraDBF=F KetDBF=F FulRan=T
         wScrn=  0.000000 ICntrl=       600 IOpCl=  0 I1Cent=           0 NGrid=           0
         NMat0=    1 NMatS0=  21528 NMatT0=    0 NMatD0=    1 NMtDS0=    0 NMtDT0=    0
 Petite list used in FoFCou.
 Closed shell SCF:
 Using DIIS extrapolation, IDIIS=  1040.
 NGot= 16106127360 LenX= 15988850015 LenY= 15988789549
 Requested convergence on RMS density matrix=1.00D-08 within 128 cycles.
 Requested convergence on MAX density matrix=1.00D-06.
 Requested convergence on             energy=1.00D-06.
 No special actions if energy rises.

 Cycle   1  Pass 1  IDiag  1:
 E= -279.368416111515    
 DIIS: error= 2.72D-02 at cycle   1 NSaved=   1.
 NSaved= 1 IEnMin= 1 EnMin= -279.368416111515     IErMin= 1 ErrMin= 2.72D-02
 ErrMax= 2.72D-02  0.00D+00 EMaxC= 1.00D-01 BMatC= 4.48D-01 BMatP= 4.48D-01
 IDIUse=3 WtCom= 7.28D-01 WtEn= 2.72D-01
 Coeff-Com:  0.100D+01
 Coeff-En:   0.100D+01
 Coeff:      0.100D+01
 Gap=     0.503 Goal=   None    Shift=    0.000
 GapD=    0.503 DampG=2.000 DampE=0.500 DampFc=1.0000 IDamp=-1.
 RMSDP=1.66D-03 MaxDP=8.74D-02              OVMax= 1.18D-01

 Cycle   2  Pass 1  IDiag  1:
 E= -279.451821164436     Delta-E=       -0.083405052921 Rises=F Damp=F
 DIIS: error= 1.85D-02 at cycle   2 NSaved=   2.
 NSaved= 2 IEnMin= 2 EnMin= -279.451821164436     IErMin= 2 ErrMin= 1.85D-02
 ErrMax= 1.85D-02  0.00D+00 EMaxC= 1.00D-01 BMatC= 8.10D-02 BMatP= 4.48D-01
 IDIUse=3 WtCom= 8.15D-01 WtEn= 1.85D-01
 Coeff-Com:  0.210D+00 0.790D+00
 Coeff-En:   0.416D-01 0.958D+00
 Coeff:      0.179D+00 0.821D+00
 Gap=     0.560 Goal=   None    Shift=    0.000
 RMSDP=9.50D-04 MaxDP=3.71D-02 DE=-8.34D-02 OVMax= 8.68D-02

 Cycle   3  Pass 1  IDiag  1:
 E= -279.486541238922     Delta-E=       -0.034720074486 Rises=F Damp=F
 DIIS: error= 1.09D-02 at cycle   3 NSaved=   3.
 NSaved= 3 IEnMin= 3 EnMin= -279.486541238922     IErMin= 3 ErrMin= 1.09D-02
 ErrMax= 1.09D-02  0.00D+00 EMaxC= 1.00D-01 BMatC= 3.03D-02 BMatP= 8.10D-02
 IDIUse=3 WtCom= 8.91D-01 WtEn= 1.09D-01
 Coeff-Com: -0.345D-01 0.370D+00 0.665D+00
 Coeff-En:   0.000D+00 0.225D+00 0.775D+00
 Coeff:     -0.307D-01 0.354D+00 0.677D+00
 Gap=     0.541 Goal=   None    Shift=    0.000
 RMSDP=4.04D-04 MaxDP=1.53D-02 DE=-3.47D-02 OVMax= 3.72D-02

 Cycle   4  Pass 1  IDiag  1:
 E= -279.507147992998     Delta-E=       -0.020606754076 Rises=F Damp=F
 DIIS: error= 1.63D-03 at cycle   4 NSaved=   4.
 NSaved= 4 IEnMin= 4 EnMin= -279.507147992998     IErMin= 4 ErrMin= 1.63D-03
 ErrMax= 1.63D-03  0.00D+00 EMaxC= 1.00D-01 BMatC= 5.72D-04 BMatP= 3.03D-02
 IDIUse=3 WtCom= 9.84D-01 WtEn= 1.63D-02
 Coeff-Com: -0.117D-01 0.482D-01 0.152D+00 0.812D+00
 Coeff-En:   0.000D+00 0.000D+00 0.000D+00 0.100D+01
 Coeff:     -0.116D-01 0.474D-01 0.150D+00 0.815D+00
 Gap=     0.527 Goal=   None    Shift=    0.000
 RMSDP=9.71D-05 MaxDP=2.31D-03 DE=-2.06D-02 OVMax= 1.15D-02

 Cycle   5  Pass 1  IDiag  1:
 E= -279.507923923742     Delta-E=       -0.000775930745 Rises=F Damp=F
 DIIS: error= 1.07D-03 at cycle   5 NSaved=   5.
 NSaved= 5 IEnMin= 5 EnMin= -279.507923923742     IErMin= 5 ErrMin= 1.07D-03
 ErrMax= 1.07D-03  0.00D+00 EMaxC= 1.00D-01 BMatC= 9.86D-05 BMatP= 5.72D-04
 IDIUse=3 WtCom= 9.89D-01 WtEn= 1.07D-02
 Coeff-Com:  0.526D-02-0.663D-01-0.109D+00 0.608D-01 0.111D+01
 Coeff-En:   0.000D+00 0.000D+00 0.000D+00 0.000D+00 0.100D+01
 Coeff:      0.520D-02-0.655D-01-0.108D+00 0.601D-01 0.111D+01
 Gap=     0.531 Goal=   None    Shift=    0.000
 RMSDP=7.81D-05 MaxDP=2.08D-03 DE=-7.76D-04 OVMax= 1.26D-02

 Cycle   6  Pass 1  IDiag  1:
 E= -279.508270661956     Delta-E=       -0.000346738214 Rises=F Damp=F
 DIIS: error= 3.31D-04 at cycle   6 NSaved=   6.
 NSaved= 6 IEnMin= 6 EnMin= -279.508270661956     IErMin= 6 ErrMin= 3.31D-04
 ErrMax= 3.31D-04  0.00D+00 EMaxC= 1.00D-01 BMatC= 2.31D-05 BMatP= 9.86D-05
 IDIUse=3 WtCom= 9.97D-01 WtEn= 3.31D-03
 Coeff-Com:  0.187D-02-0.749D-02-0.181D-01-0.183D+00 0.178D-01 0.119D+01
 Coeff-En:   0.000D+00 0.000D+00 0.000D+00 0.000D+00 0.000D+00 0.100D+01
 Coeff:      0.186D-02-0.747D-02-0.180D-01-0.182D+00 0.177D-01 0.119D+01
 Gap=     0.531 Goal=   None    Shift=    0.000
 RMSDP=4.57D-05 MaxDP=1.05D-03 DE=-3.47D-04 OVMax= 5.93D-03

 Cycle   7  Pass 1  IDiag  1:
 E= -279.508352664418     Delta-E=       -0.000082002461 Rises=F Damp=F
 DIIS: error= 1.29D-04 at cycle   7 NSaved=   7.
 NSaved= 7 IEnMin= 7 EnMin= -279.508352664418     IErMin= 7 ErrMin= 1.29D-04
 ErrMax= 1.29D-04  0.00D+00 EMaxC= 1.00D-01 BMatC= 3.40D-06 BMatP= 2.31D-05
 IDIUse=3 WtCom= 9.99D-01 WtEn= 1.29D-03
 Coeff-Com: -0.108D-02 0.116D-01 0.249D-01 0.189D-01-0.184D+00-0.162D+00
 Coeff-Com:  0.129D+01
 Coeff-En:   0.000D+00 0.000D+00 0.000D+00 0.000D+00 0.000D+00 0.000D+00
 Coeff-En:   0.100D+01
 Coeff:     -0.108D-02 0.116D-01 0.249D-01 0.189D-01-0.184D+00-0.162D+00
 Coeff:      0.129D+01
 Gap=     0.532 Goal=   None    Shift=    0.000
 RMSDP=1.73D-05 MaxDP=4.94D-04 DE=-8.20D-05 OVMax= 2.26D-03

 Cycle   8  Pass 1  IDiag  1:
 E= -279.508364041765     Delta-E=       -0.000011377348 Rises=F Damp=F
 DIIS: error= 4.38D-05 at cycle   8 NSaved=   8.
 NSaved= 8 IEnMin= 8 EnMin= -279.508364041765     IErMin= 8 ErrMin= 4.38D-05
 ErrMax= 4.38D-05  0.00D+00 EMaxC= 1.00D-01 BMatC= 5.27D-07 BMatP= 3.40D-06
 IDIUse=1 WtCom= 1.00D+00 WtEn= 0.00D+00
 Coeff-Com: -0.537D-03 0.406D-02 0.938D-02 0.246D-01-0.568D-01-0.185D+00
 Coeff-Com:  0.345D+00 0.859D+00
 Coeff:     -0.537D-03 0.406D-02 0.938D-02 0.246D-01-0.568D-01-0.185D+00
 Coeff:      0.345D+00 0.859D+00
 Gap=     0.532 Goal=   None    Shift=    0.000
 RMSDP=5.05D-06 MaxDP=1.41D-04 DE=-1.14D-05 OVMax= 5.91D-04

 Cycle   9  Pass 1  IDiag  1:
 E= -279.508365237786     Delta-E=       -0.000001196021 Rises=F Damp=F
 DIIS: error= 2.31D-05 at cycle   9 NSaved=   9.
 NSaved= 9 IEnMin= 9 EnMin= -279.508365237786     IErMin= 9 ErrMin= 2.31D-05
 ErrMax= 2.31D-05  0.00D+00 EMaxC= 1.00D-01 BMatC= 1.05D-07 BMatP= 5.27D-07
 IDIUse=1 WtCom= 1.00D+00 WtEn= 0.00D+00
 Coeff-Com:  0.228D-03-0.250D-02-0.513D-02-0.540D-02 0.454D-01 0.472D-01
 Coeff-Com: -0.331D+00 0.495D-01 0.120D+01
 Coeff:      0.228D-03-0.250D-02-0.513D-02-0.540D-02 0.454D-01 0.472D-01
 Coeff:     -0.331D+00 0.495D-01 0.120D+01
 Gap=     0.532 Goal=   None    Shift=    0.000
 RMSDP=2.26D-06 MaxDP=6.05D-05 DE=-1.20D-06 OVMax= 2.35D-04

 Cycle  10  Pass 1  IDiag  1:
 E= -279.508365461474     Delta-E=       -0.000000223688 Rises=F Damp=F
 DIIS: error= 5.22D-06 at cycle  10 NSaved=  10.
 NSaved=10 IEnMin=10 EnMin= -279.508365461474     IErMin=10 ErrMin= 5.22D-06
 ErrMax= 5.22D-06  0.00D+00 EMaxC= 1.00D-01 BMatC= 6.75D-09 BMatP= 1.05D-07
 IDIUse=1 WtCom= 1.00D+00 WtEn= 0.00D+00
 Coeff-Com: -0.331D-04 0.454D-03 0.109D-02-0.167D-02-0.101D-01 0.497D-02
 Coeff-Com:  0.676D-01-0.562D-01-0.415D+00 0.141D+01
 Coeff:     -0.331D-04 0.454D-03 0.109D-02-0.167D-02-0.101D-01 0.497D-02
 Coeff:      0.676D-01-0.562D-01-0.415D+00 0.141D+01
 Gap=     0.532 Goal=   None    Shift=    0.000
 RMSDP=6.30D-07 MaxDP=2.37D-05 DE=-2.24D-07 OVMax= 6.55D-05

 Cycle  11  Pass 1  IDiag  1:
 E= -279.508365481356     Delta-E=       -0.000000019882 Rises=F Damp=F
 DIIS: error= 2.10D-06 at cycle  11 NSaved=  11.
 NSaved=11 IEnMin=11 EnMin= -279.508365481356     IErMin=11 ErrMin= 2.10D-06
 ErrMax= 2.10D-06  0.00D+00 EMaxC= 1.00D-01 BMatC= 6.57D-10 BMatP= 6.75D-09
 IDIUse=1 WtCom= 1.00D+00 WtEn= 0.00D+00
 Coeff-Com: -0.140D-04 0.138D-03 0.267D-03 0.911D-03-0.153D-02-0.707D-02
 Coeff-Com:  0.146D-01 0.216D-01-0.250D-01-0.396D+00 0.139D+01
 Coeff:     -0.140D-04 0.138D-03 0.267D-03 0.911D-03-0.153D-02-0.707D-02
 Coeff:      0.146D-01 0.216D-01-0.250D-01-0.396D+00 0.139D+01
 Gap=     0.532 Goal=   None    Shift=    0.000
 RMSDP=2.18D-07 MaxDP=7.87D-06 DE=-1.99D-08 OVMax= 2.49D-05

 Cycle  12  Pass 1  IDiag  1:
 E= -279.508365483721     Delta-E=       -0.000000002364 Rises=F Damp=F
 DIIS: error= 5.27D-07 at cycle  12 NSaved=  12.
 NSaved=12 IEnMin=12 EnMin= -279.508365483721     IErMin=12 ErrMin= 5.27D-07
 ErrMax= 5.27D-07  0.00D+00 EMaxC= 1.00D-01 BMatC= 6.21D-11 BMatP= 6.57D-10
 IDIUse=1 WtCom= 1.00D+00 WtEn= 0.00D+00
 Coeff-Com:  0.352D-05-0.515D-04-0.105D-03 0.516D-05 0.110D-02 0.854D-04
 Coeff-Com: -0.767D-02 0.389D-02 0.360D-01-0.574D-01-0.296D+00 0.132D+01
 Coeff:      0.352D-05-0.515D-04-0.105D-03 0.516D-05 0.110D-02 0.854D-04
 Coeff:     -0.767D-02 0.389D-02 0.360D-01-0.574D-01-0.296D+00 0.132D+01
 Gap=     0.532 Goal=   None    Shift=    0.000
 RMSDP=7.35D-08 MaxDP=2.29D-06 DE=-2.36D-09 OVMax= 8.10D-06

 Cycle  13  Pass 1  IDiag  1:
 E= -279.508365483937     Delta-E=       -0.000000000217 Rises=F Damp=F
 DIIS: error= 1.22D-07 at cycle  13 NSaved=  13.
 NSaved=13 IEnMin=13 EnMin= -279.508365483937     IErMin=13 ErrMin= 1.22D-07
 ErrMax= 1.22D-07  0.00D+00 EMaxC= 1.00D-01 BMatC= 4.07D-12 BMatP= 6.21D-11
 IDIUse=1 WtCom= 1.00D+00 WtEn= 0.00D+00
 Coeff-Com:  0.525D-06-0.319D-05-0.497D-07-0.882D-04-0.111D-03 0.715D-03
 Coeff-Com:  0.182D-03-0.244D-02-0.618D-02 0.518D-01-0.782D-01-0.243D+00
 Coeff-Com:  0.128D+01
 Coeff:      0.525D-06-0.319D-05-0.497D-07-0.882D-04-0.111D-03 0.715D-03
 Coeff:      0.182D-03-0.244D-02-0.618D-02 0.518D-01-0.782D-01-0.243D+00
 Coeff:      0.128D+01
 Gap=     0.532 Goal=   None    Shift=    0.000
 RMSDP=1.76D-08 MaxDP=4.89D-07 DE=-2.17D-10 OVMax= 1.61D-06

 Cycle  14  Pass 1  IDiag  1:
 E= -279.508365483951     Delta-E=       -0.000000000014 Rises=F Damp=F
 DIIS: error= 2.95D-08 at cycle  14 NSaved=  14.
 NSaved=14 IEnMin=14 EnMin= -279.508365483951     IErMin=14 ErrMin= 2.95D-08
 ErrMax= 2.95D-08  0.00D+00 EMaxC= 1.00D-01 BMatC= 2.73D-13 BMatP= 4.07D-12
 IDIUse=1 WtCom= 1.00D+00 WtEn= 0.00D+00
 Coeff-Com: -0.315D-06 0.411D-05 0.699D-05 0.994D-05-0.745D-04-0.552D-04
 Coeff-Com:  0.480D-03 0.546D-04-0.201D-02-0.802D-04 0.215D-01-0.467D-01
 Coeff-Com: -0.129D+00 0.116D+01
 Coeff:     -0.315D-06 0.411D-05 0.699D-05 0.994D-05-0.745D-04-0.552D-04
 Coeff:      0.480D-03 0.546D-04-0.201D-02-0.802D-04 0.215D-01-0.467D-01
 Coeff:     -0.129D+00 0.116D+01
 Gap=     0.532 Goal=   None    Shift=    0.000
 RMSDP=3.29D-09 MaxDP=8.84D-08 DE=-1.36D-11 OVMax= 3.61D-07

 SCF Done:  E(RHF) =  -279.508365484     A.U. after   14 cycles
            NFock= 14  Conv=0.33D-08     -V/T= 2.0020
 KE= 2.789427337039D+02 PE=-9.071352877253D+02 EE= 2.255719854181D+02
 Leave Link  502 at Sun Mar  6 19:17:52 2022, MaxMem= 16106127360 cpu:              57.9 elap:               3.7
 (Enter /sw/contrib/gaussian/g16/B01/g16/l801.exe)
 ExpMin= 2.53D-02 ExpMax= 1.53D+04 ExpMxC= 5.22D+02 IAcc=3 IRadAn=         5 AccDes= 0.00D+00
 HarFok:  IExCor=  205 AccDes= 0.00D+00 IRadAn=         5 IDoV=-2 UseB2=F ITyADJ=14
 ICtDFT= 12500011 ScaDFX=  1.000000  1.000000  1.000000  1.000000
 Largest valence mixing into a core orbital is  2.06D-04
 Largest core mixing into a valence orbital is  3.07D-05
 Range of M.O.s used for correlation:     5   207
 NBasis=   207 NAE=    16 NBE=    16 NFC=     4 NFV=     0
 NROrb=    203 NOA=    12 NOB=    12 NVA=   191 NVB=   191

 **** Warning!!: The largest alpha MO coefficient is  0.15784472D+02

 Leave Link  801 at Sun Mar  6 19:17:52 2022, MaxMem= 16106127360 cpu:               2.5 elap:               0.1
 (Enter /sw/contrib/gaussian/g16/B01/g16/l906.exe)
 Frozen-core derivative calculation, NFC=   4 NFV=   0.
 FulOut=F Deriv=T AODrv=T NAtomX=     5
   MMem=           0  MDisk=          12 MDiskD=          12
  W3Min=      811440 MinDsk=     2425030 NBas6D=         245
 NBas2D=       30762    NTT=       30135    LW2=     7400000
    MDV= 16105571518 MDiskM=      328644 NBas2p=       30759
 Disk-based method using ON**2 memory for 12 occupieds at a time.
 Permanent disk used for amplitudes=    11516536 words.
 Estimated scratch disk usage=   321863743 words.
 IMap=   1   2   3   4   5   6   7   8   9  10  11  12  13  14  15  16
 Actual    scratch disk usage=   310892607 words.
 JobTyp=1 Pass  1:  I=   5 to  16 NPSUse= 28 ParTrn=T ParDer=T DoDerP=T.
 (rs|ai) integrals will be sorted in core.
 Spin components of T(2) and E(2):
     alpha-alpha T2 =       0.3452707813D-01 E2=     -0.1242597250D+00
     alpha-beta  T2 =       0.1830980017D+00 E2=     -0.6981366260D+00
     beta-beta   T2 =       0.3452707813D-01 E2=     -0.1242597250D+00
 The integrals were generated   1 times.
 ANorm=    0.1118996049D+01
 E2 =    -0.9466560759D+00 EUMP2 =    -0.28045502155986D+03
 Leave Link  906 at Sun Mar  6 19:19:29 2022, MaxMem= 16106127360 cpu:            2717.2 elap:              97.2
 (Enter /sw/contrib/gaussian/g16/B01/g16/l1101.exe)
 Using compressed Sx but separate Hx and Fx, NAtomX=     5.
 Will process      6 centers per pass.
 Leave Link 1101 at Sun Mar  6 19:19:30 2022, MaxMem= 16106127360 cpu:               6.4 elap:               0.3
 (Enter /sw/contrib/gaussian/g16/B01/g16/l1102.exe)
 Leave Link 1102 at Sun Mar  6 19:19:30 2022, MaxMem= 16106127360 cpu:               0.5 elap:               0.0
 (Enter /sw/contrib/gaussian/g16/B01/g16/l1110.exe)
 Forming Gx(P) for the SCF density, NAtomX=     5.
 Integral derivatives from FoFJK, PRISM(SPDF).
 Do as many integral derivatives as possible in FoFJK.
 G2DrvN: MDV=   16106126844.
 G2DrvN: will do     6 centers at a time, making    1 passes.
 Calling FoFCou, ICntrl=  3107 FMM=F I1Cent=   0 AccDes= 0.00D+00.
 FoFJK:  IHMeth= 1 ICntrl=    3107 DoSepK=F KAlg= 0 I1Cent=           0 FoldK=F
 IRaf=         0 NMat=       1 IRICut=       1 DoRegI=T DoRafI=F ISym2E= 1 IDoP0=0 IntGTp=1.
 FoFCou: FMM=F IPFlag=           0 FMFlag=      100000 FMFlg1=           0
         NFxFlg=           0 DoJE=F BraDBF=F KetDBF=F FulRan=T
         wScrn=  0.000000 ICntrl=      3107 IOpCl=  0 I1Cent=           0 NGrid=           0
         NMat0=    1 NMatS0=      1 NMatT0=    0 NMatD0=    1 NMtDS0=    0 NMtDT0=    0
 Petite list used in FoFCou.
 End of G2Drv F.D. properties file   721 does not exist.
 End of G2Drv F.D. properties file   722 does not exist.
 End of G2Drv F.D. properties file   788 does not exist.
 Leave Link 1110 at Sun Mar  6 19:19:33 2022, MaxMem= 16106127360 cpu:              87.0 elap:               3.1
 (Enter /sw/contrib/gaussian/g16/B01/g16/l1002.exe)
 Minotr:  Closed shell wavefunction.
          IDoAtm=11111
          Frozen-core window.
          Direct CPHF calculation.
          Differentiating once with respect to electric field.
                with respect to dipole field.
          Differentiating once with respect to nuclear coordinates.
          Requested convergence is 1.0D-08 RMS, and 1.0D-07 maximum.
          Secondary convergence is 1.0D-12 RMS, and 1.0D-12 maximum.
          NewPWx=T KeepS1=T KeepF1=T KeepIn=T MapXYZ=F SortEE=F KeepMc=T.
 Keep R1 ints in memory in symmetry-blocked form, NReq=348888983.
 FoFCou: FMM=F IPFlag=           0 FMFlag=           0 FMFlg1=           0
         NFxFlg=           0 DoJE=F BraDBF=F KetDBF=F FulRan=T
         wScrn=  0.000000 ICntrl=       600 IOpCl=  0 I1Cent=           0 NGrid=           0
         NMat0=    1 NMatS0=  21528 NMatT0=    0 NMatD0=    1 NMtDS0=    0 NMtDT0=    0
 Petite list used in FoFCou.
          MDV=   16106127360 using IRadAn=       1.
          Solving linear equations simultaneously, MaxMat=       0.
          There are    18 degrees of freedom in the 1st order CPHF.  IDoFFX=6 NUNeed=    18.
     15 vectors produced by pass  0 Test12= 1.70D-14 5.56D-09 XBig12= 7.76D+00 1.19D+00.
 AX will form    15 AO Fock derivatives at one time.
     15 vectors produced by pass  1 Test12= 1.70D-14 5.56D-09 XBig12= 1.31D+00 2.19D-01.
     15 vectors produced by pass  2 Test12= 1.70D-14 5.56D-09 XBig12= 6.54D-02 5.65D-02.
     15 vectors produced by pass  3 Test12= 1.70D-14 5.56D-09 XBig12= 1.93D-03 1.10D-02.
     15 vectors produced by pass  4 Test12= 1.70D-14 5.56D-09 XBig12= 4.25D-05 1.20D-03.
     15 vectors produced by pass  5 Test12= 1.70D-14 5.56D-09 XBig12= 5.84D-07 1.24D-04.
     15 vectors produced by pass  6 Test12= 1.70D-14 5.56D-09 XBig12= 4.52D-09 1.34D-05.
     14 vectors produced by pass  7 Test12= 1.70D-14 5.56D-09 XBig12= 3.40D-11 7.92D-07.
      3 vectors produced by pass  8 Test12= 1.70D-14 5.56D-09 XBig12= 2.36D-13 6.07D-08.
      1 vectors produced by pass  9 Test12= 1.70D-14 5.56D-09 XBig12= 1.57D-15 7.43D-09.
 InvSVY:  IOpt=1 It=  1 EMax= 9.99D-16
 Solved reduced A of dimension   123 with    15 vectors.
 FullF1:  Do perturbations      1 to      18.
 Saving first derivative matrices.
 End of Minotr F.D. properties file   721 does not exist.
 End of Minotr F.D. properties file   722 does not exist.
 End of Minotr F.D. properties file   788 does not exist.
 Leave Link 1002 at Sun Mar  6 19:19:36 2022, MaxMem= 16106127360 cpu:              76.8 elap:               2.9
 (Enter /sw/contrib/gaussian/g16/B01/g16/l811.exe)
 MDV= 16106127360.
 Form MO integral derivatives with frozen-active canonical formalism.
 MOERI=1 MOERIx=1 NAtoms=     5 NAtomX=     5.
 Discarding MO integrals.
 MO basis two electron integral derivatives will not be stored on disk.
 IAlg= 3 DoFC=T DoPWx=T Debug=F.
 Frozen-core window:  NFC=   4 NFV=   0.
 Reordered first order wavefunction length =     18678272
 In DefCFB: NBatch=  1 ICI= 16 ICA=191 LFMax= 96
            Large arrays: LIAPS=   619940160 LIARS=   288257200 words.
 In StABat: MaxSiz= 55 MinSiz= 25 NAtomB=  5
 DoIAMN: NPSUse= 28.
 Leave Link  811 at Sun Mar  6 19:20:57 2022, MaxMem= 16106127360 cpu:            2260.0 elap:              80.9
 (Enter /sw/contrib/gaussian/g16/B01/g16/l804.exe)
 Frozen-core window:  NFC=   4 NFV=   0.
 Closed-shell transformation, MDV= 16106127360 ITran=4 ISComp=1.
 Semi-Direct transformation.
 ModeAB=           2 MOrb=            16 LenV=   16104919883
 LASXX=     67341636 LTotXX=    67341636 LenRXX=    67341636
 LTotAB=    68301760 MaxLAS=    99807120 LenRXY=    99807120
 NonZer=   134683272 LenScr=   202817536 LnRSAI=           0
 LnScr1=           0 LExtra=           0 Total=    369966292
 MaxDsk=          -1 SrtSym=           F ITran=            4
 DoSDTr:  NPSUse= 28
 JobTyp=0 Pass  1:  I=   1 to  16.
 (rs|ai) integrals will be sorted in core.
 Complete sort for first half transformation.
 First half transformation complete.
 Begin second half transformation for I=  10.
 Begin second half transformation for I=  10.
 Complete sort for second half transformation.
 Second half transformation complete.
 Spin components of T(2) and E(2):
     alpha-alpha T2 =       0.3452707813D-01 E2=     -0.1242597250D+00
     alpha-beta  T2 =       0.1830980017D+00 E2=     -0.6981366260D+00
     beta-beta   T2 =       0.3452707813D-01 E2=     -0.1242597250D+00
 ANorm=    0.1582499389D+01
 E2 =    -0.9466560759D+00 EUMP2 =    -0.28045502155986D+03
 Leave Link  804 at Sun Mar  6 19:21:12 2022, MaxMem= 16106127360 cpu:             435.9 elap:              15.6
 (Enter /sw/contrib/gaussian/g16/B01/g16/l1002.exe)
 Minotr:  Closed shell wavefunction.
          Computing MP2/KS-MP2 derivatives.
          Using Z-Vector for PSCF gradient.
          Skipping F1 and S1 gradient terms here.
          IDoAtm=11111
          Frozen-core window.
          Using MO integrals in the linear equations.
          Forming densities via direct SCF.
          Differentiating once with respect to electric field.
                with respect to dipole field.
          Differentiating once with respect to nuclear coordinates.
          Using symmetry in CPHF.
          Requested convergence is 1.0D-10 RMS, and 1.0D-09 maximum.
          NewPWx=F KeepS1=T KeepF1=T KeepIn=T MapXYZ=F SortEE=F KeepMc=T.
          MDV=   16106127360 using IRadAn=       5.
          Solving linear equations separately, MaxMat=       0.
          There are     1 degrees of freedom in the 1st order CPHF.  IDoFFX=0 NUNeed=     1.
 FoFJK:  IHMeth= 1 ICntrl=       0 DoSepK=F KAlg= 0 I1Cent=           0 FoldK=F
 IRaf=         0 NMat=       1 IRICut=       1 DoRegI=T DoRafI=F ISym2E= 0 IDoP0=0 IntGTp=1.
 FoFCou: FMM=F IPFlag=           0 FMFlag=      100000 FMFlg1=           0
         NFxFlg=           0 DoJE=F BraDBF=F KetDBF=F FulRan=T
         wScrn=  0.000000 ICntrl=         0 IOpCl=  0 I1Cent=           0 NGrid=           0
         NMat0=    1 NMatS0=      1 NMatT0=    0 NMatD0=    1 NMtDS0=    0 NMtDT0=    0
 Symmetry not used in FoFCou.
 LinEq1:  Iter=  0 NonCon=     1 RMS=6.52D-03 Max=1.72D-01 NDo=     1
 LinEq1:  Iter=  1 NonCon=     1 RMS=1.95D-03 Max=2.95D-02 NDo=     1
 LinEq1:  Iter=  2 NonCon=     1 RMS=8.60D-04 Max=1.37D-02 NDo=     1
 LinEq1:  Iter=  3 NonCon=     1 RMS=3.62D-04 Max=7.45D-03 NDo=     1
 LinEq1:  Iter=  4 NonCon=     1 RMS=1.31D-04 Max=1.61D-03 NDo=     1
 LinEq1:  Iter=  5 NonCon=     1 RMS=7.16D-05 Max=1.34D-03 NDo=     1
 LinEq1:  Iter=  6 NonCon=     1 RMS=2.34D-05 Max=3.47D-04 NDo=     1
 LinEq1:  Iter=  7 NonCon=     1 RMS=7.58D-06 Max=9.90D-05 NDo=     1
 LinEq1:  Iter=  8 NonCon=     1 RMS=3.72D-06 Max=5.56D-05 NDo=     1
 LinEq1:  Iter=  9 NonCon=     1 RMS=9.76D-07 Max=1.06D-05 NDo=     1
 LinEq1:  Iter= 10 NonCon=     1 RMS=2.17D-07 Max=2.69D-06 NDo=     1
 LinEq1:  Iter= 11 NonCon=     1 RMS=4.66D-08 Max=7.61D-07 NDo=     1
 LinEq1:  Iter= 12 NonCon=     1 RMS=1.10D-08 Max=1.64D-07 NDo=     1
 LinEq1:  Iter= 13 NonCon=     1 RMS=1.92D-09 Max=2.18D-08 NDo=     1
 LinEq1:  Iter= 14 NonCon=     1 RMS=4.03D-10 Max=5.31D-09 NDo=     1
 LinEq1:  Iter= 15 NonCon=     0 RMS=8.22D-11 Max=8.24D-10 NDo=     1
 Linear equations converged to 1.000D-10 1.000D-09 after    15 iterations.
 End of Minotr F.D. properties file   721 does not exist.
 End of Minotr F.D. properties file   722 does not exist.
 End of Minotr F.D. properties file   788 does not exist.
 Leave Link 1002 at Sun Mar  6 19:21:15 2022, MaxMem= 16106127360 cpu:              64.6 elap:               2.4
 (Enter /sw/contrib/gaussian/g16/B01/g16/l1102.exe)
 Use density number 2.
 Symmetrizing basis deriv contribution to polar:
 IMax=3 JMax=2 DiffMx= 0.00D+00
 Leave Link 1102 at Sun Mar  6 19:21:15 2022, MaxMem= 16106127360 cpu:               0.8 elap:               0.1
 (Enter /sw/contrib/gaussian/g16/B01/g16/l1110.exe)
 Forming Gx(P) for generalized density number  2 NAtomX=     5.
 Integral derivatives from FoFJK, PRISM(SPDF).
 Do as many integral derivatives as possible in FoFJK.
 G2DrvN: MDV=   16106126844.
 G2DrvN: will do     6 centers at a time, making    1 passes.
 Calling FoFCou, ICntrl=  3107 FMM=F I1Cent=   0 AccDes= 0.00D+00.
 FoFJK:  IHMeth= 1 ICntrl=    3107 DoSepK=F KAlg= 0 I1Cent=           0 FoldK=F
 IRaf=         0 NMat=       1 IRICut=       1 DoRegI=T DoRafI=F ISym2E= 1 IDoP0=0 IntGTp=1.
 FoFCou: FMM=F IPFlag=           0 FMFlag=      100000 FMFlg1=           0
         NFxFlg=           0 DoJE=F BraDBF=F KetDBF=F FulRan=T
         wScrn=  0.000000 ICntrl=      3107 IOpCl=  0 I1Cent=           0 NGrid=           0
         NMat0=    1 NMatS0=      1 NMatT0=    0 NMatD0=    1 NMtDS0=    0 NMtDT0=    0
 Petite list used in FoFCou.
 End of G2Drv F.D. properties file   721 does not exist.
 End of G2Drv F.D. properties file   722 does not exist.
 End of G2Drv F.D. properties file   788 does not exist.
 Leave Link 1110 at Sun Mar  6 19:21:18 2022, MaxMem= 16106127360 cpu:              87.2 elap:               3.2
 (Enter /sw/contrib/gaussian/g16/B01/g16/l1112.exe)
 MP22nd: MDV=   16106127360
 This link is doing NAtomX=     5 total of    18 degrees of freedom.
 Using ON3 I/O method in MakUI.
 Frozen-core window:  NFC=   4 NFV=   0.
 Using Ix for Sx.
 Use MO integrals over full window.
 Using OV2 memory method for fx*t*t/D, MaxI=    16 DoOO2=F NP=  28.
 R2 and R3 integrals will be kept in memory, NReq=   915591705.
 FoFCou: FMM=F IPFlag=           0 FMFlag=           0 FMFlg1=           0
         NFxFlg=           0 DoJE=F BraDBF=F KetDBF=F FulRan=T
         wScrn=  0.000000 ICntrl=       600 IOpCl=  0 I1Cent=           0 NGrid=           0
         NMat0=    1 NMatS0=      1 NMatT0=    0 NMatD0=    1 NMtDS0=    0 NMtDT0=    0
 Symmetry not used in FoFCou.
 DD1Dir will call FoFMem   1 times, MxPair=       272
 NAB=   136 NAA=     0 NBB=     0.
 Symmetry is being used.
 FoFJK:  IHMeth= 1 ICntrl=       0 DoSepK=F KAlg= 0 I1Cent=           0 FoldK=F
 IRaf=         0 NMat=      18 IRICut=      45 DoRegI=T DoRafI=T ISym2E= 2 IDoP0=3 IntGTp=3.
 Discarding MO integrals.
 Leave Link 1112 at Sun Mar  6 19:21:52 2022, MaxMem= 16106127360 cpu:             929.9 elap:              33.6
 (Enter /sw/contrib/gaussian/g16/B01/g16/l601.exe)
 Copying SCF densities to generalized density rwf, IOpCl= 0 IROHF=0.

 **********************************************************************

            Population analysis using the MP2 Density.

 **********************************************************************

 Orbital symmetries:
       Occupied  (A') (A') (A') (A') (A') (A') (A') (A') (A') (A')
                 (A") (A') (A") (A') (A') (A")
       Virtual   (A') (A") (A') (A') (A") (A') (A') (A') (A") (A')
                 (A") (A') (A') (A') (A") (A') (A') (A") (A') (A')
                 (A') (A') (A') (A') (A") (A') (A') (A") (A') (A')
                 (A') (A") (A") (A') (A') (A') (A") (A') (A") (A')
                 (A") (A") (A') (A') (A") (A') (A') (A") (A') (A')
                 (A') (A") (A') (A') (A") (A') (A") (A') (A") (A')
                 (A') (A') (A") (A') (A') (A') (A") (A") (A') (A')
                 (A") (A') (A") (A") (A') (A') (A") (A') (A') (A')
                 (A") (A') (A') (A") (A') (A") (A") (A') (A') (A')
                 (A') (A') (A") (A") (A') (A') (A") (A") (A') (A")
                 (A') (A') (A") (A') (A") (A') (A') (A') (A") (A')
                 (A") (A') (A') (A') (A") (A') (A') (A') (A") (A')
                 (A") (A") (A') (A') (A") (A") (A') (A") (A') (A')
                 (A') (A') (A") (A') (A') (A") (A") (A') (A') (A")
                 (A') (A") (A') (A') (A') (A") (A') (A') (A') (A")
                 (A') (A') (A') (A") (A") (A') (A") (A') (A') (A")
                 (A') (A") (A') (A") (A") (A') (A") (A') (A") (A')
                 (A") (A") (A") (A') (A') (A") (A') (A') (A") (A')
                 (A') (A') (A') (A') (A') (A') (A') (A') (A') (A')
                 (A')
 The electronic state is 1-A'.
 Alpha  occ. eigenvalues --  -20.71689 -20.68788 -20.66716 -15.82396  -1.65167
 Alpha  occ. eigenvalues --   -1.50792  -1.29251  -0.95847  -0.83743  -0.76170
 Alpha  occ. eigenvalues --   -0.74206  -0.63749  -0.62123  -0.61887  -0.50237
 Alpha  occ. eigenvalues --   -0.49667
 Alpha virt. eigenvalues --    0.03499   0.06418   0.09515   0.10050   0.11943
 Alpha virt. eigenvalues --    0.12272   0.14932   0.15207   0.17792   0.18024
 Alpha virt. eigenvalues --    0.18981   0.21101   0.21677   0.24376   0.24659
 Alpha virt. eigenvalues --    0.26935   0.31281   0.31662   0.33802   0.34478
 Alpha virt. eigenvalues --    0.34812   0.39314   0.44875   0.48933   0.50518
 Alpha virt. eigenvalues --    0.51922   0.54552   0.56055   0.60258   0.62245
 Alpha virt. eigenvalues --    0.64155   0.68759   0.71679   0.72469   0.74565
 Alpha virt. eigenvalues --    0.76316   0.76715   0.79611   0.80746   0.84132
 Alpha virt. eigenvalues --    0.84390   0.85198   0.88674   0.90856   0.93189
 Alpha virt. eigenvalues --    0.95065   0.95401   1.01883   1.03183   1.06264
 Alpha virt. eigenvalues --    1.06673   1.09561   1.14409   1.15672   1.17143
 Alpha virt. eigenvalues --    1.22400   1.22781   1.24688   1.35232   1.36081
 Alpha virt. eigenvalues --    1.37365   1.46887   1.48599   1.50510   1.54139
 Alpha virt. eigenvalues --    1.59664   1.59863   1.60739   1.63024   1.69840
 Alpha virt. eigenvalues --    1.74107   1.80317   1.82981   1.89214   1.89740
 Alpha virt. eigenvalues --    1.92689   1.98039   1.99034   2.04906   2.12687
 Alpha virt. eigenvalues --    2.13103   2.16637   2.18669   2.24403   2.25909
 Alpha virt. eigenvalues --    2.29516   2.35291   2.36778   2.38800   2.40643
 Alpha virt. eigenvalues --    2.43572   2.46824   2.48018   2.52878   2.53995
 Alpha virt. eigenvalues --    2.55303   2.56267   2.62051   2.63038   2.67672
 Alpha virt. eigenvalues --    2.68019   2.75930   2.81246   2.82111   2.84183
 Alpha virt. eigenvalues --    2.91990   2.98952   3.05282   3.05308   3.11684
 Alpha virt. eigenvalues --    3.11709   3.17637   3.21400   3.31131   3.33223
 Alpha virt. eigenvalues --    3.36301   3.47956   3.68838   3.87046   3.93029
 Alpha virt. eigenvalues --    4.18522   4.22497   4.22966   4.29017   4.37083
 Alpha virt. eigenvalues --    4.50410   4.52916   4.56939   4.60034   4.69779
 Alpha virt. eigenvalues --    4.81563   4.90078   4.91382   4.94651   4.99639
 Alpha virt. eigenvalues --    5.00462   5.11015   5.14132   5.18048   5.26039
 Alpha virt. eigenvalues --    5.26295   5.32157   5.35009   5.35666   5.53865
 Alpha virt. eigenvalues --    5.66411   5.71390   5.88642   6.00890   6.26666
 Alpha virt. eigenvalues --    6.29836   6.36366   6.37929   6.59989   6.66115
 Alpha virt. eigenvalues --    6.66145   6.69262   6.73166   6.79332   6.80538
 Alpha virt. eigenvalues --    6.86071   6.97208   7.02110   7.06778   7.08288
 Alpha virt. eigenvalues --    7.14510   7.18036   7.18430   7.20629   7.24991
 Alpha virt. eigenvalues --    7.25238   7.29310   7.35499   7.40345   7.43290
 Alpha virt. eigenvalues --    7.44666   7.47803   7.58124   7.66529   7.67332
 Alpha virt. eigenvalues --    7.80072   7.88780   7.95905   8.08087   8.30791
 Alpha virt. eigenvalues --    8.50165   8.65791  13.64345  14.83565  15.16253
 Alpha virt. eigenvalues --   16.08491
          Condensed to atoms (all electrons):
               1          2          3          4          5
     1  H    0.580182   0.124096   0.023917   0.000412  -0.005447
     2  O    0.124096   8.391383  -0.231427  -0.001299  -0.007666
     3  O    0.023917  -0.231427   8.381292  -0.170568  -0.038246
     4  N    0.000412  -0.001299  -0.170568   7.140696  -0.122755
     5  O   -0.005447  -0.007666  -0.038246  -0.122755   8.364411
 Mulliken charges:
               1
     1  H    0.276839
     2  O   -0.275087
     3  O    0.035031
     4  N    0.153514
     5  O   -0.190297
 Sum of Mulliken charges =   0.00000
 Mulliken charges with hydrogens summed into heavy atoms:
               1
     2  O    0.001752
     3  O    0.035031
     4  N    0.153514
     5  O   -0.190297
 APT charges:
               1
     1  H    0.271086
     2  O   -0.303809
     3  O   -0.314110
     4  N    0.656772
     5  O   -0.309939
 Sum of APT charges =   0.00000
 APT charges with hydrogens summed into heavy atoms:
               1
     2  O   -0.032723
     3  O   -0.314110
     4  N    0.656772
     5  O   -0.309939
 Electronic spatial extent (au):  <R**2>=            206.5110
 Charge=              0.0000 electrons
 Dipole moment (field-independent basis, Debye):
    X=              0.0219    Y=             -1.1511    Z=              0.0000  Tot=              1.1513
 Quadrupole moment (field-independent basis, Debye-Ang):
   XX=            -23.3557   YY=            -22.9244   ZZ=            -21.9083
   XY=             -1.9450   XZ=              0.0000   YZ=              0.0000
 Traceless Quadrupole moment (field-independent basis, Debye-Ang):
   XX=             -0.6262   YY=             -0.1949   ZZ=              0.8212
   XY=             -1.9450   XZ=              0.0000   YZ=              0.0000
 Octapole moment (field-independent basis, Debye-Ang**2):
  XXX=              2.4461  YYY=              0.1487  ZZZ=              0.0000  XYY=              2.3257
  XXY=             -2.8767  XXZ=              0.0000  XZZ=             -0.6268  YZZ=             -0.7469
  YYZ=              0.0000  XYZ=              0.0000
 Hexadecapole moment (field-independent basis, Debye-Ang**3):
 XXXX=           -127.0723 YYYY=            -93.9703 ZZZZ=            -18.0079 XXXY=            -21.4815
 XXXZ=              0.0000 YYYX=            -19.7390 YYYZ=              0.0000 ZZZX=              0.0000
 ZZZY=              0.0000 XXYY=            -35.4365 XXZZ=            -24.3321 YYZZ=            -18.4326
 XXYZ=              0.0000 YYXZ=              0.0000 ZZXY=             -5.8912
 N-N= 1.231122031193D+02 E-N=-9.078104949959D+02  KE= 2.802531872681D+02
 Symmetry A'   KE= 2.663939185089D+02
 Symmetry A"   KE= 1.385926875926D+01
  Exact polarizability:  30.825   4.060  29.590   0.000   0.000  17.585
 Approx polarizability:  24.484   0.543  27.335  -0.000  -0.000  15.457
 No NMR shielding tensors so no spin-rotation constants.
 Leave Link  601 at Sun Mar  6 19:21:52 2022, MaxMem= 16106127360 cpu:               5.4 elap:               0.2
 (Enter /sw/contrib/gaussian/g16/B01/g16/l701.exe)
 ... and contract with generalized density number  2.
 Compute integral second derivatives.
 Leave Link  701 at Sun Mar  6 19:21:52 2022, MaxMem= 16106127360 cpu:               5.9 elap:               0.2
 (Enter /sw/contrib/gaussian/g16/B01/g16/l702.exe)
 L702 exits ... SP integral derivatives will be done elsewhere.
 Leave Link  702 at Sun Mar  6 19:21:52 2022, MaxMem= 16106127360 cpu:               0.9 elap:               0.1
 (Enter /sw/contrib/gaussian/g16/B01/g16/l703.exe)
 Integral derivatives from FoFJK, PRISM(SPDF).
 Compute integral second derivatives, UseDBF=F ICtDFT=           0.
 Calling FoFJK, ICntrl=  10100127 FMM=F ISym2X=1 I1Cent= 0 IOpClX= 0 NMat=1 NMatS=1 NMatT=0.
 FoFJK:  IHMeth= 1 ICntrl=10100127 DoSepK=F KAlg= 0 I1Cent=           0 FoldK=F
 IRaf=         0 NMat=       1 IRICut=       1 DoRegI=T DoRafI=F ISym2E= 1 IDoP0=0 IntGTp=1.
 FoFCou: FMM=F IPFlag=           0 FMFlag=      100000 FMFlg1=         800
         NFxFlg=           0 DoJE=F BraDBF=F KetDBF=F FulRan=T
         wScrn=  0.000000 ICntrl=  10100127 IOpCl=  0 I1Cent=           0 NGrid=           0
         NMat0=    1 NMatS0=      1 NMatT0=    0 NMatD0=    1 NMtDS0=    0 NMtDT0=    0
 Petite list used in FoFCou.
 Leave Link  703 at Sun Mar  6 19:22:08 2022, MaxMem= 16106127360 cpu:             447.4 elap:              16.0
 (Enter /sw/contrib/gaussian/g16/B01/g16/l716.exe)
 Dipole        = 8.62983764D-03-4.52867293D-01 0.00000000D+00
 Polarizability= 3.08251032D+01 4.06009531D+00 2.95903644D+01
                 0.00000000D+00 0.00000000D+00 1.75846886D+01
 Full mass-weighted force constant matrix:
 Low frequencies --- -115.8173  -67.7556  -29.9054   -0.0006   -0.0005    0.0007
 Low frequencies ---  346.3755  395.5140  511.0316
 Diagonal vibrational polarizability:
        7.3106142      10.0611346      16.3700319
 Harmonic frequencies (cm**-1), IR intensities (KM/Mole), Raman scattering
 activities (A**4/AMU), depolarization ratios for plane and unpolarized
 incident light, reduced masses (AMU), force constants (mDyne/A),
 and normal coordinates:
                      1                      2                      3
                     A"                     A'                     A"
 Frequencies --    346.1145               395.4041               510.5613
 Red. masses --      1.6259                 7.1124                 2.7004
 Frc consts  --      0.1148                 0.6552                 0.4147
 IR Inten    --     59.8380                 7.2516                28.3601
  Atom  AN      X      Y      Z        X      Y      Z        X      Y      Z
     1   1    -0.00  -0.00   0.98    -0.73  -0.25  -0.00    -0.00  -0.00   0.94
     2   8    -0.00  -0.00  -0.11    -0.32  -0.32   0.00    -0.00  -0.00   0.05
     3   8    -0.00  -0.00   0.12    -0.06   0.09  -0.00     0.00   0.00  -0.17
     4   7     0.00   0.00  -0.12     0.05   0.08   0.00    -0.00  -0.00   0.26
     5   8     0.00   0.00   0.03     0.39   0.17   0.00     0.00   0.00  -0.16
                      4                      5                      6
                     A'                     A'                     A'
 Frequencies --    706.3573               836.5346               973.6934
 Red. masses --     13.6133                12.2523                 9.6455
 Frc consts  --      4.0019                 5.0517                 5.3879
 IR Inten    --    222.8252                25.7227                11.8572
  Atom  AN      X      Y      Z        X      Y      Z        X      Y      Z
     1   1    -0.32   0.00  -0.00     0.45  -0.15  -0.00    -0.64  -0.01  -0.00
     2   8     0.01  -0.08  -0.00     0.53  -0.20   0.00     0.19  -0.17   0.00
     3   8     0.38   0.58   0.00    -0.39  -0.03  -0.00    -0.35   0.41  -0.00
     4   7    -0.44  -0.46  -0.00    -0.42  -0.04   0.00     0.38   0.03   0.00
     5   8     0.02  -0.10   0.00     0.20   0.28  -0.00    -0.13  -0.27  -0.00
                      7                      8                      9
                     A'                     A'                     A'
 Frequencies --   1439.5367              1639.9589              3489.0979
 Red. masses --      1.2298                 9.1596                 1.0637
 Frc consts  --      1.5015                14.5141                 7.6297
 IR Inten    --     82.0159               161.9621                42.3515
  Atom  AN      X      Y      Z        X      Y      Z        X      Y      Z
     1   1     0.97  -0.20   0.00    -0.62   0.15  -0.00     0.15   0.99  -0.00
     2   8    -0.06  -0.05   0.00     0.01   0.01  -0.00    -0.01  -0.06   0.00
     3   8    -0.02   0.06  -0.00    -0.05  -0.06   0.00     0.00  -0.00  -0.00
     4   7     0.05  -0.03   0.00     0.30  -0.49  -0.00    -0.00   0.00  -0.00
     5   8    -0.02   0.03  -0.00    -0.18   0.46   0.00     0.00  -0.00   0.00

 -------------------
 - Thermochemistry -
 -------------------
 Temperature   298.150 Kelvin.  Pressure   1.00000 Atm.
 Atom     1 has atomic number  1 and mass   1.00783
 Atom     2 has atomic number  8 and mass  15.99491
 Atom     3 has atomic number  8 and mass  15.99491
 Atom     4 has atomic number  7 and mass  14.00307
 Atom     5 has atomic number  8 and mass  15.99491
 Molecular mass:    62.99564 amu.
 Principal axes and moments of inertia in atomic units:
                           1         2         3
     Eigenvalues --    83.71146 222.11187 305.82333
           X            0.79965  -0.60046   0.00000
           Y            0.60046   0.79965   0.00000
           Z            0.00000   0.00000   1.00000
 This molecule is an asymmetric top.
 Rotational symmetry number  1.
 Rotational temperatures (Kelvin)      1.03467     0.38996     0.28322
 Rotational constants (GHZ):          21.55907     8.12537     5.90125
 Zero-point vibrational energy      61830.5 (Joules/Mol)
                                   14.77785 (Kcal/Mol)
 Warning -- explicit consideration of   3 degrees of freedom as
           vibrations may cause significant error
 Vibrational temperatures:    497.98   568.90   734.58  1016.29  1203.59
          (Kelvin)           1400.93  2071.17  2359.54  5020.03
 
 Zero-point correction=                           0.023550 (Hartree/Particle)
 Thermal correction to Energy=                    0.027507
 Thermal correction to Enthalpy=                  0.028451
 Thermal correction to Gibbs Free Energy=        -0.002431
 Sum of electronic and zero-point Energies=           -280.431472
 Sum of electronic and thermal Energies=              -280.427515
 Sum of electronic and thermal Enthalpies=            -280.426571
 Sum of electronic and thermal Free Energies=         -280.457453
 
                     E (Thermal)             CV                S
                      KCal/Mol        Cal/Mol-Kelvin    Cal/Mol-Kelvin
 Total                   17.261             12.206             64.997
 Electronic               0.000              0.000              0.000
 Translational            0.889              2.981             38.341
 Rotational               0.889              2.981             23.257
 Vibrational             15.483              6.244              3.400
 Vibration     1          0.724              1.583              1.184
 Vibration     2          0.762              1.480              0.980
 Vibration     3          0.866              1.227              0.632
                       Q            Log10(Q)             Ln(Q)
 Total Bot       0.131299D+02          1.118263          2.574895
 Total V=0       0.892287D+12         11.950505         27.517054
 Vib (Bot)       0.247505D-10        -10.606416        -24.422176
 Vib (Bot)    1  0.534398D+00         -0.272136         -0.626615
 Vib (Bot)    2  0.452281D+00         -0.344592         -0.793452
 Vib (Bot)    3  0.318877D+00         -0.496377         -1.142951
 Vib (V=0)       0.168200D+01          0.225826          0.519983
 Vib (V=0)    1  0.123183D+01          0.090552          0.208504
 Vib (V=0)    2  0.117421D+01          0.069745          0.160595
 Vib (V=0)    3  0.109303D+01          0.038631          0.088952
 Electronic      0.100000D+01          0.000000          0.000000
 Translational   0.196526D+08          7.293420         16.793719
 Rotational      0.269935D+05          4.431259         10.203352
 
                                                                title
                                                             IR Spectrum
 
     3                                                                   1      1                                                    
     4                                                                   6      4                9    8    7      5   3 3            
     8                                                                   4      4                7    3    0      1   9 4            
     9                                                                   0      0                4    7    6      1   5 6            
 
     X                                                                   X      X                X    X    X      X   X X            
     X                                                                   X      X                     X    X      X     X            
     X                                                                   X      X                          X      X     X            
     X                                                                   X      X                          X            X            
                                                                         X      X                          X            X            
                                                                         X      X                          X                         
                                                                         X      X                          X                         
                                                                         X                                 X                         
                                                                         X                                 X                         
                                                                         X                                 X                         
                                                                         X                                 X                         
                                                                         X                                 X                         
                                                                         X                                 X                         
                                                                         X                                 X                         
                                                                         X                                 X                         
                                                                                                           X                         
                                                                                                           X                         
                                                                                                           X                         
                                                                                                           X                         
                                                                                                           X                         
 
 ***** Axes restored to original set *****
 -------------------------------------------------------------------
 Center     Atomic                   Forces (Hartrees/Bohr)
 Number     Number              X              Y              Z
 -------------------------------------------------------------------
      1        1          -0.000251521   -0.000000000    0.000267980
      2        8          -0.000412812   -0.000000000   -0.000383165
      3        8          -0.000528139   -0.000000000    0.003405931
      4        7           0.009857716   -0.000000000    0.012905911
      5        8          -0.008665243   -0.000000000   -0.016196657
 -------------------------------------------------------------------
 Cartesian Forces:  Max     0.016196657 RMS     0.006395242
 -----------------------------------------------------------------------------------------------
                       Internal Coordinate Forces (Hartree/Bohr or radian)
  Cent   Atom   N1       Length/X         N2         Alpha/Y        N3         Beta/Z          J
 -----------------------------------------------------------------------------------------------
      1  H 
      2  O        1  -0.000268(     1)
      3  O        2   0.000674(     2)      1   0.000468(     5)
      4  N        3   0.003398(     3)      2   0.000494(     6)      1   0.000000(     8)     0
      5  O        4   0.018330(     4)      3   0.002681(     7)      2   0.000000(     9)     0
 -----------------------------------------------------------------------------------------------
 Internal  Forces:  Max     0.018329701 RMS     0.006286699
 Force constants in Cartesian coordinates: 
                1             2             3             4             5 
      1  0.722644D-01
      2  0.000000D+00  0.598935D-02
      3  0.239206D-01  0.000000D+00  0.437101D+00
      4 -0.518817D-01  0.000000D+00 -0.486804D-02  0.281313D+00
      5  0.000000D+00 -0.240115D-02  0.000000D+00  0.000000D+00  0.120545D-01
      6  0.321803D-01  0.000000D+00 -0.420709D+00 -0.118755D-01  0.000000D+00
      7 -0.251840D-01  0.000000D+00 -0.159436D-01 -0.171030D+00  0.000000D+00
      8  0.000000D+00 -0.425779D-02  0.000000D+00  0.000000D+00 -0.187745D-01
      9 -0.439661D-01  0.000000D+00 -0.196570D-01  0.100103D-01  0.000000D+00
     10 -0.577298D-02  0.000000D+00  0.656958D-02 -0.845370D-01  0.000000D+00
     11  0.000000D+00  0.811550D-02  0.000000D+00  0.000000D+00  0.199312D-01
     12 -0.194608D-01  0.000000D+00  0.117629D-01  0.110129D-01  0.000000D+00
     13  0.105742D-01  0.000000D+00 -0.967850D-02  0.261357D-01  0.000000D+00
     14  0.000000D+00 -0.744591D-02  0.000000D+00  0.000000D+00 -0.108100D-01
     15  0.732605D-02  0.000000D+00 -0.849801D-02 -0.427959D-02  0.000000D+00
                6             7             8             9            10 
      6  0.522286D+00
      7 -0.915457D-01  0.303138D+00
      8  0.000000D+00  0.000000D+00  0.395696D-01
      9 -0.968101D-01  0.828943D-01  0.000000D+00  0.318562D+00
     10  0.404789D-01 -0.145309D+00  0.000000D+00 -0.358592D-01  0.574652D+00
     11  0.000000D+00  0.000000D+00 -0.474710D-01  0.000000D+00  0.000000D+00
     12 -0.102231D-01  0.132332D-01  0.000000D+00 -0.200466D-01  0.278051D+00
     13  0.307621D-01  0.383844D-01  0.000000D+00 -0.130793D-01 -0.339033D+00
     14  0.000000D+00  0.000000D+00  0.309336D-01  0.000000D+00  0.000000D+00
     15  0.545640D-02  0.113619D-01  0.000000D+00 -0.182048D+00 -0.289240D+00
               11            12            13            14            15 
     11  0.501627D-01
     12  0.000000D+00  0.488445D+00
     13  0.000000D+00 -0.282836D+00  0.263939D+00
     14 -0.307385D-01  0.000000D+00  0.000000D+00  0.180608D-01
     15  0.000000D+00 -0.469938D+00  0.274832D+00  0.000000D+00  0.655028D+00
 Force constants in internal coordinates: 
                1             2             3             4             5 
      1  0.437101D+00
      2  0.217506D-01  0.259601D+00
      3  0.444223D-02  0.176514D-01  0.208024D+00
      4 -0.123286D-01  0.231832D-01  0.155969D+00  0.792426D+00
      5  0.442907D-01  0.565827D-01 -0.237526D-01  0.219852D-01  0.250069D+00
      6  0.103352D-01  0.221685D-01  0.925104D-01  0.102496D-01 -0.785822D-02
      7  0.832749D-02 -0.729422D-01  0.124486D+00  0.119503D+00 -0.212466D-01
      8  0.000000D+00  0.000000D+00  0.000000D+00  0.000000D+00  0.000000D+00
      9  0.000000D+00  0.000000D+00  0.000000D+00  0.000000D+00  0.000000D+00
                6             7             8             9 
      6  0.522425D+00
      7  0.613743D-01  0.672471D+00
      8  0.000000D+00  0.000000D+00  0.194932D-01
      9  0.000000D+00  0.000000D+00  0.277378D-01  0.107821D+00
 Leave Link  716 at Sun Mar  6 19:22:08 2022, MaxMem= 16106127360 cpu:               1.0 elap:               0.1
 (Enter /sw/contrib/gaussian/g16/B01/g16/l103.exe)

 GradGradGradGradGradGradGradGradGradGradGradGradGradGradGradGradGradGrad
 Berny optimization.
 Search for a local minimum.
 Step number   1 out of a maximum of    2
 All quantities printed in internal units (Hartrees-Bohrs-Radians)
 Second derivative matrix not updated -- analytic derivatives used.
 The second derivative matrix:
                          r1        r2        r3        r4        a1
           r1           0.43710
           r2           0.02175   0.25960
           r3           0.00444   0.01765   0.20802
           r4          -0.01233   0.02318   0.15597   0.79243
           a1           0.04429   0.05658  -0.02375   0.02199   0.25007
           a2           0.01034   0.02217   0.09251   0.01025  -0.00786
           a3           0.00833  -0.07294   0.12449   0.11950  -0.02125
           d1           0.00000   0.00000   0.00000   0.00000   0.00000
           d2           0.00000   0.00000   0.00000   0.00000   0.00000
                          a2        a3        d1        d2
           a2           0.52242
           a3           0.06137   0.67247
           d1           0.00000   0.00000   0.01949
           d2           0.00000   0.00000   0.02774   0.10782
 ITU=  0
     Eigenvalues ---    0.01151   0.11581   0.12405   0.20409   0.27758
     Eigenvalues ---    0.44987   0.51786   0.63633   0.93233
 Angle between quadratic step and forces=  16.95 degrees.
 Linear search not attempted -- first point.
 Variable       Old X    -DE/DX   Delta X   Delta X   Delta X     New X
                                 (Linear)    (Quad)   (Total)
    r1        1.86209  -0.00027   0.00000   0.00006   0.00006   1.86215
    r2        2.69614   0.00067   0.00000   0.00070   0.00070   2.69684
    r3        2.60992   0.00340   0.00000  -0.00177  -0.00177   2.60814
    r4        2.23398   0.01833   0.00000   0.02344   0.02344   2.25743
    a1        1.75642   0.00047   0.00000  -0.00049  -0.00049   1.75593
    a2        1.97463   0.00049   0.00000   0.00074   0.00074   1.97537
    a3        1.99550   0.00268   0.00000   0.00014   0.00014   1.99564
    d1        0.00000   0.00000   0.00000   0.00000   0.00000   0.00000
    d2        0.00000   0.00000   0.00000   0.00000   0.00000   0.00000
         Item               Value     Threshold  Converged?
 Maximum Force            0.018330     0.000450     NO 
 RMS     Force            0.006287     0.000300     NO 
 Maximum Displacement     0.023443     0.001800     NO 
 RMS     Displacement     0.007846     0.001200     NO 
 Predicted change in Energy=-2.123272D-04
                       ----------------------------
                       ! Non-Optimized Parameters !
                       ! (Angstroms and Degrees)  !
 ----------------------                            ----------------------
 !      Name          Value   Derivative information (Atomic Units)     !
 ------------------------------------------------------------------------
 !       r1          0.9854   -DE/DX =   -0.0003                        !
 !       r2          1.4271   -DE/DX =    0.0007                        !
 !       r3          1.3802   -DE/DX =    0.0034                        !
 !       r4          1.1946   -DE/DX =    0.0183                        !
 !       a1        100.6074   -DE/DX =    0.0005                        !
 !       a2        113.1804   -DE/DX =    0.0005                        !
 !       a3        114.342    -DE/DX =    0.0027                        !
 !       d1          0.0      -DE/DX =    0.0                           !
 !       d2          0.0      -DE/DX =    0.0                           !
 ------------------------------------------------------------------------
 GradGradGradGradGradGradGradGradGradGradGradGradGradGradGradGradGradGrad

 Leave Link  103 at Sun Mar  6 19:22:08 2022, MaxMem= 16106127360 cpu:               0.5 elap:               0.0
 (Enter /sw/contrib/gaussian/g16/B01/g16/l9999.exe)

 ----------------------------------------------------------------------

 Electric dipole moment (input orientation):
 (Debye = 10**-18 statcoulomb cm , SI units = C m)
                  (au)            (Debye)         (10**-30 SI)
   Tot        0.452950D+00      0.115128D+01      0.384027D+01
   x         -0.102891D+00     -0.261522D+00     -0.872344D+00
   y          0.000000D+00      0.000000D+00      0.000000D+00
   z         -0.441109D+00     -0.112119D+01     -0.373987D+01

 Dipole polarizability, Alpha (input orientation).
 (esu units = cm**3 , SI units = C**2 m**2 J**-1)
 Alpha(0;0):
               (au)            (10**-24 esu)      (10**-40 SI)
   iso        0.260001D+02      0.385281D+01      0.428683D+01
   aniso      0.144892D+02      0.214708D+01      0.238895D+01
   xx         0.291151D+02      0.431441D+01      0.480043D+01
   yx         0.000000D+00      0.000000D+00      0.000000D+00
   yy         0.175847D+02      0.260578D+01      0.289932D+01
   zx        -0.395874D+01     -0.586625D+00     -0.652708D+00
   zy         0.000000D+00      0.000000D+00      0.000000D+00
   zz         0.313004D+02      0.463824D+01      0.516074D+01

 ----------------------------------------------------------------------

 Dipole orientation:
     1         -0.00000000          0.00000000          0.00000000
     8         -0.42298748          0.00000000         -1.81341339
     8          2.04453245         -0.00000000         -2.89993287
     7          3.95028851         -0.00000000         -1.11674719
     8          3.23171640          0.00000000          0.99851556

 Electric dipole moment (dipole orientation):
 (Debye = 10**-18 statcoulomb cm , SI units = C m)
                  (au)            (Debye)         (10**-30 SI)
   Tot        0.452950D+00      0.115128D+01      0.384027D+01
   x          0.000000D+00      0.000000D+00      0.000000D+00
   y          0.000000D+00      0.000000D+00      0.000000D+00
   z          0.452950D+00      0.115128D+01      0.384027D+01

 Dipole polarizability, Alpha (dipole orientation).
 (esu units = cm**3 , SI units = C**2 m**2 J**-1)
 Alpha(0;0):
               (au)            (10**-24 esu)      (10**-40 SI)
   iso        0.260001D+02      0.385281D+01      0.428683D+01
   aniso      0.144892D+02      0.214708D+01      0.238895D+01
   xx         0.309793D+02      0.459066D+01      0.510780D+01
   yx         0.000000D+00      0.000000D+00      0.000000D+00
   yy         0.175847D+02      0.260578D+01      0.289932D+01
   zx         0.403363D+01      0.597722D+00      0.665055D+00
   zy         0.000000D+00      0.000000D+00      0.000000D+00
   zz         0.294361D+02      0.436198D+01      0.485336D+01

 ----------------------------------------------------------------------
 1\1\GINC-N2110\Freq\RMP2-FC\Aug-CC-pVTZ\H1N1O3\CGAVINH\06-Mar-2022\1\\
 #p freq mp2/aug-cc-pvtz density=current\\title\\0,1\H\O,1,r1\O,2,r2,1,
 a1\N,3,r3,2,a2,1,d1,0\O,4,r4,3,a3,2,d2,0\\r1=0.98537664\r2=1.42673666\
 r3=1.38110764\r4=1.18217317\a1=100.6355057\a2=113.13777052\a3=114.3339
 2022\d1=0.\d2=0.\\Version=ES64L-G16RevB.01\State=1-A'\HF=-279.5083655\
 MP2=-280.4550216\RMSD=3.288e-09\RMSF=6.395e-03\ZeroPoint=0.02355\Therm
 al=0.0275069\Dipole=-0.1028907,0.,-0.4411086\DipoleDeriv=0.3165509,0.,
 0.0375728,0.,0.298109,0.,-0.0250774,0.,0.1985977,-0.5274019,0.,0.27732
 35,0.,-0.2556009,0.,-0.1030561,0.,-0.1284231,-0.0045039,0.,0.3447652,0
 .,-0.0159623,0.,0.4416154,0.,-0.9218652,0.2033108,0.,-0.1263393,0.,0.0
 143452,0.,-0.6677857,0.,1.7526604,0.0120442,0.,-0.5333222,0.,-0.040891
 ,0.,0.3543037,0.,-0.9009698\Polar=29.1150787,0.,17.5846886,-3.9587402,
 0.,31.3003889\Quadrupole=0.1382625,0.6105121,-0.7487746,0.,1.3856521,0
 .\PG=CS [SG(H1N1O3)]\NImag=0\\0.07226442,0.,0.00598935,0.02392060,0.,0
 .43710089,-0.05188169,0.,-0.00486804,0.28131258,0.,-0.00240115,0.,0.,0
 .01205446,0.03218026,0.,-0.42070882,-0.01187553,0.,0.52228556,-0.02518
 399,0.,-0.01594364,-0.17102958,0.,-0.09154568,0.30313814,0.,-0.0042577
 9,0.,0.,-0.01877448,0.,0.,0.03956963,-0.04396610,0.,-0.01965700,0.0100
 1028,0.,-0.09681008,0.08289427,0.,0.31856171,-0.00577298,0.,0.00656958
 ,-0.08453701,0.,0.04047891,-0.14530899,0.,-0.03585920,0.57465203,0.,0.
 00811550,0.,0.,0.01993120,0.,0.,-0.04747096,0.,0.,0.05016275,-0.019460
 81,0.,0.01176295,0.01101288,0.,-0.01022305,0.01323317,0.,-0.02004661,0
 .27805102,0.,0.48844468,0.01057424,0.,-0.00967850,0.02613570,0.,0.0307
 6205,0.03838441,0.,-0.01307925,-0.33903305,0.,-0.28283626,0.26393869,0
 .,-0.00744591,0.,0.,-0.01081003,0.,0.,0.03093359,0.,0.,-0.03073849,0.,
 0.,0.01806083,0.00732605,0.,-0.00849801,-0.00427959,0.,0.00545640,0.01
 136188,0.,-0.18204802,-0.28924031,0.,-0.46993797,0.27483196,0.,0.65502
 760\\0.00025152,0.,-0.00026798,0.00041281,0.,0.00038316,0.00052814,0.,
 -0.00340593,-0.00985772,0.,-0.01290591,0.00866524,0.,0.01619666\\\@


 LIFE CAN ONLY BE UNDERSTOOD BACKWARD, BUT MUST
 BE LIVED FORWARD. -- KIRKEGAARD
 Job cpu time:       0 days  2 hours  0 minutes 14.2 seconds.
 Elapsed time:       0 days  0 hours  4 minutes 20.8 seconds.
 File lengths (MBytes):  RWF=   7239 Int=      0 D2E=      0 Chk=      8 Scr=      1
 Normal termination of Gaussian 16 at Sun Mar  6 19:22:09 2022.
