title                                                                   
Freq      RMP2-FC                                                     Aug-CC-pVTZ         
Number of atoms                            I                5
Info1-9                                    I   N=           9
          33          24           0           0           0         100
           6           2           1
Full Title                                 C   N=           1
title       
Route                                      C   N=           4
#p freq mp2/aug-cc-pvtz density=current         
Charge                                     I                0
Multiplicity                               I                1
Number of electrons                        I               32
Number of alpha electrons                  I               16
Number of beta electrons                   I               16
Number of basis functions                  I              207
Number of independent functions            I              207
Number of point charges in /Mol/           I                0
Number of translation vectors              I                0
Atomic numbers                             I   N=           5
           1           8           8           7           8
Nuclear charges                            R   N=           5
  1.00000000E+00  8.00000000E+00  8.00000000E+00  7.00000000E+00  8.00000000E+00
Current cartesian coordinates              R   N=          15
  2.86543892E+00  3.19725742E+00 -9.41820132E-32  2.74764119E+00  1.36995199E+00
 -2.95440735E-32 -1.38057398E-16  1.27165199E+00 -2.26426880E-32 -4.90469993E-01
 -1.44106749E+00  4.93305913E-32 -2.67665982E+00 -1.78032710E+00  1.14159447E-31
Number of symbols in /Mol/                 I                0
Force Field                                I                0
Atom Types                                 C   N=           5
                                                            
Int Atom Types                             I   N=           5
           0           0           0           0           0
MM charges                                 R   N=           5
  0.00000000E+00  0.00000000E+00  0.00000000E+00  0.00000000E+00  0.00000000E+00
Integer atomic weights                     I   N=           5
           1          16          16          14          16
Real atomic weights                        R   N=           5
  1.00782504E+00  1.59949146E+01  1.59949146E+01  1.40030740E+01  1.59949146E+01
Atom fragment info                         I   N=           5
           0           0           0           0           0
Atom residue num                           I   N=           5
           0           0           0           0           0
Nuclear spins                              I   N=           5
           1           0           0           2           0
Nuclear ZEff                               R   N=           5
 -1.00000000E+00 -5.60000000E+00 -5.60000000E+00 -4.55000000E+00 -5.60000000E+00
Nuclear ZNuc                               R   N=           5
  1.00000000E+00  8.00000000E+00  8.00000000E+00  7.00000000E+00  8.00000000E+00
Nuclear QMom                               R   N=           5
  0.00000000E+00  0.00000000E+00  0.00000000E+00  2.04400000E+00  0.00000000E+00
Nuclear GFac                               R   N=           5
  2.79284600E+00  0.00000000E+00  0.00000000E+00  4.03761000E-01  0.00000000E+00
MicOpt                                     I   N=           5
          -1          -1          -1          -1          -1
Number of residues                         I                0
Number of secondary structures             I                0
SymInf integers                            I   N=          26
           1           2           1           1           1           1
           1          -1           0           0           0           0
           0           0           0           0           0           0
           0           0           0           0           0           0
           0           0
RotTr to input orientation                 R   N=          12
 -9.97928569E-01 -9.82796999E-17 -6.43317268E-02  6.43317268E-02 -7.30663973E-17
 -9.97928569E-01  9.33756328E-17 -1.00000000E+00  7.92375481E-17  2.65381827E+00
  0.00000000E+00  3.37497316E+00
Number of contracted shells                I               65
Number of primitive shells                 I              119
Pure/Cartesian d shells                    I                0
Pure/Cartesian f shells                    I                0
Highest angular momentum                   I                3
Largest degree of contraction              I                7
Shell types                                I   N=          65
           0           0           0           0           1           1
           1          -2          -2           0           0           0
           0           0           1           1           1           1
          -2          -2          -2          -3          -3           0
           0           0           0           0           1           1
           1           1          -2          -2          -2          -3
          -3           0           0           0           0           0
           1           1           1           1          -2          -2
          -2          -3          -3           0           0           0
           0           0           1           1           1           1
          -2          -2          -2          -3          -3
Number of primitives per shell             I   N=          65
           3           1           1           1           1           1
           1           1           1           7           6           1
           1           1           3           1           1           1
           1           1           1           1           1           7
           6           1           1           1           3           1
           1           1           1           1           1           1
           1           7           6           1           1           1
           3           1           1           1           1           1
           1           1           1           7           6           1
           1           1           3           1           1           1
           1           1           1           1           1
Shell to atom map                          I   N=          65
           1           1           1           1           1           1
           1           1           1           2           2           2
           2           2           2           2           2           2
           2           2           2           2           2           3
           3           3           3           3           3           3
           3           3           3           3           3           3
           3           4           4           4           4           4
           4           4           4           4           4           4
           4           4           4           5           5           5
           5           5           5           5           5           5
           5           5           5           5           5
Primitive exponents                        R   N=         119
  3.38700000E+01  5.09500000E+00  1.15900000E+00  3.25800000E-01  1.02700000E-01
  2.52600000E-02  1.40700000E+00  3.88000000E-01  1.02000000E-01  1.05700000E+00
  2.47000000E-01  1.53300000E+04  2.29900000E+03  5.22400000E+02  1.47300000E+02
  4.75500000E+01  1.67600000E+01  6.20700000E+00  5.22400000E+02  1.47300000E+02
  4.75500000E+01  1.67600000E+01  6.20700000E+00  6.88200000E-01  1.75200000E+00
  2.38400000E-01  7.37600000E-02  3.44600000E+01  7.74900000E+00  2.28000000E+00
  7.15600000E-01  2.14000000E-01  5.97400000E-02  2.31400000E+00  6.45000000E-01
  2.14000000E-01  1.42800000E+00  5.00000000E-01  1.53300000E+04  2.29900000E+03
  5.22400000E+02  1.47300000E+02  4.75500000E+01  1.67600000E+01  6.20700000E+00
  5.22400000E+02  1.47300000E+02  4.75500000E+01  1.67600000E+01  6.20700000E+00
  6.88200000E-01  1.75200000E+00  2.38400000E-01  7.37600000E-02  3.44600000E+01
  7.74900000E+00  2.28000000E+00  7.15600000E-01  2.14000000E-01  5.97400000E-02
  2.31400000E+00  6.45000000E-01  2.14000000E-01  1.42800000E+00  5.00000000E-01
  1.14200000E+04  1.71200000E+03  3.89300000E+02  1.10000000E+02  3.55700000E+01
  1.25400000E+01  4.64400000E+00  3.89300000E+02  1.10000000E+02  3.55700000E+01
  1.25400000E+01  4.64400000E+00  5.11800000E-01  1.29300000E+00  1.78700000E-01
  5.76000000E-02  2.66300000E+01  5.94800000E+00  1.74200000E+00  5.55000000E-01
  1.72500000E-01  4.91000000E-02  1.65400000E+00  4.69000000E-01  1.51000000E-01
  1.09300000E+00  3.64000000E-01  1.53300000E+04  2.29900000E+03  5.22400000E+02
  1.47300000E+02  4.75500000E+01  1.67600000E+01  6.20700000E+00  5.22400000E+02
  1.47300000E+02  4.75500000E+01  1.67600000E+01  6.20700000E+00  6.88200000E-01
  1.75200000E+00  2.38400000E-01  7.37600000E-02  3.44600000E+01  7.74900000E+00
  2.28000000E+00  7.15600000E-01  2.14000000E-01  5.97400000E-02  2.31400000E+00
  6.45000000E-01  2.14000000E-01  1.42800000E+00  5.00000000E-01
Contraction coefficients                   R   N=         119
  2.54948632E-02  1.90362766E-01  8.52162022E-01  1.00000000E+00  1.00000000E+00
  1.00000000E+00  1.00000000E+00  1.00000000E+00  1.00000000E+00  1.00000000E+00
  1.00000000E+00  5.19808943E-04  4.02025621E-03  2.07128267E-02  8.10105536E-02
  2.35962985E-01  4.42653446E-01  3.57064423E-01 -4.42115008E-05 -1.22591041E-03
 -1.05517725E-02 -6.74452633E-02 -1.71198607E-01  1.07329856E+00  1.00000000E+00
  1.00000000E+00  1.00000000E+00  4.11634896E-02  2.57762836E-01  8.02419274E-01
  1.00000000E+00  1.00000000E+00  1.00000000E+00  1.00000000E+00  1.00000000E+00
  1.00000000E+00  1.00000000E+00  1.00000000E+00  5.19808943E-04  4.02025621E-03
  2.07128267E-02  8.10105536E-02  2.35962985E-01  4.42653446E-01  3.57064423E-01
 -4.42115008E-05 -1.22591041E-03 -1.05517725E-02 -6.74452633E-02 -1.71198607E-01
  1.07329856E+00  1.00000000E+00  1.00000000E+00  1.00000000E+00  4.11634896E-02
  2.57762836E-01  8.02419274E-01  1.00000000E+00  1.00000000E+00  1.00000000E+00
  1.00000000E+00  1.00000000E+00  1.00000000E+00  1.00000000E+00  1.00000000E+00
  5.34563860E-04  4.13435660E-03  2.12335358E-02  8.25006224E-02  2.38138871E-01
  4.42551547E-01  3.53757422E-01 -4.89867350E-05 -1.19527323E-03 -1.03490714E-02
 -6.48680190E-02 -1.71552477E-01  1.07289568E+00  1.00000000E+00  1.00000000E+00
  1.00000000E+00  3.98072123E-02  2.49002660E-01  8.10479727E-01  1.00000000E+00
  1.00000000E+00  1.00000000E+00  1.00000000E+00  1.00000000E+00  1.00000000E+00
  1.00000000E+00  1.00000000E+00  5.19808943E-04  4.02025621E-03  2.07128267E-02
  8.10105536E-02  2.35962985E-01  4.42653446E-01  3.57064423E-01 -4.42115008E-05
 -1.22591041E-03 -1.05517725E-02 -6.74452633E-02 -1.71198607E-01  1.07329856E+00
  1.00000000E+00  1.00000000E+00  1.00000000E+00  4.11634896E-02  2.57762836E-01
  8.02419274E-01  1.00000000E+00  1.00000000E+00  1.00000000E+00  1.00000000E+00
  1.00000000E+00  1.00000000E+00  1.00000000E+00  1.00000000E+00
Coordinates of each shell                  R   N=         195
  2.86543892E+00  3.19725742E+00 -6.23996340E-32  2.86543892E+00  3.19725742E+00
 -6.23996340E-32  2.86543892E+00  3.19725742E+00 -6.23996340E-32  2.86543892E+00
  3.19725742E+00 -6.23996340E-32  2.86543892E+00  3.19725742E+00 -6.23996340E-32
  2.86543892E+00  3.19725742E+00 -6.23996340E-32  2.86543892E+00  3.19725742E+00
 -6.23996340E-32  2.86543892E+00  3.19725742E+00 -6.23996340E-32  2.86543892E+00
  3.19725742E+00 -6.23996340E-32  2.74764119E+00  1.36995199E+00 -2.85445879E-32
  2.74764119E+00  1.36995199E+00 -2.85445879E-32  2.74764119E+00  1.36995199E+00
 -2.85445879E-32  2.74764119E+00  1.36995199E+00 -2.85445879E-32  2.74764119E+00
  1.36995199E+00 -2.85445879E-32  2.74764119E+00  1.36995199E+00 -2.85445879E-32
  2.74764119E+00  1.36995199E+00 -2.85445879E-32  2.74764119E+00  1.36995199E+00
 -2.85445879E-32  2.74764119E+00  1.36995199E+00 -2.85445879E-32  2.74764119E+00
  1.36995199E+00 -2.85445879E-32  2.74764119E+00  1.36995199E+00 -2.85445879E-32
  2.74764119E+00  1.36995199E+00 -2.85445879E-32  2.74764119E+00  1.36995199E+00
 -2.85445879E-32  2.74764119E+00  1.36995199E+00 -2.85445879E-32 -7.18401142E-18
  1.27165199E+00 -2.34627791E-32 -7.18401142E-18  1.27165199E+00 -2.34627791E-32
 -7.18401142E-18  1.27165199E+00 -2.34627791E-32 -7.18401142E-18  1.27165199E+00
 -2.34627791E-32 -7.18401142E-18  1.27165199E+00 -2.34627791E-32 -7.18401142E-18
  1.27165199E+00 -2.34627791E-32 -7.18401142E-18  1.27165199E+00 -2.34627791E-32
 -7.18401142E-18  1.27165199E+00 -2.34627791E-32 -7.18401142E-18  1.27165199E+00
 -2.34627791E-32 -7.18401142E-18  1.27165199E+00 -2.34627791E-32 -7.18401142E-18
  1.27165199E+00 -2.34627791E-32 -7.18401142E-18  1.27165199E+00 -2.34627791E-32
 -7.18401142E-18  1.27165199E+00 -2.34627791E-32 -7.18401142E-18  1.27165199E+00
 -2.34627791E-32 -4.90469993E-01 -1.44106749E+00  2.71719787E-32 -4.90469993E-01
 -1.44106749E+00  2.71719787E-32 -4.90469993E-01 -1.44106749E+00  2.71719787E-32
 -4.90469993E-01 -1.44106749E+00  2.71719787E-32 -4.90469993E-01 -1.44106749E+00
  2.71719787E-32 -4.90469993E-01 -1.44106749E+00  2.71719787E-32 -4.90469993E-01
 -1.44106749E+00  2.71719787E-32 -4.90469993E-01 -1.44106749E+00  2.71719787E-32
 -4.90469993E-01 -1.44106749E+00  2.71719787E-32 -4.90469993E-01 -1.44106749E+00
  2.71719787E-32 -4.90469993E-01 -1.44106749E+00  2.71719787E-32 -4.90469993E-01
 -1.44106749E+00  2.71719787E-32 -4.90469993E-01 -1.44106749E+00  2.71719787E-32
 -4.90469993E-01 -1.44106749E+00  2.71719787E-32 -2.67665982E+00 -1.78032710E+00
  3.60318399E-32 -2.67665982E+00 -1.78032710E+00  3.60318399E-32 -2.67665982E+00
 -1.78032710E+00  3.60318399E-32 -2.67665982E+00 -1.78032710E+00  3.60318399E-32
 -2.67665982E+00 -1.78032710E+00  3.60318399E-32 -2.67665982E+00 -1.78032710E+00
  3.60318399E-32 -2.67665982E+00 -1.78032710E+00  3.60318399E-32 -2.67665982E+00
 -1.78032710E+00  3.60318399E-32 -2.67665982E+00 -1.78032710E+00  3.60318399E-32
 -2.67665982E+00 -1.78032710E+00  3.60318399E-32 -2.67665982E+00 -1.78032710E+00
  3.60318399E-32 -2.67665982E+00 -1.78032710E+00  3.60318399E-32 -2.67665982E+00
 -1.78032710E+00  3.60318399E-32 -2.67665982E+00 -1.78032710E+00  3.60318399E-32
Num ILSW                                   I              100
ILSW                                       I   N=         100
           0           0           0           0           2           0
           0           0           0           0           0          -1
           5           0           0           0           2           0
           0           0           0           0           1           0
           1           0           0           0           0           0
           0           0      100000           0          -1           0
           0           0           0           0           0           0
           0           0           0           1           1           0
           0 -2000000000           1           0           0           0
           0           0           4          52           0           0
           0           0           0           0           0           0
           0           0           0           5           4           1
           0           0           0           0           0           0
           0           0           0           0           0           0
           0           0           0           0           0           0
           0           0           0           0           0           0
           0           0           0           0
Num RLSW                                   I               52
RLSW                                       R   N=          52
  1.00000000E+00  1.00000000E+00  1.00000000E+00  1.00000000E+00  1.00000000E+00
  0.00000000E+00  0.00000000E+00  1.00000000E+00  0.00000000E+00  0.00000000E+00
  0.00000000E+00  0.00000000E+00  1.00000000E+00  0.00000000E+00  0.00000000E+00
  0.00000000E+00  0.00000000E+00  1.00000000E+00  0.00000000E+00  0.00000000E+00
  0.00000000E+00  0.00000000E+00  1.00000000E+00  0.00000000E+00  0.00000000E+00
  0.00000000E+00  0.00000000E+00  1.00000000E+00  0.00000000E+00  0.00000000E+00
  0.00000000E+00  0.00000000E+00  1.00000000E+00  0.00000000E+00  0.00000000E+00
  0.00000000E+00  0.00000000E+00  0.00000000E+00  1.00000000E+00  1.00000000E+00
  0.00000000E+00  1.00000000E+00  0.00000000E+00  0.00000000E+00  0.00000000E+00
  0.00000000E+00  0.00000000E+00  0.00000000E+00  0.00000000E+00  0.00000000E+00
  0.00000000E+00  0.00000000E+00
MxBond                                     I                2
NBond                                      I   N=           5
           1           2           2           2           1
IBond                                      I   N=          10
           2           0           1           3           2           4
           3           5           4           0
RBond                                      R   N=          10
  1.00000000E+00  0.00000000E+00  1.00000000E+00  1.00000000E+00  1.00000000E+00
  1.00000000E+00  1.00000000E+00  2.00000000E+00  2.00000000E+00  0.00000000E+00
Virial Ratio                               R      2.002327365786238E+00
SCF Energy                                 R     -2.795013058614144E+02
MP2 Energy                                 R     -2.804466238911482E+02
Total Energy                               R     -2.804466238911482E+02
Post-SCF wavefunction norm                 R      1.584311374123496E+00
RMS Force                                  R      1.601297621226181E-03
RMS Density                                R      3.772109267367406E-09
NImag                                      I                1
Job Status                                 I                1
Nuclear derivative order                   I                2
External E-field                           R   N=          35
  0.00000000E+00  0.00000000E+00  0.00000000E+00  0.00000000E+00  0.00000000E+00
  0.00000000E+00  0.00000000E+00  0.00000000E+00  0.00000000E+00  0.00000000E+00
  0.00000000E+00  0.00000000E+00  0.00000000E+00  0.00000000E+00  0.00000000E+00
  0.00000000E+00  0.00000000E+00  0.00000000E+00  0.00000000E+00  0.00000000E+00
  0.00000000E+00  0.00000000E+00  0.00000000E+00  0.00000000E+00  0.00000000E+00
  0.00000000E+00  0.00000000E+00  0.00000000E+00  0.00000000E+00  0.00000000E+00
  0.00000000E+00  0.00000000E+00  0.00000000E+00  0.00000000E+00  0.00000000E+00
IOpCl                                      I                0
IROHF                                      I                0
Alpha Orbital Energies                     R   N=         207
 -2.06906821E+01 -2.06842702E+01 -2.06606920E+01 -1.58127962E+01 -1.62412201E+00
 -1.49691222E+00 -1.25412585E+00 -9.48173941E-01 -7.73737902E-01 -7.57982130E-01
 -7.12006477E-01 -6.78841037E-01 -6.20790226E-01 -5.91143770E-01 -4.85456879E-01
 -4.72525626E-01  2.98375433E-02  7.15934638E-02  8.59252562E-02  1.01649335E-01
  1.33859018E-01  1.34068043E-01  1.44115791E-01  1.54633181E-01  1.78198018E-01
  1.93981446E-01  1.99642063E-01  2.06410196E-01  2.20709362E-01  2.35342050E-01
  2.37356110E-01  2.65240614E-01  2.93437738E-01  3.03717589E-01  3.11009767E-01
  3.43269986E-01  3.50023742E-01  3.87292697E-01  4.23477729E-01  4.31092088E-01
  5.27642498E-01  5.29382996E-01  5.58113941E-01  5.81161256E-01  6.26103323E-01
  6.38116094E-01  6.74633516E-01  6.84806409E-01  7.06498157E-01  7.09986961E-01
  7.27809254E-01  7.28495591E-01  7.44415907E-01  7.93303514E-01  7.94355039E-01
  8.11645644E-01  8.12197488E-01  8.29432847E-01  8.67734207E-01  9.08625613E-01
  9.20929836E-01  9.27400981E-01  9.54756872E-01  9.76506463E-01  9.86018246E-01
  1.01740860E+00  1.05156371E+00  1.05446516E+00  1.08265289E+00  1.11741174E+00
  1.14373133E+00  1.19016298E+00  1.22091052E+00  1.23528512E+00  1.33946077E+00
  1.35177594E+00  1.38566353E+00  1.45671498E+00  1.48711887E+00  1.50615061E+00
  1.53730380E+00  1.56654944E+00  1.57954341E+00  1.61060809E+00  1.66249687E+00
  1.67069694E+00  1.70312352E+00  1.79738023E+00  1.83067788E+00  1.83599237E+00
  1.87738715E+00  1.91113267E+00  1.95494796E+00  1.99395674E+00  2.00394302E+00
  2.07904813E+00  2.12619696E+00  2.13207684E+00  2.14965794E+00  2.22650306E+00
  2.26264446E+00  2.26416055E+00  2.29094125E+00  2.31379405E+00  2.34248828E+00
  2.38661722E+00  2.42754497E+00  2.43357286E+00  2.45330877E+00  2.46245178E+00
  2.47961249E+00  2.49948104E+00  2.59062445E+00  2.59893290E+00  2.62012715E+00
  2.62577520E+00  2.63515180E+00  2.66551389E+00  2.75796612E+00  2.82722604E+00
  2.84654485E+00  2.87947666E+00  2.89222689E+00  2.92786657E+00  2.95411927E+00
  3.02418466E+00  3.06905211E+00  3.12025965E+00  3.20869585E+00  3.22377592E+00
  3.31434625E+00  3.34277337E+00  3.51895943E+00  3.63815157E+00  3.83717569E+00
  3.84104182E+00  4.14615856E+00  4.17122886E+00  4.18345191E+00  4.25858605E+00
  4.34517321E+00  4.39612790E+00  4.46169478E+00  4.52724672E+00  4.65901188E+00
  4.73069581E+00  4.80279128E+00  4.82406511E+00  4.82799444E+00  4.89559017E+00
  5.02475700E+00  5.07700212E+00  5.10219578E+00  5.13716478E+00  5.17364436E+00
  5.25032388E+00  5.27023199E+00  5.30655622E+00  5.32852815E+00  5.35783183E+00
  5.60225070E+00  5.67351535E+00  5.76503949E+00  5.84162101E+00  5.95804270E+00
  6.17435791E+00  6.31130310E+00  6.33268265E+00  6.39344556E+00  6.49380047E+00
  6.50520911E+00  6.61502748E+00  6.66794235E+00  6.70261587E+00  6.76117773E+00
  6.76129413E+00  6.83463257E+00  6.89908579E+00  7.02459366E+00  7.04950470E+00
  7.05675510E+00  7.08913347E+00  7.12525980E+00  7.14244737E+00  7.18216789E+00
  7.22681323E+00  7.24157241E+00  7.30291564E+00  7.32445699E+00  7.34999684E+00
  7.39978760E+00  7.44828481E+00  7.48478985E+00  7.60713675E+00  7.62079443E+00
  7.62639549E+00  7.66688590E+00  7.79623188E+00  7.88707577E+00  8.09410838E+00
  8.31863244E+00  8.39514723E+00  8.54277774E+00  1.33892181E+01  1.43889450E+01
  1.51841246E+01  1.61540083E+01
Alpha MO coefficients                      R   N=       42849
  8.97156189E-05 -5.23164441E-04 -6.56290723E-04 -2.78618845E-06 -6.90997270E-06
 -2.99508088E-05  0.00000000E+00 -5.70442705E-05 -9.25478378E-06  0.00000000E+00
  7.37377994E-05  7.06849803E-06  0.00000000E+00  2.72420527E-05  0.00000000E+00
  0.00000000E+00 -6.00210373E-05  1.65611635E-05 -9.24265147E-06  0.00000000E+00
  0.00000000E+00 -1.60041875E-04  1.25639147E-04  4.72186478E-03 -2.92727912E-04
  2.42302069E-05  1.38287194E-03  1.72543374E-03  1.05489594E-04  1.01316765E-05
  0.00000000E+00 -6.15923104E-04 -6.83072965E-05  0.00000000E+00 -1.07290471E-03
  7.04632756E-04  0.00000000E+00 -3.89333098E-04  5.87164776E-05  0.00000000E+00
  2.86071153E-05  0.00000000E+00  0.00000000E+00 -5.26975038E-05  6.65964348E-06
 -3.69136606E-04  0.00000000E+00  0.00000000E+00  7.46049926E-04 -3.31163252E-05
 -4.36373175E-04  0.00000000E+00  0.00000000E+00  2.39703180E-04 -1.58138157E-06
  0.00000000E+00  7.97148616E-05  1.37039086E-05  0.00000000E+00  0.00000000E+00
 -1.09772708E-04 -1.76545125E-06  0.00000000E+00  2.55535864E-04 -2.67953189E-05
  0.00000000E+00  0.00000000E+00 -3.46580305E-04  4.24162255E-05  9.76908067E-01
 -9.21865603E-03  4.33218834E-02  2.04005220E-03 -8.72651611E-04  1.48688632E-03
 -1.35270622E-03  0.00000000E+00 -1.42725911E-03  1.38161444E-03  0.00000000E+00
  1.16004293E-04 -1.10825669E-03  0.00000000E+00 -1.23372507E-04 -7.08207506E-06
  0.00000000E+00  4.52099442E-05  0.00000000E+00  0.00000000E+00 -3.60888564E-05
  2.30447449E-05  7.49176513E-04  0.00000000E+00  0.00000000E+00 -2.23605772E-04
 -3.91947174E-04 -3.70770405E-04  0.00000000E+00  0.00000000E+00 -3.06023492E-04
 -3.46867584E-04  0.00000000E+00  4.70894209E-05 -4.83247908E-05  0.00000000E+00
  0.00000000E+00 -3.80062810E-05 -1.65148977E-05  0.00000000E+00  2.37875846E-05
  1.92877640E-05  0.00000000E+00  0.00000000E+00 -3.04902991E-04 -1.39738488E-04
  3.92690474E-05  4.64858123E-05 -2.65806528E-04 -6.81364778E-04 -1.39067523E-04
 -2.70069821E-05 -9.83409637E-05  0.00000000E+00  2.70493104E-04  7.14807694E-04
  0.00000000E+00 -8.17134004E-04 -4.34335344E-04  0.00000000E+00 -1.19612669E-04
 -2.38908634E-05  0.00000000E+00 -1.79909430E-05  0.00000000E+00  0.00000000E+00
 -2.95649843E-05  1.50632797E-05 -3.31305937E-04  0.00000000E+00  0.00000000E+00
 -8.32678497E-04  1.24564201E-04 -3.66372826E-05  0.00000000E+00  0.00000000E+00
  8.22599126E-05 -1.23358071E-04  0.00000000E+00 -2.05988308E-05 -1.20526166E-04
  0.00000000E+00  0.00000000E+00 -6.19074872E-05 -1.38487552E-04  0.00000000E+00
  3.38849859E-06 -1.54679245E-04  0.00000000E+00  0.00000000E+00  4.41447749E-05
 -4.18049518E-04 -2.65467964E-03  1.22840500E-04 -1.27035514E-04 -2.29961667E-04
  1.43152836E-04 -8.16745274E-06 -2.80478320E-05  0.00000000E+00  6.98761989E-05
  1.65144185E-04  0.00000000E+00  2.35525765E-04  1.79853310E-04  0.00000000E+00
  1.25152987E-04  2.22894397E-05  0.00000000E+00 -3.36229090E-06  0.00000000E+00
  0.00000000E+00 -1.80118620E-05  1.46911346E-06  6.56661540E-07  0.00000000E+00
  0.00000000E+00  8.09445090E-05  8.66529871E-05 -9.76922441E-05  0.00000000E+00
  0.00000000E+00  1.69064660E-04  1.53758853E-04  0.00000000E+00  1.58619724E-05
 -3.49546220E-06  0.00000000E+00  0.00000000E+00 -4.34182222E-06 -1.18602473E-05
  0.00000000E+00 -3.34806240E-05  4.58143918E-05  0.00000000E+00  0.00000000E+00
  8.42191308E-05  8.94868240E-05  4.28855878E-05 -9.88451641E-04 -4.79998676E-04
 -1.00580852E-05 -2.03506697E-05  1.52982123E-05  0.00000000E+00  2.91093366E-06
  2.77317873E-04  0.00000000E+00 -3.58139678E-05  1.32511965E-04  0.00000000E+00
  2.76974115E-05  0.00000000E+00  0.00000000E+00  1.08575370E-05  8.93603366E-06
 -2.52354157E-05  0.00000000E+00  0.00000000E+00  8.82742824E-06  3.01136588E-05
  1.15934662E-04  8.40871843E-05 -2.73466566E-05  7.53108287E-04  6.40512604E-04
  1.05589354E-05  2.42505451E-06  0.00000000E+00 -7.50536486E-05  1.81182035E-05
  0.00000000E+00  2.90954928E-04  8.94188951E-04  0.00000000E+00 -2.48733116E-06
  7.64459614E-05  0.00000000E+00 -2.41396914E-06  0.00000000E+00  0.00000000E+00
  1.10434986E-07 -5.44286685E-06 -3.54223420E-05  0.00000000E+00  0.00000000E+00
 -2.37263410E-05  7.66248994E-05 -2.36866596E-05  0.00000000E+00  0.00000000E+00
 -2.61175528E-04 -1.80227507E-04  0.00000000E+00  8.89952825E-06  5.92590318E-06
  0.00000000E+00  0.00000000E+00  2.96069467E-06 -1.92602421E-05  0.00000000E+00
 -3.77710694E-05 -3.78493352E-05  0.00000000E+00  0.00000000E+00 -7.06896176E-05
  1.77623777E-05  2.69370129E-03  3.90371591E-05  9.48056550E-05 -9.52319733E-05
 -4.56109446E-04  7.27094667E-06  1.58739116E-05  0.00000000E+00 -6.21231492E-05
 -5.70533706E-05  0.00000000E+00  2.32358538E-04 -1.74357033E-04  0.00000000E+00
 -1.82830559E-04 -6.20372185E-05  0.00000000E+00 -8.85773205E-06  0.00000000E+00
  0.00000000E+00  2.20711231E-05  1.99218083E-05  5.13536086E-06  0.00000000E+00
  0.00000000E+00 -1.15390879E-04 -4.78874696E-05 -8.63492854E-06  0.00000000E+00
  0.00000000E+00 -2.19329614E-04 -1.96944180E-04  0.00000000E+00  3.52668113E-06
 -1.37261221E-07  0.00000000E+00  0.00000000E+00  2.10271712E-06 -1.40856033E-05
  0.00000000E+00 -4.80000789E-05  1.50925315E-06  0.00000000E+00  0.00000000E+00
 -7.74462450E-05  1.89391738E-04  2.58631520E-04  1.46462032E-03 -7.82571352E-05
 -1.54146478E-03  3.86949635E-04 -1.44576542E-04 -4.08630589E-07  0.00000000E+00
 -2.08719105E-03 -4.04988869E-04  0.00000000E+00  1.05408043E-03  7.77182333E-04
  0.00000000E+00 -1.70930017E-04  5.36164716E-05  0.00000000E+00 -1.23313890E-04
  0.00000000E+00  0.00000000E+00  2.42808398E-04  9.48484371E-05 -4.42755869E-04
  0.00000000E+00  0.00000000E+00  8.96991231E-04 -6.36511206E-05  1.15646485E-05
  0.00000000E+00  0.00000000E+00 -3.42978681E-04 -1.22899321E-04  0.00000000E+00
 -1.44314925E-06  1.50257617E-05  0.00000000E+00  0.00000000E+00  1.89858197E-05
  1.33647096E-05  0.00000000E+00  1.65111447E-04 -7.16364357E-05  0.00000000E+00
  0.00000000E+00 -2.40418543E-04  4.08125588E-05  9.76648806E-01 -9.84868404E-03
  4.35683051E-02  4.51632253E-03 -4.36413445E-04  2.14693847E-03  4.82783649E-04
  0.00000000E+00 -2.38178359E-03 -6.05691716E-04  0.00000000E+00  1.14474791E-03
 -5.54862760E-06  0.00000000E+00  6.02385812E-06 -4.11268180E-05  0.00000000E+00
 -2.32480552E-04  0.00000000E+00  0.00000000E+00  1.02521571E-04  3.23250958E-05
  3.90148780E-04  0.00000000E+00  0.00000000E+00 -8.32263437E-04 -4.21229094E-04
 -1.52476307E-04  0.00000000E+00  0.00000000E+00  2.57843728E-04  1.58560666E-05
  0.00000000E+00  5.21152645E-05  1.77678139E-05  0.00000000E+00  0.00000000E+00
 -2.20017403E-05 -1.33192592E-05  0.00000000E+00  1.38615312E-04  9.55261608E-06
  0.00000000E+00  0.00000000E+00 -1.88716237E-04 -1.41482435E-04  4.70349105E-04
  1.93959660E-03  9.25965462E-05  1.83894480E-05 -3.78723314E-05 -2.49255352E-04
  0.00000000E+00  1.49730848E-04 -1.24742689E-03  0.00000000E+00  3.49519395E-04
 -3.32469372E-04  0.00000000E+00 -4.51578059E-06  0.00000000E+00  0.00000000E+00
  7.44585220E-05  2.76614622E-05 -1.70190136E-04  0.00000000E+00  0.00000000E+00
 -5.33539608E-04 -5.60857968E-05  9.76830551E-01 -9.17549702E-03  4.34428800E-02
  2.92701590E-04 -1.20479440E-03 -1.58512001E-03  1.41786705E-03  0.00000000E+00
  1.60231979E-03 -1.27234928E-03  0.00000000E+00 -5.35501247E-04 -7.63278326E-04
  0.00000000E+00  5.44027149E-05 -5.69757316E-05  0.00000000E+00  3.23168534E-05
  0.00000000E+00  0.00000000E+00 -1.17947596E-04 -1.35669430E-05  7.48648003E-04
  0.00000000E+00  0.00000000E+00 -1.96556034E-04 -1.97835704E-04 -2.69467504E-04
  0.00000000E+00  0.00000000E+00  1.42227209E-04  1.08463556E-04  0.00000000E+00
 -6.42585718E-05  2.86137880E-06  0.00000000E+00  0.00000000E+00  1.72734637E-05