 Entering Gaussian System, Link 0=g16
 Input=hoono_d1_167p5891.gjf
 Output=hoono_d1_167p5891.log
 Initial command:
 /sw/contrib/gaussian/g16/B01/g16/l1.exe "/scr/Gau-28758.inp" -scrdir="/scr/"
 Entering Link 1 = /sw/contrib/gaussian/g16/B01/g16/l1.exe PID=     28759.
  
 Copyright (c) 1988-2017, Gaussian, Inc.  All Rights Reserved.
  
 This is part of the Gaussian(R) 16 program.  It is based on
 the Gaussian(R) 09 system (copyright 2009, Gaussian, Inc.),
 the Gaussian(R) 03 system (copyright 2003, Gaussian, Inc.),
 the Gaussian(R) 98 system (copyright 1998, Gaussian, Inc.),
 the Gaussian(R) 94 system (copyright 1995, Gaussian, Inc.),
 the Gaussian 92(TM) system (copyright 1992, Gaussian, Inc.),
 the Gaussian 90(TM) system (copyright 1990, Gaussian, Inc.),
 the Gaussian 88(TM) system (copyright 1988, Gaussian, Inc.),
 the Gaussian 86(TM) system (copyright 1986, Carnegie Mellon
 University), and the Gaussian 82(TM) system (copyright 1983,
 Carnegie Mellon University). Gaussian is a federally registered
 trademark of Gaussian, Inc.
  
 This software contains proprietary and confidential information,
 including trade secrets, belonging to Gaussian, Inc.
  
 This software is provided under written license and may be
 used, copied, transmitted, or stored only in accord with that
 written license.
  
 The following legend is applicable only to US Government
 contracts under FAR:
  
                    RESTRICTED RIGHTS LEGEND
  
 Use, reproduction and disclosure by the US Government is
 subject to restrictions as set forth in subparagraphs (a)
 and (c) of the Commercial Computer Software - Restricted
 Rights clause in FAR 52.227-19.
  
 Gaussian, Inc.
 340 Quinnipiac St., Bldg. 40, Wallingford CT 06492
  
  
 ---------------------------------------------------------------
 Warning -- This program may not be used in any manner that
 competes with the business of Gaussian, Inc. or will provide
 assistance to any competitor of Gaussian, Inc.  The licensee
 of this program is prohibited from giving any competitor of
 Gaussian, Inc. access to this program.  By using this program,
 the user acknowledges that Gaussian, Inc. is engaged in the
 business of creating and licensing software in the field of
 computational chemistry and represents and warrants to the
 licensee that it is not a competitor of Gaussian, Inc. and that
 it will not use this program in any manner prohibited above.
 ---------------------------------------------------------------
  

 Cite this work as:
 Gaussian 16, Revision B.01,
 M. J. Frisch, G. W. Trucks, H. B. Schlegel, G. E. Scuseria, 
 M. A. Robb, J. R. Cheeseman, G. Scalmani, V. Barone, 
 G. A. Petersson, H. Nakatsuji, X. Li, M. Caricato, A. V. Marenich, 
 J. Bloino, B. G. Janesko, R. Gomperts, B. Mennucci, H. P. Hratchian, 
 J. V. Ortiz, A. F. Izmaylov, J. L. Sonnenberg, D. Williams-Young, 
 F. Ding, F. Lipparini, F. Egidi, J. Goings, B. Peng, A. Petrone, 
 T. Henderson, D. Ranasinghe, V. G. Zakrzewski, J. Gao, N. Rega, 
 G. Zheng, W. Liang, M. Hada, M. Ehara, K. Toyota, R. Fukuda, 
 J. Hasegawa, M. Ishida, T. Nakajima, Y. Honda, O. Kitao, H. Nakai, 
 T. Vreven, K. Throssell, J. A. Montgomery, Jr., J. E. Peralta, 
 F. Ogliaro, M. J. Bearpark, J. J. Heyd, E. N. Brothers, K. N. Kudin, 
 V. N. Staroverov, T. A. Keith, R. Kobayashi, J. Normand, 
 K. Raghavachari, A. P. Rendell, J. C. Burant, S. S. Iyengar, 
 J. Tomasi, M. Cossi, J. M. Millam, M. Klene, C. Adamo, R. Cammi, 
 J. W. Ochterski, R. L. Martin, K. Morokuma, O. Farkas, 
 J. B. Foresman, and D. J. Fox, Gaussian, Inc., Wallingford CT, 2016.
 
 ******************************************
 Gaussian 16:  ES64L-G16RevB.01 20-Dec-2017
                21-Feb-2022 
 ******************************************
 %nproc=28
 Will use up to   28 processors via shared memory.
 %mem=120GB
 %chk=hoono_d1_167p5891.chk
 ---------------------------------------
 #p freq mp2/aug-cc-pvtz density=current
 ---------------------------------------
 1/10=4,30=1,38=1/1,3;
 2/12=2,17=6,18=5,40=1/2;
 3/5=16,6=1,7=10,11=9,25=1,30=1,71=2,140=1/1,2,3;
 4//1;
 5/5=2,38=5,98=1/2;
 8/6=3,8=1,10=1,19=11,30=-1/1;
 9/15=3,16=-3/6;
 11/6=1,8=1,15=11,17=12,24=-1,27=1,28=-2,29=300,32=6,42=3/1,2,10;
 10/6=2,21=1/2;
 8/6=4,8=1,10=1,19=11,30=-1/11,4;
 10/5=1,20=4/2;
 11/12=2,14=11,16=1,17=2,28=-2,42=3,76=2/2,10,12;
 6/7=2,8=2,9=2,10=2,22=-1/1;
 7/8=1,10=1,12=2,25=1,44=2/1,2,3,16;
 1/10=4,30=1/3;
 99//99;
 Leave Link    1 at Mon Feb 21 21:04:40 2022, MaxMem= 16106127360 cpu:               4.3 elap:               0.2
 (Enter /sw/contrib/gaussian/g16/B01/g16/l101.exe)
 -----
 title
 -----
 Symbolic Z-matrix:
 Charge =  0 Multiplicity = 1
 H
 O                    1    r1
 O                    2    r2       1    a1
 N                    3    r3       2    a2       1    d1       0
 O                    4    r4       3    a3       2    d2       0
       Variables:
  r1                    0.96898                  
  r2                    1.45492                  
  r3                    1.45878                  
  r4                    1.17073                  
  a1                   97.59495                  
  a2                  102.29752                  
  a3                  109.06955                  
  d1                  167.58917                  
  d2                  180.                       
 
 ITRead=  0  0  0  0  0
 MicOpt= -1 -1 -1 -1 -1
 NAtoms=      5 NQM=        5 NQMF=       0 NMMI=      0 NMMIF=      0
                NMic=       0 NMicF=      0.
                    Isotopes and Nuclear Properties:
 (Nuclear quadrupole moments (NQMom) in fm**2, nuclear magnetic moments (NMagM)
  in nuclear magnetons)

  Atom         1           2           3           4           5
 IAtWgt=           1          16          16          14          16
 AtmWgt=   1.0078250  15.9949146  15.9949146  14.0030740  15.9949146
 NucSpn=           1           0           0           2           0
 AtZEff=  -0.0000000  -0.0000000  -0.0000000  -0.0000000  -0.0000000
 NQMom=    0.0000000   0.0000000   0.0000000   2.0440000   0.0000000
 NMagM=    2.7928460   0.0000000   0.0000000   0.4037610   0.0000000
 AtZNuc=   1.0000000   8.0000000   8.0000000   7.0000000   8.0000000
 Leave Link  101 at Mon Feb 21 21:04:41 2022, MaxMem= 16106127360 cpu:               2.5 elap:               0.1
 (Enter /sw/contrib/gaussian/g16/B01/g16/l103.exe)

 GradGradGradGradGradGradGradGradGradGradGradGradGradGradGradGradGradGrad
 Berny optimization.
 Initialization pass.
                       ----------------------------
                       !    Initial Parameters    !
                       ! (Angstroms and Degrees)  !
 ----------------------                            ----------------------
 !      Name          Value   Derivative information (Atomic Units)     !
 ------------------------------------------------------------------------
 !       r1          0.969    calculate D2E/DX2 analytically            !
 !       r2          1.4549   calculate D2E/DX2 analytically            !
 !       r3          1.4588   calculate D2E/DX2 analytically            !
 !       r4          1.1707   calculate D2E/DX2 analytically            !
 !       a1         97.5949   calculate D2E/DX2 analytically            !
 !       a2        102.2975   calculate D2E/DX2 analytically            !
 !       a3        109.0696   calculate D2E/DX2 analytically            !
 !       d1        167.5892   calculate D2E/DX2 analytically            !
 !       d2        180.0      calculate D2E/DX2 analytically            !
 ------------------------------------------------------------------------
 Trust Radius=3.00D-01 FncErr=1.00D-07 GrdErr=1.00D-07 EigMax=2.50D+02 EigMin=1.00D-04
 Number of steps in this run=      2 maximum allowed number of steps=      2.
 GradGradGradGradGradGradGradGradGradGradGradGradGradGradGradGradGradGrad

 Leave Link  103 at Mon Feb 21 21:04:41 2022, MaxMem= 16106127360 cpu:               0.6 elap:               0.0
 (Enter /sw/contrib/gaussian/g16/B01/g16/l202.exe)
                          Input orientation:                          
 ---------------------------------------------------------------------
 Center     Atomic      Atomic             Coordinates (Angstroms)
 Number     Number       Type             X           Y           Z
 ---------------------------------------------------------------------
      1          1           0        0.000000    0.000000    0.000000
      2          8           0        0.000000    0.000000    0.968976
      3          8           0        1.442156    0.000000    1.161271
      4          7           0        1.566154    0.306328    2.582129
      5          8           0        2.700696    0.335998    2.869426
 ---------------------------------------------------------------------
                    Distance matrix (angstroms):
                    1          2          3          4          5
     1  H    0.000000
     2  O    0.968976   0.000000
     3  O    1.851584   1.454919   0.000000
     4  N    3.035468   2.269127   1.458784   0.000000
     5  O    3.954777   3.319392   2.148165   1.170729   0.000000
 Stoichiometry    HNO3
 Framework group  C1[X(HNO3)]
 Deg. of freedom     9
 Full point group                 C1      NOp   1
 Largest Abelian subgroup         C1      NOp   1
 Largest concise Abelian subgroup C1      NOp   1
                         Standard orientation:                         
 ---------------------------------------------------------------------
 Center     Atomic      Atomic             Coordinates (Angstroms)
 Number     Number       Type             X           Y           Z
 ---------------------------------------------------------------------
      1          1           0       -2.237816    0.422219    0.172626
      2          8           0       -1.599399   -0.282105   -0.015165
      3          8           0       -0.400160    0.541662   -0.020024
      4          7           0        0.662864   -0.456964    0.007837
      5          8           0        1.699279    0.087509    0.006753
 ---------------------------------------------------------------------
 Rotational constants (GHZ):          54.8186792           5.0119278           4.5953504
 Leave Link  202 at Mon Feb 21 21:04:41 2022, MaxMem= 16106127360 cpu:               0.4 elap:               0.0
 (Enter /sw/contrib/gaussian/g16/B01/g16/l301.exe)
 Standard basis: Aug-CC-pVTZ (5D, 7F)
 Ernie: Thresh=  0.10000D-02 Tol=  0.10000D-05 Strict=F.
 Ernie:  12 primitive shells out of 131 were deleted.
 There are   245 symmetry adapted cartesian basis functions of A   symmetry.
 There are   207 symmetry adapted basis functions of A   symmetry.
   207 basis functions,   315 primitive gaussians,   245 cartesian basis functions
    16 alpha electrons       16 beta electrons
       nuclear repulsion energy       116.8786200076 Hartrees.
 IExCor=    0 DFT=F Ex=HF Corr=None ExCW=0 ScaHFX=  1.000000
 ScaDFX=  1.000000  1.000000  1.000000  1.000000 ScalE2=  1.000000  1.000000
 IRadAn=      5 IRanWt=     -1 IRanGd=            0 ICorTp=0 IEmpDi=  4
 NAtoms=    5 NActive=    5 NUniq=    5 SFac= 1.00D+00 NAtFMM=   60 NAOKFM=F Big=F
 Integral buffers will be    131072 words long.
 Raffenetti 1 integral format.
 Two-electron integral symmetry is turned on.
 Leave Link  301 at Mon Feb 21 21:04:41 2022, MaxMem= 16106127360 cpu:               1.7 elap:               0.1
 (Enter /sw/contrib/gaussian/g16/B01/g16/l302.exe)
 NPDir=0 NMtPBC=     1 NCelOv=     1 NCel=       1 NClECP=     1 NCelD=      1
         NCelK=      1 NCelE2=     1 NClLst=     1 CellRange=     0.0.
 One-electron integrals computed using PRISM.
 One-electron integral symmetry used in STVInt
 NBasis=   207 RedAO= T EigKep=  1.83D-04  NBF=   207
 NBsUse=   207 1.00D-06 EigRej= -1.00D+00 NBFU=   207
 Leave Link  302 at Mon Feb 21 21:04:41 2022, MaxMem= 16106127360 cpu:               4.7 elap:               0.2
 (Enter /sw/contrib/gaussian/g16/B01/g16/l303.exe)
 DipDrv:  MaxL=1.
 Leave Link  303 at Mon Feb 21 21:04:41 2022, MaxMem= 16106127360 cpu:               0.8 elap:               0.1
 (Enter /sw/contrib/gaussian/g16/B01/g16/l401.exe)
 ExpMin= 2.53D-02 ExpMax= 1.53D+04 ExpMxC= 5.22D+02 IAcc=3 IRadAn=         5 AccDes= 0.00D+00
 Harris functional with IExCor=  205 and IRadAn=       5 diagonalized for initial guess.
 HarFok:  IExCor=  205 AccDes= 0.00D+00 IRadAn=         5 IDoV= 1 UseB2=F ITyADJ=14
 ICtDFT=  3500011 ScaDFX=  1.000000  1.000000  1.000000  1.000000
 FoFCou: FMM=F IPFlag=           0 FMFlag=      100000 FMFlg1=           0
         NFxFlg=           0 DoJE=T BraDBF=F KetDBF=T FulRan=T
         wScrn=  0.000000 ICntrl=       500 IOpCl=  0 I1Cent=   200000004 NGrid=           0
         NMat0=    1 NMatS0=      1 NMatT0=    0 NMatD0=    1 NMtDS0=    0 NMtDT0=    0
 Petite list used in FoFCou.
 Harris En= -279.628780828514    
 JPrj=0 DoOrth=F DoCkMO=F.
 Leave Link  401 at Mon Feb 21 21:04:41 2022, MaxMem= 16106127360 cpu:               7.1 elap:               0.3
 (Enter /sw/contrib/gaussian/g16/B01/g16/l502.exe)
 Keep R1 ints in memory in canonical form, NReq=245616981.
 FoFCou: FMM=F IPFlag=           0 FMFlag=           0 FMFlg1=           0
         NFxFlg=           0 DoJE=F BraDBF=F KetDBF=F FulRan=T
         wScrn=  0.000000 ICntrl=       600 IOpCl=  0 I1Cent=           0 NGrid=           0
         NMat0=    1 NMatS0=  21528 NMatT0=    0 NMatD0=    1 NMtDS0=    0 NMtDT0=    0
 Symmetry not used in FoFCou.
 Two-electron integral symmetry not used.
 Closed shell SCF:
 Using DIIS extrapolation, IDIIS=  1040.
 NGot= 16106127360 LenX= 15874260251 LenY= 15874199785
 Requested convergence on RMS density matrix=1.00D-08 within 128 cycles.
 Requested convergence on MAX density matrix=1.00D-06.
 Requested convergence on             energy=1.00D-06.
 No special actions if energy rises.

 Cycle   1  Pass 1  IDiag  1:
 E= -279.370653756588    
 DIIS: error= 2.28D-02 at cycle   1 NSaved=   1.
 NSaved= 1 IEnMin= 1 EnMin= -279.370653756588     IErMin= 1 ErrMin= 2.28D-02
 ErrMax= 2.28D-02  0.00D+00 EMaxC= 1.00D-01 BMatC= 4.38D-01 BMatP= 4.38D-01
 IDIUse=3 WtCom= 7.72D-01 WtEn= 2.28D-01
 Coeff-Com:  0.100D+01
 Coeff-En:   0.100D+01
 Coeff:      0.100D+01
 Gap=     0.517 Goal=   None    Shift=    0.000
 GapD=    0.517 DampG=2.000 DampE=0.500 DampFc=1.0000 IDamp=-1.
 RMSDP=1.62D-03 MaxDP=9.91D-02              OVMax= 1.12D-01

 Cycle   2  Pass 1  IDiag  1:
 E= -279.452577894750     Delta-E=       -0.081924138163 Rises=F Damp=F
 DIIS: error= 1.69D-02 at cycle   2 NSaved=   2.
 NSaved= 2 IEnMin= 2 EnMin= -279.452577894750     IErMin= 2 ErrMin= 1.69D-02
 ErrMax= 1.69D-02  0.00D+00 EMaxC= 1.00D-01 BMatC= 7.18D-02 BMatP= 4.38D-01
 IDIUse=3 WtCom= 8.31D-01 WtEn= 1.69D-01
 Coeff-Com:  0.195D+00 0.805D+00
 Coeff-En:   0.000D+00 0.100D+01
 Coeff:      0.162D+00 0.838D+00
 Gap=     0.531 Goal=   None    Shift=    0.000
 RMSDP=8.99D-04 MaxDP=3.72D-02 DE=-8.19D-02 OVMax= 6.63D-02

 Cycle   3  Pass 1  IDiag  1:
 E= -279.481873007721     Delta-E=       -0.029295112970 Rises=F Damp=F
 DIIS: error= 9.73D-03 at cycle   3 NSaved=   3.
 NSaved= 3 IEnMin= 3 EnMin= -279.481873007721     IErMin= 3 ErrMin= 9.73D-03
 ErrMax= 9.73D-03  0.00D+00 EMaxC= 1.00D-01 BMatC= 2.84D-02 BMatP= 7.18D-02
 IDIUse=3 WtCom= 9.03D-01 WtEn= 9.73D-02
 Coeff-Com: -0.330D-01 0.377D+00 0.656D+00
 Coeff-En:   0.000D+00 0.238D+00 0.762D+00
 Coeff:     -0.298D-01 0.363D+00 0.666D+00
 Gap=     0.509 Goal=   None    Shift=    0.000
 RMSDP=3.74D-04 MaxDP=1.54D-02 DE=-2.93D-02 OVMax= 3.77D-02

 Cycle   4  Pass 1  IDiag  1:
 E= -279.500755292588     Delta-E=       -0.018882284868 Rises=F Damp=F
 DIIS: error= 1.22D-03 at cycle   4 NSaved=   4.
 NSaved= 4 IEnMin= 4 EnMin= -279.500755292588     IErMin= 4 ErrMin= 1.22D-03
 ErrMax= 1.22D-03  0.00D+00 EMaxC= 1.00D-01 BMatC= 4.85D-04 BMatP= 2.84D-02
 IDIUse=3 WtCom= 9.88D-01 WtEn= 1.22D-02
 Coeff-Com: -0.117D-01 0.576D-01 0.158D+00 0.796D+00
 Coeff-En:   0.000D+00 0.000D+00 0.000D+00 0.100D+01
 Coeff:     -0.115D-01 0.569D-01 0.156D+00 0.799D+00
 Gap=     0.501 Goal=   None    Shift=    0.000
 RMSDP=8.99D-05 MaxDP=2.18D-03 DE=-1.89D-02 OVMax= 1.07D-02

 Cycle   5  Pass 1  IDiag  1:
 E= -279.501423517672     Delta-E=       -0.000668225083 Rises=F Damp=F
 DIIS: error= 6.92D-04 at cycle   5 NSaved=   5.
 NSaved= 5 IEnMin= 5 EnMin= -279.501423517672     IErMin= 5 ErrMin= 6.92D-04
 ErrMax= 6.92D-04  0.00D+00 EMaxC= 1.00D-01 BMatC= 8.68D-05 BMatP= 4.85D-04
 IDIUse=3 WtCom= 9.93D-01 WtEn= 6.92D-03
 Coeff-Com:  0.612D-02-0.721D-01-0.118D+00 0.202D-01 0.116D+01
 Coeff-En:   0.000D+00 0.000D+00 0.000D+00 0.000D+00 0.100D+01
 Coeff:      0.608D-02-0.716D-01-0.117D+00 0.201D-01 0.116D+01
 Gap=     0.501 Goal=   None    Shift=    0.000
 RMSDP=7.60D-05 MaxDP=2.09D-03 DE=-6.68D-04 OVMax= 1.09D-02

 Cycle   6  Pass 1  IDiag  1:
 E= -279.501736572815     Delta-E=       -0.000313055143 Rises=F Damp=F
 DIIS: error= 2.80D-04 at cycle   6 NSaved=   6.
 NSaved= 6 IEnMin= 6 EnMin= -279.501736572815     IErMin= 6 ErrMin= 2.80D-04
 ErrMax= 2.80D-04  0.00D+00 EMaxC= 1.00D-01 BMatC= 1.66D-05 BMatP= 8.68D-05
 IDIUse=3 WtCom= 9.97D-01 WtEn= 2.80D-03
 Coeff-Com:  0.596D-03 0.151D-02 0.459D-02-0.130D+00-0.230D+00 0.135D+01
 Coeff-En:   0.000D+00 0.000D+00 0.000D+00 0.000D+00 0.000D+00 0.100D+01
 Coeff:      0.595D-03 0.150D-02 0.457D-02-0.129D+00-0.229D+00 0.135D+01
 Gap=     0.501 Goal=   None    Shift=    0.000
 RMSDP=4.51D-05 MaxDP=1.05D-03 DE=-3.13D-04 OVMax= 5.50D-03

 Cycle   7  Pass 1  IDiag  1:
 E= -279.501808675503     Delta-E=       -0.000072102688 Rises=F Damp=F
 DIIS: error= 9.71D-05 at cycle   7 NSaved=   7.
 NSaved= 7 IEnMin= 7 EnMin= -279.501808675503     IErMin= 7 ErrMin= 9.71D-05
 ErrMax= 9.71D-05  0.00D+00 EMaxC= 1.00D-01 BMatC= 4.49D-06 BMatP= 1.66D-05
 IDIUse=1 WtCom= 1.00D+00 WtEn= 0.00D+00
 Coeff-Com: -0.935D-03 0.134D-01 0.265D-01-0.241D-01-0.286D+00 0.389D+00
 Coeff-Com:  0.882D+00
 Coeff:     -0.935D-03 0.134D-01 0.265D-01-0.241D-01-0.286D+00 0.389D+00
 Coeff:      0.882D+00
 Gap=     0.501 Goal=   None    Shift=    0.000
 RMSDP=1.32D-05 MaxDP=3.77D-04 DE=-7.21D-05 OVMax= 1.54D-03

 Cycle   8  Pass 1  IDiag  1:
 E= -279.501817524648     Delta-E=       -0.000008849144 Rises=F Damp=F
 DIIS: error= 4.73D-05 at cycle   8 NSaved=   8.
 NSaved= 8 IEnMin= 8 EnMin= -279.501817524648     IErMin= 8 ErrMin= 4.73D-05
 ErrMax= 4.73D-05  0.00D+00 EMaxC= 1.00D-01 BMatC= 6.05D-07 BMatP= 4.49D-06
 IDIUse=1 WtCom= 1.00D+00 WtEn= 0.00D+00
 Coeff-Com: -0.449D-03 0.345D-02 0.761D-02 0.274D-01-0.411D-01-0.197D+00
 Coeff-Com:  0.172D+00 0.103D+01
 Coeff:     -0.449D-03 0.345D-02 0.761D-02 0.274D-01-0.411D-01-0.197D+00
 Coeff:      0.172D+00 0.103D+01
 Gap=     0.501 Goal=   None    Shift=    0.000
 RMSDP=6.89D-06 MaxDP=2.02D-04 DE=-8.85D-06 OVMax= 7.46D-04

 Cycle   9  Pass 1  IDiag  1:
 E= -279.501819293901     Delta-E=       -0.000001769254 Rises=F Damp=F
 DIIS: error= 1.54D-05 at cycle   9 NSaved=   9.
 NSaved= 9 IEnMin= 9 EnMin= -279.501819293901     IErMin= 9 ErrMin= 1.54D-05
 ErrMax= 1.54D-05  0.00D+00 EMaxC= 1.00D-01 BMatC= 6.91D-08 BMatP= 6.05D-07
 IDIUse=1 WtCom= 1.00D+00 WtEn= 0.00D+00
 Coeff-Com:  0.123D-03-0.172D-02-0.308D-02-0.204D-02 0.342D-01-0.349D-04
 Coeff-Com: -0.167D+00-0.102D+00 0.124D+01
 Coeff:      0.123D-03-0.172D-02-0.308D-02-0.204D-02 0.342D-01-0.349D-04
 Coeff:     -0.167D+00-0.102D+00 0.124D+01
 Gap=     0.501 Goal=   None    Shift=    0.000
 RMSDP=1.94D-06 MaxDP=5.16D-05 DE=-1.77D-06 OVMax= 1.70D-04

 Cycle  10  Pass 1  IDiag  1:
 E= -279.501819454227     Delta-E=       -0.000000160326 Rises=F Damp=F
 DIIS: error= 3.91D-06 at cycle  10 NSaved=  10.
 NSaved=10 IEnMin=10 EnMin= -279.501819454227     IErMin=10 ErrMin= 3.91D-06
 ErrMax= 3.91D-06  0.00D+00 EMaxC= 1.00D-01 BMatC= 5.56D-09 BMatP= 6.91D-08
 IDIUse=1 WtCom= 1.00D+00 WtEn= 0.00D+00
 Coeff-Com:  0.310D-04-0.243D-03-0.324D-03-0.270D-02 0.165D-02 0.196D-01
 Coeff-Com: -0.130D-01-0.745D-01-0.810D-01 0.115D+01
 Coeff:      0.310D-04-0.243D-03-0.324D-03-0.270D-02 0.165D-02 0.196D-01
 Coeff:     -0.130D-01-0.745D-01-0.810D-01 0.115D+01
 Gap=     0.501 Goal=   None    Shift=    0.000
 RMSDP=5.09D-07 MaxDP=2.10D-05 DE=-1.60D-07 OVMax= 4.05D-05

 Cycle  11  Pass 1  IDiag  1:
 E= -279.501819466982     Delta-E=       -0.000000012755 Rises=F Damp=F
 DIIS: error= 1.77D-06 at cycle  11 NSaved=  11.
 NSaved=11 IEnMin=11 EnMin= -279.501819466982     IErMin=11 ErrMin= 1.77D-06
 ErrMax= 1.77D-06  0.00D+00 EMaxC= 1.00D-01 BMatC= 6.77D-10 BMatP= 5.56D-09
 IDIUse=1 WtCom= 1.00D+00 WtEn= 0.00D+00
 Coeff-Com: -0.215D-04 0.246D-03 0.492D-03 0.543D-03-0.432D-02-0.366D-02
 Coeff-Com:  0.213D-01 0.314D-01-0.139D+00-0.183D+00 0.128D+01
 Coeff:     -0.215D-04 0.246D-03 0.492D-03 0.543D-03-0.432D-02-0.366D-02
 Coeff:      0.213D-01 0.314D-01-0.139D+00-0.183D+00 0.128D+01
 Gap=     0.501 Goal=   None    Shift=    0.000
 RMSDP=1.85D-07 MaxDP=6.50D-06 DE=-1.28D-08 OVMax= 1.66D-05

 Cycle  12  Pass 1  IDiag  1:
 E= -279.501819468921     Delta-E=       -0.000000001939 Rises=F Damp=F
 DIIS: error= 5.38D-07 at cycle  12 NSaved=  12.
 NSaved=12 IEnMin=12 EnMin= -279.501819468921     IErMin=12 ErrMin= 5.38D-07
 ErrMax= 5.38D-07  0.00D+00 EMaxC= 1.00D-01 BMatC= 7.96D-11 BMatP= 6.77D-10
 IDIUse=1 WtCom= 1.00D+00 WtEn= 0.00D+00
 Coeff-Com:  0.142D-05-0.314D-04-0.687D-04 0.185D-03 0.113D-02-0.232D-02
 Coeff-Com: -0.435D-02 0.533D-02 0.438D-01-0.115D+00-0.296D+00 0.137D+01
 Coeff:      0.142D-05-0.314D-04-0.687D-04 0.185D-03 0.113D-02-0.232D-02
 Coeff:     -0.435D-02 0.533D-02 0.438D-01-0.115D+00-0.296D+00 0.137D+01
 Gap=     0.501 Goal=   None    Shift=    0.000
 RMSDP=8.09D-08 MaxDP=2.83D-06 DE=-1.94D-09 OVMax= 8.87D-06

 Cycle  13  Pass 1  IDiag  1:
 E= -279.501819469212     Delta-E=       -0.000000000291 Rises=F Damp=F
 DIIS: error= 1.80D-07 at cycle  13 NSaved=  13.
 NSaved=13 IEnMin=13 EnMin= -279.501819469212     IErMin=13 ErrMin= 1.80D-07
 ErrMax= 1.80D-07  0.00D+00 EMaxC= 1.00D-01 BMatC= 7.14D-12 BMatP= 7.96D-11
 IDIUse=1 WtCom= 1.00D+00 WtEn= 0.00D+00
 Coeff-Com:  0.141D-05-0.147D-04-0.235D-04-0.106D-03 0.977D-04 0.945D-03
 Coeff-Com: -0.787D-03-0.394D-02-0.810D-03 0.506D-01-0.306D-01-0.406D+00
 Coeff-Com:  0.139D+01
 Coeff:      0.141D-05-0.147D-04-0.235D-04-0.106D-03 0.977D-04 0.945D-03
 Coeff:     -0.787D-03-0.394D-02-0.810D-03 0.506D-01-0.306D-01-0.406D+00
 Coeff:      0.139D+01
 Gap=     0.501 Goal=   None    Shift=    0.000
 RMSDP=2.94D-08 MaxDP=6.56D-07 DE=-2.91D-10 OVMax= 4.33D-06

 Cycle  14  Pass 1  IDiag  1:
 E= -279.501819469248     Delta-E=       -0.000000000036 Rises=F Damp=F
 DIIS: error= 1.12D-07 at cycle  14 NSaved=  14.
 NSaved=14 IEnMin=14 EnMin= -279.501819469248     IErMin=14 ErrMin= 1.12D-07
 ErrMax= 1.12D-07  0.00D+00 EMaxC= 1.00D-01 BMatC= 1.49D-12 BMatP= 7.14D-12
 IDIUse=1 WtCom= 1.00D+00 WtEn= 0.00D+00
 Coeff-Com: -0.609D-06 0.846D-05 0.145D-04 0.257D-04-0.167D-03-0.840D-04
 Coeff-Com:  0.699D-03 0.991D-03-0.430D-02-0.616D-02 0.377D-01 0.205D-01
 Coeff-Com: -0.558D+00 0.151D+01
 Coeff:     -0.609D-06 0.846D-05 0.145D-04 0.257D-04-0.167D-03-0.840D-04
 Coeff:      0.699D-03 0.991D-03-0.430D-02-0.616D-02 0.377D-01 0.205D-01
 Coeff:     -0.558D+00 0.151D+01
 Gap=     0.501 Goal=   None    Shift=    0.000
 RMSDP=1.52D-08 MaxDP=4.37D-07 DE=-3.56D-11 OVMax= 2.70D-06

 Cycle  15  Pass 1  IDiag  1:
 E= -279.501819469259     Delta-E=       -0.000000000011 Rises=F Damp=F
 DIIS: error= 6.92D-08 at cycle  15 NSaved=  15.
 NSaved=15 IEnMin=15 EnMin= -279.501819469259     IErMin=15 ErrMin= 6.92D-08
 ErrMax= 6.92D-08  0.00D+00 EMaxC= 1.00D-01 BMatC= 4.84D-13 BMatP= 1.49D-12
 IDIUse=1 WtCom= 1.00D+00 WtEn= 0.00D+00
 Coeff-Com:  0.958D-07-0.229D-05-0.564D-05 0.962D-05 0.109D-03-0.198D-03
 Coeff-Com: -0.311D-03 0.204D-03 0.369D-02-0.881D-02-0.213D-01 0.102D+00
 Coeff-Com:  0.311D-01-0.123D+01 0.212D+01
 Coeff:      0.958D-07-0.229D-05-0.564D-05 0.962D-05 0.109D-03-0.198D-03
 Coeff:     -0.311D-03 0.204D-03 0.369D-02-0.881D-02-0.213D-01 0.102D+00
 Coeff:      0.311D-01-0.123D+01 0.212D+01
 Gap=     0.501 Goal=   None    Shift=    0.000
 RMSDP=1.46D-08 MaxDP=4.33D-07 DE=-1.13D-11 OVMax= 2.66D-06

 Cycle  16  Pass 1  IDiag  1:
 E= -279.501819469264     Delta-E=       -0.000000000004 Rises=F Damp=F
 DIIS: error= 2.19D-08 at cycle  16 NSaved=  16.
 NSaved=16 IEnMin=16 EnMin= -279.501819469264     IErMin=16 ErrMin= 2.19D-08
 ErrMax= 2.19D-08  0.00D+00 EMaxC= 1.00D-01 BMatC= 5.61D-14 BMatP= 4.84D-13
 IDIUse=1 WtCom= 1.00D+00 WtEn= 0.00D+00
 Coeff-Com:  0.589D-07-0.722D-06-0.213D-06-0.942D-05-0.827D-05 0.822D-04
 Coeff-Com: -0.522D-06-0.270D-03-0.519D-03 0.407D-02 0.587D-03-0.428D-01
 Coeff-Com:  0.116D+00 0.100D+00-0.723D+00 0.155D+01
 Coeff:      0.589D-07-0.722D-06-0.213D-06-0.942D-05-0.827D-05 0.822D-04
 Coeff:     -0.522D-06-0.270D-03-0.519D-03 0.407D-02 0.587D-03-0.428D-01
 Coeff:      0.116D+00 0.100D+00-0.723D+00 0.155D+01
 Gap=     0.501 Goal=   None    Shift=    0.000
 RMSDP=5.06D-09 MaxDP=1.50D-07 DE=-4.43D-12 OVMax= 9.39D-07

 SCF Done:  E(RHF) =  -279.501819469     A.U. after   16 cycles
            NFock= 16  Conv=0.51D-08     -V/T= 2.0024
 KE= 2.788455864826D+02 PE=-8.950832675127D+02 EE= 2.198572415532D+02
 Leave Link  502 at Mon Feb 21 21:04:49 2022, MaxMem= 16106127360 cpu:              48.5 elap:               7.9
 (Enter /sw/contrib/gaussian/g16/B01/g16/l801.exe)
 ExpMin= 2.53D-02 ExpMax= 1.53D+04 ExpMxC= 5.22D+02 IAcc=3 IRadAn=         5 AccDes= 0.00D+00
 HarFok:  IExCor=  205 AccDes= 0.00D+00 IRadAn=         5 IDoV=-2 UseB2=F ITyADJ=14
 ICtDFT= 12500011 ScaDFX=  1.000000  1.000000  1.000000  1.000000
 DSYEVD-2 returned Info=          93 IAlg= 4 N=    46 NDim=    46 NE2=   350130240 trying  DSYEV.
 Largest valence mixing into a core orbital is  2.08D-04
 Largest core mixing into a valence orbital is  3.63D-05
 Range of M.O.s used for correlation:     5   207
 NBasis=   207 NAE=    16 NBE=    16 NFC=     4 NFV=     0
 NROrb=    203 NOA=    12 NOB=    12 NVA=   191 NVB=   191

 **** Warning!!: The largest alpha MO coefficient is  0.18034063D+02

 Leave Link  801 at Mon Feb 21 21:04:50 2022, MaxMem= 16106127360 cpu:               3.6 elap:               0.2
 (Enter /sw/contrib/gaussian/g16/B01/g16/l906.exe)
 Frozen-core derivative calculation, NFC=   4 NFV=   0.
 FulOut=F Deriv=T AODrv=T NAtomX=     5
   MMem=           0  MDisk=          12 MDiskD=          12
  W3Min=      811440 MinDsk=     2425030 NBas6D=         245
 NBas2D=       30762    NTT=       30135    LW2=     7400000
    MDV= 16105638402 MDiskM=      328645 NBas2p=       30702
 Disk-based method using ON**2 memory for 12 occupieds at a time.
 Permanent disk used for amplitudes=    11516536 words.
 Estimated scratch disk usage=   321251614 words.
 IMap=   1   2   3   4   5   6   7   8   9  10  11  12  13  14  15  16
 Actual    scratch disk usage=   310331678 words.
 JobTyp=1 Pass  1:  I=   5 to  16 NPSUse= 28 ParTrn=T ParDer=T DoDerP=T.
 (rs|ai) integrals will be sorted in core.
 Spin components of T(2) and E(2):
     alpha-alpha T2 =       0.3402760876D-01 E2=     -0.1224125092D+00
     alpha-beta  T2 =       0.1868598016D+00 E2=     -0.7002688721D+00
     beta-beta   T2 =       0.3402760876D-01 E2=     -0.1224125092D+00
 The integrals were generated   1 times.
 ANorm=    0.1120229896D+01
 E2 =    -0.9450938906D+00 EUMP2 =    -0.28044691335981D+03
 Leave Link  906 at Mon Feb 21 21:06:27 2022, MaxMem= 16106127360 cpu:            2737.8 elap:              97.9
 (Enter /sw/contrib/gaussian/g16/B01/g16/l1101.exe)
 Using compressed Sx but separate Hx and Fx, NAtomX=     5.
 Will process      6 centers per pass.
 Leave Link 1101 at Mon Feb 21 21:06:28 2022, MaxMem= 16106127360 cpu:               5.1 elap:               0.2
 (Enter /sw/contrib/gaussian/g16/B01/g16/l1102.exe)
 Leave Link 1102 at Mon Feb 21 21:06:28 2022, MaxMem= 16106127360 cpu:               0.6 elap:               0.0
 (Enter /sw/contrib/gaussian/g16/B01/g16/l1110.exe)
 Forming Gx(P) for the SCF density, NAtomX=     5.
 Integral derivatives from FoFJK, PRISM(SPDF).
 Do as many integral derivatives as possible in FoFJK.
 G2DrvN: MDV=   16106126844.
 G2DrvN: will do     6 centers at a time, making    1 passes.
 Calling FoFCou, ICntrl=  3107 FMM=F I1Cent=   0 AccDes= 0.00D+00.
 FoFJK:  IHMeth= 1 ICntrl=    3107 DoSepK=F KAlg= 0 I1Cent=           0 FoldK=F
 IRaf=         0 NMat=       1 IRICut=       1 DoRegI=T DoRafI=F ISym2E= 0 IDoP0=0 IntGTp=1.
 FoFCou: FMM=F IPFlag=           0 FMFlag=      100000 FMFlg1=           0
         NFxFlg=           0 DoJE=F BraDBF=F KetDBF=F FulRan=T
         wScrn=  0.000000 ICntrl=      3107 IOpCl=  0 I1Cent=           0 NGrid=           0
         NMat0=    1 NMatS0=      1 NMatT0=    0 NMatD0=    1 NMtDS0=    0 NMtDT0=    0
 Symmetry not used in FoFCou.
 End of G2Drv F.D. properties file   721 does not exist.
 End of G2Drv F.D. properties file   722 does not exist.
 End of G2Drv F.D. properties file   788 does not exist.
 Leave Link 1110 at Mon Feb 21 21:06:31 2022, MaxMem= 16106127360 cpu:              83.1 elap:               3.0
 (Enter /sw/contrib/gaussian/g16/B01/g16/l1002.exe)
 Minotr:  Closed shell wavefunction.
          IDoAtm=11111
          Frozen-core window.
          Direct CPHF calculation.
          Differentiating once with respect to electric field.
                with respect to dipole field.
          Differentiating once with respect to nuclear coordinates.
          Requested convergence is 1.0D-08 RMS, and 1.0D-07 maximum.
          Secondary convergence is 1.0D-12 RMS, and 1.0D-12 maximum.
          NewPWx=T KeepS1=T KeepF1=T KeepIn=T MapXYZ=F SortEE=F KeepMc=T.
 Keep R1 ints in memory in canonical form, NReq=245618222.
 FoFCou: FMM=F IPFlag=           0 FMFlag=           0 FMFlg1=           0
         NFxFlg=           0 DoJE=F BraDBF=F KetDBF=F FulRan=T
         wScrn=  0.000000 ICntrl=       600 IOpCl=  0 I1Cent=           0 NGrid=           0
         NMat0=    1 NMatS0=  21528 NMatT0=    0 NMatD0=    1 NMtDS0=    0 NMtDT0=    0
 Symmetry not used in FoFCou.
 Two-electron integral symmetry not used.
          MDV=   16106127360 using IRadAn=       1.
          Solving linear equations simultaneously, MaxMat=       0.
          There are    18 degrees of freedom in the 1st order CPHF.  IDoFFX=6 NUNeed=    18.
     15 vectors produced by pass  0 Test12= 1.70D-14 5.56D-09 XBig12= 9.50D+00 1.08D+00.
 AX will form    15 AO Fock derivatives at one time.
     15 vectors produced by pass  1 Test12= 1.70D-14 5.56D-09 XBig12= 1.17D+00 2.17D-01.
     15 vectors produced by pass  2 Test12= 1.70D-14 5.56D-09 XBig12= 1.25D-01 9.15D-02.
     15 vectors produced by pass  3 Test12= 1.70D-14 5.56D-09 XBig12= 4.11D-03 8.86D-03.
     15 vectors produced by pass  4 Test12= 1.70D-14 5.56D-09 XBig12= 7.51D-05 1.56D-03.
     15 vectors produced by pass  5 Test12= 1.70D-14 5.56D-09 XBig12= 1.04D-06 1.64D-04.
     15 vectors produced by pass  6 Test12= 1.70D-14 5.56D-09 XBig12= 1.02D-08 1.28D-05.
     12 vectors produced by pass  7 Test12= 1.70D-14 5.56D-09 XBig12= 8.27D-11 1.15D-06.
      3 vectors produced by pass  8 Test12= 1.70D-14 5.56D-09 XBig12= 7.27D-13 1.19D-07.
      2 vectors produced by pass  9 Test12= 1.70D-14 5.56D-09 XBig12= 4.87D-15 9.77D-09.
 InvSVY:  IOpt=1 It=  1 EMax= 1.55D-15
 Solved reduced A of dimension   122 with    15 vectors.
 FullF1:  Do perturbations      1 to      18.
 Saving first derivative matrices.
 End of Minotr F.D. properties file   721 does not exist.
 End of Minotr F.D. properties file   722 does not exist.
 End of Minotr F.D. properties file   788 does not exist.
 Leave Link 1002 at Mon Feb 21 21:06:34 2022, MaxMem= 16106127360 cpu:             100.5 elap:               3.6
 (Enter /sw/contrib/gaussian/g16/B01/g16/l811.exe)
 MDV= 16106127360.
 Form MO integral derivatives with frozen-active canonical formalism.
 MOERI=1 MOERIx=1 NAtoms=     5 NAtomX=     5.
 Discarding MO integrals.
 MO basis two electron integral derivatives will not be stored on disk.
 IAlg= 3 DoFC=T DoPWx=T Debug=F.
 Frozen-core window:  NFC=   4 NFV=   0.
 Reordered first order wavefunction length =     18678272
 In DefCFB: NBatch=  1 ICI= 16 ICA=191 LFMax= 96
            Large arrays: LIAPS=   619940160 LIARS=   288257200 words.
 In StABat: MaxSiz= 55 MinSiz= 25 NAtomB=  5
 DoIAMN: NPSUse= 28.
 Leave Link  811 at Mon Feb 21 21:08:07 2022, MaxMem= 16106127360 cpu:            2595.0 elap:              92.8
 (Enter /sw/contrib/gaussian/g16/B01/g16/l804.exe)
 Frozen-core window:  NFC=   4 NFV=   0.
 Closed-shell transformation, MDV= 16106127360 ITran=4 ISComp=1.
 Semi-Direct transformation.
 ModeAB=           2 MOrb=            16 LenV=   16104925821
 LASXX=     67341636 LTotXX=    67341636 LenRXX=    67341636
 LTotAB=    68301760 MaxLAS=    99807120 LenRXY=    99807120
 NonZer=   134683272 LenScr=   202817536 LnRSAI=           0
 LnScr1=           0 LExtra=           0 Total=    369966292
 MaxDsk=          -1 SrtSym=           F ITran=            4
 DoSDTr:  NPSUse= 28
 JobTyp=0 Pass  1:  I=   1 to  16.
 (rs|ai) integrals will be sorted in core.
 Complete sort for first half transformation.
 First half transformation complete.
 Begin second half transformation for I=  10.
 Begin second half transformation for I=  10.
 Complete sort for second half transformation.
 Second half transformation complete.
 SymMOI:  orbitals are not symmetric.
 Spin components of T(2) and E(2):
     alpha-alpha T2 =       0.3402760876D-01 E2=     -0.1224125092D+00
     alpha-beta  T2 =       0.1868598016D+00 E2=     -0.7002688721D+00
     beta-beta   T2 =       0.3402760876D-01 E2=     -0.1224125092D+00
 ANorm=    0.1584244311D+01
 E2 =    -0.9450938906D+00 EUMP2 =    -0.28044691335981D+03
 Leave Link  804 at Mon Feb 21 21:08:21 2022, MaxMem= 16106127360 cpu:             382.5 elap:              13.7
 (Enter /sw/contrib/gaussian/g16/B01/g16/l1002.exe)
 Minotr:  Closed shell wavefunction.
          Computing MP2/KS-MP2 derivatives.
          Using Z-Vector for PSCF gradient.
          Skipping F1 and S1 gradient terms here.
          IDoAtm=11111
          Frozen-core window.
          Using MO integrals in the linear equations.
          Forming densities via direct SCF.
          Differentiating once with respect to electric field.
                with respect to dipole field.
          Differentiating once with respect to nuclear coordinates.
          Requested convergence is 1.0D-10 RMS, and 1.0D-09 maximum.
          NewPWx=F KeepS1=T KeepF1=T KeepIn=T MapXYZ=F SortEE=F KeepMc=T.
          MDV=   16106127360 using IRadAn=       5.
          Solving linear equations separately, MaxMat=       0.
          There are     1 degrees of freedom in the 1st order CPHF.  IDoFFX=0 NUNeed=     1.
 FoFJK:  IHMeth= 1 ICntrl=       0 DoSepK=F KAlg= 0 I1Cent=           0 FoldK=F
 IRaf=         0 NMat=       1 IRICut=       1 DoRegI=T DoRafI=F ISym2E= 0 IDoP0=0 IntGTp=1.
 FoFCou: FMM=F IPFlag=           0 FMFlag=      100000 FMFlg1=           0
         NFxFlg=           0 DoJE=F BraDBF=F KetDBF=F FulRan=T
         wScrn=  0.000000 ICntrl=         0 IOpCl=  0 I1Cent=           0 NGrid=           0
         NMat0=    1 NMatS0=      1 NMatT0=    0 NMatD0=    1 NMtDS0=    0 NMtDT0=    0
 Symmetry not used in FoFCou.
 LinEq1:  Iter=  0 NonCon=     1 RMS=5.95D-03 Max=1.28D-01 NDo=     1
 LinEq1:  Iter=  1 NonCon=     1 RMS=1.90D-03 Max=3.73D-02 NDo=     1
 LinEq1:  Iter=  2 NonCon=     1 RMS=8.67D-04 Max=1.20D-02 NDo=     1
 LinEq1:  Iter=  3 NonCon=     1 RMS=3.86D-04 Max=7.60D-03 NDo=     1
 LinEq1:  Iter=  4 NonCon=     1 RMS=1.19D-04 Max=1.64D-03 NDo=     1
 LinEq1:  Iter=  5 NonCon=     1 RMS=4.56D-05 Max=7.03D-04 NDo=     1
 LinEq1:  Iter=  6 NonCon=     1 RMS=2.04D-05 Max=2.36D-04 NDo=     1
 LinEq1:  Iter=  7 NonCon=     1 RMS=8.27D-06 Max=1.57D-04 NDo=     1
 LinEq1:  Iter=  8 NonCon=     1 RMS=3.65D-06 Max=5.47D-05 NDo=     1
 LinEq1:  Iter=  9 NonCon=     1 RMS=1.09D-06 Max=2.46D-05 NDo=     1
 LinEq1:  Iter= 10 NonCon=     1 RMS=2.90D-07 Max=8.16D-06 NDo=     1
 LinEq1:  Iter= 11 NonCon=     1 RMS=8.09D-08 Max=1.73D-06 NDo=     1
 LinEq1:  Iter= 12 NonCon=     1 RMS=2.03D-08 Max=2.03D-07 NDo=     1
 LinEq1:  Iter= 13 NonCon=     1 RMS=3.88D-09 Max=4.12D-08 NDo=     1
 LinEq1:  Iter= 14 NonCon=     1 RMS=6.33D-10 Max=9.99D-09 NDo=     1
 LinEq1:  Iter= 15 NonCon=     1 RMS=1.42D-10 Max=2.30D-09 NDo=     1
 LinEq1:  Iter= 16 NonCon=     0 RMS=3.69D-11 Max=4.96D-10 NDo=     1
 Linear equations converged to 1.000D-10 1.000D-09 after    16 iterations.
 End of Minotr F.D. properties file   721 does not exist.
 End of Minotr F.D. properties file   722 does not exist.
 End of Minotr F.D. properties file   788 does not exist.
 Leave Link 1002 at Mon Feb 21 21:08:24 2022, MaxMem= 16106127360 cpu:              74.3 elap:               2.7
 (Enter /sw/contrib/gaussian/g16/B01/g16/l1102.exe)
 Use density number 2.
 Symmetrizing basis deriv contribution to polar:
 IMax=3 JMax=2 DiffMx= 0.00D+00
 Leave Link 1102 at Mon Feb 21 21:08:24 2022, MaxMem= 16106127360 cpu:               1.0 elap:               0.1
 (Enter /sw/contrib/gaussian/g16/B01/g16/l1110.exe)
 Forming Gx(P) for generalized density number  2 NAtomX=     5.
 Integral derivatives from FoFJK, PRISM(SPDF).
 Do as many integral derivatives as possible in FoFJK.
 G2DrvN: MDV=   16106126844.
 G2DrvN: will do     6 centers at a time, making    1 passes.
 Calling FoFCou, ICntrl=  3107 FMM=F I1Cent=   0 AccDes= 0.00D+00.
 FoFJK:  IHMeth= 1 ICntrl=    3107 DoSepK=F KAlg= 0 I1Cent=           0 FoldK=F
 IRaf=         0 NMat=       1 IRICut=       1 DoRegI=T DoRafI=F ISym2E= 0 IDoP0=0 IntGTp=1.
 FoFCou: FMM=F IPFlag=           0 FMFlag=      100000 FMFlg1=           0
         NFxFlg=           0 DoJE=F BraDBF=F KetDBF=F FulRan=T
         wScrn=  0.000000 ICntrl=      3107 IOpCl=  0 I1Cent=           0 NGrid=           0
         NMat0=    1 NMatS0=      1 NMatT0=    0 NMatD0=    1 NMtDS0=    0 NMtDT0=    0
 Symmetry not used in FoFCou.
 End of G2Drv F.D. properties file   721 does not exist.
 End of G2Drv F.D. properties file   722 does not exist.
 End of G2Drv F.D. properties file   788 does not exist.
 Leave Link 1110 at Mon Feb 21 21:08:27 2022, MaxMem= 16106127360 cpu:              85.5 elap:               3.1
 (Enter /sw/contrib/gaussian/g16/B01/g16/l1112.exe)
 MP22nd: MDV=   16106127360
 This link is doing NAtomX=     5 total of    18 degrees of freedom.
 Using ON3 I/O method in MakUI.
 Frozen-core window:  NFC=   4 NFV=   0.
 Using Ix for Sx.
 Use MO integrals over full window.
 Using OV2 memory method for fx*t*t/D, MaxI=    16 DoOO2=F NP=  28.
 R2 and R3 integrals will be kept in memory, NReq=   915591705.
 FoFCou: FMM=F IPFlag=           0 FMFlag=           0 FMFlg1=           0
         NFxFlg=           0 DoJE=F BraDBF=F KetDBF=F FulRan=T
         wScrn=  0.000000 ICntrl=       600 IOpCl=  0 I1Cent=           0 NGrid=           0
         NMat0=    1 NMatS0=      1 NMatT0=    0 NMatD0=    1 NMtDS0=    0 NMtDT0=    0
 Symmetry not used in FoFCou.
 DD1Dir will call FoFMem   1 times, MxPair=       272
 NAB=   136 NAA=     0 NBB=     0.
 Symmetry is being used.
 FoFJK:  IHMeth= 1 ICntrl=       0 DoSepK=F KAlg= 0 I1Cent=           0 FoldK=F
 IRaf=         0 NMat=      18 IRICut=      45 DoRegI=T DoRafI=T ISym2E= 2 IDoP0=3 IntGTp=3.
 Discarding MO integrals.
 Leave Link 1112 at Mon Feb 21 21:09:06 2022, MaxMem= 16106127360 cpu:            1072.0 elap:              38.8
 (Enter /sw/contrib/gaussian/g16/B01/g16/l601.exe)
 Copying SCF densities to generalized density rwf, IOpCl= 0 IROHF=0.

 **********************************************************************

            Population analysis using the MP2 Density.

 **********************************************************************

 Orbital symmetries:
       Occupied  (A) (A) (A) (A) (A) (A) (A) (A) (A) (A) (A) (A)
                 (A) (A) (A) (A)
       Virtual   (A) (A) (A) (A) (A) (A) (A) (A) (A) (A) (A) (A)
                 (A) (A) (A) (A) (A) (A) (A) (A) (A) (A) (A) (A)
                 (A) (A) (A) (A) (A) (A) (A) (A) (A) (A) (A) (A)
                 (A) (A) (A) (A) (A) (A) (A) (A) (A) (A) (A) (A)
                 (A) (A) (A) (A) (A) (A) (A) (A) (A) (A) (A) (A)
                 (A) (A) (A) (A) (A) (A) (A) (A) (A) (A) (A) (A)
                 (A) (A) (A) (A) (A) (A) (A) (A) (A) (A) (A) (A)
                 (A) (A) (A) (A) (A) (A) (A) (A) (A) (A) (A) (A)
                 (A) (A) (A) (A) (A) (A) (A) (A) (A) (A) (A) (A)
                 (A) (A) (A) (A) (A) (A) (A) (A) (A) (A) (A) (A)
                 (A) (A) (A) (A) (A) (A) (A) (A) (A) (A) (A) (A)
                 (A) (A) (A) (A) (A) (A) (A) (A) (A) (A) (A) (A)
                 (A) (A) (A) (A) (A) (A) (A) (A) (A) (A) (A) (A)
                 (A) (A) (A) (A) (A) (A) (A) (A) (A) (A) (A) (A)
                 (A) (A) (A) (A) (A) (A) (A) (A) (A) (A) (A) (A)
                 (A) (A) (A) (A) (A) (A) (A) (A) (A) (A) (A)
 The electronic state is 1-A.
 Alpha  occ. eigenvalues --  -20.69106 -20.68426 -20.66015 -15.81269  -1.62403
 Alpha  occ. eigenvalues --   -1.49584  -1.25444  -0.94809  -0.77248  -0.75951
 Alpha  occ. eigenvalues --   -0.71299  -0.67874  -0.61982  -0.58874  -0.48714
 Alpha  occ. eigenvalues --   -0.47162
 Alpha virt. eigenvalues --    0.02958   0.07164   0.08592   0.10176   0.13229
 Alpha virt. eigenvalues --    0.13506   0.14388   0.15444   0.17810   0.19409
 Alpha virt. eigenvalues --    0.19918   0.20665   0.22080   0.23535   0.23724
 Alpha virt. eigenvalues --    0.26709   0.29216   0.29971   0.31203   0.34349
 Alpha virt. eigenvalues --    0.35445   0.38759   0.41590   0.42891   0.52715
 Alpha virt. eigenvalues --    0.53126   0.55861   0.58087   0.62597   0.63810
 Alpha virt. eigenvalues --    0.67341   0.68350   0.70690   0.71338   0.71877
 Alpha virt. eigenvalues --    0.73267   0.74844   0.78517   0.79382   0.81064
 Alpha virt. eigenvalues --    0.81455   0.83463   0.86756   0.90836   0.91511
 Alpha virt. eigenvalues --    0.93437   0.95507   0.97089   0.98863   1.01524
 Alpha virt. eigenvalues --    1.05427   1.06007   1.08415   1.11280   1.12765
 Alpha virt. eigenvalues --    1.19994   1.21853   1.23447   1.33639   1.35099
 Alpha virt. eigenvalues --    1.38936   1.45594   1.49336   1.50812   1.53684
 Alpha virt. eigenvalues --    1.56732   1.58112   1.60174   1.66313   1.66707
 Alpha virt. eigenvalues --    1.70658   1.78822   1.82926   1.83743   1.88163
 Alpha virt. eigenvalues --    1.90404   1.95624   1.98164   2.02946   2.07751
 Alpha virt. eigenvalues --    2.11419   2.12680   2.15667   2.22072   2.25696
 Alpha virt. eigenvalues --    2.27274   2.28652   2.31194   2.34341   2.38800
 Alpha virt. eigenvalues --    2.40261   2.44944   2.45359   2.46716   2.47889
 Alpha virt. eigenvalues --    2.50770   2.58934   2.59880   2.61831   2.62695
 Alpha virt. eigenvalues --    2.63853   2.66510   2.74922   2.82962   2.84546
 Alpha virt. eigenvalues --    2.88742   2.90175   2.91606   2.96034   3.02025
 Alpha virt. eigenvalues --    3.07734   3.11927   3.20450   3.22965   3.31586
 Alpha virt. eigenvalues --    3.34053   3.51277   3.64880   3.83716   3.84952
 Alpha virt. eigenvalues --    4.13407   4.16510   4.20525   4.25366   4.33838
 Alpha virt. eigenvalues --    4.39372   4.47762   4.52531   4.64905   4.71110
 Alpha virt. eigenvalues --    4.80387   4.82195   4.82595   4.89719   5.02252
 Alpha virt. eigenvalues --    5.07157   5.10064   5.14605   5.18386   5.25153
 Alpha virt. eigenvalues --    5.27155   5.30321   5.33046   5.35116   5.59825
 Alpha virt. eigenvalues --    5.67360   5.75975   5.83301   5.95404   6.16979
 Alpha virt. eigenvalues --    6.31230   6.34255   6.39204   6.49441   6.50505
 Alpha virt. eigenvalues --    6.62376   6.65277   6.70679   6.74624   6.77013
 Alpha virt. eigenvalues --    6.83556   6.89831   7.01089   7.05409   7.05806
 Alpha virt. eigenvalues --    7.09502   7.12774   7.14558   7.19060   7.22495
 Alpha virt. eigenvalues --    7.23764   7.30325   7.32200   7.35800   7.39040
 Alpha virt. eigenvalues --    7.42797   7.48645   7.60610   7.61812   7.63421
 Alpha virt. eigenvalues --    7.67642   7.78415   7.88347   8.09127   8.31059
 Alpha virt. eigenvalues --    8.39797   8.54048  13.38369  14.40154  15.16047
 Alpha virt. eigenvalues --   16.14991
          Condensed to atoms (all electrons):
               1          2          3          4          5
     1  H    0.590470   0.128479   0.020181   0.011388  -0.000588
     2  O    0.128479   8.320087  -0.172118  -0.089725   0.015011
     3  O    0.020181  -0.172118   8.466739  -0.129130  -0.038668
     4  N    0.011388  -0.089725  -0.129130   6.969676  -0.054259
     5  O   -0.000588   0.015011  -0.038668  -0.054259   8.271884
 Mulliken charges:
               1
     1  H    0.250070
     2  O   -0.201734
     3  O   -0.147005
     4  N    0.292049
     5  O   -0.193379
 Sum of Mulliken charges =  -0.00000
 Mulliken charges with hydrogens summed into heavy atoms:
               1
     2  O    0.048335
     3  O   -0.147005
     4  N    0.292049
     5  O   -0.193379
 APT charges:
               1
     1  H    0.297736
     2  O   -0.286869
     3  O   -0.493627
     4  N    0.874731
     5  O   -0.391971
 Sum of APT charges =  -0.00000
 APT charges with hydrogens summed into heavy atoms:
               1
     2  O    0.010867
     3  O   -0.493627
     4  N    0.874731
     5  O   -0.391971
 Electronic spatial extent (au):  <R**2>=            252.8254
 Charge=             -0.0000 electrons
 Dipole moment (field-independent basis, Debye):
    X=             -1.2002    Y=              0.7674    Z=              0.3275  Tot=              1.4617
 Quadrupole moment (field-independent basis, Debye-Ang):
   XX=            -18.1016   YY=            -23.1260   ZZ=            -21.9252
   XY=             -2.7133   XZ=             -0.8614   YZ=              0.2616
 Traceless Quadrupole moment (field-independent basis, Debye-Ang):
   XX=              2.9493   YY=             -2.0751   ZZ=             -0.8743
   XY=             -2.7133   XZ=             -0.8614   YZ=              0.2616
 Octapole moment (field-independent basis, Debye-Ang**2):
  XXX=            -17.8059  YYY=              1.7477  ZZZ=              0.1127  XYY=             -1.0195
  XXY=              5.9832  XXZ=              2.0584  XZZ=              1.5936  YZZ=              0.2732
  YYZ=              0.0416  XYZ=             -0.4461
 Hexadecapole moment (field-independent basis, Debye-Ang**3):
 XXXX=           -191.2311 YYYY=            -41.0869 ZZZZ=            -18.2990 XXXY=            -11.5516
 XXXZ=             -5.2080 YYYX=             -0.9483 YYYZ=              0.2401 ZZZX=             -0.3323
 ZZZY=              0.1773 XXYY=            -42.5953 XXZZ=            -41.2502 YYZZ=             -9.8634
 XXYZ=              1.0566 YYXZ=             -0.2238 ZZXY=             -0.5266
 N-N= 1.168786200076D+02 E-N=-8.958675667594D+02  KE= 2.801979630492D+02
  Exact polarizability:  41.683  -0.949  22.504  -0.170   0.032  17.973
 Approx polarizability:  31.923   1.158  20.547  -0.147   0.122  15.582
 No NMR shielding tensors so no spin-rotation constants.
 Leave Link  601 at Mon Feb 21 21:09:06 2022, MaxMem= 16106127360 cpu:               4.5 elap:               0.2
 (Enter /sw/contrib/gaussian/g16/B01/g16/l701.exe)
 ... and contract with generalized density number  2.
 Compute integral second derivatives.
 Leave Link  701 at Mon Feb 21 21:09:06 2022, MaxMem= 16106127360 cpu:               5.5 elap:               0.2
 (Enter /sw/contrib/gaussian/g16/B01/g16/l702.exe)
 L702 exits ... SP integral derivatives will be done elsewhere.
 Leave Link  702 at Mon Feb 21 21:09:06 2022, MaxMem= 16106127360 cpu:               0.5 elap:               0.0
 (Enter /sw/contrib/gaussian/g16/B01/g16/l703.exe)
 Integral derivatives from FoFJK, PRISM(SPDF).
 Compute integral second derivatives, UseDBF=F ICtDFT=           0.
 Calling FoFJK, ICntrl=  10100127 FMM=F ISym2X=0 I1Cent= 0 IOpClX= 0 NMat=1 NMatS=1 NMatT=0.
 FoFJK:  IHMeth= 1 ICntrl=10100127 DoSepK=F KAlg= 0 I1Cent=           0 FoldK=F
 IRaf=         0 NMat=       1 IRICut=       1 DoRegI=T DoRafI=F ISym2E= 0 IDoP0=0 IntGTp=1.
 FoFCou: FMM=F IPFlag=           0 FMFlag=      100000 FMFlg1=         800
         NFxFlg=           0 DoJE=F BraDBF=F KetDBF=F FulRan=T
         wScrn=  0.000000 ICntrl=  10100127 IOpCl=  0 I1Cent=           0 NGrid=           0
         NMat0=    1 NMatS0=      1 NMatT0=    0 NMatD0=    1 NMtDS0=    0 NMtDT0=    0
 Symmetry not used in FoFCou.
 Leave Link  703 at Mon Feb 21 21:09:22 2022, MaxMem= 16106127360 cpu:             425.3 elap:              15.3
 (Enter /sw/contrib/gaussian/g16/B01/g16/l716.exe)
 Dipole        =-4.72175821D-01 3.01908664D-01 1.28833062D-01
 Polarizability= 4.16834365D+01-9.49241734D-01 2.25036850D+01
                -1.70293694D-01 3.24925524D-02 1.79727079D+01
 Full mass-weighted force constant matrix:
 Low frequencies --- -256.6609  -11.3122   -0.0011   -0.0009   -0.0009    2.7059
 Low frequencies ---   22.2060  227.9809  343.4513
 ******    1 imaginary frequencies (negative Signs) ****** 
 Diagonal vibrational polarizability:
       35.3702356       5.9102450      49.0580939
 Harmonic frequencies (cm**-1), IR intensities (KM/Mole), Raman scattering
 activities (A**4/AMU), depolarization ratios for plane and unpolarized
 incident light, reduced masses (AMU), force constants (mDyne/A),
 and normal coordinates:
                      1                      2                      3
                      A                      A                      A
 Frequencies --   -256.6554               227.9613               343.4474
 Red. masses --      1.1420                10.6375                 8.6575
 Frc consts  --      0.0443                 0.3257                 0.6017
 IR Inten    --    125.7812                 0.8767                 4.9909
  Atom  AN      X      Y      Z        X      Y      Z        X      Y      Z
     1   1     0.10  -0.16   0.98    -0.10  -0.05  -0.55    -0.15  -0.67   0.06
     2   8    -0.01   0.02  -0.06     0.01  -0.01  -0.31     0.30  -0.25   0.01
     3   8    -0.01  -0.00  -0.04    -0.00   0.01   0.33    -0.14   0.43  -0.02
     4   7     0.01  -0.00   0.06    -0.01   0.01   0.53    -0.19   0.18  -0.00
     5   8     0.00   0.00  -0.01     0.00  -0.01  -0.44     0.02  -0.30   0.01
                      4                      5                      6
                      A                      A                      A
 Frequencies --    453.1546               786.1748               965.9512
 Red. masses --     12.1315                12.9574                15.3221
 Frc consts  --      1.4678                 4.7185                 8.4232
 IR Inten    --    195.6888               169.2156                24.3932
  Atom  AN      X      Y      Z        X      Y      Z        X      Y      Z
     1   1    -0.45  -0.06  -0.11     0.17   0.33   0.11    -0.14  -0.08   0.10
     2   8    -0.38  -0.03   0.01    -0.39  -0.18  -0.01    -0.40  -0.33  -0.00
     3   8    -0.40   0.24  -0.00     0.21  -0.18   0.01     0.59   0.46  -0.01
     4   7     0.52  -0.12   0.00    -0.26   0.58  -0.01     0.05  -0.27   0.01
     5   8     0.35  -0.11   0.00     0.39  -0.17   0.00    -0.23   0.11  -0.01
                      7                      8                      9
                      A                      A                      A
 Frequencies --   1371.9327              1677.2201              3777.9968
 Red. masses --      1.1312                13.2750                 1.0676
 Frc consts  --      1.2545                22.0021                 8.9780
 IR Inten    --    149.5448               141.2524                81.4589
  Atom  AN      X      Y      Z        X      Y      Z        X      Y      Z
     1   1     0.77   0.63   0.03     0.27   0.20   0.01    -0.66   0.72   0.19
     2   8     0.01  -0.06  -0.01     0.03  -0.03  -0.00     0.04  -0.04  -0.01
     3   8    -0.05   0.03   0.01    -0.09   0.12  -0.00    -0.00  -0.00  -0.00
     4   7     0.02   0.00   0.00    -0.54  -0.46   0.00     0.00  -0.00   0.00
     5   8    -0.03  -0.01  -0.00     0.52   0.30  -0.00    -0.00  -0.00  -0.00

 -------------------
 - Thermochemistry -
 -------------------
 Temperature   298.150 Kelvin.  Pressure   1.00000 Atm.
 Atom     1 has atomic number  1 and mass   1.00783
 Atom     2 has atomic number  8 and mass  15.99491
 Atom     3 has atomic number  8 and mass  15.99491
 Atom     4 has atomic number  7 and mass  14.00307
 Atom     5 has atomic number  8 and mass  15.99491
 Molecular mass:    62.99564 amu.
 Principal axes and moments of inertia in atomic units:
                           1         2         3
     Eigenvalues --    32.92201 360.08922 392.73201
           X            0.99994  -0.01033  -0.00394
           Y            0.01036   0.99991   0.00844
           Z            0.00385  -0.00848   0.99996
 This molecule is an asymmetric top.
 Rotational symmetry number  1.
 Rotational temperatures (Kelvin)      2.63088     0.24053     0.22054
 Rotational constants (GHZ):          54.81868     5.01193     4.59535
    1 imaginary frequencies ignored.
 Zero-point vibrational energy      57443.7 (Joules/Mol)
                                   13.72938 (Kcal/Mol)
 Warning -- explicit consideration of   3 degrees of freedom as
           vibrations may cause significant error
 Vibrational temperatures:    327.99   494.14   651.99  1131.13  1389.79
          (Kelvin)           1973.91  2413.15  5435.69
 
 Zero-point correction=                           0.021879 (Hartree/Particle)
 Thermal correction to Energy=                    0.025995
 Thermal correction to Enthalpy=                  0.026939
 Thermal correction to Gibbs Free Energy=        -0.004243
 Sum of electronic and zero-point Energies=           -280.425034
 Sum of electronic and thermal Energies=              -280.420919
 Sum of electronic and thermal Enthalpies=            -280.419974
 Sum of electronic and thermal Free Energies=         -280.451156
 
                     E (Thermal)             CV                S
                      KCal/Mol        Cal/Mol-Kelvin    Cal/Mol-Kelvin
 Total                   16.312             11.948             65.628
 Electronic               0.000              0.000              0.000
 Translational            0.889              2.981             38.341
 Rotational               0.889              2.981             23.058
 Vibrational             14.535              5.987              4.229
 Vibration     1          0.651              1.798              1.895
 Vibration     2          0.722              1.589              1.196
 Vibration     3          0.812              1.354              0.786
                       Q            Log10(Q)             Ln(Q)
 Total Bot       0.894620D+02          1.951639          4.493814
 Total V=0       0.103596D+13         12.015343         27.666349
 Vib (Bot)       0.186370D-09         -9.729623        -22.403285
 Vib (Bot)    1  0.864766D+00         -0.063102         -0.145297
 Vib (Bot)    2  0.539468D+00         -0.268034         -0.617172
 Vib (Bot)    3  0.377459D+00         -0.423130         -0.974294
 Vib (V=0)       0.215815D+01          0.334081          0.769250
 Vib (V=0)    1  0.149891D+01          0.175775          0.404738
 Vib (V=0)    2  0.123554D+01          0.091858          0.211512
 Vib (V=0)    3  0.112648D+01          0.051723          0.119096
 Electronic      0.100000D+01          0.000000          0.000000
 Translational   0.196526D+08          7.293420         16.793719
 Rotational      0.244254D+05          4.387842         10.103380
 
                                                                title
                                                             IR Spectrum
 
     3                                                                      1         1                                              
     7                                                                      6         3             9     7          4   3   2       
     7                                                                      7         7             6     8          5   4   2       
     8                                                                      7         2             6     6          3   3   8       
 
     X                                                                      X         X             X     X          X   X   X       
     X                                                                      X         X             X     X          X               
     X                                                                      X         X                   X          X               
     X                                                                      X         X                   X          X               
     X                                                                      X         X                   X          X               
     X                                                                      X         X                   X          X               
     X                                                                      X         X                   X          X               
     X                                                                      X         X                   X          X               
                                                                            X         X                   X          X               
                                                                            X         X                   X          X               
                                                                            X         X                   X          X               
                                                                            X         X                   X          X               
                                                                            X         X                   X          X               
                                                                            X         X                   X          X               
                                                                                      X                   X          X               
                                                                                                          X          X               
                                                                                                          X          X               
                                                                                                                     X               
                                                                                                                     X               
                                                                                                                     X               
 
 ***** Axes restored to original set *****
 -------------------------------------------------------------------
 Center     Atomic                   Forces (Hartrees/Bohr)
 Number     Number              X              Y              Z
 -------------------------------------------------------------------
      1        1          -0.000120424    0.000890048    0.000005266
      2        8           0.000702390   -0.001185630   -0.000169009
      3        8          -0.000834833   -0.000373936    0.000054788
      4        7          -0.000175532    0.001038918   -0.000100371
      5        8           0.000428399   -0.000369401    0.000209325
 -------------------------------------------------------------------
 Cartesian Forces:  Max     0.001185630 RMS     0.000580699
 -----------------------------------------------------------------------------------------------
                       Internal Coordinate Forces (Hartree/Bohr or radian)
  Cent   Atom   N1       Length/X         N2         Alpha/Y        N3         Beta/Z          J
 -----------------------------------------------------------------------------------------------
      1  H 
      2  O        1  -0.000005(     1)
      3  O        2  -0.000555(     2)      1   0.000221(     5)
      4  N        3   0.000268(     3)      2   0.000555(     6)      1  -0.001615(     8)     0
      5  O        4   0.000457(     4)      3   0.000031(     7)      2  -0.000822(     9)     0
 -----------------------------------------------------------------------------------------------
 Internal  Forces:  Max     0.001615424 RMS     0.000685790
 Force constants in Cartesian coordinates: 
                1             2             3             4             5 
      1  0.647413D-01
      2  0.100885D-02 -0.206515D-02
      3  0.511120D-02 -0.500051D-03  0.512143D+00
      4 -0.355919D-01 -0.275397D-02 -0.159610D-01  0.271651D+00
      5 -0.406781D-03  0.286506D-02  0.781252D-03  0.628677D-02  0.383794D-02
      6  0.483606D-01  0.194821D-02 -0.508614D+00  0.332750D-01  0.571622D-02
      7 -0.188861D-01  0.319236D-02  0.122845D-01 -0.218638D+00  0.403416D-02
      8 -0.148856D-02  0.973037D-03  0.384489D-03 -0.248319D-02 -0.822436D-02
      9 -0.529216D-01 -0.123643D-03 -0.293044D-03 -0.192688D-01 -0.546333D-02
     10 -0.899150D-02 -0.114864D-02 -0.475923D-02 -0.178007D-01 -0.960560D-02
     11  0.260726D-02 -0.264112D-02 -0.795482D-03 -0.408014D-03 -0.382027D-02
     12  0.482672D-02 -0.856081D-03 -0.464841D-02  0.115730D-01  0.373724D-02
     13 -0.127177D-02 -0.298598D-03  0.332456D-02  0.379333D-03 -0.308555D-03
     14 -0.172077D-02  0.868164D-03  0.129793D-03 -0.641594D-03  0.534162D-02
     15 -0.537696D-02 -0.468433D-03  0.141331D-02 -0.961814D-02 -0.477138D-02
                6             7             8             9            10 
      6  0.593638D+00
      7 -0.220158D-01  0.340277D+00
      8 -0.880658D-02 -0.657426D-02  0.106048D-01
      9 -0.773738D-01  0.369829D-01  0.283139D-01  0.175297D+00
     10 -0.514145D-01 -0.771274D-01  0.394390D-01  0.170024D+00  0.827876D+00
     11  0.783654D-02  0.186785D-01  0.301607D-02 -0.240895D-01 -0.277601D-01
     12  0.156488D-01  0.608988D-01 -0.191960D-01 -0.773520D-01 -0.138828D-01
     13 -0.820533D-02 -0.256254D-01 -0.288930D-01 -0.134817D+00 -0.723956D+00
     14 -0.669438D-02 -0.193307D-01 -0.636952D-02  0.136260D-02 -0.924633D-03
     15 -0.232986D-01 -0.881504D-01 -0.695840D-03 -0.202777D-01 -0.999678D-01
               11            12            13            14            15 
     11  0.174105D-01
     12  0.369651D-01  0.179305D+00
     13  0.688242D-02 -0.634158D-01  0.750474D+00
     14 -0.139652D-01 -0.206502D-01  0.226177D-01  0.141249D-01
     15 -0.199166D-01 -0.112954D+00  0.203113D+00  0.258522D-01  0.155117D+00
 Force constants in internal coordinates: 
                1             2             3             4             5 
      1  0.512143D+00
      2 -0.102883D-01  0.280670D+00
      3  0.341273D-02  0.308433D-02  0.117458D+00
      4 -0.357192D-02  0.592109D-02  0.152759D+00  0.812187D+00
      5  0.923861D-02  0.658483D-01  0.223824D-02  0.475271D-02  0.217066D+00
      6  0.438374D-02  0.596412D-01  0.412691D-01  0.220849D-01  0.307622D-01
      7 -0.121584D-02  0.378367D-01  0.318025D-01  0.847057D-01  0.208277D-01
      8 -0.254177D-04 -0.279223D-02  0.324057D-02  0.693998D-03  0.313797D-02
      9  0.167040D-03 -0.126488D-02  0.105541D-04  0.817366D-04  0.218730D-02
                6             7             8             9 
      6  0.285059D+00
      7  0.959537D-01  0.482492D+00
      8  0.555390D-02  0.741444D-03 -0.684121D-02
      9  0.547930D-04 -0.493171D-03 -0.356391D-02  0.409288D-01
 Leave Link  716 at Mon Feb 21 21:09:22 2022, MaxMem= 16106127360 cpu:               1.5 elap:               0.1
 (Enter /sw/contrib/gaussian/g16/B01/g16/l103.exe)

 GradGradGradGradGradGradGradGradGradGradGradGradGradGradGradGradGradGrad
 Berny optimization.
 Search for a local minimum.
 Step number   1 out of a maximum of    2
 All quantities printed in internal units (Hartrees-Bohrs-Radians)
 Second derivative matrix not updated -- analytic derivatives used.
 The second derivative matrix:
                          r1        r2        r3        r4        a1
           r1           0.51214
           r2          -0.01029   0.28067
           r3           0.00341   0.00308   0.11746
           r4          -0.00357   0.00592   0.15276   0.81219
           a1           0.00924   0.06585   0.00224   0.00475   0.21707
           a2           0.00438   0.05964   0.04127   0.02208   0.03076
           a3          -0.00122   0.03784   0.03180   0.08471   0.02083
           d1          -0.00003  -0.00279   0.00324   0.00069   0.00314
           d2           0.00017  -0.00126   0.00001   0.00008   0.00219
                          a2        a3        d1        d2
           a2           0.28506
           a3           0.09595   0.48249
           d1           0.00555   0.00074  -0.00684
           d2           0.00005  -0.00049  -0.00356   0.04093
 ITU=  0
     Eigenvalues ---   -0.00739   0.04116   0.07869   0.17497   0.22692
     Eigenvalues ---    0.32555   0.51278   0.51749   0.87102
 Eigenvalue     1 is  -7.39D-03 should be greater than     0.000000 Eigenvector:
                          d1        d2        r3        a2        r2
   1                    0.99638   0.07478  -0.02571  -0.01821   0.01765
                          a1        r4        a3        r1
   1                   -0.01744   0.00416   0.00247   0.00104
 Angle between quadratic step and forces=  31.15 degrees.
 Linear search not attempted -- first point.
 Variable       Old X    -DE/DX   Delta X   Delta X   Delta X     New X
                                 (Linear)    (Quad)   (Total)
    r1        1.83110  -0.00001   0.00000  -0.00035  -0.00035   1.83075
    r2        2.74940  -0.00056   0.00000  -0.00680  -0.00680   2.74260
    r3        2.75670   0.00027   0.00000   0.00659   0.00659   2.76329
    r4        2.21236   0.00046   0.00000  -0.00052  -0.00052   2.21183
    a1        1.70335   0.00022   0.00000   0.00558   0.00558   1.70894
    a2        1.78543   0.00056   0.00000   0.00640   0.00640   1.79183
    a3        1.90362   0.00003   0.00000  -0.00093  -0.00093   1.90270
    d1        2.92498  -0.00162   0.00000  -0.22765  -0.22765   2.69733
    d2        3.14159  -0.00082   0.00000  -0.03423  -0.03423   3.10737
         Item               Value     Threshold  Converged?
 Maximum Force            0.001615     0.000450     NO 
 RMS     Force            0.000686     0.000300     NO 
 Maximum Displacement     0.227653     0.001800     NO 
 RMS     Displacement     0.076855     0.001200     NO 
 Predicted change in Energy=-5.937421D-04
                       ----------------------------
                       ! Non-Optimized Parameters !
                       ! (Angstroms and Degrees)  !
 ----------------------                            ----------------------
 !      Name          Value   Derivative information (Atomic Units)     !
 ------------------------------------------------------------------------
 !       r1          0.9688   -DE/DX =    0.0                           !
 !       r2          1.4513   -DE/DX =   -0.0006                        !
 !       r3          1.4623   -DE/DX =    0.0003                        !
 !       r4          1.1705   -DE/DX =    0.0005                        !
 !       a1         97.9148   -DE/DX =    0.0002                        !
 !       a2        102.6641   -DE/DX =    0.0006                        !
 !       a3        109.0165   -DE/DX =    0.0                           !
 !       d1        154.5456   -DE/DX =   -0.0016                        !
 !       d2        178.0389   -DE/DX =   -0.0008                        !
 ------------------------------------------------------------------------
 GradGradGradGradGradGradGradGradGradGradGradGradGradGradGradGradGradGrad

 Leave Link  103 at Mon Feb 21 21:09:22 2022, MaxMem= 16106127360 cpu:               0.5 elap:               0.0
 (Enter /sw/contrib/gaussian/g16/B01/g16/l9999.exe)

 ----------------------------------------------------------------------

 Electric dipole moment (input orientation):
 (Debye = 10**-18 statcoulomb cm , SI units = C m)
                  (au)            (Debye)         (10**-30 SI)
   Tot        0.575062D+00      0.146166D+01      0.487558D+01
   x         -0.146553D+00     -0.372501D+00     -0.124253D+01
   y          0.249452D-01      0.634045D-01      0.211495D+00
   z         -0.555515D+00     -0.141198D+01     -0.470985D+01

 Dipole polarizability, Alpha (input orientation).
 (esu units = cm**3 , SI units = C**2 m**2 J**-1)
 Alpha(0;0):
               (au)            (10**-24 esu)      (10**-40 SI)
   iso        0.273866D+02      0.405828D+01      0.451544D+01
   aniso      0.218652D+02      0.324010D+01      0.360509D+01
   xx         0.321617D+02      0.476587D+01      0.530275D+01
   yx         0.145110D+01      0.215031D+00      0.239255D+00
   yy         0.183770D+02      0.272318D+01      0.302995D+01
   zx         0.953036D+01      0.141225D+01      0.157134D+01
   zy         0.234010D+01      0.346767D+00      0.385830D+00
   zz         0.316212D+02      0.468577D+01      0.521363D+01

 ----------------------------------------------------------------------

 Dipole orientation:
     1         -0.00000000          0.00000000         -0.00000000
     8         -0.46665056         -0.07942999         -1.76885545
     8          2.07599102         -0.11051727         -2.81441866
     7          1.62155408         -0.80662887         -5.44278765
     8          3.55665732         -0.89824955         -6.51119960

 Electric dipole moment (dipole orientation):
 (Debye = 10**-18 statcoulomb cm , SI units = C m)
                  (au)            (Debye)         (10**-30 SI)
   Tot        0.575062D+00      0.146166D+01      0.487558D+01
   x          0.000000D+00      0.000000D+00      0.000000D+00
   y          0.000000D+00      0.000000D+00      0.000000D+00
   z          0.575062D+00      0.146166D+01      0.487558D+01

 Dipole polarizability, Alpha (dipole orientation).
 (esu units = cm**3 , SI units = C**2 m**2 J**-1)
 Alpha(0;0):
               (au)            (10**-24 esu)      (10**-40 SI)
   iso        0.273866D+02      0.405828D+01      0.451544D+01
   aniso      0.218652D+02      0.324010D+01      0.360509D+01
   xx         0.274381D+02      0.406591D+01      0.452394D+01
   yx        -0.112128D+01     -0.166156D+00     -0.184874D+00
   yy         0.186261D+02      0.276010D+01      0.307103D+01
   zx        -0.839953D+01     -0.124468D+01     -0.138490D+01
   zy         0.335495D+01      0.497152D+00      0.553157D+00
   zz         0.360956D+02      0.534882D+01      0.595136D+01

 ----------------------------------------------------------------------
 1\1\GINC-N2126\Freq\RMP2-FC\Aug-CC-pVTZ\H1N1O3\CGAVINH\21-Feb-2022\1\\
 #p freq mp2/aug-cc-pvtz density=current\\title\\0,1\H\O,1,r1\O,2,r2,1,
 a1\N,3,r3,2,a2,1,d1,0\O,4,r4,3,a3,2,d2,0\\r1=0.96897556\r2=1.45491931\
 r3=1.45878406\r4=1.17072885\a1=97.59494903\a2=102.29752444\a3=109.0695
 5123\d1=167.58917284\d2=180.\\Version=ES64L-G16RevB.01\State=1-A\HF=-2
 79.5018195\MP2=-280.4469134\RMSD=5.063e-09\RMSF=5.807e-04\ZeroPoint=0.
 0218792\Thermal=0.0259948\Dipole=-0.1465531,0.0249452,-0.5555148\Dipol
 eDeriv=0.265505,-0.0018791,0.0479387,-0.0021172,0.3539942,-0.0019819,0
 .0813393,0.0092994,0.2737091,-0.3273515,-0.019088,-0.204571,0.0141731,
 -0.3123949,0.0054917,-0.1128634,-0.0150381,-0.2208605,-0.0484823,0.018
 4003,0.1431443,-0.1753007,-0.1365418,-0.2626052,-0.7339109,-0.2271786,
 -1.2958563,0.8992552,0.1660568,0.8941862,0.1682393,0.124379,0.3023413,
 0.9079407,0.2986956,1.6005587,-0.7889264,-0.1634901,-0.8806982,-0.0049
 946,-0.0294366,-0.0432459,-0.1425056,-0.0657782,-0.357551\Polar=32.161
 7134,1.4511034,18.3769525,9.5303587,2.3400993,31.6211635\Quadrupole=-1
 .4964821,-0.7663808,2.2628629,0.0780024,2.0834642,-0.0465162\PG=C01 [X
 (H1N1O3)]\NImag=1\\0.06474130,0.00100885,-0.00206515,0.00511120,-0.000
 50005,0.51214258,-0.03559191,-0.00275397,-0.01596104,0.27165117,-0.000
 40678,0.00286506,0.00078125,0.00628677,0.00383794,0.04836064,0.0019482
 1,-0.50861444,0.03327498,0.00571622,0.59363803,-0.01888613,0.00319236,
 0.01228451,-0.21863786,0.00403416,-0.02201583,0.34027679,-0.00148856,0
 .00097304,0.00038449,-0.00248319,-0.00822436,-0.00880658,-0.00657426,0
 .01060477,-0.05292160,-0.00012364,-0.00029304,-0.01926884,-0.00546333,
 -0.07737380,0.03698290,0.02831392,0.17529655,-0.00899150,-0.00114864,-
 0.00475923,-0.01780073,-0.00960560,-0.05141446,-0.07712742,0.03943898,
 0.17002423,0.82787615,0.00260726,-0.00264112,-0.00079548,-0.00040801,-
 0.00382027,0.00783654,0.01867845,0.00301607,-0.02408954,-0.02776011,0.
 01741046,0.00482672,-0.00085608,-0.00464841,0.01157303,0.00373724,0.01
 564878,0.06089884,-0.01919599,-0.07735204,-0.01388278,0.03696507,0.179
 30542,-0.00127177,-0.00029860,0.00332456,0.00037933,-0.00030855,-0.008
 20533,-0.02562538,-0.02889297,-0.13481670,-0.72395649,0.00688242,-0.06
 341582,0.75047431,-0.00172077,0.00086816,0.00012979,-0.00064159,0.0053
 4162,-0.00669438,-0.01933071,-0.00636952,0.00136260,-0.00092463,-0.013
 96515,-0.02065024,0.02261771,0.01412488,-0.00537696,-0.00046843,0.0014
 1331,-0.00961814,-0.00477138,-0.02329857,-0.08815043,-0.00069584,-0.02
 027766,-0.09996776,-0.01991658,-0.11295376,0.20311328,0.02585223,0.155
 11669\\0.00012042,-0.00089005,-0.00000527,-0.00070239,0.00118563,0.000
 16901,0.00083483,0.00037394,-0.00005479,0.00017553,-0.00103892,0.00010
 037,-0.00042840,0.00036940,-0.00020932\\\@


 LENDING MONEY TO FRIENDS CAUSES THEM TO LOSE THEIR MEMORIES.

    --  PETER'S THEORY OF RECIPROCAL INHIBITION OF FISCAL RECALL
 Job cpu time:       0 days  2 hours  7 minutes 31.3 seconds.
 Elapsed time:       0 days  0 hours  4 minutes 41.2 seconds.
 File lengths (MBytes):  RWF=   7239 Int=      0 D2E=      0 Chk=      8 Scr=      1
 Normal termination of Gaussian 16 at Mon Feb 21 21:09:23 2022.
