title                                                                   
Freq      RMP2-FC                                                     Aug-CC-pVTZ         
Number of atoms                            I                5
Info1-9                                    I   N=           9
          33          24           0           0           0         100
           6           2           1
Full Title                                 C   N=           1
title       
Route                                      C   N=           4
#p freq mp2/aug-cc-pvtz density=current         
Charge                                     I                0
Multiplicity                               I                1
Number of electrons                        I               32
Number of alpha electrons                  I               16
Number of beta electrons                   I               16
Number of basis functions                  I              207
Number of independent functions            I              207
Number of point charges in /Mol/           I                0
Number of translation vectors              I                0
Atomic numbers                             I   N=           5
           1           8           8           7           8
Nuclear charges                            R   N=           5
  1.00000000E+00  8.00000000E+00  8.00000000E+00  7.00000000E+00  8.00000000E+00
Current cartesian coordinates              R   N=          15
  2.09829606E+00 -1.13215303E+00  0.00000000E+00  2.48736725E+00  6.88838503E-01
  0.00000000E+00 -3.13253377E-16  1.72911893E+00  0.00000000E+00 -1.87214564E+00
 -8.93221583E-02  0.00000000E+00 -1.11152682E+00 -2.19828141E+00  0.00000000E+00
Number of symbols in /Mol/                 I                0
Force Field                                I                0
Atom Types                                 C   N=           5
                                                            
Int Atom Types                             I   N=           5
           0           0           0           0           0
MM charges                                 R   N=           5
  0.00000000E+00  0.00000000E+00  0.00000000E+00  0.00000000E+00  0.00000000E+00
Integer atomic weights                     I   N=           5
           1          16          16          14          16
Real atomic weights                        R   N=           5
  1.00782504E+00  1.59949146E+01  1.59949146E+01  1.40030740E+01  1.59949146E+01
Atom fragment info                         I   N=           5
           0           0           0           0           0
Atom residue num                           I   N=           5
           0           0           0           0           0
Nuclear spins                              I   N=           5
           1           0           0           2           0
Nuclear ZEff                               R   N=           5
 -1.00000000E+00 -5.60000000E+00 -5.60000000E+00 -4.55000000E+00 -5.60000000E+00
Nuclear ZNuc                               R   N=           5
  1.00000000E+00  8.00000000E+00  8.00000000E+00  7.00000000E+00  8.00000000E+00
Nuclear QMom                               R   N=           5
  0.00000000E+00  0.00000000E+00  0.00000000E+00  2.04400000E+00  0.00000000E+00
Nuclear GFac                               R   N=           5
  2.79284600E+00  0.00000000E+00  0.00000000E+00  4.03761000E-01  0.00000000E+00
MicOpt                                     I   N=           5
          -1          -1          -1          -1          -1
Number of residues                         I                0
Number of secondary structures             I                0
SymInf integers                            I   N=          26
           1           2           1           1           1           1
           1          -1           0           0           0           0
           0           0           0           0           0           0
           0           0           0           0           0           0
           0           0
RotTr to input orientation                 R   N=          12
 -9.77927809E-01  0.00000000E+00  2.08943054E-01  2.08943054E-01  0.00000000E+00
  9.77927809E-01  0.00000000E+00  1.00000000E+00  0.00000000E+00  2.28853758E+00
  0.00000000E+00  6.68739541E-01
Number of contracted shells                I               65
Number of primitive shells                 I              119
Pure/Cartesian d shells                    I                0
Pure/Cartesian f shells                    I                0
Highest angular momentum                   I                3
Largest degree of contraction              I                7
Shell types                                I   N=          65
           0           0           0           0           1           1
           1          -2          -2           0           0           0
           0           0           1           1           1           1
          -2          -2          -2          -3          -3           0
           0           0           0           0           1           1
           1           1          -2          -2          -2          -3
          -3           0           0           0           0           0
           1           1           1           1          -2          -2
          -2          -3          -3           0           0           0
           0           0           1           1           1           1
          -2          -2          -2          -3          -3
Number of primitives per shell             I   N=          65
           3           1           1           1           1           1
           1           1           1           7           6           1
           1           1           3           1           1           1
           1           1           1           1           1           7
           6           1           1           1           3           1
           1           1           1           1           1           1
           1           7           6           1           1           1
           3           1           1           1           1           1
           1           1           1           7           6           1
           1           1           3           1           1           1
           1           1           1           1           1
Shell to atom map                          I   N=          65
           1           1           1           1           1           1
           1           1           1           2           2           2
           2           2           2           2           2           2
           2           2           2           2           2           3
           3           3           3           3           3           3
           3           3           3           3           3           3
           3           4           4           4           4           4
           4           4           4           4           4           4
           4           4           4           5           5           5
           5           5           5           5           5           5
           5           5           5           5           5
Primitive exponents                        R   N=         119
  3.38700000E+01  5.09500000E+00  1.15900000E+00  3.25800000E-01  1.02700000E-01
  2.52600000E-02  1.40700000E+00  3.88000000E-01  1.02000000E-01  1.05700000E+00
  2.47000000E-01  1.53300000E+04  2.29900000E+03  5.22400000E+02  1.47300000E+02
  4.75500000E+01  1.67600000E+01  6.20700000E+00  5.22400000E+02  1.47300000E+02
  4.75500000E+01  1.67600000E+01  6.20700000E+00  6.88200000E-01  1.75200000E+00
  2.38400000E-01  7.37600000E-02  3.44600000E+01  7.74900000E+00  2.28000000E+00
  7.15600000E-01  2.14000000E-01  5.97400000E-02  2.31400000E+00  6.45000000E-01
  2.14000000E-01  1.42800000E+00  5.00000000E-01  1.53300000E+04  2.29900000E+03
  5.22400000E+02  1.47300000E+02  4.75500000E+01  1.67600000E+01  6.20700000E+00
  5.22400000E+02  1.47300000E+02  4.75500000E+01  1.67600000E+01  6.20700000E+00
  6.88200000E-01  1.75200000E+00  2.38400000E-01  7.37600000E-02  3.44600000E+01
  7.74900000E+00  2.28000000E+00  7.15600000E-01  2.14000000E-01  5.97400000E-02
  2.31400000E+00  6.45000000E-01  2.14000000E-01  1.42800000E+00  5.00000000E-01
  1.14200000E+04  1.71200000E+03  3.89300000E+02  1.10000000E+02  3.55700000E+01
  1.25400000E+01  4.64400000E+00  3.89300000E+02  1.10000000E+02  3.55700000E+01
  1.25400000E+01  4.64400000E+00  5.11800000E-01  1.29300000E+00  1.78700000E-01
  5.76000000E-02  2.66300000E+01  5.94800000E+00  1.74200000E+00  5.55000000E-01
  1.72500000E-01  4.91000000E-02  1.65400000E+00  4.69000000E-01  1.51000000E-01
  1.09300000E+00  3.64000000E-01  1.53300000E+04  2.29900000E+03  5.22400000E+02
  1.47300000E+02  4.75500000E+01  1.67600000E+01  6.20700000E+00  5.22400000E+02
  1.47300000E+02  4.75500000E+01  1.67600000E+01  6.20700000E+00  6.88200000E-01
  1.75200000E+00  2.38400000E-01  7.37600000E-02  3.44600000E+01  7.74900000E+00
  2.28000000E+00  7.15600000E-01  2.14000000E-01  5.97400000E-02  2.31400000E+00
  6.45000000E-01  2.14000000E-01  1.42800000E+00  5.00000000E-01
Contraction coefficients                   R   N=         119
  2.54948632E-02  1.90362766E-01  8.52162022E-01  1.00000000E+00  1.00000000E+00
  1.00000000E+00  1.00000000E+00  1.00000000E+00  1.00000000E+00  1.00000000E+00
  1.00000000E+00  5.19808943E-04  4.02025621E-03  2.07128267E-02  8.10105536E-02
  2.35962985E-01  4.42653446E-01  3.57064423E-01 -4.42115008E-05 -1.22591041E-03
 -1.05517725E-02 -6.74452633E-02 -1.71198607E-01  1.07329856E+00  1.00000000E+00
  1.00000000E+00  1.00000000E+00  4.11634896E-02  2.57762836E-01  8.02419274E-01
  1.00000000E+00  1.00000000E+00  1.00000000E+00  1.00000000E+00  1.00000000E+00
  1.00000000E+00  1.00000000E+00  1.00000000E+00  5.19808943E-04  4.02025621E-03
  2.07128267E-02  8.10105536E-02  2.35962985E-01  4.42653446E-01  3.57064423E-01
 -4.42115008E-05 -1.22591041E-03 -1.05517725E-02 -6.74452633E-02 -1.71198607E-01
  1.07329856E+00  1.00000000E+00  1.00000000E+00  1.00000000E+00  4.11634896E-02
  2.57762836E-01  8.02419274E-01  1.00000000E+00  1.00000000E+00  1.00000000E+00
  1.00000000E+00  1.00000000E+00  1.00000000E+00  1.00000000E+00  1.00000000E+00
  5.34563860E-04  4.13435660E-03  2.12335358E-02  8.25006224E-02  2.38138871E-01
  4.42551547E-01  3.53757422E-01 -4.89867350E-05 -1.19527323E-03 -1.03490714E-02
 -6.48680190E-02 -1.71552477E-01  1.07289568E+00  1.00000000E+00  1.00000000E+00
  1.00000000E+00  3.98072123E-02  2.49002660E-01  8.10479727E-01  1.00000000E+00
  1.00000000E+00  1.00000000E+00  1.00000000E+00  1.00000000E+00  1.00000000E+00
  1.00000000E+00  1.00000000E+00  5.19808943E-04  4.02025621E-03  2.07128267E-02
  8.10105536E-02  2.35962985E-01  4.42653446E-01  3.57064423E-01 -4.42115008E-05
 -1.22591041E-03 -1.05517725E-02 -6.74452633E-02 -1.71198607E-01  1.07329856E+00
  1.00000000E+00  1.00000000E+00  1.00000000E+00  4.11634896E-02  2.57762836E-01
  8.02419274E-01  1.00000000E+00  1.00000000E+00  1.00000000E+00  1.00000000E+00
  1.00000000E+00  1.00000000E+00  1.00000000E+00  1.00000000E+00
Coordinates of each shell                  R   N=         195
  2.09829606E+00 -1.13215303E+00  0.00000000E+00  2.09829606E+00 -1.13215303E+00
  0.00000000E+00  2.09829606E+00 -1.13215303E+00  0.00000000E+00  2.09829606E+00
 -1.13215303E+00  0.00000000E+00  2.09829606E+00 -1.13215303E+00  0.00000000E+00
  2.09829606E+00 -1.13215303E+00  0.00000000E+00  2.09829606E+00 -1.13215303E+00
  0.00000000E+00  2.09829606E+00 -1.13215303E+00  0.00000000E+00  2.09829606E+00
 -1.13215303E+00  0.00000000E+00  2.48736725E+00  6.88838503E-01  0.00000000E+00
  2.48736725E+00  6.88838503E-01  0.00000000E+00  2.48736725E+00  6.88838503E-01
  0.00000000E+00  2.48736725E+00  6.88838503E-01  0.00000000E+00  2.48736725E+00
  6.88838503E-01  0.00000000E+00  2.48736725E+00  6.88838503E-01  0.00000000E+00
  2.48736725E+00  6.88838503E-01  0.00000000E+00  2.48736725E+00  6.88838503E-01
  0.00000000E+00  2.48736725E+00  6.88838503E-01  0.00000000E+00  2.48736725E+00
  6.88838503E-01  0.00000000E+00  2.48736725E+00  6.88838503E-01  0.00000000E+00
  2.48736725E+00  6.88838503E-01  0.00000000E+00  2.48736725E+00  6.88838503E-01
  0.00000000E+00  2.48736725E+00  6.88838503E-01  0.00000000E+00 -6.93341405E-17
  1.72911893E+00  0.00000000E+00 -6.93341405E-17  1.72911893E+00  0.00000000E+00
 -6.93341405E-17  1.72911893E+00  0.00000000E+00 -6.93341405E-17  1.72911893E+00
  0.00000000E+00 -6.93341405E-17  1.72911893E+00  0.00000000E+00 -6.93341405E-17
  1.72911893E+00  0.00000000E+00 -6.93341405E-17  1.72911893E+00  0.00000000E+00
 -6.93341405E-17  1.72911893E+00  0.00000000E+00 -6.93341405E-17  1.72911893E+00
  0.00000000E+00 -6.93341405E-17  1.72911893E+00  0.00000000E+00 -6.93341405E-17
  1.72911893E+00  0.00000000E+00 -6.93341405E-17  1.72911893E+00  0.00000000E+00
 -6.93341405E-17  1.72911893E+00  0.00000000E+00 -6.93341405E-17  1.72911893E+00
  0.00000000E+00 -1.87214564E+00 -8.93221583E-02  0.00000000E+00 -1.87214564E+00
 -8.93221583E-02  0.00000000E+00 -1.87214564E+00 -8.93221583E-02  0.00000000E+00
 -1.87214564E+00 -8.93221583E-02  0.00000000E+00 -1.87214564E+00 -8.93221583E-02
  0.00000000E+00 -1.87214564E+00 -8.93221583E-02  0.00000000E+00 -1.87214564E+00
 -8.93221583E-02  0.00000000E+00 -1.87214564E+00 -8.93221583E-02  0.00000000E+00
 -1.87214564E+00 -8.93221583E-02  0.00000000E+00 -1.87214564E+00 -8.93221583E-02
  0.00000000E+00 -1.87214564E+00 -8.93221583E-02  0.00000000E+00 -1.87214564E+00
 -8.93221583E-02  0.00000000E+00 -1.87214564E+00 -8.93221583E-02  0.00000000E+00
 -1.87214564E+00 -8.93221583E-02  0.00000000E+00 -1.11152682E+00 -2.19828141E+00
  0.00000000E+00 -1.11152682E+00 -2.19828141E+00  0.00000000E+00 -1.11152682E+00
 -2.19828141E+00  0.00000000E+00 -1.11152682E+00 -2.19828141E+00  0.00000000E+00
 -1.11152682E+00 -2.19828141E+00  0.00000000E+00 -1.11152682E+00 -2.19828141E+00
  0.00000000E+00 -1.11152682E+00 -2.19828141E+00  0.00000000E+00 -1.11152682E+00
 -2.19828141E+00  0.00000000E+00 -1.11152682E+00 -2.19828141E+00  0.00000000E+00
 -1.11152682E+00 -2.19828141E+00  0.00000000E+00 -1.11152682E+00 -2.19828141E+00
  0.00000000E+00 -1.11152682E+00 -2.19828141E+00  0.00000000E+00 -1.11152682E+00
 -2.19828141E+00  0.00000000E+00 -1.11152682E+00 -2.19828141E+00  0.00000000E+00
Num ILSW                                   I              100
ILSW                                       I   N=         100
           0           0           0           0           2           0
           0           0           0           0           0          -1
           5           0           0           0           2           0
           0           0           0           0           1           0
           1           0           0           0           0           0
           0           0      100000           0          -1           0
           0           0           0           0           0           0
           0           0           0           1           1           0
           0 -2000000000           1           0           0           0
           0           0           4          52           0           0
           0           0           0           0           0           0
           0           0           0           5           4           1
           0           0           0           0           0           0
           0           0           0           0           0           0
           0           0           0           0           0           0
           0           0           0           0           0           0
           0           0           0           0
Num RLSW                                   I               52
RLSW                                       R   N=          52
  1.00000000E+00  1.00000000E+00  1.00000000E+00  1.00000000E+00  1.00000000E+00
  0.00000000E+00  0.00000000E+00  1.00000000E+00  0.00000000E+00  0.00000000E+00
  0.00000000E+00  0.00000000E+00  1.00000000E+00  0.00000000E+00  0.00000000E+00
  0.00000000E+00  0.00000000E+00  1.00000000E+00  0.00000000E+00  0.00000000E+00
  0.00000000E+00  0.00000000E+00  1.00000000E+00  0.00000000E+00  0.00000000E+00
  0.00000000E+00  0.00000000E+00  1.00000000E+00  0.00000000E+00  0.00000000E+00
  0.00000000E+00  0.00000000E+00  1.00000000E+00  0.00000000E+00  0.00000000E+00
  0.00000000E+00  0.00000000E+00  0.00000000E+00  1.00000000E+00  1.00000000E+00
  0.00000000E+00  1.00000000E+00  0.00000000E+00  0.00000000E+00  0.00000000E+00
  0.00000000E+00  0.00000000E+00  0.00000000E+00  0.00000000E+00  0.00000000E+00
  0.00000000E+00  0.00000000E+00
MxBond                                     I                2
NBond                                      I   N=           5
           1           2           2           2           1
IBond                                      I   N=          10
           2           0           1           3           2           4
           3           5           4           0
RBond                                      R   N=          10
  1.00000000E+00  0.00000000E+00  1.00000000E+00  1.00000000E+00  1.00000000E+00
  1.00000000E+00  1.00000000E+00  2.00000000E+00  2.00000000E+00  0.00000000E+00
Virial Ratio                               R      2.002095853865208E+00
SCF Energy                                 R     -2.795077702915579E+02
MP2 Energy                                 R     -2.804551424541196E+02
Total Energy                               R     -2.804551424541196E+02
Post-SCF wavefunction norm                 R      1.582907743654042E+00
RMS Force                                  R      4.240013629497337E-03
RMS Density                                R      3.610570409504699E-09
NImag                                      I                0
Job Status                                 I                1
Nuclear derivative order                   I                2
External E-field                           R   N=          35
  0.00000000E+00  0.00000000E+00  0.00000000E+00  0.00000000E+00  0.00000000E+00
  0.00000000E+00  0.00000000E+00  0.00000000E+00  0.00000000E+00  0.00000000E+00
  0.00000000E+00  0.00000000E+00  0.00000000E+00  0.00000000E+00  0.00000000E+00
  0.00000000E+00  0.00000000E+00  0.00000000E+00  0.00000000E+00  0.00000000E+00
  0.00000000E+00  0.00000000E+00  0.00000000E+00  0.00000000E+00  0.00000000E+00
  0.00000000E+00  0.00000000E+00  0.00000000E+00  0.00000000E+00  0.00000000E+00
  0.00000000E+00  0.00000000E+00  0.00000000E+00  0.00000000E+00  0.00000000E+00
IOpCl                                      I                0
IROHF                                      I                0
Alpha Orbital Energies                     R   N=         207
 -2.07178698E+01 -2.06876772E+01 -2.06675384E+01 -1.58246532E+01 -1.64913373E+00
 -1.50704772E+00 -1.29293622E+00 -9.59095248E-01 -8.36512582E-01 -7.60757752E-01
 -7.41328668E-01 -6.37446012E-01 -6.20292849E-01 -6.18845914E-01 -5.03158855E-01
 -4.96957009E-01  3.50152356E-02  6.28690997E-02  9.51488591E-02  1.00453966E-01
  1.19526685E-01  1.22683389E-01  1.49321414E-01  1.52063480E-01  1.77786360E-01
  1.80275356E-01  1.89800734E-01  2.11009116E-01  2.16749555E-01  2.43347057E-01
  2.46507118E-01  2.69245601E-01  3.12774440E-01  3.16672065E-01  3.38038039E-01
  3.44529109E-01  3.47615211E-01  3.92958936E-01  4.48835043E-01  4.89129080E-01
  5.05149897E-01  5.18971824E-01  5.45356409E-01  5.60750152E-01  6.01572886E-01
  6.21728741E-01  6.40456690E-01  6.88268166E-01  7.16871534E-01  7.24528417E-01
  7.44817245E-01  7.63320594E-01  7.67177908E-01  7.95976451E-01  8.07134467E-01
  8.40798056E-01  8.43654507E-01  8.51874794E-01  8.86242178E-01  9.08308362E-01
  9.31508926E-01  9.49703140E-01  9.54037746E-01  1.01867022E+00  1.03195772E+00
  1.06281689E+00  1.06645639E+00  1.09549423E+00  1.14422641E+00  1.15651799E+00
  1.17079478E+00  1.22350227E+00  1.22763386E+00  1.24654900E+00  1.35273843E+00
  1.36085919E+00  1.37299465E+00  1.46874177E+00  1.48575186E+00  1.50500323E+00
  1.54163696E+00  1.59669345E+00  1.59821689E+00  1.60680133E+00  1.62978083E+00
  1.69751236E+00  1.74095697E+00  1.80246454E+00  1.82981292E+00  1.89084513E+00
  1.89696825E+00  1.92773517E+00  1.98000574E+00  1.99014053E+00  2.05000562E+00
  2.12591981E+00  2.13080718E+00  2.16613316E+00  2.18705515E+00  2.24389127E+00
  2.25924407E+00  2.29485617E+00  2.35268261E+00  2.36734486E+00  2.38750111E+00
  2.40508037E+00  2.43499036E+00  2.46860711E+00  2.47992063E+00  2.52901665E+00
  2.53939183E+00  2.55191086E+00  2.56131708E+00  2.61900914E+00  2.63025214E+00
  2.67544508E+00  2.67817191E+00  2.75778400E+00  2.81156533E+00  2.81988545E+00
  2.84129750E+00  2.91953828E+00  2.98822461E+00  3.05098876E+00  3.05241587E+00
  3.11657705E+00  3.11725809E+00  3.17548617E+00  3.21378622E+00  3.31044028E+00
  3.33222711E+00  3.36231815E+00  3.47902851E+00  3.68511932E+00  3.87018161E+00
  3.93044332E+00  4.18501339E+00  4.22452300E+00  4.22811806E+00  4.28279142E+00
  4.37047651E+00  4.50285609E+00  4.52900304E+00  4.56478465E+00  4.59984650E+00
  4.69653876E+00  4.81387741E+00  4.90005420E+00  4.91392437E+00  4.94465519E+00
  4.99741422E+00  5.00495384E+00  5.10917802E+00  5.13871646E+00  5.18023012E+00
  5.25874379E+00  5.25977088E+00  5.32049858E+00  5.34947407E+00  5.35624771E+00
  5.54136524E+00  5.65761188E+00  5.71111194E+00  5.88714350E+00  6.00503509E+00
  6.26604946E+00  6.29760953E+00  6.36288302E+00  6.37845209E+00  6.59933668E+00
  6.66071581E+00  6.66075926E+00  6.69161393E+00  6.72992230E+00  6.79470496E+00
  6.80508099E+00  6.85748400E+00  6.97075050E+00  7.02093691E+00  7.06727966E+00
  7.08191050E+00  7.14298820E+00  7.17858532E+00  7.18161198E+00  7.20548739E+00
  7.24910377E+00  7.25087354E+00  7.28525511E+00  7.35277995E+00  7.40039320E+00
  7.43151225E+00  7.44514966E+00  7.47288370E+00  7.57387437E+00  7.66470713E+00
  7.67153057E+00  7.79865256E+00  7.88640086E+00  7.95696406E+00  8.07576046E+00
  8.30756809E+00  8.50129585E+00  8.65602331E+00  1.36357906E+01  1.48137808E+01
  1.51422784E+01  1.59747206E+01
Alpha MO coefficients                      R   N=       42849
  6.40788296E-05 -2.48730250E-05 -1.09185931E-03  1.44147515E-05 -5.14866093E-05
  4.20135948E-05  0.00000000E+00 -8.91332238E-05 -2.87248503E-04  0.00000000E+00
 -3.18203536E-06 -3.45593434E-04  0.00000000E+00  4.23686976E-05  0.00000000E+00
  0.00000000E+00 -2.55179876E-05  1.16826788E-05  2.26344214E-04  0.00000000E+00
  0.00000000E+00 -3.99463298E-05 -2.07124757E-04  3.14289857E-03 -9.73159915E-05
 -9.62628589E-05  3.53998623E-03  2.47079164E-03  1.02571910E-04 -5.34397929E-05
  0.00000000E+00 -7.29306179E-04  2.86385115E-04  0.00000000E+00 -1.98333089E-03
  1.10720152E-03  0.00000000E+00 -5.37073235E-04  3.92341643E-05  0.00000000E+00
  2.05016742E-05  0.00000000E+00  0.00000000E+00 -8.93225884E-06  4.41969139E-05
 -4.43537936E-04  0.00000000E+00  0.00000000E+00  4.29292116E-04 -6.62303718E-04
 -3.65666319E-04  0.00000000E+00  0.00000000E+00  5.45431087E-04 -7.38304786E-04
  0.00000000E+00  7.40456641E-05 -5.24642969E-05  0.00000000E+00  0.00000000E+00
 -2.80328873E-05  1.08287444E-04  0.00000000E+00  2.08265884E-04 -5.03092612E-05
  0.00000000E+00  0.00000000E+00 -1.70540530E-04  3.00290461E-04  9.76901133E-01
 -9.17468424E-03  4.34108926E-02  5.22193992E-04 -2.19672305E-03  4.56109768E-04
 -2.14171942E-03  0.00000000E+00 -3.28643344E-04  2.24743710E-03  0.00000000E+00
 -2.32575675E-03 -4.88327354E-04  0.00000000E+00 -2.23296131E-04  9.50039620E-05
  0.00000000E+00  7.44589932E-06  0.00000000E+00  0.00000000E+00 -5.65263830E-06
  3.85865637E-05  8.26464729E-04  0.00000000E+00  0.00000000E+00 -4.74592729E-04
 -1.68998679E-04 -1.38981773E-04  0.00000000E+00  0.00000000E+00 -5.48029294E-04
  3.54696765E-04  0.00000000E+00 -6.01060115E-06 -7.91202510E-05  0.00000000E+00
  0.00000000E+00 -8.95901320E-06  4.78803642E-05  0.00000000E+00  9.22204110E-05
  6.56790995E-07  0.00000000E+00  0.00000000E+00 -3.38008280E-04  3.79221531E-04
  1.02695626E-04  4.47642987E-04 -3.23168234E-04 -8.87916844E-04  3.31861127E-04
 -4.39021197E-05 -9.97834821E-05  0.00000000E+00  6.92675469E-04  1.11975101E-03
  0.00000000E+00 -7.87347677E-04 -6.64896875E-04  0.00000000E+00  1.93566086E-04
  2.15578033E-04  0.00000000E+00 -5.20832311E-05  0.00000000E+00  0.00000000E+00
  1.93087812E-05  9.38294705E-05 -4.13778740E-04  0.00000000E+00  0.00000000E+00
  4.43841084E-05  1.07920010E-03  3.10095283E-05  0.00000000E+00  0.00000000E+00
 -3.16877189E-04  2.42002021E-05  0.00000000E+00 -7.85138421E-05 -1.13553478E-04
  0.00000000E+00  0.00000000E+00 -9.58346505E-05  1.04677534E-04  0.00000000E+00
 -1.23686221E-04  4.89830688E-05  0.00000000E+00  0.00000000E+00  1.82618322E-05
  5.19389200E-04 -7.69841683E-04  5.00467462E-05 -7.29009066E-05  2.38435182E-04
 -1.62619612E-04 -2.84552143E-05 -4.17813483E-05  0.00000000E+00  1.68025952E-04
  2.61191424E-04  0.00000000E+00  5.21437609E-04  3.47444209E-04  0.00000000E+00
 -2.23451835E-04 -6.04807739E-05  0.00000000E+00 -1.33499186E-05  0.00000000E+00
  0.00000000E+00  2.99967726E-06  1.62346291E-05 -1.35592656E-06  0.00000000E+00
  0.00000000E+00 -1.64912221E-04  2.81361757E-06 -2.41617949E-05  0.00000000E+00
  0.00000000E+00 -1.76479577E-04 -4.91577541E-05  0.00000000E+00 -5.26545740E-06
 -8.72405986E-06  0.00000000E+00  0.00000000E+00 -2.05003461E-05  1.00714122E-05
  0.00000000E+00  4.07118346E-05  6.12712572E-05  0.00000000E+00  0.00000000E+00
  1.60714108E-04 -1.02780289E-04  3.92996935E-05  6.18924384E-05 -9.33296765E-05
 -2.61348347E-05  1.98124361E-05  1.11557669E-05  0.00000000E+00  2.37132260E-04
  5.31731737E-05  0.00000000E+00  1.20425097E-04  2.43335997E-05  0.00000000E+00
  1.33655293E-05  0.00000000E+00  0.00000000E+00 -1.12071428E-05  1.70258453E-05
  1.85954901E-05  0.00000000E+00  0.00000000E+00 -8.80473802E-05  6.56796977E-05
 -2.40559787E-04  2.44334533E-05 -1.32794742E-05 -5.42362915E-04  1.49614863E-04
  6.40209301E-06  1.39001748E-05  0.00000000E+00  4.23889783E-06 -4.47779217E-05
  0.00000000E+00  1.66792570E-04  1.29510957E-04  0.00000000E+00 -4.43997025E-05
  5.14221609E-05  0.00000000E+00 -1.48523295E-06  0.00000000E+00  0.00000000E+00
 -8.16065842E-06 -1.16180334E-05  2.22215835E-05  0.00000000E+00  0.00000000E+00
  4.61966726E-05  1.10298268E-04  6.25612022E-05  0.00000000E+00  0.00000000E+00
 -2.14453087E-05 -7.12169519E-05  0.00000000E+00  7.42208627E-06  1.05479385E-05
  0.00000000E+00  0.00000000E+00 -6.47455823E-07 -2.51045264E-05  0.00000000E+00
 -1.38444864E-05 -3.70577440E-05  0.00000000E+00  0.00000000E+00 -1.11233343E-06
 -2.14859439E-05  7.98352066E-04  2.09197542E-05 -1.71411457E-05  3.42923550E-04
 -3.44275147E-04  1.76344502E-05  2.67119273E-05  0.00000000E+00 -7.14032493E-05
 -1.52634900E-04  0.00000000E+00  1.02628041E-04 -2.01347422E-04  0.00000000E+00
 -1.63494008E-04  1.34805298E-04  0.00000000E+00 -3.93656228E-06  0.00000000E+00
  0.00000000E+00 -3.17664528E-05 -9.48458295E-06 -5.36201223E-05  0.00000000E+00
  0.00000000E+00  9.55252807E-05  1.22676960E-04 -7.18887424E-05  0.00000000E+00
  0.00000000E+00  6.17586416E-05  3.94526288E-05  0.00000000E+00  3.20557164E-06
  2.93704275E-06  0.00000000E+00  0.00000000E+00 -7.67986895E-06 -3.84095671E-06
  0.00000000E+00  5.30785241E-06 -2.42059642E-05  0.00000000E+00  0.00000000E+00
  8.97940204E-05 -1.63757560E-04  2.39773053E-04  1.37873132E-03 -1.13016865E-04
 -9.13102008E-04  8.22991818E-04  6.97404632E-05 -8.96384348E-05  0.00000000E+00
  5.72638492E-04 -2.07116419E-03  0.00000000E+00  6.15492631E-05  5.47092529E-04
  0.00000000E+00  1.74245432E-04 -2.98224081E-04  0.00000000E+00 -1.27185565E-04
  0.00000000E+00  0.00000000E+00 -2.05208491E-04 -1.57976291E-04 -4.35979022E-04
  0.00000000E+00  0.00000000E+00 -5.50614941E-04 -9.09754437E-04 -2.43440406E-05
  0.00000000E+00  0.00000000E+00  8.59359683E-05  1.24514403E-04  0.00000000E+00
  1.20998608E-05  2.48494712E-05  0.00000000E+00  0.00000000E+00 -8.99503863E-06
 -1.40259963E-05  0.00000000E+00 -1.32521598E-04  1.57150598E-04  0.00000000E+00
  0.00000000E+00 -2.94223464E-04 -3.20665131E-05  9.76632122E-01 -9.88115700E-03
  4.35972448E-02  3.82578675E-03 -8.35147618E-04 -4.52472334E-04  2.13925343E-03
  0.00000000E+00  5.03407818E-04 -2.47855719E-03  0.00000000E+00 -9.71569473E-05
  8.53414118E-04  0.00000000E+00  1.00336105E-04 -5.77184831E-05  0.00000000E+00
 -2.00110656E-04  0.00000000E+00  0.00000000E+00 -8.13931944E-05 -4.89764465E-05
  4.04814390E-04  0.00000000E+00  0.00000000E+00  8.50384615E-04  4.74066057E-04
 -1.99700181E-04  0.00000000E+00  0.00000000E+00 -1.37821034E-04 -3.75367707E-05
  0.00000000E+00 -3.32178013E-06  6.62900033E-05  0.00000000E+00  0.00000000E+00
 -2.40583606E-05  8.26214828E-06  0.00000000E+00 -9.01297911E-05  9.71709650E-05
  0.00000000E+00  0.00000000E+00 -1.66929701E-04  2.06593242E-04  3.74997004E-04
  2.00424428E-03  1.39307058E-03 -1.95644211E-05  5.13132345E-05  2.69348229E-04
  0.00000000E+00  3.76488717E-04  1.03004066E-03  0.00000000E+00 -1.28418683E-04
  2.43759880E-04  0.00000000E+00 -2.40206548E-05  0.00000000E+00  0.00000000E+00
  3.24918466E-05 -2.91278980E-05 -2.17047576E-04  0.00000000E+00  0.00000000E+00
 -3.46197655E-04  4.04038396E-04  9.76834179E-01 -9.18660173E-03  4.34655737E-02
  1.32609064E-04 -1.92976176E-03 -2.04307098E-03 -8.38944211E-04  0.00000000E+00
  2.08182141E-03  7.75979751E-04  0.00000000E+00 -4.05011422E-04  6.50865760E-04
  0.00000000E+00  2.28557533E-04 -2.99108455E-04  0.00000000E+00  3.06365973E-05
  0.00000000E+00  0.00000000E+00 -7.42453496E-05  6.29495766E-05  7.66328441E-04
  0.00000000E+00  0.00000000E+00 -2.07877127E-04  3.49960504E-04 -2.38008662E-04
  0.00000000E+00  0.00000000E+00  3.36600277E-04  3.78458244E-06  0.00000000E+00
 -8.07080237E-05  1.28961929E-06  0.00000000E+00  0.00000000E+00  1.58838390E-05