title                                                                   
Freq      RMP2-FC                                                     Aug-CC-pVTZ         
Number of atoms                            I                5
Info1-9                                    I   N=           9
          33          24           0           0           0         100
           6           2           1
Full Title                                 C   N=           1
title       
Route                                      C   N=           4
#p freq mp2/aug-cc-pvtz density=current         
Charge                                     I                0
Multiplicity                               I                1
Number of electrons                        I               32
Number of alpha electrons                  I               16
Number of beta electrons                   I               16
Number of basis functions                  I              207
Number of independent functions            I              207
Number of point charges in /Mol/           I                0
Number of translation vectors              I                0
Atomic numbers                             I   N=           5
           1           8           8           7           8
Nuclear charges                            R   N=           5
  1.00000000E+00  8.00000000E+00  8.00000000E+00  7.00000000E+00  8.00000000E+00
Current cartesian coordinates              R   N=          15
  1.02184026E+00 -2.15113992E+00  6.60389939E-02  2.41356535E+00 -9.15427197E-01
  6.86214728E-03  1.02578206E+00  1.39590614E+00 -2.43616905E-02 -1.55917355E+00
  1.04094054E+00  3.61461218E-02 -2.20280058E+00 -1.12240943E+00 -2.23831876E-02
Number of symbols in /Mol/                 I                0
Force Field                                I                0
Atom Types                                 C   N=           5
                                                            
Int Atom Types                             I   N=           5
           0           0           0           0           0
MM charges                                 R   N=           5
  0.00000000E+00  0.00000000E+00  0.00000000E+00  0.00000000E+00  0.00000000E+00
Integer atomic weights                     I   N=           5
           1          16          16          14          16
Real atomic weights                        R   N=           5
  1.00782504E+00  1.59949146E+01  1.59949146E+01  1.40030740E+01  1.59949146E+01
Atom fragment info                         I   N=           5
           0           0           0           0           0
Atom residue num                           I   N=           5
           0           0           0           0           0
Nuclear spins                              I   N=           5
           1           0           0           2           0
Nuclear ZEff                               R   N=           5
 -1.00000000E+00 -5.60000000E+00 -5.60000000E+00 -4.55000000E+00 -5.60000000E+00
Nuclear ZNuc                               R   N=           5
  1.00000000E+00  8.00000000E+00  8.00000000E+00  7.00000000E+00  8.00000000E+00
Nuclear QMom                               R   N=           5
  0.00000000E+00  0.00000000E+00  0.00000000E+00  2.04400000E+00  0.00000000E+00
Nuclear GFac                               R   N=           5
  2.79284600E+00  0.00000000E+00  0.00000000E+00  4.03761000E-01  0.00000000E+00
MicOpt                                     I   N=           5
          -1          -1          -1          -1          -1
Number of residues                         I                0
Number of secondary structures             I                0
SymInf integers                            I   N=          26
           1           1           1           1           1           0
           0           0           0           0           0           0
           0           0           0           0           0           0
           0           0           0           0           0           0
           0           0
RotTr to input orientation                 R   N=          12
 -6.64077693E-01  1.99005655E-02  7.47398679E-01  7.47640955E-01  2.54507688E-02
  6.63615296E-01 -5.81555133E-03  9.99477977E-01 -3.17797656E-02  2.28724568E+00
 -3.15915544E-02  6.65905992E-01
Number of contracted shells                I               65
Number of primitive shells                 I              119
Pure/Cartesian d shells                    I                0
Pure/Cartesian f shells                    I                0
Highest angular momentum                   I                3
Largest degree of contraction              I                7
Shell types                                I   N=          65
           0           0           0           0           1           1
           1          -2          -2           0           0           0
           0           0           1           1           1           1
          -2          -2          -2          -3          -3           0
           0           0           0           0           1           1
           1           1          -2          -2          -2          -3
          -3           0           0           0           0           0
           1           1           1           1          -2          -2
          -2          -3          -3           0           0           0
           0           0           1           1           1           1
          -2          -2          -2          -3          -3
Number of primitives per shell             I   N=          65
           3           1           1           1           1           1
           1           1           1           7           6           1
           1           1           3           1           1           1
           1           1           1           1           1           7
           6           1           1           1           3           1
           1           1           1           1           1           1
           1           7           6           1           1           1
           3           1           1           1           1           1
           1           1           1           7           6           1
           1           1           3           1           1           1
           1           1           1           1           1
Shell to atom map                          I   N=          65
           1           1           1           1           1           1
           1           1           1           2           2           2
           2           2           2           2           2           2
           2           2           2           2           2           3
           3           3           3           3           3           3
           3           3           3           3           3           3
           3           4           4           4           4           4
           4           4           4           4           4           4
           4           4           4           5           5           5
           5           5           5           5           5           5
           5           5           5           5           5
Primitive exponents                        R   N=         119
  3.38700000E+01  5.09500000E+00  1.15900000E+00  3.25800000E-01  1.02700000E-01
  2.52600000E-02  1.40700000E+00  3.88000000E-01  1.02000000E-01  1.05700000E+00
  2.47000000E-01  1.53300000E+04  2.29900000E+03  5.22400000E+02  1.47300000E+02
  4.75500000E+01  1.67600000E+01  6.20700000E+00  5.22400000E+02  1.47300000E+02
  4.75500000E+01  1.67600000E+01  6.20700000E+00  6.88200000E-01  1.75200000E+00
  2.38400000E-01  7.37600000E-02  3.44600000E+01  7.74900000E+00  2.28000000E+00
  7.15600000E-01  2.14000000E-01  5.97400000E-02  2.31400000E+00  6.45000000E-01
  2.14000000E-01  1.42800000E+00  5.00000000E-01  1.53300000E+04  2.29900000E+03
  5.22400000E+02  1.47300000E+02  4.75500000E+01  1.67600000E+01  6.20700000E+00
  5.22400000E+02  1.47300000E+02  4.75500000E+01  1.67600000E+01  6.20700000E+00
  6.88200000E-01  1.75200000E+00  2.38400000E-01  7.37600000E-02  3.44600000E+01
  7.74900000E+00  2.28000000E+00  7.15600000E-01  2.14000000E-01  5.97400000E-02
  2.31400000E+00  6.45000000E-01  2.14000000E-01  1.42800000E+00  5.00000000E-01
  1.14200000E+04  1.71200000E+03  3.89300000E+02  1.10000000E+02  3.55700000E+01
  1.25400000E+01  4.64400000E+00  3.89300000E+02  1.10000000E+02  3.55700000E+01
  1.25400000E+01  4.64400000E+00  5.11800000E-01  1.29300000E+00  1.78700000E-01
  5.76000000E-02  2.66300000E+01  5.94800000E+00  1.74200000E+00  5.55000000E-01
  1.72500000E-01  4.91000000E-02  1.65400000E+00  4.69000000E-01  1.51000000E-01
  1.09300000E+00  3.64000000E-01  1.53300000E+04  2.29900000E+03  5.22400000E+02
  1.47300000E+02  4.75500000E+01  1.67600000E+01  6.20700000E+00  5.22400000E+02
  1.47300000E+02  4.75500000E+01  1.67600000E+01  6.20700000E+00  6.88200000E-01
  1.75200000E+00  2.38400000E-01  7.37600000E-02  3.44600000E+01  7.74900000E+00
  2.28000000E+00  7.15600000E-01  2.14000000E-01  5.97400000E-02  2.31400000E+00
  6.45000000E-01  2.14000000E-01  1.42800000E+00  5.00000000E-01
Contraction coefficients                   R   N=         119
  2.54948632E-02  1.90362766E-01  8.52162022E-01  1.00000000E+00  1.00000000E+00
  1.00000000E+00  1.00000000E+00  1.00000000E+00  1.00000000E+00  1.00000000E+00
  1.00000000E+00  5.19808943E-04  4.02025621E-03  2.07128267E-02  8.10105536E-02
  2.35962985E-01  4.42653446E-01  3.57064423E-01 -4.42115008E-05 -1.22591041E-03
 -1.05517725E-02 -6.74452633E-02 -1.71198607E-01  1.07329856E+00  1.00000000E+00
  1.00000000E+00  1.00000000E+00  4.11634896E-02  2.57762836E-01  8.02419274E-01
  1.00000000E+00  1.00000000E+00  1.00000000E+00  1.00000000E+00  1.00000000E+00
  1.00000000E+00  1.00000000E+00  1.00000000E+00  5.19808943E-04  4.02025621E-03
  2.07128267E-02  8.10105536E-02  2.35962985E-01  4.42653446E-01  3.57064423E-01
 -4.42115008E-05 -1.22591041E-03 -1.05517725E-02 -6.74452633E-02 -1.71198607E-01
  1.07329856E+00  1.00000000E+00  1.00000000E+00  1.00000000E+00  4.11634896E-02
  2.57762836E-01  8.02419274E-01  1.00000000E+00  1.00000000E+00  1.00000000E+00
  1.00000000E+00  1.00000000E+00  1.00000000E+00  1.00000000E+00  1.00000000E+00
  5.34563860E-04  4.13435660E-03  2.12335358E-02  8.25006224E-02  2.38138871E-01
  4.42551547E-01  3.53757422E-01 -4.89867350E-05 -1.19527323E-03 -1.03490714E-02
 -6.48680190E-02 -1.71552477E-01  1.07289568E+00  1.00000000E+00  1.00000000E+00
  1.00000000E+00  3.98072123E-02  2.49002660E-01  8.10479727E-01  1.00000000E+00
  1.00000000E+00  1.00000000E+00  1.00000000E+00  1.00000000E+00  1.00000000E+00
  1.00000000E+00  1.00000000E+00  5.19808943E-04  4.02025621E-03  2.07128267E-02
  8.10105536E-02  2.35962985E-01  4.42653446E-01  3.57064423E-01 -4.42115008E-05
 -1.22591041E-03 -1.05517725E-02 -6.74452633E-02 -1.71198607E-01  1.07329856E+00
  1.00000000E+00  1.00000000E+00  1.00000000E+00  4.11634896E-02  2.57762836E-01
  8.02419274E-01  1.00000000E+00  1.00000000E+00  1.00000000E+00  1.00000000E+00
  1.00000000E+00  1.00000000E+00  1.00000000E+00  1.00000000E+00
Coordinates of each shell                  R   N=         195
  1.02184026E+00 -2.15113992E+00  6.60389939E-02  1.02184026E+00 -2.15113992E+00
  6.60389939E-02  1.02184026E+00 -2.15113992E+00  6.60389939E-02  1.02184026E+00
 -2.15113992E+00  6.60389939E-02  1.02184026E+00 -2.15113992E+00  6.60389939E-02
  1.02184026E+00 -2.15113992E+00  6.60389939E-02  1.02184026E+00 -2.15113992E+00
  6.60389939E-02  1.02184026E+00 -2.15113992E+00  6.60389939E-02  1.02184026E+00
 -2.15113992E+00  6.60389939E-02  2.41356535E+00 -9.15427197E-01  6.86214728E-03
  2.41356535E+00 -9.15427197E-01  6.86214728E-03  2.41356535E+00 -9.15427197E-01
  6.86214728E-03  2.41356535E+00 -9.15427197E-01  6.86214728E-03  2.41356535E+00
 -9.15427197E-01  6.86214728E-03  2.41356535E+00 -9.15427197E-01  6.86214728E-03
  2.41356535E+00 -9.15427197E-01  6.86214728E-03  2.41356535E+00 -9.15427197E-01
  6.86214728E-03  2.41356535E+00 -9.15427197E-01  6.86214728E-03  2.41356535E+00
 -9.15427197E-01  6.86214728E-03  2.41356535E+00 -9.15427197E-01  6.86214728E-03
  2.41356535E+00 -9.15427197E-01  6.86214728E-03  2.41356535E+00 -9.15427197E-01
  6.86214728E-03  2.41356535E+00 -9.15427197E-01  6.86214728E-03  1.02578206E+00
  1.39590614E+00 -2.43616905E-02  1.02578206E+00  1.39590614E+00 -2.43616905E-02
  1.02578206E+00  1.39590614E+00 -2.43616905E-02  1.02578206E+00  1.39590614E+00
 -2.43616905E-02  1.02578206E+00  1.39590614E+00 -2.43616905E-02  1.02578206E+00
  1.39590614E+00 -2.43616905E-02  1.02578206E+00  1.39590614E+00 -2.43616905E-02
  1.02578206E+00  1.39590614E+00 -2.43616905E-02  1.02578206E+00  1.39590614E+00
 -2.43616905E-02  1.02578206E+00  1.39590614E+00 -2.43616905E-02  1.02578206E+00
  1.39590614E+00 -2.43616905E-02  1.02578206E+00  1.39590614E+00 -2.43616905E-02
  1.02578206E+00  1.39590614E+00 -2.43616905E-02  1.02578206E+00  1.39590614E+00
 -2.43616905E-02 -1.55917355E+00  1.04094054E+00  3.61461218E-02 -1.55917355E+00
  1.04094054E+00  3.61461218E-02 -1.55917355E+00  1.04094054E+00  3.61461218E-02
 -1.55917355E+00  1.04094054E+00  3.61461218E-02 -1.55917355E+00  1.04094054E+00
  3.61461218E-02 -1.55917355E+00  1.04094054E+00  3.61461218E-02 -1.55917355E+00
  1.04094054E+00  3.61461218E-02 -1.55917355E+00  1.04094054E+00  3.61461218E-02
 -1.55917355E+00  1.04094054E+00  3.61461218E-02 -1.55917355E+00  1.04094054E+00
  3.61461218E-02 -1.55917355E+00  1.04094054E+00  3.61461218E-02 -1.55917355E+00
  1.04094054E+00  3.61461218E-02 -1.55917355E+00  1.04094054E+00  3.61461218E-02
 -1.55917355E+00  1.04094054E+00  3.61461218E-02 -2.20280058E+00 -1.12240943E+00
 -2.23831876E-02 -2.20280058E+00 -1.12240943E+00 -2.23831876E-02 -2.20280058E+00
 -1.12240943E+00 -2.23831876E-02 -2.20280058E+00 -1.12240943E+00 -2.23831876E-02
 -2.20280058E+00 -1.12240943E+00 -2.23831876E-02 -2.20280058E+00 -1.12240943E+00
 -2.23831876E-02 -2.20280058E+00 -1.12240943E+00 -2.23831876E-02 -2.20280058E+00
 -1.12240943E+00 -2.23831876E-02 -2.20280058E+00 -1.12240943E+00 -2.23831876E-02
 -2.20280058E+00 -1.12240943E+00 -2.23831876E-02 -2.20280058E+00 -1.12240943E+00
 -2.23831876E-02 -2.20280058E+00 -1.12240943E+00 -2.23831876E-02 -2.20280058E+00
 -1.12240943E+00 -2.23831876E-02 -2.20280058E+00 -1.12240943E+00 -2.23831876E-02
Num ILSW                                   I              100
ILSW                                       I   N=         100
           0           0           0           0           2           0
           0           0           0           0           0          -1
           5           0           0           0           2           0
           0           0           0           0           1           0
           1           0           0           0           0           0
           0           0      100000           0          -1           0
           0           0           0           0           0           0
           0           0           0           1           1           0
           0 -2000000000           1           0           0           0
           0           0           4          52           0           0
           0           0           0           0           0           0
           0           0           0           5           4           1
           0           0           0           0           0           0
           0           0           0           0           0           0
           0           0           0           0           0           0
           0           0           0           0           0           0
           0           0           0           0
Num RLSW                                   I               52
RLSW                                       R   N=          52
  1.00000000E+00  1.00000000E+00  1.00000000E+00  1.00000000E+00  1.00000000E+00
  0.00000000E+00  0.00000000E+00  1.00000000E+00  0.00000000E+00  0.00000000E+00
  0.00000000E+00  0.00000000E+00  1.00000000E+00  0.00000000E+00  0.00000000E+00
  0.00000000E+00  0.00000000E+00  1.00000000E+00  0.00000000E+00  0.00000000E+00
  0.00000000E+00  0.00000000E+00  1.00000000E+00  0.00000000E+00  0.00000000E+00
  0.00000000E+00  0.00000000E+00  1.00000000E+00  0.00000000E+00  0.00000000E+00
  0.00000000E+00  0.00000000E+00  1.00000000E+00  0.00000000E+00  0.00000000E+00
  0.00000000E+00  0.00000000E+00  0.00000000E+00  1.00000000E+00  1.00000000E+00
  0.00000000E+00  1.00000000E+00  0.00000000E+00  0.00000000E+00  0.00000000E+00
  0.00000000E+00  0.00000000E+00  0.00000000E+00  0.00000000E+00  0.00000000E+00
  0.00000000E+00  0.00000000E+00
MxBond                                     I                2
NBond                                      I   N=           5
           1           2           2           2           1
IBond                                      I   N=          10
           2           0           1           3           2           4
           3           5           4           0
RBond                                      R   N=          10
  1.00000000E+00  0.00000000E+00  1.00000000E+00  1.00000000E+00  1.00000000E+00
  1.00000000E+00  1.00000000E+00  2.00000000E+00  2.00000000E+00  0.00000000E+00
Virial Ratio                               R      2.002226299481539E+00
SCF Energy                                 R     -2.795062879797825E+02
MP2 Energy                                 R     -2.804550355581274E+02
Total Energy                               R     -2.804550355581274E+02
Post-SCF wavefunction norm                 R      1.583712839764351E+00
RMS Force                                  R      1.839023022134539E-03
RMS Density                                R      6.617557609680394E-09
NImag                                      I                0
Job Status                                 I                1
Nuclear derivative order                   I                2
External E-field                           R   N=          35
  0.00000000E+00  0.00000000E+00  0.00000000E+00  0.00000000E+00  0.00000000E+00
  0.00000000E+00  0.00000000E+00  0.00000000E+00  0.00000000E+00  0.00000000E+00
  0.00000000E+00  0.00000000E+00  0.00000000E+00  0.00000000E+00  0.00000000E+00
  0.00000000E+00  0.00000000E+00  0.00000000E+00  0.00000000E+00  0.00000000E+00
  0.00000000E+00  0.00000000E+00  0.00000000E+00  0.00000000E+00  0.00000000E+00
  0.00000000E+00  0.00000000E+00  0.00000000E+00  0.00000000E+00  0.00000000E+00
  0.00000000E+00  0.00000000E+00  0.00000000E+00  0.00000000E+00  0.00000000E+00
IOpCl                                      I                0
IROHF                                      I                0
Alpha Orbital Energies                     R   N=         207
 -2.07196894E+01 -2.06872555E+01 -2.06683437E+01 -1.58259744E+01 -1.64423416E+00
 -1.50516776E+00 -1.29373655E+00 -9.60359316E-01 -8.34527607E-01 -7.58937966E-01
 -7.39886965E-01 -6.37514048E-01 -6.19227233E-01 -6.17910724E-01 -5.04832863E-01
 -4.97250025E-01  3.50475004E-02  6.01147256E-02  9.51183247E-02  1.00376183E-01
  1.19064189E-01  1.23092192E-01  1.49462716E-01  1.52043743E-01  1.77330105E-01
  1.80560388E-01  1.89620964E-01  2.11173128E-01  2.16796641E-01  2.42526931E-01
  2.46319124E-01  2.68868914E-01  3.11434560E-01  3.17896107E-01  3.38059015E-01
  3.43865192E-01  3.46838477E-01  3.92621181E-01  4.48288620E-01  4.87599363E-01
  5.05763777E-01  5.18743760E-01  5.44783282E-01  5.61331765E-01  5.98974115E-01
  6.20364826E-01  6.38206653E-01  6.89855051E-01  7.16810165E-01  7.24767558E-01
  7.43106444E-01  7.63757356E-01  7.67308335E-01  7.94733744E-01  8.06096160E-01
  8.40954436E-01  8.43249336E-01  8.52170795E-01  8.85711697E-01  9.07747397E-01
  9.29807456E-01  9.48828753E-01  9.54226942E-01  1.01772267E+00  1.03307859E+00
  1.06070522E+00  1.06539040E+00  1.09627929E+00  1.14345663E+00  1.15634554E+00
  1.17041904E+00  1.22166279E+00  1.22684514E+00  1.24624659E+00  1.35151109E+00
  1.36270448E+00  1.37100071E+00  1.46850124E+00  1.48614857E+00  1.50468992E+00
  1.54118692E+00  1.59165434E+00  1.59818135E+00  1.61046619E+00  1.62857296E+00
  1.69535775E+00  1.74032753E+00  1.80135874E+00  1.83001274E+00  1.88676419E+00
  1.89749861E+00  1.92971611E+00  1.97902636E+00  1.98928794E+00  2.05239807E+00
  2.12361371E+00  2.13081115E+00  2.16516564E+00  2.18822436E+00  2.23974369E+00
  2.26384073E+00  2.29467143E+00  2.35202896E+00  2.36577720E+00  2.38653475E+00
  2.40217440E+00  2.43367383E+00  2.46774282E+00  2.48040599E+00  2.52837743E+00
  2.53934933E+00  2.54830398E+00  2.56000477E+00  2.61621899E+00  2.63036155E+00
  2.66986447E+00  2.67481869E+00  2.75335094E+00  2.80832418E+00  2.81944107E+00
  2.84245315E+00  2.91856523E+00  2.98505115E+00  3.04635767E+00  3.05102673E+00
  3.11543941E+00  3.11827166E+00  3.17291041E+00  3.21299514E+00  3.30716260E+00
  3.33241137E+00  3.36111157E+00  3.47772770E+00  3.67776466E+00  3.86990688E+00
  3.93014881E+00  4.18223623E+00  4.21905171E+00  4.22939028E+00  4.26936914E+00
  4.36981548E+00  4.50031899E+00  4.52753113E+00  4.55631616E+00  4.59932669E+00
  4.69350549E+00  4.80943874E+00  4.89547068E+00  4.91857390E+00  4.94144778E+00
  4.99757108E+00  5.00638307E+00  5.10880606E+00  5.13297207E+00  5.17941024E+00
  5.24951090E+00  5.25932075E+00  5.31758938E+00  5.34693519E+00  5.35608383E+00
  5.54683520E+00  5.64499489E+00  5.70652863E+00  5.88977780E+00  5.99729406E+00
  6.26436575E+00  6.29590066E+00  6.36094989E+00  6.37659084E+00  6.59829530E+00
  6.65923851E+00  6.65982413E+00  6.69014538E+00  6.72575371E+00  6.79481661E+00
  6.80774129E+00  6.85060944E+00  6.96783202E+00  7.02082492E+00  7.06644280E+00
  7.08070227E+00  7.13871951E+00  7.17182570E+00  7.17814340E+00  7.20337586E+00
  7.24403540E+00  7.24947880E+00  7.27181305E+00  7.34998179E+00  7.39438300E+00
  7.42796544E+00  7.44325109E+00  7.46261329E+00  7.55974010E+00  7.66345009E+00
  7.66732612E+00  7.79430393E+00  7.88253431E+00  7.95282126E+00  8.06319498E+00
  8.30643800E+00  8.49944138E+00  8.65219340E+00  1.36188454E+01  1.47636423E+01
  1.51032169E+01  1.57613034E+01
Alpha MO coefficients                      R   N=       42849
  6.45846099E-05 -2.78673252E-05 -1.10769447E-03  1.29208270E-05 -1.66586874E-05
  6.44752703E-05  7.76731302E-08 -2.41727962E-04 -1.82271457E-04 -9.00398196E-06
 -2.05605773E-04 -2.80779967E-04 -8.42965313E-06  4.26651326E-05  8.23555327E-07
 -1.45839014E-06  4.31152394E-06  2.79367426E-05  2.28237698E-04  8.04096196E-06
 -4.22117274E-06 -2.10065678E-04 -2.44078320E-05  3.07992711E-03 -9.57512117E-05
 -9.90735582E-05  3.54183703E-03  2.47703915E-03  5.12205323E-05 -1.03677963E-04
  1.29487362E-06 -4.18797810E-04  6.61826697E-04 -7.15350925E-06 -9.40934150E-04
  2.06547882E-03 -1.65270298E-05 -4.09723180E-04  3.50840873E-04  2.73829867E-06
  2.04438833E-05  5.99861261E-08  2.19866461E-06  3.93702216E-05  2.17456271E-05
 -4.42914178E-04  5.98275416E-06 -2.49146491E-05 -5.02704176E-04 -6.07208332E-04
 -3.64229728E-04  1.14796427E-05 -2.30898074E-05 -5.42156872E-04 -7.40972876E-04
  3.32211392E-06  2.86281052E-05 -8.60105491E-05  2.25199717E-06  1.88107550E-06
  1.11284230E-04 -8.74432677E-06  4.09462916E-06  1.37543678E-04 -1.63769613E-04
  3.48003996E-06  1.31692753E-05  3.38809684E-04  6.40863747E-05  9.76903576E-01
 -9.17361930E-03  4.34075595E-02  4.92645877E-04 -2.20784811E-03 -9.08541385E-04
 -1.99690259E-03  4.94242081E-05  1.07526254E-03  2.00551996E-03 -5.43691820E-05
 -2.15001965E-03  9.81300461E-04  3.34869351E-05 -1.23468720E-04  2.10907946E-04
 -6.19641569E-06  7.12857143E-06  1.87916383E-06  2.31862596E-06  3.46559757E-05
  1.60574555E-05  8.26881652E-04  1.68314220E-05  2.14068634E-05 -3.05511764E-04
  4.02361468E-04 -1.38556190E-04 -2.95386325E-05 -1.42176870E-05  1.73457402E-04
  6.30204817E-04  5.76922797E-06 -5.19220179E-05 -6.01035168E-05 -1.01535909E-06
  2.73397334E-07  4.84582621E-05 -6.93988500E-06 -1.74584713E-06  7.45013072E-05
 -5.39664830E-05 -7.19377934E-06  4.11333660E-06  4.68413291E-04  1.94991197E-04
  1.04337889E-04  4.57506034E-04 -3.23527338E-04 -8.23813563E-04  3.53815407E-04
 -9.48116072E-05 -5.44191942E-05  2.69916778E-06  1.22003424E-03  4.81839207E-04
 -2.45865595E-05 -1.00393857E-03 -7.85360162E-05 -8.10726932E-06  2.82115316E-04
  5.46678832E-05 -8.36044013E-06 -5.24662604E-05 -3.55776832E-06 -1.38400730E-06
  9.46445616E-05  9.57071433E-06 -4.14814552E-04 -5.11620473E-05 -9.83629048E-06
  1.04231656E-03  2.84111259E-04  2.67957070E-05 -3.83754949E-06  3.44455572E-06
 -6.72841203E-05  3.09976146E-04  6.70848975E-06 -1.30180941E-04 -4.48767936E-05
 -1.03569719E-05 -1.77688336E-06  1.31605807E-04  5.70119373E-05  1.26873952E-05
 -7.14770984E-05  1.10999067E-04 -2.66309782E-05  7.77803809E-06  4.86692605E-04
 -1.82771392E-04 -7.08131959E-04  4.62586631E-05 -7.02868579E-05  2.07669046E-04
 -1.78871090E-04 -4.76904268E-05 -1.62915147E-05  2.03808152E-06  2.85244733E-04
  1.04430068E-04 -1.16644431E-05  6.17550901E-04 -5.37223262E-05  1.95389848E-05
 -2.11764838E-04  7.80697262E-05  7.92041544E-06 -1.29007962E-05 -2.12811984E-06
  5.93332329E-07  1.55389851E-05  1.41825774E-06 -2.43435648E-06  1.13117160E-05
 -4.97323129E-06 -3.92646709E-05  1.59129232E-04 -2.20212385E-05  3.29680307E-05
 -4.78082830E-07 -9.01007860E-05  1.49114343E-04  2.07169039E-06 -1.01691771E-05
 -3.71932719E-06 -2.00413351E-06 -6.24605653E-07  1.58701605E-05  1.72897738E-05
 -9.98948932E-06  6.87206676E-05  2.48074613E-05  1.01466401E-05  9.78403956E-06
 -1.48489929E-04 -1.15018619E-04  4.03006487E-05  6.04803172E-05 -1.24769698E-04
 -2.98270182E-05  2.10687951E-05 -2.22930872E-06  5.17195709E-07  2.28720304E-04
 -9.30979426E-05  2.40354775E-06  1.13980930E-04 -5.66574687E-05  7.50378412E-06
  1.35301260E-05 -1.36754221E-06  1.51757749E-06  1.15017760E-05  1.67981945E-05
  2.28921902E-05  6.75455031E-06  7.22187271E-07  2.96802142E-05  1.10766548E-04
 -2.59132273E-04  2.55755682E-05 -1.52496806E-05 -5.47152676E-04  1.64243368E-04
  1.40367043E-05  6.72228207E-06  4.52770578E-07 -2.52334830E-05 -3.40849189E-05
 -2.10769085E-06  2.25578227E-04 -5.10247765E-06 -3.75684320E-06 -9.01347968E-06
  6.65194522E-05 -7.28176687E-06 -1.36074515E-06  1.01260461E-07 -6.34444751E-07
 -1.35906838E-05  4.44079036E-06  2.07309487E-05  4.55462075E-07  4.69342806E-06
  1.18096286E-04 -1.45566761E-05  6.09142354E-05 -1.02084137E-06  1.18119705E-05
 -8.38344497E-05  4.01390582E-06  5.74501934E-07  1.23469187E-05  3.70146419E-06
 -9.49464166E-07 -4.81583575E-08 -2.30733481E-05  8.94510893E-06 -1.11156451E-06
 -3.23489171E-05 -2.03984481E-05  2.45865404E-06 -3.23574110E-06 -1.75013222E-05
  8.90876050E-06  7.36225810E-04  2.28067822E-05 -1.87771599E-05  2.95987161E-04
 -3.91314048E-04  2.93625028E-05  1.21223251E-05 -4.54892581E-07 -1.43595819E-04
 -8.43059970E-05  1.18445377E-06  3.50327040E-06 -2.52994399E-04  1.60179264E-05
 -4.27595070E-05  2.07407392E-04  7.20364525E-06 -4.07071438E-06  7.64987293E-07
  5.69542541E-07 -1.81918349E-05  2.52377020E-05 -5.12172277E-05 -6.28937802E-06
 -2.84498010E-06  1.40008899E-04 -3.99562411E-05 -6.45114278E-05 -1.85459111E-05
 -4.22818956E-06  3.84841953E-05 -3.29477395E-05  6.21505356E-07  4.38526370E-06
  8.99334730E-07  7.20972211E-07 -7.78017505E-07  4.17398713E-07  8.15063548E-06
 -6.77342640E-06 -1.20800674E-05 -2.24777407E-05  4.94500866E-06  6.28026016E-06
 -1.77288432E-04 -4.01307574E-05  2.37035020E-04  1.35731146E-03 -1.47176494E-04
 -6.86574995E-04  9.02072778E-04  8.79981474E-06 -9.46324577E-05 -2.53281186E-06
 -7.74290039E-04 -2.01623286E-03 -5.12928686E-05  3.85250962E-04  3.30500783E-04
 -2.69275313E-05 -3.25935016E-05 -3.57019950E-04 -9.33243055E-06 -1.27558203E-04
  5.08185180E-06  1.10100845E-05 -2.11852874E-04  1.47601745E-04 -4.59173196E-04
  1.08604391E-05  5.50418509E-05 -1.05665198E-03  3.01530152E-04 -4.17958351E-05
 -1.35709187E-05  2.93587981E-06  1.28828660E-04 -2.31811914E-05  1.27469284E-07
  2.85580242E-05  2.46048042E-05  3.47458272E-06  5.26182424E-07  4.21089783E-06
  2.44388330E-05  1.99381996E-05 -1.51231199E-05  2.06637020E-04  1.89386936E-05
 -7.12793951E-06  7.10290042E-05  3.08225710E-04  9.76646068E-01 -9.88650641E-03
  4.35753489E-02  3.68516852E-03 -8.93042477E-04  9.02326855E-04  1.98166440E-03
  5.83991865E-05 -1.07243952E-03 -2.32133983E-03 -6.50168627E-05  4.27970586E-04
  6.95808566E-04  4.63964277E-05  4.62161178E-05 -1.13667493E-04 -3.95204514E-06
 -1.93677356E-04 -5.10295325E-06  1.09939293E-05 -6.36073806E-05  5.81612885E-05
  4.08356188E-04 -2.28910416E-05 -3.65441242E-05  7.16900991E-04 -6.75773372E-04
 -2.05835437E-04  1.61508112E-05  1.84241886E-05 -7.52807203E-05  1.22062383E-04
  4.91578422E-06  3.78550114E-05  5.92248163E-05  2.85405742E-06 -1.29433788E-06
  1.94289703E-05  2.40021465E-05  3.91172786E-06 -1.77529439E-05  1.26443449E-04
  1.19401327E-05 -9.73286317E-06  2.48007827E-04  8.96726222E-05  3.75347490E-04
  1.99263724E-03  1.36651585E-03 -1.78971454E-05  2.00129361E-04  1.86337134E-04
 -7.76708042E-06  9.14734228E-04  6.00928959E-04 -4.08146158E-05  4.28849018E-05
  2.63324124E-04 -2.22424111E-05 -2.35652550E-05  1.69145152E-06 -2.25678943E-06
 -1.76968728E-05 -3.97192124E-05 -2.15503699E-04 -1.81760522E-05 -1.10033123E-05
  2.82534451E-04  4.52196874E-04  9.76834489E-01 -9.18695362E-03  4.34652453E-02
  1.37769012E-04 -1.90610627E-03 -2.14196785E-03  5.36658830E-04  2.87526931E-05
  2.13477589E-03 -6.10815276E-04 -2.58069772E-05  5.49120379E-05  7.58399454E-04
 -2.62405197E-05  3.92974291E-06 -3.71345083E-04  1.46740023E-05  3.08008930E-05
 -1.76286330E-06  2.87877459E-06  3.79891887E-05  9.00045840E-05  7.64808146E-04
  1.09537381E-05  3.60956075E-05  2.73817339E-04  3.04848095E-04 -2.37808171E-04
  1.80496048E-06 -5.34381213E-06  1.03906541E-04 -3.19484308E-04 -5.23918763E-07
 -6.39933212E-05  4.89448720E-05 -2.10382383E-06 -2.36611671E-06 -4.63386604E-05