 Entering Gaussian System, Link 0=g16
 Input=hoono_d1_-6p62072.gjf
 Output=hoono_d1_-6p62072.log
 Initial command:
 /sw/contrib/gaussian/g16/B01/g16/l1.exe "/scr/Gau-30128.inp" -scrdir="/scr/"
 Entering Link 1 = /sw/contrib/gaussian/g16/B01/g16/l1.exe PID=     30129.
  
 Copyright (c) 1988-2017, Gaussian, Inc.  All Rights Reserved.
  
 This is part of the Gaussian(R) 16 program.  It is based on
 the Gaussian(R) 09 system (copyright 2009, Gaussian, Inc.),
 the Gaussian(R) 03 system (copyright 2003, Gaussian, Inc.),
 the Gaussian(R) 98 system (copyright 1998, Gaussian, Inc.),
 the Gaussian(R) 94 system (copyright 1995, Gaussian, Inc.),
 the Gaussian 92(TM) system (copyright 1992, Gaussian, Inc.),
 the Gaussian 90(TM) system (copyright 1990, Gaussian, Inc.),
 the Gaussian 88(TM) system (copyright 1988, Gaussian, Inc.),
 the Gaussian 86(TM) system (copyright 1986, Carnegie Mellon
 University), and the Gaussian 82(TM) system (copyright 1983,
 Carnegie Mellon University). Gaussian is a federally registered
 trademark of Gaussian, Inc.
  
 This software contains proprietary and confidential information,
 including trade secrets, belonging to Gaussian, Inc.
  
 This software is provided under written license and may be
 used, copied, transmitted, or stored only in accord with that
 written license.
  
 The following legend is applicable only to US Government
 contracts under FAR:
  
                    RESTRICTED RIGHTS LEGEND
  
 Use, reproduction and disclosure by the US Government is
 subject to restrictions as set forth in subparagraphs (a)
 and (c) of the Commercial Computer Software - Restricted
 Rights clause in FAR 52.227-19.
  
 Gaussian, Inc.
 340 Quinnipiac St., Bldg. 40, Wallingford CT 06492
  
  
 ---------------------------------------------------------------
 Warning -- This program may not be used in any manner that
 competes with the business of Gaussian, Inc. or will provide
 assistance to any competitor of Gaussian, Inc.  The licensee
 of this program is prohibited from giving any competitor of
 Gaussian, Inc. access to this program.  By using this program,
 the user acknowledges that Gaussian, Inc. is engaged in the
 business of creating and licensing software in the field of
 computational chemistry and represents and warrants to the
 licensee that it is not a competitor of Gaussian, Inc. and that
 it will not use this program in any manner prohibited above.
 ---------------------------------------------------------------
  

 Cite this work as:
 Gaussian 16, Revision B.01,
 M. J. Frisch, G. W. Trucks, H. B. Schlegel, G. E. Scuseria, 
 M. A. Robb, J. R. Cheeseman, G. Scalmani, V. Barone, 
 G. A. Petersson, H. Nakatsuji, X. Li, M. Caricato, A. V. Marenich, 
 J. Bloino, B. G. Janesko, R. Gomperts, B. Mennucci, H. P. Hratchian, 
 J. V. Ortiz, A. F. Izmaylov, J. L. Sonnenberg, D. Williams-Young, 
 F. Ding, F. Lipparini, F. Egidi, J. Goings, B. Peng, A. Petrone, 
 T. Henderson, D. Ranasinghe, V. G. Zakrzewski, J. Gao, N. Rega, 
 G. Zheng, W. Liang, M. Hada, M. Ehara, K. Toyota, R. Fukuda, 
 J. Hasegawa, M. Ishida, T. Nakajima, Y. Honda, O. Kitao, H. Nakai, 
 T. Vreven, K. Throssell, J. A. Montgomery, Jr., J. E. Peralta, 
 F. Ogliaro, M. J. Bearpark, J. J. Heyd, E. N. Brothers, K. N. Kudin, 
 V. N. Staroverov, T. A. Keith, R. Kobayashi, J. Normand, 
 K. Raghavachari, A. P. Rendell, J. C. Burant, S. S. Iyengar, 
 J. Tomasi, M. Cossi, J. M. Millam, M. Klene, C. Adamo, R. Cammi, 
 J. W. Ochterski, R. L. Martin, K. Morokuma, O. Farkas, 
 J. B. Foresman, and D. J. Fox, Gaussian, Inc., Wallingford CT, 2016.
 
 ******************************************
 Gaussian 16:  ES64L-G16RevB.01 20-Dec-2017
                 6-Mar-2022 
 ******************************************
 %nproc=28
 Will use up to   28 processors via shared memory.
 %mem=120GB
 %chk=hoono_d1_-6p62072.chk
 ---------------------------------------
 #p freq mp2/aug-cc-pvtz density=current
 ---------------------------------------
 1/10=4,30=1,38=1/1,3;
 2/12=2,17=6,18=5,40=1/2;
 3/5=16,6=1,7=10,11=9,25=1,30=1,71=2,140=1/1,2,3;
 4//1;
 5/5=2,38=5,98=1/2;
 8/6=3,8=1,10=1,19=11,30=-1/1;
 9/15=3,16=-3/6;
 11/6=1,8=1,15=11,17=12,24=-1,27=1,28=-2,29=300,32=6,42=3/1,2,10;
 10/6=2,21=1/2;
 8/6=4,8=1,10=1,19=11,30=-1/11,4;
 10/5=1,20=4/2;
 11/12=2,14=11,16=1,17=2,28=-2,42=3,76=2/2,10,12;
 6/7=2,8=2,9=2,10=2,22=-1/1;
 7/8=1,10=1,12=2,25=1,44=2/1,2,3,16;
 1/10=4,30=1/3;
 99//99;
 Leave Link    1 at Sun Mar  6 19:52:06 2022, MaxMem= 16106127360 cpu:               2.3 elap:               0.1
 (Enter /sw/contrib/gaussian/g16/B01/g16/l101.exe)
 -----
 title
 -----
 Symbolic Z-matrix:
 Charge =  0 Multiplicity = 1
 H
 O                    1    r1
 O                    2    r2       1    a1
 N                    3    r3       2    a2       1    d1       0
 O                    4    r4       3    a3       2    d2       0
       Variables:
  r1                    0.98538                  
  r2                    1.42674                  
  r3                    1.38111                  
  r4                    1.19479                  
  a1                  100.63551                  
  a2                  113.13777                  
  a3                  114.33392                  
  d1                   -6.62073                  
  d2                    0.                       
 
 ITRead=  0  0  0  0  0
 MicOpt= -1 -1 -1 -1 -1
 NAtoms=      5 NQM=        5 NQMF=       0 NMMI=      0 NMMIF=      0
                NMic=       0 NMicF=      0.
                    Isotopes and Nuclear Properties:
 (Nuclear quadrupole moments (NQMom) in fm**2, nuclear magnetic moments (NMagM)
  in nuclear magnetons)

  Atom         1           2           3           4           5
 IAtWgt=           1          16          16          14          16
 AtmWgt=   1.0078250  15.9949146  15.9949146  14.0030740  15.9949146
 NucSpn=           1           0           0           2           0
 AtZEff=  -0.0000000  -0.0000000  -0.0000000  -0.0000000  -0.0000000
 NQMom=    0.0000000   0.0000000   0.0000000   2.0440000   0.0000000
 NMagM=    2.7928460   0.0000000   0.0000000   0.4037610   0.0000000
 AtZNuc=   1.0000000   8.0000000   8.0000000   7.0000000   8.0000000
 Leave Link  101 at Sun Mar  6 19:52:06 2022, MaxMem= 16106127360 cpu:               2.5 elap:               0.1
 (Enter /sw/contrib/gaussian/g16/B01/g16/l103.exe)

 GradGradGradGradGradGradGradGradGradGradGradGradGradGradGradGradGradGrad
 Berny optimization.
 Initialization pass.
                       ----------------------------
                       !    Initial Parameters    !
                       ! (Angstroms and Degrees)  !
 ----------------------                            ----------------------
 !      Name          Value   Derivative information (Atomic Units)     !
 ------------------------------------------------------------------------
 !       r1          0.9854   calculate D2E/DX2 analytically            !
 !       r2          1.4267   calculate D2E/DX2 analytically            !
 !       r3          1.3811   calculate D2E/DX2 analytically            !
 !       r4          1.1948   calculate D2E/DX2 analytically            !
 !       a1        100.6355   calculate D2E/DX2 analytically            !
 !       a2        113.1378   calculate D2E/DX2 analytically            !
 !       a3        114.3339   calculate D2E/DX2 analytically            !
 !       d1         -6.6207   calculate D2E/DX2 analytically            !
 !       d2          0.0      calculate D2E/DX2 analytically            !
 ------------------------------------------------------------------------
 Trust Radius=3.00D-01 FncErr=1.00D-07 GrdErr=1.00D-07 EigMax=2.50D+02 EigMin=1.00D-04
 Number of steps in this run=      2 maximum allowed number of steps=      2.
 GradGradGradGradGradGradGradGradGradGradGradGradGradGradGradGradGradGrad

 Leave Link  103 at Sun Mar  6 19:52:06 2022, MaxMem= 16106127360 cpu:               0.6 elap:               0.0
 (Enter /sw/contrib/gaussian/g16/B01/g16/l202.exe)
                          Input orientation:                          
 ---------------------------------------------------------------------
 Center     Atomic      Atomic             Coordinates (Angstroms)
 Number     Number       Type             X           Y           Z
 ---------------------------------------------------------------------
      1          1           0        0.000000    0.000000    0.000000
      2          8           0        0.000000    0.000000    0.985377
      3          8           0        1.402227    0.000000    1.248696
      4          7           0        2.168433   -0.146428    0.108983
      5          8           0        1.536104   -0.247946   -0.899667
 ---------------------------------------------------------------------
                    Distance matrix (angstroms):
                    1          2          3          4          5
     1  H    0.000000
     2  O    0.985377   0.000000
     3  O    1.877627   1.426737   0.000000
     4  N    2.176102   2.343418   1.381108   0.000000
     5  O    1.797358   2.444276   2.166763   1.194788   0.000000
 Stoichiometry    HNO3
 Framework group  C1[X(HNO3)]
 Deg. of freedom     9
 Full point group                 C1      NOp   1
 Largest Abelian subgroup         C1      NOp   1
 Largest concise Abelian subgroup C1      NOp   1
                         Standard orientation:                         
 ---------------------------------------------------------------------
 Center     Atomic      Atomic             Coordinates (Angstroms)
 Number     Number       Type             X           Y           Z
 ---------------------------------------------------------------------
      1          1           0        0.545615   -1.136345    0.095569
      2          8           0        1.276702   -0.484314   -0.010893
      3          8           0        0.542603    0.738994    0.002963
      4          7           0       -0.825631    0.550861    0.003713
      5          8           0       -1.165080   -0.594640   -0.007265
 ---------------------------------------------------------------------
 Rotational constants (GHZ):          21.3465684           8.1049499           5.8760797
 Leave Link  202 at Sun Mar  6 19:52:06 2022, MaxMem= 16106127360 cpu:               0.5 elap:               0.0
 (Enter /sw/contrib/gaussian/g16/B01/g16/l301.exe)
 Standard basis: Aug-CC-pVTZ (5D, 7F)
 Ernie: Thresh=  0.10000D-02 Tol=  0.10000D-05 Strict=F.
 Ernie:  12 primitive shells out of 131 were deleted.
 There are   245 symmetry adapted cartesian basis functions of A   symmetry.
 There are   207 symmetry adapted basis functions of A   symmetry.
   207 basis functions,   315 primitive gaussians,   245 cartesian basis functions
    16 alpha electrons       16 beta electrons
       nuclear repulsion energy       122.7371755880 Hartrees.
 IExCor=    0 DFT=F Ex=HF Corr=None ExCW=0 ScaHFX=  1.000000
 ScaDFX=  1.000000  1.000000  1.000000  1.000000 ScalE2=  1.000000  1.000000
 IRadAn=      5 IRanWt=     -1 IRanGd=            0 ICorTp=0 IEmpDi=  4
 NAtoms=    5 NActive=    5 NUniq=    5 SFac= 1.00D+00 NAtFMM=   60 NAOKFM=F Big=F
 Integral buffers will be    131072 words long.
 Raffenetti 1 integral format.
 Two-electron integral symmetry is turned on.
 Leave Link  301 at Sun Mar  6 19:52:06 2022, MaxMem= 16106127360 cpu:               1.7 elap:               0.1
 (Enter /sw/contrib/gaussian/g16/B01/g16/l302.exe)
 NPDir=0 NMtPBC=     1 NCelOv=     1 NCel=       1 NClECP=     1 NCelD=      1
         NCelK=      1 NCelE2=     1 NClLst=     1 CellRange=     0.0.
 One-electron integrals computed using PRISM.
 One-electron integral symmetry used in STVInt
 NBasis=   207 RedAO= T EigKep=  1.31D-04  NBF=   207
 NBsUse=   207 1.00D-06 EigRej= -1.00D+00 NBFU=   207
 Leave Link  302 at Sun Mar  6 19:52:06 2022, MaxMem= 16106127360 cpu:               5.5 elap:               0.2
 (Enter /sw/contrib/gaussian/g16/B01/g16/l303.exe)
 DipDrv:  MaxL=1.
 Leave Link  303 at Sun Mar  6 19:52:06 2022, MaxMem= 16106127360 cpu:               0.9 elap:               0.1
 (Enter /sw/contrib/gaussian/g16/B01/g16/l401.exe)
 ExpMin= 2.53D-02 ExpMax= 1.53D+04 ExpMxC= 5.22D+02 IAcc=3 IRadAn=         5 AccDes= 0.00D+00
 Harris functional with IExCor=  205 and IRadAn=       5 diagonalized for initial guess.
 HarFok:  IExCor=  205 AccDes= 0.00D+00 IRadAn=         5 IDoV= 1 UseB2=F ITyADJ=14
 ICtDFT=  3500011 ScaDFX=  1.000000  1.000000  1.000000  1.000000
 FoFCou: FMM=F IPFlag=           0 FMFlag=      100000 FMFlg1=           0
         NFxFlg=           0 DoJE=T BraDBF=F KetDBF=T FulRan=T
         wScrn=  0.000000 ICntrl=       500 IOpCl=  0 I1Cent=   200000004 NGrid=           0
         NMat0=    1 NMatS0=      1 NMatT0=    0 NMatD0=    1 NMtDS0=    0 NMtDT0=    0
 Petite list used in FoFCou.
 Harris En= -279.644797729835    
 JPrj=0 DoOrth=F DoCkMO=F.
 Leave Link  401 at Sun Mar  6 19:52:07 2022, MaxMem= 16106127360 cpu:               7.3 elap:               0.3
 (Enter /sw/contrib/gaussian/g16/B01/g16/l502.exe)
 Keep R1 ints in memory in canonical form, NReq=245623665.
 FoFCou: FMM=F IPFlag=           0 FMFlag=           0 FMFlg1=           0
         NFxFlg=           0 DoJE=F BraDBF=F KetDBF=F FulRan=T
         wScrn=  0.000000 ICntrl=       600 IOpCl=  0 I1Cent=           0 NGrid=           0
         NMat0=    1 NMatS0=  21528 NMatT0=    0 NMatD0=    1 NMtDS0=    0 NMtDT0=    0
 Symmetry not used in FoFCou.
 Two-electron integral symmetry not used.
 Closed shell SCF:
 Using DIIS extrapolation, IDIIS=  1040.
 NGot= 16106127360 LenX= 15874260251 LenY= 15874199785
 Requested convergence on RMS density matrix=1.00D-08 within 128 cycles.
 Requested convergence on MAX density matrix=1.00D-06.
 Requested convergence on             energy=1.00D-06.
 No special actions if energy rises.

 Cycle   1  Pass 1  IDiag  1:
 E= -279.364105924998    
 DIIS: error= 2.41D-02 at cycle   1 NSaved=   1.
 NSaved= 1 IEnMin= 1 EnMin= -279.364105924998     IErMin= 1 ErrMin= 2.41D-02
 ErrMax= 2.41D-02  0.00D+00 EMaxC= 1.00D-01 BMatC= 4.51D-01 BMatP= 4.51D-01
 IDIUse=3 WtCom= 7.59D-01 WtEn= 2.41D-01
 Coeff-Com:  0.100D+01
 Coeff-En:   0.100D+01
 Coeff:      0.100D+01
 Gap=     0.519 Goal=   None    Shift=    0.000
 GapD=    0.519 DampG=2.000 DampE=0.500 DampFc=1.0000 IDamp=-1.
 RMSDP=1.68D-03 MaxDP=8.77D-02              OVMax= 1.23D-01

 Cycle   2  Pass 1  IDiag  1:
 E= -279.446055376166     Delta-E=       -0.081949451168 Rises=F Damp=F
 DIIS: error= 1.78D-02 at cycle   2 NSaved=   2.
 NSaved= 2 IEnMin= 2 EnMin= -279.446055376166     IErMin= 2 ErrMin= 1.78D-02
 ErrMax= 1.78D-02  0.00D+00 EMaxC= 1.00D-01 BMatC= 8.62D-02 BMatP= 4.51D-01
 IDIUse=3 WtCom= 8.22D-01 WtEn= 1.78D-01
 Coeff-Com:  0.219D+00 0.781D+00
 Coeff-En:   0.784D-01 0.922D+00
 Coeff:      0.194D+00 0.806D+00
 Gap=     0.587 Goal=   None    Shift=    0.000
 RMSDP=9.65D-04 MaxDP=3.66D-02 DE=-8.19D-02 OVMax= 8.98D-02

 Cycle   3  Pass 1  IDiag  1:
 E= -279.484202561909     Delta-E=       -0.038147185743 Rises=F Damp=F
 DIIS: error= 8.33D-03 at cycle   3 NSaved=   3.
 NSaved= 3 IEnMin= 3 EnMin= -279.484202561909     IErMin= 3 ErrMin= 8.33D-03
 ErrMax= 8.33D-03  0.00D+00 EMaxC= 1.00D-01 BMatC= 3.05D-02 BMatP= 8.62D-02
 IDIUse=3 WtCom= 9.17D-01 WtEn= 8.33D-02
 Coeff-Com: -0.347D-01 0.362D+00 0.672D+00
 Coeff-En:   0.000D+00 0.214D+00 0.786D+00
 Coeff:     -0.318D-01 0.350D+00 0.682D+00
 Gap=     0.541 Goal=   None    Shift=    0.000
 RMSDP=4.05D-04 MaxDP=1.57D-02 DE=-3.81D-02 OVMax= 3.77D-02

 Cycle   4  Pass 1  IDiag  1:
 E= -279.505118257044     Delta-E=       -0.020915695134 Rises=F Damp=F
 DIIS: error= 1.59D-03 at cycle   4 NSaved=   4.
 NSaved= 4 IEnMin= 4 EnMin= -279.505118257044     IErMin= 4 ErrMin= 1.59D-03
 ErrMax= 1.59D-03  0.00D+00 EMaxC= 1.00D-01 BMatC= 5.53D-04 BMatP= 3.05D-02
 IDIUse=3 WtCom= 9.84D-01 WtEn= 1.59D-02
 Coeff-Com: -0.119D-01 0.482D-01 0.148D+00 0.815D+00
 Coeff-En:   0.000D+00 0.000D+00 0.000D+00 0.100D+01
 Coeff:     -0.117D-01 0.474D-01 0.146D+00 0.818D+00
 Gap=     0.529 Goal=   None    Shift=    0.000
 RMSDP=9.84D-05 MaxDP=2.39D-03 DE=-2.09D-02 OVMax= 1.16D-02

 Cycle   5  Pass 1  IDiag  1:
 E= -279.505900300189     Delta-E=       -0.000782043145 Rises=F Damp=F
 DIIS: error= 1.07D-03 at cycle   5 NSaved=   5.
 NSaved= 5 IEnMin= 5 EnMin= -279.505900300189     IErMin= 5 ErrMin= 1.07D-03
 ErrMax= 1.07D-03  0.00D+00 EMaxC= 1.00D-01 BMatC= 1.02D-04 BMatP= 5.53D-04
 IDIUse=3 WtCom= 9.89D-01 WtEn= 1.07D-02
 Coeff-Com:  0.537D-02-0.654D-01-0.111D+00 0.593D-01 0.111D+01
 Coeff-En:   0.000D+00 0.000D+00 0.000D+00 0.000D+00 0.100D+01
 Coeff:      0.532D-02-0.647D-01-0.110D+00 0.587D-01 0.111D+01
 Gap=     0.532 Goal=   None    Shift=    0.000
 RMSDP=7.96D-05 MaxDP=2.11D-03 DE=-7.82D-04 OVMax= 1.27D-02

 Cycle   6  Pass 1  IDiag  1:
 E= -279.506260494925     Delta-E=       -0.000360194736 Rises=F Damp=F
 DIIS: error= 3.26D-04 at cycle   6 NSaved=   6.
 NSaved= 6 IEnMin= 6 EnMin= -279.506260494925     IErMin= 6 ErrMin= 3.26D-04
 ErrMax= 3.26D-04  0.00D+00 EMaxC= 1.00D-01 BMatC= 2.39D-05 BMatP= 1.02D-04
 IDIUse=3 WtCom= 9.97D-01 WtEn= 3.26D-03
 Coeff-Com:  0.188D-02-0.752D-02-0.168D-01-0.184D+00 0.147D-01 0.119D+01
 Coeff-En:   0.000D+00 0.000D+00 0.000D+00 0.000D+00 0.000D+00 0.100D+01
 Coeff:      0.188D-02-0.749D-02-0.167D-01-0.183D+00 0.147D-01 0.119D+01
 Gap=     0.532 Goal=   None    Shift=    0.000
 RMSDP=4.65D-05 MaxDP=1.07D-03 DE=-3.60D-04 OVMax= 6.05D-03

 Cycle   7  Pass 1  IDiag  1:
 E= -279.506345688724     Delta-E=       -0.000085193799 Rises=F Damp=F
 DIIS: error= 1.02D-04 at cycle   7 NSaved=   7.
 NSaved= 7 IEnMin= 7 EnMin= -279.506345688724     IErMin= 7 ErrMin= 1.02D-04
 ErrMax= 1.02D-04  0.00D+00 EMaxC= 1.00D-01 BMatC= 3.57D-06 BMatP= 2.39D-05
 IDIUse=3 WtCom= 9.99D-01 WtEn= 1.02D-03
 Coeff-Com: -0.108D-02 0.114D-01 0.249D-01 0.162D-01-0.182D+00-0.147D+00
 Coeff-Com:  0.128D+01
 Coeff-En:   0.000D+00 0.000D+00 0.000D+00 0.000D+00 0.000D+00 0.000D+00
 Coeff-En:   0.100D+01
 Coeff:     -0.108D-02 0.113D-01 0.249D-01 0.162D-01-0.182D+00-0.147D+00
 Coeff:      0.128D+01
 Gap=     0.533 Goal=   None    Shift=    0.000
 RMSDP=1.74D-05 MaxDP=5.08D-04 DE=-8.52D-05 OVMax= 2.31D-03

 Cycle   8  Pass 1  IDiag  1:
 E= -279.506357599768     Delta-E=       -0.000011911044 Rises=F Damp=F
 DIIS: error= 4.04D-05 at cycle   8 NSaved=   8.
 NSaved= 8 IEnMin= 8 EnMin= -279.506357599768     IErMin= 8 ErrMin= 4.04D-05
 ErrMax= 4.04D-05  0.00D+00 EMaxC= 1.00D-01 BMatC= 6.00D-07 BMatP= 3.57D-06
 IDIUse=1 WtCom= 1.00D+00 WtEn= 0.00D+00
 Coeff-Com: -0.561D-03 0.414D-02 0.961D-02 0.252D-01-0.577D-01-0.193D+00
 Coeff-Com:  0.354D+00 0.858D+00
 Coeff:     -0.561D-03 0.414D-02 0.961D-02 0.252D-01-0.577D-01-0.193D+00
 Coeff:      0.354D+00 0.858D+00
 Gap=     0.533 Goal=   None    Shift=    0.000
 RMSDP=5.45D-06 MaxDP=1.49D-04 DE=-1.19D-05 OVMax= 6.52D-04

 Cycle   9  Pass 1  IDiag  1:
 E= -279.506358980620     Delta-E=       -0.000001380852 Rises=F Damp=F
 DIIS: error= 1.83D-05 at cycle   9 NSaved=   9.
 NSaved= 9 IEnMin= 9 EnMin= -279.506358980620     IErMin= 9 ErrMin= 1.83D-05
 ErrMax= 1.83D-05  0.00D+00 EMaxC= 1.00D-01 BMatC= 1.16D-07 BMatP= 6.00D-07
 IDIUse=1 WtCom= 1.00D+00 WtEn= 0.00D+00
 Coeff-Com:  0.240D-03-0.255D-02-0.529D-02-0.569D-02 0.469D-01 0.491D-01
 Coeff-Com: -0.338D+00 0.281D-01 0.123D+01
 Coeff:      0.240D-03-0.255D-02-0.529D-02-0.569D-02 0.469D-01 0.491D-01
 Coeff:     -0.338D+00 0.281D-01 0.123D+01
 Gap=     0.533 Goal=   None    Shift=    0.000
 RMSDP=2.46D-06 MaxDP=7.39D-05 DE=-1.38D-06 OVMax= 2.38D-04

 Cycle  10  Pass 1  IDiag  1:
 E= -279.506359243781     Delta-E=       -0.000000263162 Rises=F Damp=F
 DIIS: error= 5.27D-06 at cycle  10 NSaved=  10.
 NSaved=10 IEnMin=10 EnMin= -279.506359243781     IErMin=10 ErrMin= 5.27D-06
 ErrMax= 5.27D-06  0.00D+00 EMaxC= 1.00D-01 BMatC= 8.29D-09 BMatP= 1.16D-07
 IDIUse=1 WtCom= 1.00D+00 WtEn= 0.00D+00
 Coeff-Com: -0.377D-04 0.481D-03 0.120D-02-0.185D-02-0.109D-01 0.532D-02
 Coeff-Com:  0.722D-01-0.526D-01-0.437D+00 0.142D+01
 Coeff:     -0.377D-04 0.481D-03 0.120D-02-0.185D-02-0.109D-01 0.532D-02
 Coeff:      0.722D-01-0.526D-01-0.437D+00 0.142D+01
 Gap=     0.533 Goal=   None    Shift=    0.000
 RMSDP=7.10D-07 MaxDP=2.56D-05 DE=-2.63D-07 OVMax= 6.90D-05

 Cycle  11  Pass 1  IDiag  1:
 E= -279.506359268988     Delta-E=       -0.000000025207 Rises=F Damp=F
 DIIS: error= 1.94D-06 at cycle  11 NSaved=  11.
 NSaved=11 IEnMin=11 EnMin= -279.506359268988     IErMin=11 ErrMin= 1.94D-06
 ErrMax= 1.94D-06  0.00D+00 EMaxC= 1.00D-01 BMatC= 8.54D-10 BMatP= 8.29D-09
 IDIUse=1 WtCom= 1.00D+00 WtEn= 0.00D+00
 Coeff-Com: -0.160D-04 0.162D-03 0.328D-03 0.924D-03-0.209D-02-0.726D-02
 Coeff-Com:  0.182D-01 0.200D-01-0.448D-01-0.341D+00 0.136D+01
 Coeff:     -0.160D-04 0.162D-03 0.328D-03 0.924D-03-0.209D-02-0.726D-02
 Coeff:      0.182D-01 0.200D-01-0.448D-01-0.341D+00 0.136D+01
 Gap=     0.533 Goal=   None    Shift=    0.000
 RMSDP=2.53D-07 MaxDP=9.04D-06 DE=-2.52D-08 OVMax= 2.53D-05

 Cycle  12  Pass 1  IDiag  1:
 E= -279.506359272173     Delta-E=       -0.000000003185 Rises=F Damp=F
 DIIS: error= 5.71D-07 at cycle  12 NSaved=  12.
 NSaved=12 IEnMin=12 EnMin= -279.506359272173     IErMin=12 ErrMin= 5.71D-07
 ErrMax= 5.71D-07  0.00D+00 EMaxC= 1.00D-01 BMatC= 9.53D-11 BMatP= 8.54D-10
 IDIUse=1 WtCom= 1.00D+00 WtEn= 0.00D+00
 Coeff-Com:  0.291D-05-0.481D-04-0.107D-03 0.127D-03 0.119D-02-0.667D-03
 Coeff-Com: -0.776D-02 0.623D-02 0.430D-01-0.114D+00-0.194D+00 0.127D+01
 Coeff:      0.291D-05-0.481D-04-0.107D-03 0.127D-03 0.119D-02-0.667D-03
 Coeff:     -0.776D-02 0.623D-02 0.430D-01-0.114D+00-0.194D+00 0.127D+01
 Gap=     0.533 Goal=   None    Shift=    0.000
 RMSDP=9.28D-08 MaxDP=2.76D-06 DE=-3.19D-09 OVMax= 8.59D-06

 Cycle  13  Pass 1  IDiag  1:
 E= -279.506359272542     Delta-E=       -0.000000000368 Rises=F Damp=F
 DIIS: error= 1.60D-07 at cycle  13 NSaved=  13.
 NSaved=13 IEnMin=13 EnMin= -279.506359272542     IErMin=13 ErrMin= 1.60D-07
 ErrMax= 1.60D-07  0.00D+00 EMaxC= 1.00D-01 BMatC= 1.06D-11 BMatP= 9.53D-11
 IDIUse=1 WtCom= 1.00D+00 WtEn= 0.00D+00
 Coeff-Com:  0.139D-05-0.126D-04-0.170D-04-0.135D-03 0.296D-04 0.103D-02
 Coeff-Com: -0.980D-03-0.295D-02-0.303D-02 0.617D-01-0.131D+00-0.198D+00
 Coeff-Com:  0.127D+01
 Coeff:      0.139D-05-0.126D-04-0.170D-04-0.135D-03 0.296D-04 0.103D-02
 Coeff:     -0.980D-03-0.295D-02-0.303D-02 0.617D-01-0.131D+00-0.198D+00
 Coeff:      0.127D+01
 Gap=     0.533 Goal=   None    Shift=    0.000
 RMSDP=3.17D-08 MaxDP=5.80D-07 DE=-3.68D-10 OVMax= 4.40D-06

 Cycle  14  Pass 1  IDiag  1:
 E= -279.506359272586     Delta-E=       -0.000000000044 Rises=F Damp=F
 DIIS: error= 8.53D-08 at cycle  14 NSaved=  14.
 NSaved=14 IEnMin=14 EnMin= -279.506359272586     IErMin=14 ErrMin= 8.53D-08
 ErrMax= 8.53D-08  0.00D+00 EMaxC= 1.00D-01 BMatC= 1.95D-12 BMatP= 1.06D-11
 IDIUse=1 WtCom= 1.00D+00 WtEn= 0.00D+00
 Coeff-Com: -0.607D-06 0.812D-05 0.147D-04 0.146D-04-0.161D-03-0.719D-04
 Coeff-Com:  0.107D-02-0.829D-04-0.450D-02 0.170D-02 0.469D-01-0.108D+00
 Coeff-Com: -0.210D+00 0.127D+01
 Coeff:     -0.607D-06 0.812D-05 0.147D-04 0.146D-04-0.161D-03-0.719D-04
 Coeff:      0.107D-02-0.829D-04-0.450D-02 0.170D-02 0.469D-01-0.108D+00
 Coeff:     -0.210D+00 0.127D+01
 Gap=     0.533 Goal=   None    Shift=    0.000
 RMSDP=1.39D-08 MaxDP=3.32D-07 DE=-4.40D-11 OVMax= 2.51D-06

 Cycle  15  Pass 1  IDiag  1:
 E= -279.506359272598     Delta-E=       -0.000000000012 Rises=F Damp=F
 DIIS: error= 5.01D-08 at cycle  15 NSaved=  15.
 NSaved=15 IEnMin=15 EnMin= -279.506359272598     IErMin=15 ErrMin= 5.01D-08
 ErrMax= 5.01D-08  0.00D+00 EMaxC= 1.00D-01 BMatC= 6.11D-13 BMatP= 1.95D-12
 IDIUse=1 WtCom= 1.00D+00 WtEn= 0.00D+00
 Coeff-Com:  0.474D-07-0.121D-05-0.512D-05 0.235D-04 0.843D-04-0.200D-03
 Coeff-Com: -0.381D-03 0.702D-03 0.322D-02-0.158D-01 0.926D-02 0.971D-01
 Coeff-Com: -0.212D+00-0.653D+00 0.177D+01
 Coeff:      0.474D-07-0.121D-05-0.512D-05 0.235D-04 0.843D-04-0.200D-03
 Coeff:     -0.381D-03 0.702D-03 0.322D-02-0.158D-01 0.926D-02 0.971D-01
 Coeff:     -0.212D+00-0.653D+00 0.177D+01
 Gap=     0.533 Goal=   None    Shift=    0.000
 RMSDP=1.30D-08 MaxDP=3.25D-07 DE=-1.21D-11 OVMax= 2.44D-06

 Cycle  16  Pass 1  IDiag  1:
 E= -279.506359272602     Delta-E=       -0.000000000004 Rises=F Damp=F
 DIIS: error= 1.94D-08 at cycle  16 NSaved=  16.
 NSaved=16 IEnMin=16 EnMin= -279.506359272602     IErMin=16 ErrMin= 1.94D-08
 ErrMax= 1.94D-08  0.00D+00 EMaxC= 1.00D-01 BMatC= 1.09D-13 BMatP= 6.11D-13
 IDIUse=1 WtCom= 1.00D+00 WtEn= 0.00D+00
 Coeff-Com:  0.929D-07-0.125D-05-0.864D-06-0.127D-04 0.278D-05 0.856D-04
 Coeff-Com: -0.508D-04-0.297D-03-0.171D-03 0.515D-02-0.120D-01-0.171D-01
 Coeff-Com:  0.132D+00 0.223D-01-0.847D+00 0.172D+01
 Coeff:      0.929D-07-0.125D-05-0.864D-06-0.127D-04 0.278D-05 0.856D-04
 Coeff:     -0.508D-04-0.297D-03-0.171D-03 0.515D-02-0.120D-01-0.171D-01
 Coeff:      0.132D+00 0.223D-01-0.847D+00 0.172D+01
 Gap=     0.533 Goal=   None    Shift=    0.000
 RMSDP=6.77D-09 MaxDP=1.68D-07 DE=-4.32D-12 OVMax= 1.26D-06

 SCF Done:  E(RHF) =  -279.506359273     A.U. after   16 cycles
            NFock= 16  Conv=0.68D-08     -V/T= 2.0022
 KE= 2.788847155143D+02 PE=-9.063457029737D+02 EE= 2.252174525988D+02
 Leave Link  502 at Sun Mar  6 19:52:15 2022, MaxMem= 16106127360 cpu:              45.4 elap:               7.9
 (Enter /sw/contrib/gaussian/g16/B01/g16/l801.exe)
 ExpMin= 2.53D-02 ExpMax= 1.53D+04 ExpMxC= 5.22D+02 IAcc=3 IRadAn=         5 AccDes= 0.00D+00
 HarFok:  IExCor=  205 AccDes= 0.00D+00 IRadAn=         5 IDoV=-2 UseB2=F ITyADJ=14
 ICtDFT= 12500011 ScaDFX=  1.000000  1.000000  1.000000  1.000000
 Largest valence mixing into a core orbital is  2.07D-04
 Largest core mixing into a valence orbital is  3.10D-05
 Range of M.O.s used for correlation:     5   207
 NBasis=   207 NAE=    16 NBE=    16 NFC=     4 NFV=     0
 NROrb=    203 NOA=    12 NOB=    12 NVA=   191 NVB=   191

 **** Warning!!: The largest alpha MO coefficient is  0.16622584D+02

 Leave Link  801 at Sun Mar  6 19:52:15 2022, MaxMem= 16106127360 cpu:               2.3 elap:               0.1
 (Enter /sw/contrib/gaussian/g16/B01/g16/l906.exe)
 Frozen-core derivative calculation, NFC=   4 NFV=   0.
 FulOut=F Deriv=T AODrv=T NAtomX=     5
   MMem=           0  MDisk=          12 MDiskD=          12
  W3Min=      811440 MinDsk=     2425030 NBas6D=         245
 NBas2D=       30762    NTT=       30135    LW2=     7400000
    MDV= 16105635804 MDiskM=      328645 NBas2p=       30759
 Disk-based method using ON**2 memory for 12 occupieds at a time.
 Permanent disk used for amplitudes=    11516536 words.
 Estimated scratch disk usage=   321863743 words.
 IMap=   1   2   3   4   5   6   7   8   9  10  11  12  13  14  15  16
 Actual    scratch disk usage=   310892607 words.
 JobTyp=1 Pass  1:  I=   5 to  16 NPSUse= 28 ParTrn=T ParDer=T DoDerP=T.
 (rs|ai) integrals will be sorted in core.
 Spin components of T(2) and E(2):
     alpha-alpha T2 =       0.3479038371D-01 E2=     -0.1245315570D+00
     alpha-beta  T2 =       0.1845009598D+00 E2=     -0.6996835523D+00
     beta-beta   T2 =       0.3479038371D-01 E2=     -0.1245315570D+00
 The integrals were generated   1 times.
 ANorm=    0.1119857905D+01
 E2 =    -0.9487466664D+00 EUMP2 =    -0.28045510593903D+03
 Leave Link  906 at Sun Mar  6 19:53:53 2022, MaxMem= 16106127360 cpu:            2750.5 elap:              98.4
 (Enter /sw/contrib/gaussian/g16/B01/g16/l1101.exe)
 Using compressed Sx but separate Hx and Fx, NAtomX=     5.
 Will process      6 centers per pass.
 Leave Link 1101 at Sun Mar  6 19:53:53 2022, MaxMem= 16106127360 cpu:               5.5 elap:               0.2
 (Enter /sw/contrib/gaussian/g16/B01/g16/l1102.exe)
 Leave Link 1102 at Sun Mar  6 19:53:53 2022, MaxMem= 16106127360 cpu:               1.2 elap:               0.1
 (Enter /sw/contrib/gaussian/g16/B01/g16/l1110.exe)
 Forming Gx(P) for the SCF density, NAtomX=     5.
 Integral derivatives from FoFJK, PRISM(SPDF).
 Do as many integral derivatives as possible in FoFJK.
 G2DrvN: MDV=   16106126844.
 G2DrvN: will do     6 centers at a time, making    1 passes.
 Calling FoFCou, ICntrl=  3107 FMM=F I1Cent=   0 AccDes= 0.00D+00.
 FoFJK:  IHMeth= 1 ICntrl=    3107 DoSepK=F KAlg= 0 I1Cent=           0 FoldK=F
 IRaf=         0 NMat=       1 IRICut=       1 DoRegI=T DoRafI=F ISym2E= 0 IDoP0=0 IntGTp=1.
 FoFCou: FMM=F IPFlag=           0 FMFlag=      100000 FMFlg1=           0
         NFxFlg=           0 DoJE=F BraDBF=F KetDBF=F FulRan=T
         wScrn=  0.000000 ICntrl=      3107 IOpCl=  0 I1Cent=           0 NGrid=           0
         NMat0=    1 NMatS0=      1 NMatT0=    0 NMatD0=    1 NMtDS0=    0 NMtDT0=    0
 Symmetry not used in FoFCou.
 End of G2Drv F.D. properties file   721 does not exist.
 End of G2Drv F.D. properties file   722 does not exist.
 End of G2Drv F.D. properties file   788 does not exist.
 Leave Link 1110 at Sun Mar  6 19:53:57 2022, MaxMem= 16106127360 cpu:              87.5 elap:               3.2
 (Enter /sw/contrib/gaussian/g16/B01/g16/l1002.exe)
 Minotr:  Closed shell wavefunction.
          IDoAtm=11111
          Frozen-core window.
          Direct CPHF calculation.
          Differentiating once with respect to electric field.
                with respect to dipole field.
          Differentiating once with respect to nuclear coordinates.
          Requested convergence is 1.0D-08 RMS, and 1.0D-07 maximum.
          Secondary convergence is 1.0D-12 RMS, and 1.0D-12 maximum.
          NewPWx=T KeepS1=T KeepF1=T KeepIn=T MapXYZ=F SortEE=F KeepMc=T.
 Keep R1 ints in memory in canonical form, NReq=245624906.
 FoFCou: FMM=F IPFlag=           0 FMFlag=           0 FMFlg1=           0
         NFxFlg=           0 DoJE=F BraDBF=F KetDBF=F FulRan=T
         wScrn=  0.000000 ICntrl=       600 IOpCl=  0 I1Cent=           0 NGrid=           0
         NMat0=    1 NMatS0=  21528 NMatT0=    0 NMatD0=    1 NMtDS0=    0 NMtDT0=    0
 Symmetry not used in FoFCou.
 Two-electron integral symmetry not used.
          MDV=   16106127360 using IRadAn=       1.
          Solving linear equations simultaneously, MaxMat=       0.
          There are    18 degrees of freedom in the 1st order CPHF.  IDoFFX=6 NUNeed=    18.
     15 vectors produced by pass  0 Test12= 1.70D-14 5.56D-09 XBig12= 7.44D+00 1.30D+00.
 AX will form    15 AO Fock derivatives at one time.
     15 vectors produced by pass  1 Test12= 1.70D-14 5.56D-09 XBig12= 1.31D+00 2.33D-01.
     15 vectors produced by pass  2 Test12= 1.70D-14 5.56D-09 XBig12= 9.09D-02 8.02D-02.
     15 vectors produced by pass  3 Test12= 1.70D-14 5.56D-09 XBig12= 3.23D-03 1.21D-02.
     15 vectors produced by pass  4 Test12= 1.70D-14 5.56D-09 XBig12= 6.97D-05 1.58D-03.
     15 vectors produced by pass  5 Test12= 1.70D-14 5.56D-09 XBig12= 7.35D-07 1.03D-04.
     15 vectors produced by pass  6 Test12= 1.70D-14 5.56D-09 XBig12= 4.68D-09 1.24D-05.
     13 vectors produced by pass  7 Test12= 1.70D-14 5.56D-09 XBig12= 3.51D-11 9.85D-07.
      3 vectors produced by pass  8 Test12= 1.70D-14 5.56D-09 XBig12= 2.92D-13 5.91D-08.
      1 vectors produced by pass  9 Test12= 1.70D-14 5.56D-09 XBig12= 2.48D-15 8.71D-09.
 InvSVY:  IOpt=1 It=  1 EMax= 1.78D-15
 Solved reduced A of dimension   122 with    15 vectors.
 FullF1:  Do perturbations      1 to      18.
 Saving first derivative matrices.
 End of Minotr F.D. properties file   721 does not exist.
 End of Minotr F.D. properties file   722 does not exist.
 End of Minotr F.D. properties file   788 does not exist.
 Leave Link 1002 at Sun Mar  6 19:54:00 2022, MaxMem= 16106127360 cpu:              91.0 elap:               3.7
 (Enter /sw/contrib/gaussian/g16/B01/g16/l811.exe)
 MDV= 16106127360.
 Form MO integral derivatives with frozen-active canonical formalism.
 MOERI=1 MOERIx=1 NAtoms=     5 NAtomX=     5.
 Discarding MO integrals.
 MO basis two electron integral derivatives will not be stored on disk.
 IAlg= 3 DoFC=T DoPWx=T Debug=F.
 Frozen-core window:  NFC=   4 NFV=   0.
 Reordered first order wavefunction length =     18678272
 In DefCFB: NBatch=  1 ICI= 16 ICA=191 LFMax= 96
            Large arrays: LIAPS=   619940160 LIARS=   288257200 words.
 In StABat: MaxSiz= 55 MinSiz= 25 NAtomB=  5
 DoIAMN: NPSUse= 28.
 Leave Link  811 at Sun Mar  6 19:55:35 2022, MaxMem= 16106127360 cpu:            2655.7 elap:              95.1
 (Enter /sw/contrib/gaussian/g16/B01/g16/l804.exe)
 Frozen-core window:  NFC=   4 NFV=   0.
 Closed-shell transformation, MDV= 16106127360 ITran=4 ISComp=1.
 Semi-Direct transformation.
 ModeAB=           2 MOrb=            16 LenV=   16104922737
 LASXX=     67341636 LTotXX=    67341636 LenRXX=    67341636
 LTotAB=    68301760 MaxLAS=    99807120 LenRXY=    99807120
 NonZer=   134683272 LenScr=   202817536 LnRSAI=           0
 LnScr1=           0 LExtra=           0 Total=    369966292
 MaxDsk=          -1 SrtSym=           F ITran=            4
 DoSDTr:  NPSUse= 28
 JobTyp=0 Pass  1:  I=   1 to  16.
 (rs|ai) integrals will be sorted in core.
 Complete sort for first half transformation.
 First half transformation complete.
 Begin second half transformation for I=  10.
 Begin second half transformation for I=  10.
 Complete sort for second half transformation.
 Second half transformation complete.
 SymMOI:  orbitals are not symmetric.
 Spin components of T(2) and E(2):
     alpha-alpha T2 =       0.3479038371D-01 E2=     -0.1245315570D+00
     alpha-beta  T2 =       0.1845009598D+00 E2=     -0.6996835523D+00
     beta-beta   T2 =       0.3479038371D-01 E2=     -0.1245315570D+00
 ANorm=    0.1583718237D+01
 E2 =    -0.9487466664D+00 EUMP2 =    -0.28045510593903D+03
 Leave Link  804 at Sun Mar  6 19:55:49 2022, MaxMem= 16106127360 cpu:             386.2 elap:              13.9
 (Enter /sw/contrib/gaussian/g16/B01/g16/l1002.exe)
 Minotr:  Closed shell wavefunction.
          Computing MP2/KS-MP2 derivatives.
          Using Z-Vector for PSCF gradient.
          Skipping F1 and S1 gradient terms here.
          IDoAtm=11111
          Frozen-core window.
          Using MO integrals in the linear equations.
          Forming densities via direct SCF.
          Differentiating once with respect to electric field.
                with respect to dipole field.
          Differentiating once with respect to nuclear coordinates.
          Requested convergence is 1.0D-10 RMS, and 1.0D-09 maximum.
          NewPWx=F KeepS1=T KeepF1=T KeepIn=T MapXYZ=F SortEE=F KeepMc=T.
          MDV=   16106127360 using IRadAn=       5.
          Solving linear equations separately, MaxMat=       0.
          There are     1 degrees of freedom in the 1st order CPHF.  IDoFFX=0 NUNeed=     1.
 FoFJK:  IHMeth= 1 ICntrl=       0 DoSepK=F KAlg= 0 I1Cent=           0 FoldK=F
 IRaf=         0 NMat=       1 IRICut=       1 DoRegI=T DoRafI=F ISym2E= 0 IDoP0=0 IntGTp=1.
 FoFCou: FMM=F IPFlag=           0 FMFlag=      100000 FMFlg1=           0
         NFxFlg=           0 DoJE=F BraDBF=F KetDBF=F FulRan=T
         wScrn=  0.000000 ICntrl=         0 IOpCl=  0 I1Cent=           0 NGrid=           0
         NMat0=    1 NMatS0=      1 NMatT0=    0 NMatD0=    1 NMtDS0=    0 NMtDT0=    0
 Symmetry not used in FoFCou.
 LinEq1:  Iter=  0 NonCon=     1 RMS=6.59D-03 Max=1.66D-01 NDo=     1
 LinEq1:  Iter=  1 NonCon=     1 RMS=2.00D-03 Max=3.03D-02 NDo=     1
 LinEq1:  Iter=  2 NonCon=     1 RMS=8.86D-04 Max=1.43D-02 NDo=     1
 LinEq1:  Iter=  3 NonCon=     1 RMS=3.80D-04 Max=8.05D-03 NDo=     1
 LinEq1:  Iter=  4 NonCon=     1 RMS=1.37D-04 Max=1.64D-03 NDo=     1
 LinEq1:  Iter=  5 NonCon=     1 RMS=7.64D-05 Max=1.19D-03 NDo=     1
 LinEq1:  Iter=  6 NonCon=     1 RMS=2.43D-05 Max=3.12D-04 NDo=     1
 LinEq1:  Iter=  7 NonCon=     1 RMS=8.17D-06 Max=9.50D-05 NDo=     1
 LinEq1:  Iter=  8 NonCon=     1 RMS=3.98D-06 Max=6.22D-05 NDo=     1
 LinEq1:  Iter=  9 NonCon=     1 RMS=1.05D-06 Max=1.17D-05 NDo=     1
 LinEq1:  Iter= 10 NonCon=     1 RMS=2.37D-07 Max=2.85D-06 NDo=     1
 LinEq1:  Iter= 11 NonCon=     1 RMS=5.46D-08 Max=1.07D-06 NDo=     1
 LinEq1:  Iter= 12 NonCon=     1 RMS=1.56D-08 Max=4.62D-07 NDo=     1
 LinEq1:  Iter= 13 NonCon=     1 RMS=4.06D-09 Max=1.13D-07 NDo=     1
 LinEq1:  Iter= 14 NonCon=     1 RMS=9.15D-10 Max=1.35D-08 NDo=     1
 LinEq1:  Iter= 15 NonCon=     1 RMS=2.45D-10 Max=2.77D-09 NDo=     1
 LinEq1:  Iter= 16 NonCon=     0 RMS=4.82D-11 Max=4.72D-10 NDo=     1
 Linear equations converged to 1.000D-10 1.000D-09 after    16 iterations.
 End of Minotr F.D. properties file   721 does not exist.
 End of Minotr F.D. properties file   722 does not exist.
 End of Minotr F.D. properties file   788 does not exist.
 Leave Link 1002 at Sun Mar  6 19:55:52 2022, MaxMem= 16106127360 cpu:              67.3 elap:               2.5
 (Enter /sw/contrib/gaussian/g16/B01/g16/l1102.exe)
 Use density number 2.
 Symmetrizing basis deriv contribution to polar:
 IMax=3 JMax=2 DiffMx= 0.00D+00
 Leave Link 1102 at Sun Mar  6 19:55:52 2022, MaxMem= 16106127360 cpu:               0.7 elap:               0.1
 (Enter /sw/contrib/gaussian/g16/B01/g16/l1110.exe)
 Forming Gx(P) for generalized density number  2 NAtomX=     5.
 Integral derivatives from FoFJK, PRISM(SPDF).
 Do as many integral derivatives as possible in FoFJK.
 G2DrvN: MDV=   16106126844.
 G2DrvN: will do     6 centers at a time, making    1 passes.
 Calling FoFCou, ICntrl=  3107 FMM=F I1Cent=   0 AccDes= 0.00D+00.
 FoFJK:  IHMeth= 1 ICntrl=    3107 DoSepK=F KAlg= 0 I1Cent=           0 FoldK=F
 IRaf=         0 NMat=       1 IRICut=       1 DoRegI=T DoRafI=F ISym2E= 0 IDoP0=0 IntGTp=1.
 FoFCou: FMM=F IPFlag=           0 FMFlag=      100000 FMFlg1=           0
         NFxFlg=           0 DoJE=F BraDBF=F KetDBF=F FulRan=T
         wScrn=  0.000000 ICntrl=      3107 IOpCl=  0 I1Cent=           0 NGrid=           0
         NMat0=    1 NMatS0=      1 NMatT0=    0 NMatD0=    1 NMtDS0=    0 NMtDT0=    0
 Symmetry not used in FoFCou.
 End of G2Drv F.D. properties file   721 does not exist.
 End of G2Drv F.D. properties file   722 does not exist.
 End of G2Drv F.D. properties file   788 does not exist.
 Leave Link 1110 at Sun Mar  6 19:55:55 2022, MaxMem= 16106127360 cpu:              87.2 elap:               3.1
 (Enter /sw/contrib/gaussian/g16/B01/g16/l1112.exe)
 MP22nd: MDV=   16106127360
 This link is doing NAtomX=     5 total of    18 degrees of freedom.
 Using ON3 I/O method in MakUI.
 Frozen-core window:  NFC=   4 NFV=   0.
 Using Ix for Sx.
 Use MO integrals over full window.
 Using OV2 memory method for fx*t*t/D, MaxI=    16 DoOO2=F NP=  28.
 R2 and R3 integrals will be kept in memory, NReq=   915591705.
 FoFCou: FMM=F IPFlag=           0 FMFlag=           0 FMFlg1=           0
         NFxFlg=           0 DoJE=F BraDBF=F KetDBF=F FulRan=T
         wScrn=  0.000000 ICntrl=       600 IOpCl=  0 I1Cent=           0 NGrid=           0
         NMat0=    1 NMatS0=      1 NMatT0=    0 NMatD0=    1 NMtDS0=    0 NMtDT0=    0
 Symmetry not used in FoFCou.
 DD1Dir will call FoFMem   1 times, MxPair=       272
 NAB=   136 NAA=     0 NBB=     0.
 Symmetry is being used.
 FoFJK:  IHMeth= 1 ICntrl=       0 DoSepK=F KAlg= 0 I1Cent=           0 FoldK=F
 IRaf=         0 NMat=      18 IRICut=      45 DoRegI=T DoRafI=T ISym2E= 2 IDoP0=3 IntGTp=3.
 Discarding MO integrals.
 Leave Link 1112 at Sun Mar  6 19:56:29 2022, MaxMem= 16106127360 cpu:             955.0 elap:              34.4
 (Enter /sw/contrib/gaussian/g16/B01/g16/l601.exe)
 Copying SCF densities to generalized density rwf, IOpCl= 0 IROHF=0.

 **********************************************************************

            Population analysis using the MP2 Density.

 **********************************************************************

 Orbital symmetries:
       Occupied  (A) (A) (A) (A) (A) (A) (A) (A) (A) (A) (A) (A)
                 (A) (A) (A) (A)
       Virtual   (A) (A) (A) (A) (A) (A) (A) (A) (A) (A) (A) (A)
                 (A) (A) (A) (A) (A) (A) (A) (A) (A) (A) (A) (A)
                 (A) (A) (A) (A) (A) (A) (A) (A) (A) (A) (A) (A)
                 (A) (A) (A) (A) (A) (A) (A) (A) (A) (A) (A) (A)
                 (A) (A) (A) (A) (A) (A) (A) (A) (A) (A) (A) (A)
                 (A) (A) (A) (A) (A) (A) (A) (A) (A) (A) (A) (A)
                 (A) (A) (A) (A) (A) (A) (A) (A) (A) (A) (A) (A)
                 (A) (A) (A) (A) (A) (A) (A) (A) (A) (A) (A) (A)
                 (A) (A) (A) (A) (A) (A) (A) (A) (A) (A) (A) (A)
                 (A) (A) (A) (A) (A) (A) (A) (A) (A) (A) (A) (A)
                 (A) (A) (A) (A) (A) (A) (A) (A) (A) (A) (A) (A)
                 (A) (A) (A) (A) (A) (A) (A) (A) (A) (A) (A) (A)
                 (A) (A) (A) (A) (A) (A) (A) (A) (A) (A) (A) (A)
                 (A) (A) (A) (A) (A) (A) (A) (A) (A) (A) (A) (A)
                 (A) (A) (A) (A) (A) (A) (A) (A) (A) (A) (A) (A)
                 (A) (A) (A) (A) (A) (A) (A) (A) (A) (A) (A)
 The electronic state is 1-A.
 Alpha  occ. eigenvalues --  -20.71969 -20.68695 -20.66849 -15.82575  -1.64400
 Alpha  occ. eigenvalues --   -1.50509  -1.29371  -0.96020  -0.83407  -0.75874
 Alpha  occ. eigenvalues --   -0.74009  -0.63821  -0.61924  -0.61670  -0.50450
 Alpha  occ. eigenvalues --   -0.49761
 Alpha virt. eigenvalues --    0.03498   0.06045   0.09512   0.10041   0.11913
 Alpha virt. eigenvalues --    0.12265   0.14983   0.15189   0.17680   0.18107
 Alpha virt. eigenvalues --    0.18919   0.21177   0.21688   0.24232   0.24625
 Alpha virt. eigenvalues --    0.26894   0.30375   0.32532   0.33832   0.34394
 Alpha virt. eigenvalues --    0.34713   0.39268   0.44451   0.48644   0.50861
 Alpha virt. eigenvalues --    0.51856   0.54463   0.56160   0.59872   0.62042
 Alpha virt. eigenvalues --    0.63777   0.68985   0.71276   0.72795   0.74328
 Alpha virt. eigenvalues --    0.76085   0.77063   0.79202   0.80622   0.84029
 Alpha virt. eigenvalues --    0.84439   0.85364   0.88832   0.90710   0.92898
 Alpha virt. eigenvalues --    0.95233   0.95408   1.01750   1.03442   1.05783
 Alpha virt. eigenvalues --    1.06466   1.09660   1.14084   1.15559   1.17146
 Alpha virt. eigenvalues --    1.21577   1.23288   1.24665   1.34841   1.36107
 Alpha virt. eigenvalues --    1.36957   1.46157   1.49601   1.50688   1.53680
 Alpha virt. eigenvalues --    1.58081   1.60092   1.61714   1.62991   1.69477
 Alpha virt. eigenvalues --    1.73834   1.80229   1.82920   1.89008   1.89418
 Alpha virt. eigenvalues --    1.92931   1.97633   1.99417   2.05071   2.12285
 Alpha virt. eigenvalues --    2.12882   2.16861   2.18982   2.24181   2.26178
 Alpha virt. eigenvalues --    2.29788   2.35068   2.36503   2.38834   2.40080
 Alpha virt. eigenvalues --    2.43179   2.46571   2.48197   2.52767   2.53352
 Alpha virt. eigenvalues --    2.54919   2.56486   2.61591   2.63040   2.66353
 Alpha virt. eigenvalues --    2.67376   2.75376   2.80892   2.82010   2.84518
 Alpha virt. eigenvalues --    2.91826   2.98317   3.04360   3.05185   3.11160
 Alpha virt. eigenvalues --    3.12289   3.16896   3.21065   3.30373   3.33576
 Alpha virt. eigenvalues --    3.36035   3.47572   3.67828   3.86312   3.93051
 Alpha virt. eigenvalues --    4.16617   4.22027   4.24100   4.27703   4.37392
 Alpha virt. eigenvalues --    4.49973   4.52107   4.55477   4.60480   4.69404
 Alpha virt. eigenvalues --    4.80982   4.89559   4.91892   4.94421   4.99592
 Alpha virt. eigenvalues --    5.00743   5.10557   5.13176   5.18309   5.24977
 Alpha virt. eigenvalues --    5.26010   5.31579   5.34320   5.35674   5.54774
 Alpha virt. eigenvalues --    5.64464   5.70475   5.88903   5.99658   6.26780
 Alpha virt. eigenvalues --    6.29656   6.35843   6.37615   6.60060   6.65247
 Alpha virt. eigenvalues --    6.66873   6.69194   6.72571   6.78192   6.81200
 Alpha virt. eigenvalues --    6.85622   6.96596   7.01677   7.06859   7.08489
 Alpha virt. eigenvalues --    7.13970   7.16906   7.17998   7.20257   7.24534
 Alpha virt. eigenvalues --    7.24883   7.27433   7.34917   7.39414   7.42614
 Alpha virt. eigenvalues --    7.44362   7.46124   7.56032   7.66051   7.66529
 Alpha virt. eigenvalues --    7.79728   7.88409   7.95150   8.05292   8.30574
 Alpha virt. eigenvalues --    8.49646   8.65050  13.61865  14.76378  15.08937
 Alpha virt. eigenvalues --   15.75471
          Condensed to atoms (all electrons):
               1          2          3          4          5
     1  H    0.577735   0.124160   0.024603  -0.000504  -0.004462
     2  O    0.124160   8.390136  -0.230723  -0.000490  -0.009423
     3  O    0.024603  -0.230723   8.372839  -0.169439  -0.034322
     4  N   -0.000504  -0.000490  -0.169439   7.134210  -0.118318
     5  O   -0.004462  -0.009423  -0.034322  -0.118318   8.362915
 Mulliken charges:
               1
     1  H    0.278468
     2  O   -0.273660
     3  O    0.037042
     4  N    0.154541
     5  O   -0.196390
 Sum of Mulliken charges =  -0.00000
 Mulliken charges with hydrogens summed into heavy atoms:
               1
     2  O    0.004807
     3  O    0.037042
     4  N    0.154541
     5  O   -0.196390
 APT charges:
               1
     1  H    0.270225
     2  O   -0.301288
     3  O   -0.309478
     4  N    0.642859
     5  O   -0.302317
 Sum of APT charges =  -0.00000
 APT charges with hydrogens summed into heavy atoms:
               1
     2  O   -0.031063
     3  O   -0.309478
     4  N    0.642859
     5  O   -0.302317
 Electronic spatial extent (au):  <R**2>=            207.2330
 Charge=             -0.0000 electrons
 Dipole moment (field-independent basis, Debye):
    X=             -0.5955    Y=             -0.9130    Z=              0.1520  Tot=              1.1006
 Quadrupole moment (field-independent basis, Debye-Ang):
   XX=            -25.1063   YY=            -21.2246   ZZ=            -21.9090
   XY=             -0.3965   XZ=              0.0716   YZ=             -0.2718
 Traceless Quadrupole moment (field-independent basis, Debye-Ang):
   XX=             -2.3597   YY=              1.5220   ZZ=              0.8376
   XY=             -0.3965   XZ=              0.0716   YZ=             -0.2718
 Octapole moment (field-independent basis, Debye-Ang**2):
  XXX=              0.1591  YYY=             -5.4805  ZZZ=              0.0049  XYY=              2.3234
  XXY=              0.5177  XXZ=             -0.0921  XZZ=             -0.8713  YZZ=             -0.2492
  YYZ=              0.2826  XYZ=             -0.1381
 Hexadecapole moment (field-independent basis, Debye-Ang**3):
 XXXX=           -154.0317 YYYY=            -65.2798 ZZZZ=            -18.0657 XXXY=              2.7831
 XXXZ=             -0.1657 YYYX=              0.1941 YYYZ=             -0.4648 ZZZX=              0.0305
 ZZZY=             -0.1228 XXYY=            -36.9499 XXZZ=            -27.9663 YYZZ=            -14.9219
 XXYZ=             -0.0995 YYXZ=              0.1891 ZZXY=              0.9629
 N-N= 1.227371755880D+02 E-N=-9.070348153859D+02  KE= 2.802025337823D+02
  Exact polarizability:  34.473   0.731  26.282   0.009  -0.058  17.636
 Approx polarizability:  26.114   1.631  26.082  -0.080  -0.051  15.538
 No NMR shielding tensors so no spin-rotation constants.
 Leave Link  601 at Sun Mar  6 19:56:30 2022, MaxMem= 16106127360 cpu:               4.9 elap:               0.2
 (Enter /sw/contrib/gaussian/g16/B01/g16/l701.exe)
 ... and contract with generalized density number  2.
 Compute integral second derivatives.
 Leave Link  701 at Sun Mar  6 19:56:30 2022, MaxMem= 16106127360 cpu:               5.8 elap:               0.2
 (Enter /sw/contrib/gaussian/g16/B01/g16/l702.exe)
 L702 exits ... SP integral derivatives will be done elsewhere.
 Leave Link  702 at Sun Mar  6 19:56:30 2022, MaxMem= 16106127360 cpu:               1.0 elap:               0.1
 (Enter /sw/contrib/gaussian/g16/B01/g16/l703.exe)
 Integral derivatives from FoFJK, PRISM(SPDF).
 Compute integral second derivatives, UseDBF=F ICtDFT=           0.
 Calling FoFJK, ICntrl=  10100127 FMM=F ISym2X=0 I1Cent= 0 IOpClX= 0 NMat=1 NMatS=1 NMatT=0.
 FoFJK:  IHMeth= 1 ICntrl=10100127 DoSepK=F KAlg= 0 I1Cent=           0 FoldK=F
 IRaf=         0 NMat=       1 IRICut=       1 DoRegI=T DoRafI=F ISym2E= 0 IDoP0=0 IntGTp=1.
 FoFCou: FMM=F IPFlag=           0 FMFlag=      100000 FMFlg1=         800
         NFxFlg=           0 DoJE=F BraDBF=F KetDBF=F FulRan=T
         wScrn=  0.000000 ICntrl=  10100127 IOpCl=  0 I1Cent=           0 NGrid=           0
         NMat0=    1 NMatS0=      1 NMatT0=    0 NMatD0=    1 NMtDS0=    0 NMtDT0=    0
 Symmetry not used in FoFCou.
 Leave Link  703 at Sun Mar  6 19:56:46 2022, MaxMem= 16106127360 cpu:             448.8 elap:              16.1
 (Enter /sw/contrib/gaussian/g16/B01/g16/l716.exe)
 Dipole        =-2.34295623D-01-3.59195059D-01 5.98035532D-02
 Polarizability= 3.44731428D+01 7.30829569D-01 2.62821681D+01
                 9.33578729D-03-5.81797895D-02 1.76364858D+01
 Full mass-weighted force constant matrix:
 Low frequencies ---  -14.0269   -8.2465   -0.0014   -0.0012    0.0005    9.4939
 Low frequencies ---  334.2183  401.0295  518.1494
 Diagonal vibrational polarizability:
       13.7858753       3.5288247      17.7475172
 Harmonic frequencies (cm**-1), IR intensities (KM/Mole), Raman scattering
 activities (A**4/AMU), depolarization ratios for plane and unpolarized
 incident light, reduced masses (AMU), force constants (mDyne/A),
 and normal coordinates:
                      1                      2                      3
                      A                      A                      A
 Frequencies --    334.2110               401.0245               518.1491
 Red. masses --      1.5114                 6.4523                 3.2730
 Frc consts  --      0.0995                 0.6114                 0.5177
 IR Inten    --     63.6444                 9.6967                21.8212
  Atom  AN      X      Y      Z        X      Y      Z        X      Y      Z
     1   1     0.23  -0.00   0.96     0.60  -0.21  -0.48     0.03   0.06   0.91
     2   8     0.05   0.00  -0.10     0.41   0.06   0.08    -0.04  -0.01   0.06
     3   8     0.01  -0.01   0.10    -0.00  -0.10  -0.10     0.01   0.01  -0.20
     4   7    -0.03  -0.01  -0.09    -0.08  -0.04   0.10    -0.01  -0.00   0.29
     5   8    -0.05   0.01   0.02    -0.37   0.09  -0.04     0.03  -0.00  -0.18
                      4                      5                      6
                      A                      A                      A
 Frequencies --    711.6234               837.1066               970.9778
 Red. masses --     12.6885                12.3774                 9.8185
 Frc consts  --      3.7858                 5.1102                 5.4540
 IR Inten    --    217.9369                31.6845                12.6861
  Atom  AN      X      Y      Z        X      Y      Z        X      Y      Z
     1   1    -0.30   0.20  -0.20    -0.25   0.38   0.07    -0.50   0.37   0.05
     2   8    -0.05  -0.05   0.01    -0.31   0.48   0.00     0.06  -0.25  -0.01
     3   8     0.63   0.24  -0.00     0.32  -0.21  -0.00    -0.05   0.54   0.01
     4   7    -0.58  -0.12  -0.00     0.39  -0.21   0.00     0.33  -0.19  -0.00
     5   8    -0.05  -0.09   0.01    -0.33  -0.11  -0.01    -0.27  -0.15  -0.00
                      7                      8                      9
                      A                      A                      A
 Frequencies --   1437.0576              1569.6489              3489.8686
 Red. masses --      1.3011                 6.4404                 1.0638
 Frc consts  --      1.5831                 9.3490                 7.6337
 IR Inten    --     79.3697               149.4459                41.3962
  Atom  AN      X      Y      Z        X      Y      Z        X      Y      Z
     1   1    -0.65   0.74   0.06     0.51  -0.59  -0.01     0.70   0.70  -0.11
     2   8     0.08  -0.00  -0.01    -0.03  -0.01   0.00    -0.04  -0.04   0.01
     3   8    -0.01  -0.06   0.00     0.06   0.03  -0.00    -0.00  -0.00   0.00
     4   7    -0.02   0.08   0.00     0.04   0.47   0.00     0.00   0.00  -0.00
     5   8    -0.01  -0.05  -0.00    -0.10  -0.39  -0.00     0.00  -0.00   0.00

 -------------------
 - Thermochemistry -
 -------------------
 Temperature   298.150 Kelvin.  Pressure   1.00000 Atm.
 Atom     1 has atomic number  1 and mass   1.00783
 Atom     2 has atomic number  8 and mass  15.99491
 Atom     3 has atomic number  8 and mass  15.99491
 Atom     4 has atomic number  7 and mass  14.00307
 Atom     5 has atomic number  8 and mass  15.99491
 Molecular mass:    62.99564 amu.
 Principal axes and moments of inertia in atomic units:
                           1         2         3
     Eigenvalues --    84.54479 222.67148 307.13355
           X            0.99987  -0.01605   0.00089
           Y            0.01606   0.99986  -0.00465
           Z           -0.00081   0.00466   0.99999
 This molecule is an asymmetric top.
 Rotational symmetry number  1.
 Rotational temperatures (Kelvin)      1.02447     0.38898     0.28201
 Rotational constants (GHZ):          21.34657     8.10495     5.87608
 Zero-point vibrational energy      61426.3 (Joules/Mol)
                                   14.68123 (Kcal/Mol)
 Warning -- explicit consideration of   3 degrees of freedom as
           vibrations may cause significant error
 Vibrational temperatures:    480.86   576.98   745.50  1023.87  1204.41
          (Kelvin)           1397.02  2067.61  2258.37  5021.14
 
 Zero-point correction=                           0.023396 (Hartree/Particle)
 Thermal correction to Energy=                    0.027355
 Thermal correction to Enthalpy=                  0.028299
 Thermal correction to Gibbs Free Energy=        -0.002598
 Sum of electronic and zero-point Energies=           -280.431710
 Sum of electronic and thermal Energies=              -280.427751
 Sum of electronic and thermal Enthalpies=            -280.426807
 Sum of electronic and thermal Free Energies=         -280.457704
 
                     E (Thermal)             CV                S
                      KCal/Mol        Cal/Mol-Kelvin    Cal/Mol-Kelvin
 Total                   17.165             12.207             65.028
 Electronic               0.000              0.000              0.000
 Translational            0.889              2.981             38.341
 Rotational               0.889              2.981             23.274
 Vibrational             15.388              6.245              3.414
 Vibration     1          0.716              1.607              1.240
 Vibration     2          0.767              1.468              0.959
 Vibration     3          0.873              1.210              0.614
                       Q            Log10(Q)             Ln(Q)
 Total Bot       0.156663D+02          1.194968          2.751515
 Total V=0       0.904445D+12         11.956382         27.530587
 Vib (Bot)       0.292862D-10        -10.533337        -24.253905
 Vib (Bot)    1  0.557612D+00         -0.253668         -0.584092
 Vib (Bot)    2  0.444118D+00         -0.352501         -0.811664
 Vib (Bot)    3  0.312048D+00         -0.505779         -1.164599
 Vib (V=0)       0.169074D+01          0.228078          0.525168
 Vib (V=0)    1  0.124895D+01          0.096546          0.222306
 Vib (V=0)    2  0.116876D+01          0.067726          0.155944
 Vib (V=0)    3  0.108938D+01          0.037181          0.085613
 Electronic      0.100000D+01          0.000000          0.000000
 Translational   0.196526D+08          7.293420         16.793719
 Rotational      0.272198D+05          4.434885         10.211700
 
                                                                title
                                                             IR Spectrum
 
     3                                                                     1    1                                                    
     4                                                                     5    4                9    8    7      5   4 3            
     9                                                                     7    3                7    3    1      1   0 3            
     0                                                                     0    7                1    7    2      8   1 4            
 
     X                                                                     X    X                X    X    X      X   X X            
     X                                                                     X    X                     X    X      X     X            
     X                                                                     X    X                     X    X            X            
     X                                                                     X    X                          X            X            
                                                                           X    X                          X            X            
                                                                           X    X                          X            X            
                                                                           X    X                          X                         
                                                                           X                               X                         
                                                                           X                               X                         
                                                                           X                               X                         
                                                                           X                               X                         
                                                                           X                               X                         
                                                                           X                               X                         
                                                                           X                               X                         
                                                                                                           X                         
                                                                                                           X                         
                                                                                                           X                         
                                                                                                           X                         
                                                                                                           X                         
                                                                                                           X                         
 
 ***** Axes restored to original set *****
 -------------------------------------------------------------------
 Center     Atomic                   Forces (Hartrees/Bohr)
 Number     Number              X              Y              Z
 -------------------------------------------------------------------
      1        1          -0.000188068   -0.001247228    0.000326503
      2        8          -0.000166569    0.000506409   -0.000234192
      3        8           0.000199275    0.000865945   -0.000132168
      4        7           0.000097027   -0.001661594    0.000263988
      5        8           0.000058335    0.001536468   -0.000224131
 -------------------------------------------------------------------
 Cartesian Forces:  Max     0.001661594 RMS     0.000734756
 -----------------------------------------------------------------------------------------------
                       Internal Coordinate Forces (Hartree/Bohr or radian)
  Cent   Atom   N1       Length/X         N2         Alpha/Y        N3         Beta/Z          J
 -----------------------------------------------------------------------------------------------
      1  H 
      2  O        1  -0.000327(     1)
      3  O        2   0.000332(     2)      1   0.000350(     5)
      4  N        3   0.000067(     3)      2   0.000486(     6)      1   0.002283(     8)     0
      5  O        4   0.000028(     4)      3   0.000106(     7)      2   0.003195(     9)     0
 -----------------------------------------------------------------------------------------------
 Internal  Forces:  Max     0.003194601 RMS     0.001333669
 Force constants in Cartesian coordinates: 
                1             2             3             4             5 
      1  0.723403D-01
      2  0.184810D-02  0.566953D-02
      3  0.235133D-01 -0.260039D-02  0.437288D+00
      4 -0.518389D-01  0.114291D-04 -0.466860D-02  0.280827D+00
      5 -0.879652D-03 -0.231065D-02  0.199114D-02 -0.214292D-02  0.129098D-01
      6  0.326232D-01  0.295185D-02 -0.421259D+00 -0.120719D-01  0.386755D-02
      7 -0.251643D-01 -0.365661D-03 -0.156415D-01 -0.170808D+00 -0.661291D-02
      8  0.103982D-02 -0.435762D-02 -0.108490D-02 -0.471012D-03 -0.192552D-01
      9 -0.442963D-01 -0.264527D-02 -0.194710D-01  0.103376D-01 -0.328983D-02
     10 -0.557291D-02  0.856768D-03  0.641802D-02 -0.839294D-01  0.735011D-02
     11 -0.119420D-02  0.811783D-02  0.576727D-03  0.448491D-02  0.192129D-01
     12 -0.187335D-01  0.308156D-02  0.116058D-01  0.105410D-01 -0.484721D-02
     13  0.102359D-01 -0.235063D-02 -0.962121D-02  0.257494D-01  0.228538D-02
     14 -0.814073D-03 -0.711909D-02  0.111743D-02 -0.188241D-02 -0.105569D-01
     15  0.689334D-02 -0.787752D-03 -0.816393D-02 -0.413811D-02  0.227835D-02
                6             7             8             9            10 
      6  0.522378D+00
      7 -0.909757D-01  0.303627D+00
      8 -0.202707D-02  0.224043D-02  0.435797D-01
      9 -0.963364D-01  0.818358D-01  0.240764D-01  0.313815D+00
     10  0.398426D-01 -0.143713D+00 -0.148876D-02 -0.354437D-01  0.554321D+00
     11 -0.508089D-02  0.338670D-02 -0.474400D-01  0.376257D-02  0.157774D-01
     12 -0.972362D-02  0.155554D-01  0.285020D-02 -0.257575D-01  0.242909D+00
     13  0.305818D-01  0.360582D-01 -0.132049D-02 -0.124335D-01 -0.321105D+00
     14  0.288552D-03  0.135145D-02  0.274731D-01 -0.219039D-01 -0.224956D-01
     15  0.494171D-02  0.922601D-02 -0.238146D-01 -0.172250D+00 -0.253726D+00
               11            12            13            14            15 
     11  0.614210D-01
     12  0.381993D-01  0.444132D+00
     13 -0.224549D-01 -0.250272D+00  0.249062D+00
     14 -0.413117D-01 -0.392838D-01  0.238406D-01  0.315146D-01
     15 -0.374577D-01 -0.420256D+00  0.241745D+00  0.597817D-01  0.595729D+00
 Force constants in internal coordinates: 
                1             2             3             4             5 
      1  0.437288D+00
      2  0.214793D-01  0.259273D+00
      3  0.479696D-02  0.176845D-01  0.207529D+00
      4 -0.118890D-01  0.223458D-01  0.148645D+00  0.721294D+00
      5  0.435958D-01  0.568119D-01 -0.234076D-01  0.207950D-01  0.250224D+00
      6  0.107477D-01  0.222569D-01  0.922170D-01  0.893899D-02 -0.815135D-02
      7  0.896528D-02 -0.730611D-01  0.121260D+00  0.116609D+00 -0.215851D-01
      8 -0.598468D-02  0.346337D-02  0.517462D-02 -0.460081D-02  0.672631D-02
      9 -0.376545D-02  0.366041D-02  0.349028D-02 -0.234759D-02  0.525568D-02
                6             7             8             9 
      6  0.519570D+00
      7  0.611999D-01  0.661595D+00
      8  0.389644D-02  0.424046D-02  0.183386D-01
      9  0.752721D-02  0.588479D-02  0.264770D-01  0.106841D+00
 Leave Link  716 at Sun Mar  6 19:56:46 2022, MaxMem= 16106127360 cpu:               0.8 elap:               0.1
 (Enter /sw/contrib/gaussian/g16/B01/g16/l103.exe)

 GradGradGradGradGradGradGradGradGradGradGradGradGradGradGradGradGradGrad
 Berny optimization.
 Search for a local minimum.
 Step number   1 out of a maximum of    2
 All quantities printed in internal units (Hartrees-Bohrs-Radians)
 Second derivative matrix not updated -- analytic derivatives used.
 The second derivative matrix:
                          r1        r2        r3        r4        a1
           r1           0.43729
           r2           0.02148   0.25927
           r3           0.00480   0.01768   0.20753
           r4          -0.01189   0.02235   0.14865   0.72129
           a1           0.04360   0.05681  -0.02341   0.02079   0.25022
           a2           0.01075   0.02226   0.09222   0.00894  -0.00815
           a3           0.00897  -0.07306   0.12126   0.11661  -0.02159
           d1          -0.00598   0.00346   0.00517  -0.00460   0.00673
           d2          -0.00377   0.00366   0.00349  -0.00235   0.00526
                          a2        a3        d1        d2
           a2           0.51957
           a3           0.06120   0.66160
           d1           0.00390   0.00424   0.01834
           d2           0.00753   0.00588   0.02648   0.10684
 ITU=  0
     Eigenvalues ---    0.01061   0.11234   0.12540   0.20318   0.27777
     Eigenvalues ---    0.44949   0.51433   0.60702   0.88181
 Angle between quadratic step and forces=  56.38 degrees.
 Linear search not attempted -- first point.
 Variable       Old X    -DE/DX   Delta X   Delta X   Delta X     New X
                                 (Linear)    (Quad)   (Total)
    r1        1.86209  -0.00033   0.00000   0.00141   0.00141   1.86351
    r2        2.69614   0.00033   0.00000   0.00011   0.00011   2.69625
    r3        2.60992   0.00007   0.00000  -0.00491  -0.00491   2.60501
    r4        2.25782   0.00003   0.00000   0.00202   0.00202   2.25984
    a1        1.75642   0.00035   0.00000  -0.00297  -0.00297   1.75345
    a2        1.97463   0.00049   0.00000   0.00078   0.00078   1.97540
    a3        1.99550   0.00011   0.00000  -0.00029  -0.00029   1.99521
    d1       -0.11555   0.00228   0.00000   0.13097   0.13097   0.01541
    d2        0.00000   0.00319   0.00000  -0.00220  -0.00220  -0.00220
         Item               Value     Threshold  Converged?
 Maximum Force            0.003195     0.000450     NO 
 RMS     Force            0.001334     0.000300     NO 
 Maximum Displacement     0.130966     0.001800     NO 
 RMS     Displacement     0.043712     0.001200     NO 
 Predicted change in Energy=-1.452660D-04
                       ----------------------------
                       ! Non-Optimized Parameters !
                       ! (Angstroms and Degrees)  !
 ----------------------                            ----------------------
 !      Name          Value   Derivative information (Atomic Units)     !
 ------------------------------------------------------------------------
 !       r1          0.9861   -DE/DX =   -0.0003                        !
 !       r2          1.4268   -DE/DX =    0.0003                        !
 !       r3          1.3785   -DE/DX =    0.0001                        !
 !       r4          1.1959   -DE/DX =    0.0                           !
 !       a1        100.4652   -DE/DX =    0.0004                        !
 !       a2        113.1822   -DE/DX =    0.0005                        !
 !       a3        114.3172   -DE/DX =    0.0001                        !
 !       d1          0.8831   -DE/DX =    0.0023                        !
 !       d2         -0.1259   -DE/DX =    0.0032                        !
 ------------------------------------------------------------------------
 GradGradGradGradGradGradGradGradGradGradGradGradGradGradGradGradGradGrad

 Leave Link  103 at Sun Mar  6 19:56:46 2022, MaxMem= 16106127360 cpu:               0.6 elap:               0.0
 (Enter /sw/contrib/gaussian/g16/B01/g16/l9999.exe)

 ----------------------------------------------------------------------

 Electric dipole moment (input orientation):
 (Debye = 10**-18 statcoulomb cm , SI units = C m)
                  (au)            (Debye)         (10**-30 SI)
   Tot        0.433003D+00      0.110058D+01      0.367116D+01
   x         -0.111623D+00     -0.283717D+00     -0.946377D+00
   y          0.181266D-01      0.460732D-01      0.153684D+00
   z         -0.417976D+00     -0.106239D+01     -0.354375D+01

 Dipole polarizability, Alpha (input orientation).
 (esu units = cm**3 , SI units = C**2 m**2 J**-1)
 Alpha(0;0):
               (au)            (10**-24 esu)      (10**-40 SI)
   iso        0.261306D+02      0.387216D+01      0.430835D+01
   aniso      0.146379D+02      0.216912D+01      0.241347D+01
   xx         0.291453D+02      0.431889D+01      0.480541D+01
   yx        -0.824651D+00     -0.122201D+00     -0.135967D+00
   yy         0.178319D+02      0.264242D+01      0.294009D+01
   zx        -0.391055D+01     -0.579483D+00     -0.644762D+00
   zy         0.158503D+01      0.234877D+00      0.261336D+00
   zz         0.314146D+02      0.465516D+01      0.517956D+01

 ----------------------------------------------------------------------

 Dipole orientation:
     1          0.00000000         -0.00000000         -0.00000000
     8         -0.48002321         -0.07795176         -1.79746704
     8          1.95192587         -0.11333299         -2.96088916
     7          3.90457323          0.24534016         -1.26672884
     8          3.24035822          0.52336392          0.87319773

 Electric dipole moment (dipole orientation):
 (Debye = 10**-18 statcoulomb cm , SI units = C m)
                  (au)            (Debye)         (10**-30 SI)
   Tot        0.433003D+00      0.110058D+01      0.367116D+01
   x          0.000000D+00      0.000000D+00      0.000000D+00
   y          0.000000D+00      0.000000D+00      0.000000D+00
   z          0.433003D+00      0.110058D+01      0.367116D+01

 Dipole polarizability, Alpha (dipole orientation).
 (esu units = cm**3 , SI units = C**2 m**2 J**-1)
 Alpha(0;0):
               (au)            (10**-24 esu)      (10**-40 SI)
   iso        0.261306D+02      0.387216D+01      0.430835D+01
   aniso      0.146379D+02      0.216912D+01      0.241347D+01
   xx         0.312305D+02      0.462789D+01      0.514922D+01
   yx         0.144314D+01      0.213852D+00      0.237942D+00
   yy         0.179778D+02      0.266404D+01      0.296414D+01
   zx         0.389170D+01      0.576690D+00      0.641654D+00
   zy         0.181563D+01      0.269048D+00      0.299357D+00
   zz         0.291834D+02      0.432454D+01      0.481170D+01

 ----------------------------------------------------------------------
 1\1\GINC-N2219\Freq\RMP2-FC\Aug-CC-pVTZ\H1N1O3\CGAVINH\06-Mar-2022\1\\
 #p freq mp2/aug-cc-pvtz density=current\\title\\0,1\H\O,1,r1\O,2,r2,1,
 a1\N,3,r3,2,a2,1,d1,0\O,4,r4,3,a3,2,d2,0\\r1=0.98537664\r2=1.42673666\
 r3=1.38110764\r4=1.19478846\a1=100.6355057\a2=113.13777052\a3=114.3339
 2022\d1=-6.62072889\d2=0.\\Version=ES64L-G16RevB.01\State=1-A\HF=-279.
 5063593\MP2=-280.4551059\RMSD=6.768e-09\RMSF=7.348e-04\ZeroPoint=0.023
 396\Thermal=0.0273547\Dipole=-0.1116227,0.0181266,-0.4179758\DipoleDer
 iv=0.3144915,-0.0110009,0.040001,-0.0152762,0.2993953,-0.0037194,-0.02
 09474,0.006285,0.1967869,-0.5264891,0.0480107,0.2770851,0.0067398,-0.2
 546463,-0.0009987,-0.1067606,-0.0041405,-0.1227287,0.0039866,0.0382785
 ,0.3338849,0.0411629,-0.0248784,-0.1112898,0.4375067,-0.112238,-0.9075
 42,0.1992108,-0.0175171,-0.1373196,-0.0767737,0.0367362,0.1981859,-0.6
 585756,0.2110305,1.692629,0.0088001,-0.0577711,-0.5136513,0.0441472,-0
 .0566068,-0.0821781,0.3487769,-0.100937,-0.8591452\Polar=29.1453172,-0
 .8246513,17.8319266,-3.9105458,1.58503,31.4145529\Quadrupole=0.1442346
 ,0.5878006,-0.7320352,-0.0204636,1.4039206,-0.2847564\PG=C01 [X(H1N1O3
 )]\NImag=0\\0.07234027,0.00184810,0.00566953,0.02351328,-0.00260039,0.
 43728845,-0.05183895,0.00001143,-0.00466860,0.28082680,-0.00087965,-0.
 00231065,0.00199114,-0.00214292,0.01290983,0.03262319,0.00295185,-0.42
 125937,-0.01207190,0.00386755,0.52237765,-0.02516431,-0.00036566,-0.01
 564150,-0.17080781,-0.00661291,-0.09097571,0.30362713,0.00103982,-0.00
 435762,-0.00108490,-0.00047101,-0.01925520,-0.00202707,0.00224043,0.04
 357971,-0.04429627,-0.00264527,-0.01947095,0.01033761,-0.00328983,-0.0
 9633638,0.08183582,0.02407641,0.31381515,-0.00557291,0.00085677,0.0064
 1802,-0.08392942,0.00735011,0.03984260,-0.14371325,-0.00148876,-0.0354
 4370,0.55432068,-0.00119420,0.00811783,0.00057673,0.00448491,0.0192129
 2,-0.00508089,0.00338670,-0.04743998,0.00376257,0.01577745,0.06142096,
 -0.01873355,0.00308156,0.01160580,0.01054100,-0.00484721,-0.00972362,0
 .01555538,0.00285020,-0.02575749,0.24290941,0.03819927,0.44413174,0.01
 023590,-0.00235063,-0.00962121,0.02574938,0.00228538,0.03058182,0.0360
 5825,-0.00132049,-0.01243347,-0.32110510,-0.02245486,-0.25027225,0.249
 06157,-0.00081407,-0.00711909,0.00111743,-0.00188241,-0.01055691,0.000
 28855,0.00135145,0.02747309,-0.02190388,-0.02249557,-0.04131173,-0.039
 28382,0.02384060,0.03151464,0.00689334,-0.00078775,-0.00816393,-0.0041
 3811,0.00227835,0.00494171,0.00922601,-0.02381464,-0.17225033,-0.25372
 635,-0.03745767,-0.42025644,0.24174511,0.05978172,0.59572898\\0.000188
 07,0.00124723,-0.00032650,0.00016657,-0.00050641,0.00023419,-0.0001992
 8,-0.00086594,0.00013217,-0.00009703,0.00166159,-0.00026399,-0.0000583
 3,-0.00153647,0.00022413\\\@


 THE MOST BEAUTIFUL EXPERIENCE WE CAN HAVE IS THE MYSTERIOUS.
 IT IS THE FUNDAMENTAL EMOTION WHICH STANDS AT AT THE CRADLE 
 OF TRUE ART AND TRUE SCIENCE.

                                    -- ALBERT EINSTEIN
 Job cpu time:       0 days  2 hours  7 minutes  1.4 seconds.
 Elapsed time:       0 days  0 hours  4 minutes 40.4 seconds.
 File lengths (MBytes):  RWF=   7239 Int=      0 D2E=      0 Chk=      8 Scr=      1
 Normal termination of Gaussian 16 at Sun Mar  6 19:56:47 2022.
