 Entering Gaussian System, Link 0=g16
 Input=hoono_a1_98p58991.gjf
 Output=hoono_a1_98p58991.log
 Initial command:
 /sw/contrib/gaussian/g16/B01/g16/l1.exe "/scr/Gau-30089.inp" -scrdir="/scr/"
 Entering Link 1 = /sw/contrib/gaussian/g16/B01/g16/l1.exe PID=     30090.
  
 Copyright (c) 1988-2017, Gaussian, Inc.  All Rights Reserved.
  
 This is part of the Gaussian(R) 16 program.  It is based on
 the Gaussian(R) 09 system (copyright 2009, Gaussian, Inc.),
 the Gaussian(R) 03 system (copyright 2003, Gaussian, Inc.),
 the Gaussian(R) 98 system (copyright 1998, Gaussian, Inc.),
 the Gaussian(R) 94 system (copyright 1995, Gaussian, Inc.),
 the Gaussian 92(TM) system (copyright 1992, Gaussian, Inc.),
 the Gaussian 90(TM) system (copyright 1990, Gaussian, Inc.),
 the Gaussian 88(TM) system (copyright 1988, Gaussian, Inc.),
 the Gaussian 86(TM) system (copyright 1986, Carnegie Mellon
 University), and the Gaussian 82(TM) system (copyright 1983,
 Carnegie Mellon University). Gaussian is a federally registered
 trademark of Gaussian, Inc.
  
 This software contains proprietary and confidential information,
 including trade secrets, belonging to Gaussian, Inc.
  
 This software is provided under written license and may be
 used, copied, transmitted, or stored only in accord with that
 written license.
  
 The following legend is applicable only to US Government
 contracts under FAR:
  
                    RESTRICTED RIGHTS LEGEND
  
 Use, reproduction and disclosure by the US Government is
 subject to restrictions as set forth in subparagraphs (a)
 and (c) of the Commercial Computer Software - Restricted
 Rights clause in FAR 52.227-19.
  
 Gaussian, Inc.
 340 Quinnipiac St., Bldg. 40, Wallingford CT 06492
  
  
 ---------------------------------------------------------------
 Warning -- This program may not be used in any manner that
 competes with the business of Gaussian, Inc. or will provide
 assistance to any competitor of Gaussian, Inc.  The licensee
 of this program is prohibited from giving any competitor of
 Gaussian, Inc. access to this program.  By using this program,
 the user acknowledges that Gaussian, Inc. is engaged in the
 business of creating and licensing software in the field of
 computational chemistry and represents and warrants to the
 licensee that it is not a competitor of Gaussian, Inc. and that
 it will not use this program in any manner prohibited above.
 ---------------------------------------------------------------
  

 Cite this work as:
 Gaussian 16, Revision B.01,
 M. J. Frisch, G. W. Trucks, H. B. Schlegel, G. E. Scuseria, 
 M. A. Robb, J. R. Cheeseman, G. Scalmani, V. Barone, 
 G. A. Petersson, H. Nakatsuji, X. Li, M. Caricato, A. V. Marenich, 
 J. Bloino, B. G. Janesko, R. Gomperts, B. Mennucci, H. P. Hratchian, 
 J. V. Ortiz, A. F. Izmaylov, J. L. Sonnenberg, D. Williams-Young, 
 F. Ding, F. Lipparini, F. Egidi, J. Goings, B. Peng, A. Petrone, 
 T. Henderson, D. Ranasinghe, V. G. Zakrzewski, J. Gao, N. Rega, 
 G. Zheng, W. Liang, M. Hada, M. Ehara, K. Toyota, R. Fukuda, 
 J. Hasegawa, M. Ishida, T. Nakajima, Y. Honda, O. Kitao, H. Nakai, 
 T. Vreven, K. Throssell, J. A. Montgomery, Jr., J. E. Peralta, 
 F. Ogliaro, M. J. Bearpark, J. J. Heyd, E. N. Brothers, K. N. Kudin, 
 V. N. Staroverov, T. A. Keith, R. Kobayashi, J. Normand, 
 K. Raghavachari, A. P. Rendell, J. C. Burant, S. S. Iyengar, 
 J. Tomasi, M. Cossi, J. M. Millam, M. Klene, C. Adamo, R. Cammi, 
 J. W. Ochterski, R. L. Martin, K. Morokuma, O. Farkas, 
 J. B. Foresman, and D. J. Fox, Gaussian, Inc., Wallingford CT, 2016.
 
 ******************************************
 Gaussian 16:  ES64L-G16RevB.01 20-Dec-2017
                 6-Mar-2022 
 ******************************************
 %nproc=28
 Will use up to   28 processors via shared memory.
 %mem=120GB
 %chk=hoono_a1_98p58991.chk
 ---------------------------------------
 #p freq mp2/aug-cc-pvtz density=current
 ---------------------------------------
 1/10=4,30=1,38=1/1,3;
 2/12=2,17=6,18=5,40=1/2;
 3/5=16,6=1,7=10,11=9,25=1,30=1,71=2,140=1/1,2,3;
 4//1;
 5/5=2,38=5,98=1/2;
 8/6=3,8=1,10=1,19=11,30=-1/1;
 9/15=3,16=-3/6;
 11/6=1,8=1,15=11,17=12,24=-1,27=1,28=-2,29=300,32=6,42=3/1,2,10;
 10/6=2,21=1/2;
 8/6=4,8=1,10=1,19=11,30=-1/11,4;
 10/5=1,20=4/2;
 11/12=2,14=11,16=1,17=2,28=-2,42=3,76=2/2,10,12;
 6/7=2,8=2,9=2,10=2,22=-1/1;
 7/8=1,10=1,12=2,25=1,44=2/1,2,3,16;
 1/10=4,30=1/3;
 99//99;
 Leave Link    1 at Sun Mar  6 19:26:14 2022, MaxMem= 16106127360 cpu:               2.7 elap:               0.1
 (Enter /sw/contrib/gaussian/g16/B01/g16/l101.exe)
 -----
 title
 -----
 Symbolic Z-matrix:
 Charge =  0 Multiplicity = 1
 H
 O                    1    r1
 O                    2    r2       1    a1
 N                    3    r3       2    a2       1    d1       0
 O                    4    r4       3    a3       2    d2       0
       Variables:
  r1                    0.98538                  
  r2                    1.42674                  
  r3                    1.38111                  
  r4                    1.19479                  
  a1                   98.58991                  
  a2                  113.13777                  
  a3                  114.33392                  
  d1                    0.                       
  d2                    0.                       
 
 ITRead=  0  0  0  0  0
 MicOpt= -1 -1 -1 -1 -1
 NAtoms=      5 NQM=        5 NQMF=       0 NMMI=      0 NMMIF=      0
                NMic=       0 NMicF=      0.
                    Isotopes and Nuclear Properties:
 (Nuclear quadrupole moments (NQMom) in fm**2, nuclear magnetic moments (NMagM)
  in nuclear magnetons)

  Atom         1           2           3           4           5
 IAtWgt=           1          16          16          14          16
 AtmWgt=   1.0078250  15.9949146  15.9949146  14.0030740  15.9949146
 NucSpn=           1           0           0           2           0
 AtZEff=  -0.0000000  -0.0000000  -0.0000000  -0.0000000  -0.0000000
 NQMom=    0.0000000   0.0000000   0.0000000   2.0440000   0.0000000
 NMagM=    2.7928460   0.0000000   0.0000000   0.4037610   0.0000000
 AtZNuc=   1.0000000   8.0000000   8.0000000   7.0000000   8.0000000
 Leave Link  101 at Sun Mar  6 19:26:14 2022, MaxMem= 16106127360 cpu:               3.3 elap:               0.1
 (Enter /sw/contrib/gaussian/g16/B01/g16/l103.exe)

 GradGradGradGradGradGradGradGradGradGradGradGradGradGradGradGradGradGrad
 Berny optimization.
 Initialization pass.
                       ----------------------------
                       !    Initial Parameters    !
                       ! (Angstroms and Degrees)  !
 ----------------------                            ----------------------
 !      Name          Value   Derivative information (Atomic Units)     !
 ------------------------------------------------------------------------
 !       r1          0.9854   calculate D2E/DX2 analytically            !
 !       r2          1.4267   calculate D2E/DX2 analytically            !
 !       r3          1.3811   calculate D2E/DX2 analytically            !
 !       r4          1.1948   calculate D2E/DX2 analytically            !
 !       a1         98.5899   calculate D2E/DX2 analytically            !
 !       a2        113.1378   calculate D2E/DX2 analytically            !
 !       a3        114.3339   calculate D2E/DX2 analytically            !
 !       d1          0.0      calculate D2E/DX2 analytically            !
 !       d2          0.0      calculate D2E/DX2 analytically            !
 ------------------------------------------------------------------------
 Trust Radius=3.00D-01 FncErr=1.00D-07 GrdErr=1.00D-07 EigMax=2.50D+02 EigMin=1.00D-04
 Number of steps in this run=      2 maximum allowed number of steps=      2.
 GradGradGradGradGradGradGradGradGradGradGradGradGradGradGradGradGradGrad

 Leave Link  103 at Sun Mar  6 19:26:14 2022, MaxMem= 16106127360 cpu:               1.6 elap:               0.1
 (Enter /sw/contrib/gaussian/g16/B01/g16/l202.exe)
                          Input orientation:                          
 ---------------------------------------------------------------------
 Center     Atomic      Atomic             Coordinates (Angstroms)
 Number     Number       Type             X           Y           Z
 ---------------------------------------------------------------------
      1          1           0        0.000000    0.000000    0.000000
      2          8           0        0.000000    0.000000    0.985377
      3          8           0        1.410733    0.000000    1.198476
      4          7           0        2.137033    0.000000    0.023765
      5          8           0        1.469981    0.000000   -0.967477
 ---------------------------------------------------------------------
                    Distance matrix (angstroms):
                    1          2          3          4          5
     1  H    0.000000
     2  O    0.985377   0.000000
     3  O    1.851084   1.426737   0.000000
     4  N    2.137165   2.343418   1.381108   0.000000
     5  O    1.759789   2.444276   2.166763   1.194788   0.000000
 Stoichiometry    HNO3
 Framework group  CS[SG(HNO3)]
 Deg. of freedom     7
 Full point group                 CS      NOp   2
 Largest Abelian subgroup         CS      NOp   2
 Largest concise Abelian subgroup C1      NOp   1
                         Standard orientation:                         
 ---------------------------------------------------------------------
 Center     Atomic      Atomic             Coordinates (Angstroms)
 Number     Number       Type             X           Y           Z
 ---------------------------------------------------------------------
      1          1           0        1.076692   -0.588998    0.000000
      2          8           0        1.316473    0.366760    0.000000
      3          8           0       -0.000000    0.916739    0.000000
      4          7           0       -0.990322   -0.045924    0.000000
      5          8           0       -0.584528   -1.169691    0.000000
 ---------------------------------------------------------------------
 Rotational constants (GHZ):          21.4077417           8.1102927           5.8819313
 Leave Link  202 at Sun Mar  6 19:26:14 2022, MaxMem= 16106127360 cpu:               0.3 elap:               0.0
 (Enter /sw/contrib/gaussian/g16/B01/g16/l301.exe)
 Standard basis: Aug-CC-pVTZ (5D, 7F)
 Ernie: Thresh=  0.10000D-02 Tol=  0.10000D-05 Strict=F.
 Ernie:  12 primitive shells out of 131 were deleted.
 There are   166 symmetry adapted cartesian basis functions of A'  symmetry.
 There are    79 symmetry adapted cartesian basis functions of A"  symmetry.
 There are   136 symmetry adapted basis functions of A'  symmetry.
 There are    71 symmetry adapted basis functions of A"  symmetry.
   207 basis functions,   315 primitive gaussians,   245 cartesian basis functions
    16 alpha electrons       16 beta electrons
       nuclear repulsion energy       122.8508012247 Hartrees.
 IExCor=    0 DFT=F Ex=HF Corr=None ExCW=0 ScaHFX=  1.000000
 ScaDFX=  1.000000  1.000000  1.000000  1.000000 ScalE2=  1.000000  1.000000
 IRadAn=      5 IRanWt=     -1 IRanGd=            0 ICorTp=0 IEmpDi=  4
 NAtoms=    5 NActive=    5 NUniq=    5 SFac= 1.00D+00 NAtFMM=   60 NAOKFM=F Big=F
 Integral buffers will be    131072 words long.
 Raffenetti 1 integral format.
 Two-electron integral symmetry is turned on.
 Leave Link  301 at Sun Mar  6 19:26:14 2022, MaxMem= 16106127360 cpu:               1.7 elap:               0.1
 (Enter /sw/contrib/gaussian/g16/B01/g16/l302.exe)
 NPDir=0 NMtPBC=     1 NCelOv=     1 NCel=       1 NClECP=     1 NCelD=      1
         NCelK=      1 NCelE2=     1 NClLst=     1 CellRange=     0.0.
 One-electron integrals computed using PRISM.
 One-electron integral symmetry used in STVInt
 NBasis=   207 RedAO= T EigKep=  1.31D-04  NBF=   136    71
 NBsUse=   207 1.00D-06 EigRej= -1.00D+00 NBFU=   136    71
 Leave Link  302 at Sun Mar  6 19:26:14 2022, MaxMem= 16106127360 cpu:               4.6 elap:               0.2
 (Enter /sw/contrib/gaussian/g16/B01/g16/l303.exe)
 DipDrv:  MaxL=1.
 Leave Link  303 at Sun Mar  6 19:26:15 2022, MaxMem= 16106127360 cpu:               1.4 elap:               0.1
 (Enter /sw/contrib/gaussian/g16/B01/g16/l401.exe)
 ExpMin= 2.53D-02 ExpMax= 1.53D+04 ExpMxC= 5.22D+02 IAcc=3 IRadAn=         5 AccDes= 0.00D+00
 Harris functional with IExCor=  205 and IRadAn=       5 diagonalized for initial guess.
 HarFok:  IExCor=  205 AccDes= 0.00D+00 IRadAn=         5 IDoV= 1 UseB2=F ITyADJ=14
 ICtDFT=  3500011 ScaDFX=  1.000000  1.000000  1.000000  1.000000
 FoFCou: FMM=F IPFlag=           0 FMFlag=      100000 FMFlg1=           0
         NFxFlg=           0 DoJE=T BraDBF=F KetDBF=T FulRan=T
         wScrn=  0.000000 ICntrl=       500 IOpCl=  0 I1Cent=   200000004 NGrid=           0
         NMat0=    1 NMatS0=      1 NMatT0=    0 NMatD0=    1 NMtDS0=    0 NMtDT0=    0
 Petite list used in FoFCou.
 Harris En= -279.644784767404    
 JPrj=0 DoOrth=F DoCkMO=F.
 Initial guess orbital symmetries:
       Occupied  (A') (A') (A') (A') (A') (A') (A') (A') (A') (A')
                 (A") (A') (A") (A') (A") (A')
       Virtual   (A") (A') (A') (A') (A') (A") (A') (A') (A') (A')
                 (A") (A') (A") (A') (A') (A") (A') (A') (A") (A')
                 (A') (A') (A') (A') (A") (A') (A') (A') (A") (A')
                 (A') (A") (A") (A') (A') (A") (A') (A") (A') (A")
                 (A') (A") (A') (A") (A') (A') (A') (A") (A') (A')
                 (A') (A") (A') (A") (A') (A") (A') (A') (A') (A")
                 (A') (A') (A") (A') (A') (A') (A") (A") (A') (A')
                 (A") (A') (A") (A") (A') (A') (A") (A') (A') (A')
                 (A") (A') (A') (A") (A') (A") (A') (A") (A') (A')
                 (A') (A") (A') (A") (A') (A') (A") (A') (A") (A')
                 (A") (A') (A') (A") (A") (A') (A') (A') (A") (A')
                 (A") (A') (A') (A') (A") (A') (A') (A') (A") (A')
                 (A") (A') (A') (A") (A") (A") (A") (A') (A') (A')
                 (A') (A') (A') (A") (A') (A") (A') (A") (A') (A')
                 (A") (A") (A') (A') (A') (A") (A') (A') (A') (A")
                 (A') (A') (A') (A") (A') (A") (A") (A') (A') (A")
                 (A') (A") (A") (A') (A") (A') (A") (A') (A") (A')
                 (A") (A") (A") (A') (A") (A') (A') (A') (A") (A')
                 (A') (A') (A') (A') (A') (A') (A') (A') (A') (A')
                 (A')
 The electronic state of the initial guess is 1-A'.
 Leave Link  401 at Sun Mar  6 19:26:15 2022, MaxMem= 16106127360 cpu:               6.8 elap:               0.3
 (Enter /sw/contrib/gaussian/g16/B01/g16/l502.exe)
 Keep R1 ints in memory in symmetry-blocked form, NReq=348887737.
 FoFCou: FMM=F IPFlag=           0 FMFlag=           0 FMFlg1=           0
         NFxFlg=           0 DoJE=F BraDBF=F KetDBF=F FulRan=T
         wScrn=  0.000000 ICntrl=       600 IOpCl=  0 I1Cent=           0 NGrid=           0
         NMat0=    1 NMatS0=  21528 NMatT0=    0 NMatD0=    1 NMtDS0=    0 NMtDT0=    0
 Petite list used in FoFCou.
 Closed shell SCF:
 Using DIIS extrapolation, IDIIS=  1040.
 NGot= 16106127360 LenX= 15988850015 LenY= 15988789549
 Requested convergence on RMS density matrix=1.00D-08 within 128 cycles.
 Requested convergence on MAX density matrix=1.00D-06.
 Requested convergence on             energy=1.00D-06.
 No special actions if energy rises.

 Cycle   1  Pass 1  IDiag  1:
 E= -279.363674360175    
 DIIS: error= 2.74D-02 at cycle   1 NSaved=   1.
 NSaved= 1 IEnMin= 1 EnMin= -279.363674360175     IErMin= 1 ErrMin= 2.74D-02
 ErrMax= 2.74D-02  0.00D+00 EMaxC= 1.00D-01 BMatC= 4.50D-01 BMatP= 4.50D-01
 IDIUse=3 WtCom= 7.26D-01 WtEn= 2.74D-01
 Coeff-Com:  0.100D+01
 Coeff-En:   0.100D+01
 Coeff:      0.100D+01
 Gap=     0.496 Goal=   None    Shift=    0.000
 GapD=    0.496 DampG=2.000 DampE=0.500 DampFc=1.0000 IDamp=-1.
 RMSDP=1.68D-03 MaxDP=8.85D-02              OVMax= 1.22D-01

 Cycle   2  Pass 1  IDiag  1:
 E= -279.445990095477     Delta-E=       -0.082315735302 Rises=F Damp=F
 DIIS: error= 1.97D-02 at cycle   2 NSaved=   2.
 NSaved= 2 IEnMin= 2 EnMin= -279.445990095477     IErMin= 2 ErrMin= 1.97D-02
 ErrMax= 1.97D-02  0.00D+00 EMaxC= 1.00D-01 BMatC= 8.53D-02 BMatP= 4.50D-01
 IDIUse=3 WtCom= 8.03D-01 WtEn= 1.97D-01
 Coeff-Com:  0.217D+00 0.783D+00
 Coeff-En:   0.726D-01 0.927D+00
 Coeff:      0.189D+00 0.811D+00
 Gap=     0.563 Goal=   None    Shift=    0.000
 RMSDP=9.67D-04 MaxDP=3.74D-02 DE=-8.23D-02 OVMax= 9.13D-02

 Cycle   3  Pass 1  IDiag  1:
 E= -279.483372901999     Delta-E=       -0.037382806522 Rises=F Damp=F
 DIIS: error= 1.14D-02 at cycle   3 NSaved=   3.
 NSaved= 3 IEnMin= 3 EnMin= -279.483372901999     IErMin= 3 ErrMin= 1.14D-02
 ErrMax= 1.14D-02  0.00D+00 EMaxC= 1.00D-01 BMatC= 3.10D-02 BMatP= 8.53D-02
 IDIUse=3 WtCom= 8.86D-01 WtEn= 1.14D-01
 Coeff-Com: -0.348D-01 0.366D+00 0.669D+00
 Coeff-En:   0.000D+00 0.219D+00 0.781D+00
 Coeff:     -0.308D-01 0.349D+00 0.682D+00
 Gap=     0.542 Goal=   None    Shift=    0.000
 RMSDP=4.12D-04 MaxDP=1.59D-02 DE=-3.74D-02 OVMax= 3.86D-02

 Cycle   4  Pass 1  IDiag  1:
 E= -279.504533163286     Delta-E=       -0.021160261287 Rises=F Damp=F
 DIIS: error= 1.69D-03 at cycle   4 NSaved=   4.
 NSaved= 4 IEnMin= 4 EnMin= -279.504533163286     IErMin= 4 ErrMin= 1.69D-03
 ErrMax= 1.69D-03  0.00D+00 EMaxC= 1.00D-01 BMatC= 6.10D-04 BMatP= 3.10D-02
 IDIUse=3 WtCom= 9.83D-01 WtEn= 1.69D-02
 Coeff-Com: -0.121D-01 0.484D-01 0.157D+00 0.807D+00
 Coeff-En:   0.000D+00 0.000D+00 0.000D+00 0.100D+01
 Coeff:     -0.119D-01 0.476D-01 0.154D+00 0.810D+00
 Gap=     0.529 Goal=   None    Shift=    0.000
 RMSDP=9.89D-05 MaxDP=2.32D-03 DE=-2.12D-02 OVMax= 1.18D-02

 Cycle   5  Pass 1  IDiag  1:
 E= -279.505350607874     Delta-E=       -0.000817444588 Rises=F Damp=F
 DIIS: error= 1.12D-03 at cycle   5 NSaved=   5.
 NSaved= 5 IEnMin= 5 EnMin= -279.505350607874     IErMin= 5 ErrMin= 1.12D-03
 ErrMax= 1.12D-03  0.00D+00 EMaxC= 1.00D-01 BMatC= 1.04D-04 BMatP= 6.10D-04
 IDIUse=3 WtCom= 9.89D-01 WtEn= 1.12D-02
 Coeff-Com:  0.544D-02-0.668D-01-0.112D+00 0.598D-01 0.111D+01
 Coeff-En:   0.000D+00 0.000D+00 0.000D+00 0.000D+00 0.100D+01
 Coeff:      0.538D-02-0.660D-01-0.111D+00 0.592D-01 0.111D+01
 Gap=     0.532 Goal=   None    Shift=    0.000
 RMSDP=8.04D-05 MaxDP=2.12D-03 DE=-8.17D-04 OVMax= 1.30D-02

 Cycle   6  Pass 1  IDiag  1:
 E= -279.505717212222     Delta-E=       -0.000366604348 Rises=F Damp=F
 DIIS: error= 3.43D-04 at cycle   6 NSaved=   6.
 NSaved= 6 IEnMin= 6 EnMin= -279.505717212222     IErMin= 6 ErrMin= 3.43D-04
 ErrMax= 3.43D-04  0.00D+00 EMaxC= 1.00D-01 BMatC= 2.42D-05 BMatP= 1.04D-04
 IDIUse=3 WtCom= 9.97D-01 WtEn= 3.43D-03
 Coeff-Com:  0.189D-02-0.709D-02-0.179D-01-0.182D+00 0.103D-01 0.119D+01
 Coeff-En:   0.000D+00 0.000D+00 0.000D+00 0.000D+00 0.000D+00 0.100D+01
 Coeff:      0.188D-02-0.707D-02-0.178D-01-0.181D+00 0.103D-01 0.119D+01
 Gap=     0.533 Goal=   None    Shift=    0.000
 RMSDP=4.68D-05 MaxDP=1.07D-03 DE=-3.67D-04 OVMax= 6.12D-03

 Cycle   7  Pass 1  IDiag  1:
 E= -279.505803565057     Delta-E=       -0.000086352835 Rises=F Damp=F
 DIIS: error= 1.27D-04 at cycle   7 NSaved=   7.
 NSaved= 7 IEnMin= 7 EnMin= -279.505803565057     IErMin= 7 ErrMin= 1.27D-04
 ErrMax= 1.27D-04  0.00D+00 EMaxC= 1.00D-01 BMatC= 3.57D-06 BMatP= 2.42D-05
 IDIUse=3 WtCom= 9.99D-01 WtEn= 1.27D-03
 Coeff-Com: -0.109D-02 0.115D-01 0.250D-01 0.158D-01-0.180D+00-0.149D+00
 Coeff-Com:  0.128D+01
 Coeff-En:   0.000D+00 0.000D+00 0.000D+00 0.000D+00 0.000D+00 0.000D+00
 Coeff-En:   0.100D+01
 Coeff:     -0.109D-02 0.114D-01 0.249D-01 0.157D-01-0.179D+00-0.149D+00
 Coeff:      0.128D+01
 Gap=     0.533 Goal=   None    Shift=    0.000
 RMSDP=1.75D-05 MaxDP=5.11D-04 DE=-8.64D-05 OVMax= 2.33D-03

 Cycle   8  Pass 1  IDiag  1:
 E= -279.505815564009     Delta-E=       -0.000011998952 Rises=F Damp=F
 DIIS: error= 4.71D-05 at cycle   8 NSaved=   8.
 NSaved= 8 IEnMin= 8 EnMin= -279.505815564009     IErMin= 8 ErrMin= 4.71D-05
 ErrMax= 4.71D-05  0.00D+00 EMaxC= 1.00D-01 BMatC= 6.03D-07 BMatP= 3.57D-06
 IDIUse=1 WtCom= 1.00D+00 WtEn= 0.00D+00
 Coeff-Com: -0.562D-03 0.413D-02 0.973D-02 0.246D-01-0.563D-01-0.193D+00
 Coeff-Com:  0.353D+00 0.858D+00
 Coeff:     -0.562D-03 0.413D-02 0.973D-02 0.246D-01-0.563D-01-0.193D+00
 Coeff:      0.353D+00 0.858D+00
 Gap=     0.533 Goal=   None    Shift=    0.000
 RMSDP=5.48D-06 MaxDP=1.55D-04 DE=-1.20D-05 OVMax= 6.54D-04

 Cycle   9  Pass 1  IDiag  1:
 E= -279.505816954290     Delta-E=       -0.000001390281 Rises=F Damp=F
 DIIS: error= 2.37D-05 at cycle   9 NSaved=   9.
 NSaved= 9 IEnMin= 9 EnMin= -279.505816954290     IErMin= 9 ErrMin= 2.37D-05
 ErrMax= 2.37D-05  0.00D+00 EMaxC= 1.00D-01 BMatC= 1.17D-07 BMatP= 6.03D-07
 IDIUse=1 WtCom= 1.00D+00 WtEn= 0.00D+00
 Coeff-Com:  0.242D-03-0.258D-02-0.536D-02-0.554D-02 0.467D-01 0.492D-01
 Coeff-Com: -0.340D+00 0.311D-01 0.123D+01
 Coeff:      0.242D-03-0.258D-02-0.536D-02-0.554D-02 0.467D-01 0.492D-01
 Coeff:     -0.340D+00 0.311D-01 0.123D+01
 Gap=     0.533 Goal=   None    Shift=    0.000
 RMSDP=2.48D-06 MaxDP=6.79D-05 DE=-1.39D-06 OVMax= 2.59D-04

 Cycle  10  Pass 1  IDiag  1:
 E= -279.505817220305     Delta-E=       -0.000000266015 Rises=F Damp=F
 DIIS: error= 5.85D-06 at cycle  10 NSaved=  10.
 NSaved=10 IEnMin=10 EnMin= -279.505817220305     IErMin=10 ErrMin= 5.85D-06
 ErrMax= 5.85D-06  0.00D+00 EMaxC= 1.00D-01 BMatC= 8.28D-09 BMatP= 1.17D-07
 IDIUse=1 WtCom= 1.00D+00 WtEn= 0.00D+00
 Coeff-Com: -0.372D-04 0.485D-03 0.117D-02-0.191D-02-0.107D-01 0.576D-02
 Coeff-Com:  0.703D-01-0.536D-01-0.427D+00 0.142D+01
 Coeff:     -0.372D-04 0.485D-03 0.117D-02-0.191D-02-0.107D-01 0.576D-02
 Coeff:      0.703D-01-0.536D-01-0.427D+00 0.142D+01
 Gap=     0.533 Goal=   None    Shift=    0.000
 RMSDP=7.06D-07 MaxDP=2.52D-05 DE=-2.66D-07 OVMax= 7.54D-05

 Cycle  11  Pass 1  IDiag  1:
 E= -279.505817245371     Delta-E=       -0.000000025066 Rises=F Damp=F
 DIIS: error= 2.25D-06 at cycle  11 NSaved=  11.
 NSaved=11 IEnMin=11 EnMin= -279.505817245371     IErMin=11 ErrMin= 2.25D-06
 ErrMax= 2.25D-06  0.00D+00 EMaxC= 1.00D-01 BMatC= 8.64D-10 BMatP= 8.28D-09
 IDIUse=1 WtCom= 1.00D+00 WtEn= 0.00D+00
 Coeff-Com: -0.171D-04 0.175D-03 0.366D-03 0.869D-03-0.233D-02-0.726D-02
 Coeff-Com:  0.203D-01 0.190D-01-0.567D-01-0.308D+00 0.133D+01
 Coeff:     -0.171D-04 0.175D-03 0.366D-03 0.869D-03-0.233D-02-0.726D-02
 Coeff:      0.203D-01 0.190D-01-0.567D-01-0.308D+00 0.133D+01
 Gap=     0.533 Goal=   None    Shift=    0.000
 RMSDP=2.46D-07 MaxDP=9.11D-06 DE=-2.51D-08 OVMax= 2.86D-05

 Cycle  12  Pass 1  IDiag  1:
 E= -279.505817248454     Delta-E=       -0.000000003083 Rises=F Damp=F
 DIIS: error= 7.56D-07 at cycle  12 NSaved=  12.
 NSaved=12 IEnMin=12 EnMin= -279.505817248454     IErMin=12 ErrMin= 7.56D-07
 ErrMax= 7.56D-07  0.00D+00 EMaxC= 1.00D-01 BMatC= 9.29D-11 BMatP= 8.64D-10
 IDIUse=1 WtCom= 1.00D+00 WtEn= 0.00D+00
 Coeff-Com:  0.252D-05-0.454D-04-0.985D-04 0.156D-03 0.115D-02-0.904D-03
 Coeff-Com: -0.729D-02 0.695D-02 0.419D-01-0.122D+00-0.173D+00 0.125D+01
 Coeff:      0.252D-05-0.454D-04-0.985D-04 0.156D-03 0.115D-02-0.904D-03
 Coeff:     -0.729D-02 0.695D-02 0.419D-01-0.122D+00-0.173D+00 0.125D+01
 Gap=     0.533 Goal=   None    Shift=    0.000
 RMSDP=8.74D-08 MaxDP=2.87D-06 DE=-3.08D-09 OVMax= 1.02D-05

 Cycle  13  Pass 1  IDiag  1:
 E= -279.505817248781     Delta-E=       -0.000000000327 Rises=F Damp=F
 DIIS: error= 1.71D-07 at cycle  13 NSaved=  13.
 NSaved=13 IEnMin=13 EnMin= -279.505817248781     IErMin=13 ErrMin= 1.71D-07
 ErrMax= 1.71D-07  0.00D+00 EMaxC= 1.00D-01 BMatC= 7.81D-12 BMatP= 9.29D-11
 IDIUse=1 WtCom= 1.00D+00 WtEn= 0.00D+00
 Coeff-Com:  0.137D-05-0.132D-04-0.193D-04-0.121D-03 0.584D-04 0.950D-03
 Coeff-Com: -0.118D-02-0.255D-02-0.139D-02 0.544D-01-0.128D+00-0.155D+00
 Coeff-Com:  0.123D+01
 Coeff:      0.137D-05-0.132D-04-0.193D-04-0.121D-03 0.584D-04 0.950D-03
 Coeff:     -0.118D-02-0.255D-02-0.139D-02 0.544D-01-0.128D+00-0.155D+00
 Coeff:      0.123D+01
 Gap=     0.533 Goal=   None    Shift=    0.000
 RMSDP=2.33D-08 MaxDP=6.97D-07 DE=-3.27D-10 OVMax= 2.16D-06

 Cycle  14  Pass 1  IDiag  1:
 E= -279.505817248803     Delta-E=       -0.000000000022 Rises=F Damp=F
 DIIS: error= 4.15D-08 at cycle  14 NSaved=  14.
 NSaved=14 IEnMin=14 EnMin= -279.505817248803     IErMin=14 ErrMin= 4.15D-08
 ErrMax= 4.15D-08  0.00D+00 EMaxC= 1.00D-01 BMatC= 5.11D-13 BMatP= 7.81D-12
 IDIUse=1 WtCom= 1.00D+00 WtEn= 0.00D+00
 Coeff-Com: -0.295D-06 0.447D-05 0.903D-05-0.528D-05-0.115D-03 0.714D-04
 Coeff-Com:  0.644D-03-0.352D-03-0.365D-02 0.855D-02 0.165D-01-0.895D-01
 Coeff-Com: -0.233D-01 0.109D+01
 Coeff:     -0.295D-06 0.447D-05 0.903D-05-0.528D-05-0.115D-03 0.714D-04
 Coeff:      0.644D-03-0.352D-03-0.365D-02 0.855D-02 0.165D-01-0.895D-01
 Coeff:     -0.233D-01 0.109D+01
 Gap=     0.533 Goal=   None    Shift=    0.000
 RMSDP=4.50D-09 MaxDP=1.12D-07 DE=-2.16D-11 OVMax= 4.88D-07

 SCF Done:  E(RHF) =  -279.505817249     A.U. after   14 cycles
            NFock= 14  Conv=0.45D-08     -V/T= 2.0022
 KE= 2.788942393879D+02 PE=-9.065525711430D+02 EE= 2.253017132816D+02
 Leave Link  502 at Sun Mar  6 19:26:19 2022, MaxMem= 16106127360 cpu:              78.9 elap:               4.6
 (Enter /sw/contrib/gaussian/g16/B01/g16/l801.exe)
 ExpMin= 2.53D-02 ExpMax= 1.53D+04 ExpMxC= 5.22D+02 IAcc=3 IRadAn=         5 AccDes= 0.00D+00
 HarFok:  IExCor=  205 AccDes= 0.00D+00 IRadAn=         5 IDoV=-2 UseB2=F ITyADJ=14
 ICtDFT= 12500011 ScaDFX=  1.000000  1.000000  1.000000  1.000000
 Largest valence mixing into a core orbital is  2.07D-04
 Largest core mixing into a valence orbital is  3.12D-05
 Range of M.O.s used for correlation:     5   207
 NBasis=   207 NAE=    16 NBE=    16 NFC=     4 NFV=     0
 NROrb=    203 NOA=    12 NOB=    12 NVA=   191 NVB=   191

 **** Warning!!: The largest alpha MO coefficient is  0.16847435D+02

 Leave Link  801 at Sun Mar  6 19:26:20 2022, MaxMem= 16106127360 cpu:              14.4 elap:               0.6
 (Enter /sw/contrib/gaussian/g16/B01/g16/l906.exe)
 Frozen-core derivative calculation, NFC=   4 NFV=   0.
 FulOut=F Deriv=T AODrv=T NAtomX=     5
   MMem=           0  MDisk=          12 MDiskD=          12
  W3Min=      811440 MinDsk=     2425030 NBas6D=         245
 NBas2D=       30762    NTT=       30135    LW2=     7400000
    MDV= 16105571532 MDiskM=      328644 NBas2p=       30759
 Disk-based method using ON**2 memory for 12 occupieds at a time.
 Permanent disk used for amplitudes=    11516536 words.
 Estimated scratch disk usage=   321863743 words.
 IMap=   1   2   3   4   5   6   7   8   9  10  11  12  13  14  15  16
 Actual    scratch disk usage=   310892607 words.
 JobTyp=1 Pass  1:  I=   5 to  16 NPSUse= 28 ParTrn=T ParDer=T DoDerP=T.
 (rs|ai) integrals will be sorted in core.
 Spin components of T(2) and E(2):
     alpha-alpha T2 =       0.3483925507D-01 E2=     -0.1246605289D+00
     alpha-beta  T2 =       0.1845703487D+00 E2=     -0.6999405932D+00
     beta-beta   T2 =       0.3483925507D-01 E2=     -0.1246605289D+00
 The integrals were generated   1 times.
 ANorm=    0.1119932524D+01
 E2 =    -0.9492616511D+00 EUMP2 =    -0.28045507889990D+03
 Leave Link  906 at Sun Mar  6 19:27:56 2022, MaxMem= 16106127360 cpu:            2695.2 elap:              96.4
 (Enter /sw/contrib/gaussian/g16/B01/g16/l1101.exe)
 Using compressed Sx but separate Hx and Fx, NAtomX=     5.
 Will process      6 centers per pass.
 Leave Link 1101 at Sun Mar  6 19:27:57 2022, MaxMem= 16106127360 cpu:               5.0 elap:               0.2
 (Enter /sw/contrib/gaussian/g16/B01/g16/l1102.exe)
 Leave Link 1102 at Sun Mar  6 19:27:57 2022, MaxMem= 16106127360 cpu:               0.6 elap:               0.0
 (Enter /sw/contrib/gaussian/g16/B01/g16/l1110.exe)
 Forming Gx(P) for the SCF density, NAtomX=     5.
 Integral derivatives from FoFJK, PRISM(SPDF).
 Do as many integral derivatives as possible in FoFJK.
 G2DrvN: MDV=   16106126844.
 G2DrvN: will do     6 centers at a time, making    1 passes.
 Calling FoFCou, ICntrl=  3107 FMM=F I1Cent=   0 AccDes= 0.00D+00.
 FoFJK:  IHMeth= 1 ICntrl=    3107 DoSepK=F KAlg= 0 I1Cent=           0 FoldK=F
 IRaf=         0 NMat=       1 IRICut=       1 DoRegI=T DoRafI=F ISym2E= 1 IDoP0=0 IntGTp=1.
 FoFCou: FMM=F IPFlag=           0 FMFlag=      100000 FMFlg1=           0
         NFxFlg=           0 DoJE=F BraDBF=F KetDBF=F FulRan=T
         wScrn=  0.000000 ICntrl=      3107 IOpCl=  0 I1Cent=           0 NGrid=           0
         NMat0=    1 NMatS0=      1 NMatT0=    0 NMatD0=    1 NMtDS0=    0 NMtDT0=    0
 Petite list used in FoFCou.
 End of G2Drv F.D. properties file   721 does not exist.
 End of G2Drv F.D. properties file   722 does not exist.
 End of G2Drv F.D. properties file   788 does not exist.
 Leave Link 1110 at Sun Mar  6 19:28:00 2022, MaxMem= 16106127360 cpu:              86.8 elap:               3.1
 (Enter /sw/contrib/gaussian/g16/B01/g16/l1002.exe)
 Minotr:  Closed shell wavefunction.
          IDoAtm=11111
          Frozen-core window.
          Direct CPHF calculation.
          Differentiating once with respect to electric field.
                with respect to dipole field.
          Differentiating once with respect to nuclear coordinates.
          Requested convergence is 1.0D-08 RMS, and 1.0D-07 maximum.
          Secondary convergence is 1.0D-12 RMS, and 1.0D-12 maximum.
          NewPWx=T KeepS1=T KeepF1=T KeepIn=T MapXYZ=F SortEE=F KeepMc=T.
 Keep R1 ints in memory in symmetry-blocked form, NReq=348888983.
 FoFCou: FMM=F IPFlag=           0 FMFlag=           0 FMFlg1=           0
         NFxFlg=           0 DoJE=F BraDBF=F KetDBF=F FulRan=T
         wScrn=  0.000000 ICntrl=       600 IOpCl=  0 I1Cent=           0 NGrid=           0
         NMat0=    1 NMatS0=  21528 NMatT0=    0 NMatD0=    1 NMtDS0=    0 NMtDT0=    0
 Petite list used in FoFCou.
          MDV=   16106127360 using IRadAn=       1.
          Solving linear equations simultaneously, MaxMat=       0.
          There are    18 degrees of freedom in the 1st order CPHF.  IDoFFX=6 NUNeed=    18.
     15 vectors produced by pass  0 Test12= 1.70D-14 5.56D-09 XBig12= 7.89D+00 1.22D+00.
 AX will form    15 AO Fock derivatives at one time.
     15 vectors produced by pass  1 Test12= 1.70D-14 5.56D-09 XBig12= 1.35D+00 2.22D-01.
     15 vectors produced by pass  2 Test12= 1.70D-14 5.56D-09 XBig12= 6.93D-02 5.72D-02.
     15 vectors produced by pass  3 Test12= 1.70D-14 5.56D-09 XBig12= 1.98D-03 1.04D-02.
     15 vectors produced by pass  4 Test12= 1.70D-14 5.56D-09 XBig12= 4.24D-05 1.25D-03.
     15 vectors produced by pass  5 Test12= 1.70D-14 5.56D-09 XBig12= 5.78D-07 1.12D-04.
     15 vectors produced by pass  6 Test12= 1.70D-14 5.56D-09 XBig12= 4.39D-09 1.11D-05.
     13 vectors produced by pass  7 Test12= 1.70D-14 5.56D-09 XBig12= 3.40D-11 7.29D-07.
      3 vectors produced by pass  8 Test12= 1.70D-14 5.56D-09 XBig12= 2.48D-13 6.10D-08.
      1 vectors produced by pass  9 Test12= 1.70D-14 5.56D-09 XBig12= 1.72D-15 7.50D-09.
 InvSVY:  IOpt=1 It=  1 EMax= 9.99D-16
 Solved reduced A of dimension   122 with    15 vectors.
 FullF1:  Do perturbations      1 to      18.
 Saving first derivative matrices.
 End of Minotr F.D. properties file   721 does not exist.
 End of Minotr F.D. properties file   722 does not exist.
 End of Minotr F.D. properties file   788 does not exist.
 Leave Link 1002 at Sun Mar  6 19:28:03 2022, MaxMem= 16106127360 cpu:              78.2 elap:               2.9
 (Enter /sw/contrib/gaussian/g16/B01/g16/l811.exe)
 MDV= 16106127360.
 Form MO integral derivatives with frozen-active canonical formalism.
 MOERI=1 MOERIx=1 NAtoms=     5 NAtomX=     5.
 Discarding MO integrals.
 MO basis two electron integral derivatives will not be stored on disk.
 IAlg= 3 DoFC=T DoPWx=T Debug=F.
 Frozen-core window:  NFC=   4 NFV=   0.
 Reordered first order wavefunction length =     18678272
 In DefCFB: NBatch=  1 ICI= 16 ICA=191 LFMax= 96
            Large arrays: LIAPS=   619940160 LIARS=   288257200 words.
 In StABat: MaxSiz= 55 MinSiz= 25 NAtomB=  5
 DoIAMN: NPSUse= 28.
 Leave Link  811 at Sun Mar  6 19:29:23 2022, MaxMem= 16106127360 cpu:            2235.7 elap:              80.0
 (Enter /sw/contrib/gaussian/g16/B01/g16/l804.exe)
 Frozen-core window:  NFC=   4 NFV=   0.
 Closed-shell transformation, MDV= 16106127360 ITran=4 ISComp=1.
 Semi-Direct transformation.
 ModeAB=           2 MOrb=            16 LenV=   16104919911
 LASXX=     67341636 LTotXX=    67341636 LenRXX=    67341636
 LTotAB=    68301760 MaxLAS=    99807120 LenRXY=    99807120
 NonZer=   134683272 LenScr=   202817536 LnRSAI=           0
 LnScr1=           0 LExtra=           0 Total=    369966292
 MaxDsk=          -1 SrtSym=           F ITran=            4
 DoSDTr:  NPSUse= 28
 JobTyp=0 Pass  1:  I=   1 to  16.
 (rs|ai) integrals will be sorted in core.
 Complete sort for first half transformation.
 First half transformation complete.
 Begin second half transformation for I=  10.
 Begin second half transformation for I=  10.
 Complete sort for second half transformation.
 Second half transformation complete.
 Spin components of T(2) and E(2):
     alpha-alpha T2 =       0.3483925507D-01 E2=     -0.1246605289D+00
     alpha-beta  T2 =       0.1845703487D+00 E2=     -0.6999405932D+00
     beta-beta   T2 =       0.3483925507D-01 E2=     -0.1246605289D+00
 ANorm=    0.1583823765D+01
 E2 =    -0.9492616511D+00 EUMP2 =    -0.28045507889990D+03
 Leave Link  804 at Sun Mar  6 19:29:39 2022, MaxMem= 16106127360 cpu:             461.1 elap:              16.6
 (Enter /sw/contrib/gaussian/g16/B01/g16/l1002.exe)
 Minotr:  Closed shell wavefunction.
          Computing MP2/KS-MP2 derivatives.
          Using Z-Vector for PSCF gradient.
          Skipping F1 and S1 gradient terms here.
          IDoAtm=11111
          Frozen-core window.
          Using MO integrals in the linear equations.
          Forming densities via direct SCF.
          Differentiating once with respect to electric field.
                with respect to dipole field.
          Differentiating once with respect to nuclear coordinates.
          Using symmetry in CPHF.
          Requested convergence is 1.0D-10 RMS, and 1.0D-09 maximum.
          NewPWx=F KeepS1=T KeepF1=T KeepIn=T MapXYZ=F SortEE=F KeepMc=T.
          MDV=   16106127360 using IRadAn=       5.
          Solving linear equations separately, MaxMat=       0.
          There are     1 degrees of freedom in the 1st order CPHF.  IDoFFX=0 NUNeed=     1.
 FoFJK:  IHMeth= 1 ICntrl=       0 DoSepK=F KAlg= 0 I1Cent=           0 FoldK=F
 IRaf=         0 NMat=       1 IRICut=       1 DoRegI=T DoRafI=F ISym2E= 0 IDoP0=0 IntGTp=1.
 FoFCou: FMM=F IPFlag=           0 FMFlag=      100000 FMFlg1=           0
         NFxFlg=           0 DoJE=F BraDBF=F KetDBF=F FulRan=T
         wScrn=  0.000000 ICntrl=         0 IOpCl=  0 I1Cent=           0 NGrid=           0
         NMat0=    1 NMatS0=      1 NMatT0=    0 NMatD0=    1 NMtDS0=    0 NMtDT0=    0
 Symmetry not used in FoFCou.
 LinEq1:  Iter=  0 NonCon=     1 RMS=6.62D-03 Max=1.72D-01 NDo=     1
 LinEq1:  Iter=  1 NonCon=     1 RMS=2.01D-03 Max=3.05D-02 NDo=     1
 LinEq1:  Iter=  2 NonCon=     1 RMS=8.92D-04 Max=1.45D-02 NDo=     1
 LinEq1:  Iter=  3 NonCon=     1 RMS=3.78D-04 Max=8.01D-03 NDo=     1
 LinEq1:  Iter=  4 NonCon=     1 RMS=1.37D-04 Max=1.65D-03 NDo=     1
 LinEq1:  Iter=  5 NonCon=     1 RMS=7.63D-05 Max=1.41D-03 NDo=     1
 LinEq1:  Iter=  6 NonCon=     1 RMS=2.44D-05 Max=2.92D-04 NDo=     1
 LinEq1:  Iter=  7 NonCon=     1 RMS=8.27D-06 Max=1.13D-04 NDo=     1
 LinEq1:  Iter=  8 NonCon=     1 RMS=4.03D-06 Max=6.27D-05 NDo=     1
 LinEq1:  Iter=  9 NonCon=     1 RMS=1.05D-06 Max=1.23D-05 NDo=     1
 LinEq1:  Iter= 10 NonCon=     1 RMS=2.32D-07 Max=3.03D-06 NDo=     1
 LinEq1:  Iter= 11 NonCon=     1 RMS=4.96D-08 Max=8.41D-07 NDo=     1
 LinEq1:  Iter= 12 NonCon=     1 RMS=1.17D-08 Max=1.84D-07 NDo=     1
 LinEq1:  Iter= 13 NonCon=     1 RMS=2.07D-09 Max=2.44D-08 NDo=     1
 LinEq1:  Iter= 14 NonCon=     1 RMS=4.31D-10 Max=5.66D-09 NDo=     1
 LinEq1:  Iter= 15 NonCon=     0 RMS=8.82D-11 Max=9.45D-10 NDo=     1
 Linear equations converged to 1.000D-10 1.000D-09 after    15 iterations.
 End of Minotr F.D. properties file   721 does not exist.
 End of Minotr F.D. properties file   722 does not exist.
 End of Minotr F.D. properties file   788 does not exist.
 Leave Link 1002 at Sun Mar  6 19:29:42 2022, MaxMem= 16106127360 cpu:              65.7 elap:               2.4
 (Enter /sw/contrib/gaussian/g16/B01/g16/l1102.exe)
 Use density number 2.
 Symmetrizing basis deriv contribution to polar:
 IMax=3 JMax=2 DiffMx= 0.00D+00
 Leave Link 1102 at Sun Mar  6 19:29:42 2022, MaxMem= 16106127360 cpu:               0.7 elap:               0.1
 (Enter /sw/contrib/gaussian/g16/B01/g16/l1110.exe)
 Forming Gx(P) for generalized density number  2 NAtomX=     5.
 Integral derivatives from FoFJK, PRISM(SPDF).
 Do as many integral derivatives as possible in FoFJK.
 G2DrvN: MDV=   16106126844.
 G2DrvN: will do     6 centers at a time, making    1 passes.
 Calling FoFCou, ICntrl=  3107 FMM=F I1Cent=   0 AccDes= 0.00D+00.
 FoFJK:  IHMeth= 1 ICntrl=    3107 DoSepK=F KAlg= 0 I1Cent=           0 FoldK=F
 IRaf=         0 NMat=       1 IRICut=       1 DoRegI=T DoRafI=F ISym2E= 1 IDoP0=0 IntGTp=1.
 FoFCou: FMM=F IPFlag=           0 FMFlag=      100000 FMFlg1=           0
         NFxFlg=           0 DoJE=F BraDBF=F KetDBF=F FulRan=T
         wScrn=  0.000000 ICntrl=      3107 IOpCl=  0 I1Cent=           0 NGrid=           0
         NMat0=    1 NMatS0=      1 NMatT0=    0 NMatD0=    1 NMtDS0=    0 NMtDT0=    0
 Petite list used in FoFCou.
 End of G2Drv F.D. properties file   721 does not exist.
 End of G2Drv F.D. properties file   722 does not exist.
 End of G2Drv F.D. properties file   788 does not exist.
 Leave Link 1110 at Sun Mar  6 19:29:45 2022, MaxMem= 16106127360 cpu:              86.9 elap:               3.1
 (Enter /sw/contrib/gaussian/g16/B01/g16/l1112.exe)
 MP22nd: MDV=   16106127360
 This link is doing NAtomX=     5 total of    18 degrees of freedom.
 Using ON3 I/O method in MakUI.
 Frozen-core window:  NFC=   4 NFV=   0.
 Using Ix for Sx.
 Use MO integrals over full window.
 Using OV2 memory method for fx*t*t/D, MaxI=    16 DoOO2=F NP=  28.
 R2 and R3 integrals will be kept in memory, NReq=   915591705.
 FoFCou: FMM=F IPFlag=           0 FMFlag=           0 FMFlg1=           0
         NFxFlg=           0 DoJE=F BraDBF=F KetDBF=F FulRan=T
         wScrn=  0.000000 ICntrl=       600 IOpCl=  0 I1Cent=           0 NGrid=           0
         NMat0=    1 NMatS0=      1 NMatT0=    0 NMatD0=    1 NMtDS0=    0 NMtDT0=    0
 Symmetry not used in FoFCou.
 DD1Dir will call FoFMem   1 times, MxPair=       272
 NAB=   136 NAA=     0 NBB=     0.
 Symmetry is being used.
 FoFJK:  IHMeth= 1 ICntrl=       0 DoSepK=F KAlg= 0 I1Cent=           0 FoldK=F
 IRaf=         0 NMat=      18 IRICut=      45 DoRegI=T DoRafI=T ISym2E= 2 IDoP0=3 IntGTp=3.
 Discarding MO integrals.
 Leave Link 1112 at Sun Mar  6 19:30:20 2022, MaxMem= 16106127360 cpu:             954.2 elap:              34.4
 (Enter /sw/contrib/gaussian/g16/B01/g16/l601.exe)
 Copying SCF densities to generalized density rwf, IOpCl= 0 IROHF=0.

 **********************************************************************

            Population analysis using the MP2 Density.

 **********************************************************************

 Orbital symmetries:
       Occupied  (A') (A') (A') (A') (A') (A') (A') (A') (A') (A')
                 (A") (A') (A") (A') (A') (A")
       Virtual   (A') (A") (A') (A') (A") (A') (A') (A') (A") (A')
                 (A") (A') (A') (A') (A") (A') (A') (A") (A') (A')
                 (A') (A') (A') (A') (A") (A') (A') (A") (A') (A')
                 (A') (A") (A") (A') (A') (A') (A") (A') (A") (A')
                 (A") (A") (A') (A') (A") (A') (A') (A") (A') (A')
                 (A') (A") (A') (A') (A") (A') (A") (A') (A') (A")
                 (A') (A') (A") (A') (A') (A") (A') (A") (A') (A')
                 (A") (A') (A") (A") (A') (A') (A") (A') (A') (A')
                 (A") (A') (A') (A") (A') (A") (A") (A') (A') (A')
                 (A') (A') (A") (A") (A') (A') (A") (A") (A') (A")
                 (A') (A') (A") (A') (A") (A') (A') (A') (A") (A")
                 (A') (A') (A') (A') (A") (A') (A') (A') (A") (A')
                 (A") (A') (A") (A') (A") (A") (A') (A") (A') (A')
                 (A') (A') (A") (A') (A') (A") (A") (A') (A') (A")
                 (A') (A") (A') (A') (A') (A") (A') (A') (A') (A")
                 (A') (A') (A') (A") (A') (A") (A") (A') (A') (A")
                 (A') (A") (A') (A") (A") (A') (A") (A') (A") (A")
                 (A') (A") (A") (A') (A') (A") (A') (A') (A") (A')
                 (A') (A') (A') (A') (A') (A') (A') (A') (A') (A')
                 (A')
 The electronic state is 1-A'.
 Alpha  occ. eigenvalues --  -20.71959 -20.68852 -20.66870 -15.82705  -1.64597
 Alpha  occ. eigenvalues --   -1.50634  -1.29391  -0.96033  -0.83652  -0.75974
 Alpha  occ. eigenvalues --   -0.74077  -0.63817  -0.61926  -0.61882  -0.50604
 Alpha  occ. eigenvalues --   -0.49772
 Alpha virt. eigenvalues --    0.03545   0.05937   0.09500   0.10029   0.11932
 Alpha virt. eigenvalues --    0.12261   0.14930   0.15310   0.17734   0.17968
 Alpha virt. eigenvalues --    0.18960   0.21078   0.21700   0.24222   0.24630
 Alpha virt. eigenvalues --    0.26847   0.31372   0.31807   0.33764   0.34400
 Alpha virt. eigenvalues --    0.34837   0.39282   0.45015   0.49189   0.50574
 Alpha virt. eigenvalues --    0.51805   0.54259   0.56041   0.59692   0.62081
 Alpha virt. eigenvalues --    0.63860   0.69146   0.71598   0.72383   0.74184
 Alpha virt. eigenvalues --    0.76504   0.76700   0.79558   0.80633   0.83731
 Alpha virt. eigenvalues --    0.84323   0.85320   0.88496   0.90835   0.92883
 Alpha virt. eigenvalues --    0.94942   0.95301   1.01969   1.03615   1.06775
 Alpha virt. eigenvalues --    1.06996   1.09721   1.14629   1.15610   1.16970
 Alpha virt. eigenvalues --    1.22140   1.22833   1.24923   1.34807   1.36115
 Alpha virt. eigenvalues --    1.36979   1.46837   1.48425   1.50214   1.54693
 Alpha virt. eigenvalues --    1.59723   1.59802   1.60310   1.62963   1.69410
 Alpha virt. eigenvalues --    1.74929   1.80040   1.82879   1.88757   1.91055
 Alpha virt. eigenvalues --    1.93436   1.97890   1.98810   2.05306   2.12563
 Alpha virt. eigenvalues --    2.13443   2.16972   2.19160   2.24221   2.26074
 Alpha virt. eigenvalues --    2.29794   2.35679   2.36792   2.39029   2.40412
 Alpha virt. eigenvalues --    2.43626   2.46960   2.48059   2.53134   2.54189
 Alpha virt. eigenvalues --    2.54772   2.56116   2.61697   2.63240   2.67206
 Alpha virt. eigenvalues --    2.67538   2.75211   2.80250   2.81187   2.85274
 Alpha virt. eigenvalues --    2.91700   2.98632   3.04791   3.05027   3.11788
 Alpha virt. eigenvalues --    3.12496   3.18002   3.22445   3.31345   3.33154
 Alpha virt. eigenvalues --    3.35712   3.48436   3.67730   3.87115   3.94494
 Alpha virt. eigenvalues --    4.18973   4.22110   4.22711   4.26883   4.36784
 Alpha virt. eigenvalues --    4.49729   4.53147   4.55482   4.61355   4.68969
 Alpha virt. eigenvalues --    4.81296   4.89780   4.91545   4.93669   4.99880
 Alpha virt. eigenvalues --    5.00473   5.10839   5.13350   5.17640   5.25391
 Alpha virt. eigenvalues --    5.25422   5.31824   5.34357   5.38153   5.54567
 Alpha virt. eigenvalues --    5.64431   5.71056   5.89699   5.99566   6.26509
 Alpha virt. eigenvalues --    6.30030   6.35406   6.37404   6.60296   6.65321
 Alpha virt. eigenvalues --    6.66455   6.69261   6.72423   6.79378   6.80838
 Alpha virt. eigenvalues --    6.84994   6.96903   7.03774   7.06642   7.07432
 Alpha virt. eigenvalues --    7.12621   7.17518   7.18085   7.20730   7.24735
 Alpha virt. eigenvalues --    7.25101   7.27337   7.35166   7.40318   7.43751
 Alpha virt. eigenvalues --    7.44122   7.46525   7.55947   7.66309   7.67854
 Alpha virt. eigenvalues --    7.79735   7.89086   7.95231   8.08364   8.32319
 Alpha virt. eigenvalues --    8.49483   8.65202  13.62494  14.79000  15.12228
 Alpha virt. eigenvalues --   15.81459
          Condensed to atoms (all electrons):
               1          2          3          4          5
     1  H    0.584699   0.121475   0.021576   0.001700  -0.001420
     2  O    0.121475   8.393035  -0.228604  -0.001190  -0.009597
     3  O    0.021576  -0.228604   8.371333  -0.170226  -0.032829
     4  N    0.001700  -0.001190  -0.170226   7.138759  -0.125889
     5  O   -0.001420  -0.009597  -0.032829  -0.125889   8.362180
 Mulliken charges:
               1
     1  H    0.271970
     2  O   -0.275120
     3  O    0.038749
     4  N    0.156845
     5  O   -0.192445
 Sum of Mulliken charges =  -0.00000
 Mulliken charges with hydrogens summed into heavy atoms:
               1
     2  O   -0.003150
     3  O    0.038749
     4  N    0.156845
     5  O   -0.192445
 APT charges:
               1
     1  H    0.273148
     2  O   -0.304284
     3  O   -0.307767
     4  N    0.643279
     5  O   -0.304376
 Sum of APT charges =  -0.00000
 APT charges with hydrogens summed into heavy atoms:
               1
     2  O   -0.031136
     3  O   -0.307767
     4  N    0.643279
     5  O   -0.304376
 Electronic spatial extent (au):  <R**2>=            206.9619
 Charge=             -0.0000 electrons
 Dipole moment (field-independent basis, Debye):
    X=              0.0018    Y=             -1.0762    Z=              0.0000  Tot=              1.0762
 Quadrupole moment (field-independent basis, Debye-Ang):
   XX=            -23.4555   YY=            -22.9502   ZZ=            -21.9254
   XY=             -1.8831   XZ=              0.0000   YZ=              0.0000
 Traceless Quadrupole moment (field-independent basis, Debye-Ang):
   XX=             -0.6784   YY=             -0.1732   ZZ=              0.8516
   XY=             -1.8831   XZ=              0.0000   YZ=              0.0000
 Octapole moment (field-independent basis, Debye-Ang**2):
  XXX=              2.3813  YYY=              0.2895  ZZZ=              0.0000  XYY=              2.3065
  XXY=             -2.6790  XXZ=              0.0000  XZZ=             -0.5856  YZZ=             -0.7051
  YYZ=              0.0000  XYZ=              0.0000
 Hexadecapole moment (field-independent basis, Debye-Ang**3):
 XXXX=           -126.7870 YYYY=            -94.8080 ZZZZ=            -18.0238 XXXY=            -21.3771
 XXXZ=              0.0000 YYYX=            -19.7746 YYYZ=              0.0000 ZZZX=              0.0000
 ZZZY=              0.0000 XXYY=            -35.6191 XXZZ=            -24.2693 YYZZ=            -18.5756
 XXYZ=              0.0000 YYXZ=              0.0000 ZZXY=             -5.9352
 N-N= 1.228508012247D+02 E-N=-9.072400924548D+02  KE= 2.802105620075D+02
 Symmetry A'   KE= 2.663611813298D+02
 Symmetry A"   KE= 1.384938067765D+01
  Exact polarizability:  30.897   4.227  29.818   0.000   0.000  17.585
 Approx polarizability:  24.622   0.614  27.610  -0.000  -0.000  15.494
 No NMR shielding tensors so no spin-rotation constants.
 Leave Link  601 at Sun Mar  6 19:30:20 2022, MaxMem= 16106127360 cpu:               4.2 elap:               0.2
 (Enter /sw/contrib/gaussian/g16/B01/g16/l701.exe)
 ... and contract with generalized density number  2.
 Compute integral second derivatives.
 Leave Link  701 at Sun Mar  6 19:30:20 2022, MaxMem= 16106127360 cpu:               5.6 elap:               0.2
 (Enter /sw/contrib/gaussian/g16/B01/g16/l702.exe)
 L702 exits ... SP integral derivatives will be done elsewhere.
 Leave Link  702 at Sun Mar  6 19:30:20 2022, MaxMem= 16106127360 cpu:               0.5 elap:               0.0
 (Enter /sw/contrib/gaussian/g16/B01/g16/l703.exe)
 Integral derivatives from FoFJK, PRISM(SPDF).
 Compute integral second derivatives, UseDBF=F ICtDFT=           0.
 Calling FoFJK, ICntrl=  10100127 FMM=F ISym2X=1 I1Cent= 0 IOpClX= 0 NMat=1 NMatS=1 NMatT=0.
 FoFJK:  IHMeth= 1 ICntrl=10100127 DoSepK=F KAlg= 0 I1Cent=           0 FoldK=F
 IRaf=         0 NMat=       1 IRICut=       1 DoRegI=T DoRafI=F ISym2E= 1 IDoP0=0 IntGTp=1.
 FoFCou: FMM=F IPFlag=           0 FMFlag=      100000 FMFlg1=         800
         NFxFlg=           0 DoJE=F BraDBF=F KetDBF=F FulRan=T
         wScrn=  0.000000 ICntrl=  10100127 IOpCl=  0 I1Cent=           0 NGrid=           0
         NMat0=    1 NMatS0=      1 NMatT0=    0 NMatD0=    1 NMtDS0=    0 NMtDT0=    0
 Petite list used in FoFCou.
 Leave Link  703 at Sun Mar  6 19:30:36 2022, MaxMem= 16106127360 cpu:             446.8 elap:              16.0
 (Enter /sw/contrib/gaussian/g16/B01/g16/l716.exe)
 Dipole        = 7.23889587D-04-4.23402239D-01 0.00000000D+00
 Polarizability= 3.08971428D+01 4.22687690D+00 2.98184140D+01
                 0.00000000D+00 0.00000000D+00 1.75849260D+01
 Full mass-weighted force constant matrix:
 Low frequencies ---  -79.0002  -27.9995   -0.0010   -0.0008    0.0013   29.0623
 Low frequencies ---  375.5143  398.1578  521.3209
 Diagonal vibrational polarizability:
        7.0986452       9.9892301      14.1415230
 Harmonic frequencies (cm**-1), IR intensities (KM/Mole), Raman scattering
 activities (A**4/AMU), depolarization ratios for plane and unpolarized
 incident light, reduced masses (AMU), force constants (mDyne/A),
 and normal coordinates:
                      1                      2                      3
                     A"                     A'                     A"
 Frequencies --    374.3111               398.1481               521.1180
 Red. masses --      1.5484                 7.2431                 2.9179
 Frc consts  --      0.1278                 0.6765                 0.4669
 IR Inten    --     60.9276                 7.9396                24.6115
  Atom  AN      X      Y      Z        X      Y      Z        X      Y      Z
     1   1    -0.00  -0.00   0.98    -0.72  -0.25  -0.00    -0.00  -0.00   0.93
     2   8    -0.00  -0.00  -0.11    -0.33  -0.32   0.00    -0.00  -0.00   0.06
     3   8    -0.00   0.00   0.11    -0.07   0.08  -0.00    -0.00   0.00  -0.18
     4   7     0.00   0.00  -0.11     0.06   0.10   0.00     0.00   0.00   0.27
     5   8     0.00   0.00   0.03     0.39   0.17   0.00     0.00   0.00  -0.17
                      4                      5                      6
                     A'                     A'                     A'
 Frequencies --    713.1877               840.7700               974.1752
 Red. masses --     13.4311                13.2381                 9.8052
 Frc consts  --      4.0250                 5.5135                 5.4825
 IR Inten    --    215.3679                31.8765                12.6722
  Atom  AN      X      Y      Z        X      Y      Z        X      Y      Z
     1   1    -0.35   0.01   0.00     0.37  -0.14  -0.00    -0.63   0.02  -0.00
     2   8    -0.01  -0.08  -0.00     0.56  -0.21   0.00     0.19  -0.17  -0.00
     3   8     0.38   0.58  -0.00    -0.40  -0.02  -0.00    -0.36   0.41   0.00
     4   7    -0.41  -0.46   0.00    -0.44  -0.06   0.00     0.38   0.04  -0.00
     5   8     0.02  -0.10  -0.00     0.21   0.29  -0.00    -0.13  -0.28   0.00
                      7                      8                      9
                     A'                     A'                     A'
 Frequencies --   1456.0517              1577.4126              3475.0970
 Red. masses --      1.3797                 4.8140                 1.0635
 Frc consts  --      1.7234                 7.0575                 7.5673
 IR Inten    --     82.2376               150.3433                45.9752
  Atom  AN      X      Y      Z        X      Y      Z        X      Y      Z
     1   1     0.96  -0.22  -0.00     0.83  -0.20  -0.00     0.18   0.98   0.00
     2   8    -0.06  -0.05  -0.00    -0.02  -0.03   0.00    -0.01  -0.06  -0.00
     3   8    -0.03   0.06   0.00     0.02   0.06  -0.00     0.00  -0.00   0.00
     4   7     0.07  -0.07  -0.00    -0.20   0.34  -0.00    -0.00   0.00   0.00
     5   8    -0.03   0.07   0.00     0.13  -0.31   0.00     0.00  -0.00  -0.00

 -------------------
 - Thermochemistry -
 -------------------
 Temperature   298.150 Kelvin.  Pressure   1.00000 Atm.
 Atom     1 has atomic number  1 and mass   1.00783
 Atom     2 has atomic number  8 and mass  15.99491
 Atom     3 has atomic number  8 and mass  15.99491
 Atom     4 has atomic number  7 and mass  14.00307
 Atom     5 has atomic number  8 and mass  15.99491
 Molecular mass:    62.99564 amu.
 Principal axes and moments of inertia in atomic units:
                           1         2         3
     Eigenvalues --    84.30320 222.52479 306.82800
           X            0.79498  -0.60664   0.00000
           Y            0.60664   0.79498   0.00000
           Z            0.00000   0.00000   1.00000
 This molecule is an asymmetric top.
 Rotational symmetry number  1.
 Rotational temperatures (Kelvin)      1.02741     0.38923     0.28229
 Rotational constants (GHZ):          21.40774     8.11029     5.88193
 Zero-point vibrational energy      61788.7 (Joules/Mol)
                                   14.76786 (Kcal/Mol)
 Warning -- explicit consideration of   3 degrees of freedom as
           vibrations may cause significant error
 Vibrational temperatures:    538.55   572.85   749.77  1026.12  1209.68
          (Kelvin)           1401.62  2094.93  2269.54  4999.89
 
 Zero-point correction=                           0.023534 (Hartree/Particle)
 Thermal correction to Energy=                    0.027447
 Thermal correction to Enthalpy=                  0.028391
 Thermal correction to Gibbs Free Energy=        -0.002418
 Sum of electronic and zero-point Energies=           -280.431545
 Sum of electronic and thermal Energies=              -280.427632
 Sum of electronic and thermal Enthalpies=            -280.426688
 Sum of electronic and thermal Free Energies=         -280.457496
 
                     E (Thermal)             CV                S
                      KCal/Mol        Cal/Mol-Kelvin    Cal/Mol-Kelvin
 Total                   17.223             12.104             64.842
 Electronic               0.000              0.000              0.000
 Translational            0.889              2.981             38.341
 Rotational               0.889              2.981             23.269
 Vibrational             15.446              6.143              3.233
 Vibration     1          0.745              1.525              1.062
 Vibration     2          0.764              1.474              0.969
 Vibration     3          0.876              1.203              0.607
                       Q            Log10(Q)             Ln(Q)
 Total Bot       0.129415D+02          1.111985          2.560441
 Total V=0       0.864780D+12         11.936905         27.485741
 Vib (Bot)       0.242472D-10        -10.615339        -24.442721
 Vib (Bot)    1  0.484947D+00         -0.314306         -0.723716
 Vib (Bot)    2  0.448269D+00         -0.348461         -0.802362
 Vib (Bot)    3  0.309427D+00         -0.509442         -1.173033
 Vib (V=0)       0.162025D+01          0.209581          0.482579
 Vib (V=0)    1  0.119654D+01          0.077929          0.179437
 Vib (V=0)    2  0.117152D+01          0.068751          0.158306
 Vib (V=0)    3  0.108800D+01          0.036629          0.084342
 Electronic      0.100000D+01          0.000000          0.000000
 Translational   0.196526D+08          7.293420         16.793719
 Rotational      0.271584D+05          4.433904         10.209442
 
                                                                title
                                                             IR Spectrum
 
     3                                                                     1   1                                                     
     4                                                                     5   4                 9    8   7      5    33             
     7                                                                     7   5                 7    4   1      2    97             
     5                                                                     7   6                 4    1   3      1    84             
 
     X                                                                     X   X                 X    X   X      X    XX             
     X                                                                     X   X                      X   X      X     X             
     X                                                                     X   X                      X   X            X             
     X                                                                     X   X                          X            X             
                                                                           X   X                          X            X             
                                                                           X   X                          X            X             
                                                                           X   X                          X                          
                                                                           X   X                          X                          
                                                                           X                              X                          
                                                                           X                              X                          
                                                                           X                              X                          
                                                                           X                              X                          
                                                                           X                              X                          
                                                                           X                              X                          
                                                                                                          X                          
                                                                                                          X                          
                                                                                                          X                          
                                                                                                          X                          
                                                                                                          X                          
                                                                                                          X                          
 
 ***** Axes restored to original set *****
 -------------------------------------------------------------------
 Center     Atomic                   Forces (Hartrees/Bohr)
 Number     Number              X              Y              Z
 -------------------------------------------------------------------
      1        1          -0.004932582   -0.000000000   -0.001676309
      2        8           0.003145287   -0.000000000   -0.002009589
      3        8           0.002018285   -0.000000000    0.002531408
      4        7           0.000719886   -0.000000000    0.001779331
      5        8          -0.000950877   -0.000000000   -0.000624842
 -------------------------------------------------------------------
 Cartesian Forces:  Max     0.004932582 RMS     0.001941340
 -----------------------------------------------------------------------------------------------
                       Internal Coordinate Forces (Hartree/Bohr or radian)
  Cent   Atom   N1       Length/X         N2         Alpha/Y        N3         Beta/Z          J
 -----------------------------------------------------------------------------------------------
      1  H 
      2  O        1   0.001676(     1)
      3  O        2   0.002318(     2)      1   0.009185(     5)
      4  N        3  -0.001103(     3)      2   0.000078(     6)      1   0.000000(     8)     0
      5  O        4   0.001049(     4)      3  -0.000994(     7)      2   0.000000(     9)     0
 -----------------------------------------------------------------------------------------------
 Internal  Forces:  Max     0.009184741 RMS     0.003263490
 Force constants in Cartesian coordinates: 
                1             2             3             4             5 
      1  0.761572D-01
      2  0.000000D+00  0.617723D-02
      3  0.280058D-01  0.000000D+00  0.432980D+00
      4 -0.488188D-01  0.000000D+00 -0.531645D-02  0.277329D+00
      5  0.000000D+00 -0.409777D-02  0.000000D+00  0.000000D+00  0.152468D-01
      6  0.300719D-01  0.000000D+00 -0.417330D+00 -0.140340D-01  0.000000D+00
      7 -0.299414D-01  0.000000D+00 -0.180872D-01 -0.173520D+00  0.000000D+00
      8  0.000000D+00 -0.244376D-02  0.000000D+00  0.000000D+00 -0.206866D-01
      9 -0.443424D-01  0.000000D+00 -0.222496D-01  0.117642D-01  0.000000D+00
     10 -0.858660D-02  0.000000D+00  0.790903D-02 -0.820322D-01  0.000000D+00
     11  0.000000D+00  0.827868D-02  0.000000D+00  0.000000D+00  0.202366D-01
     12 -0.197281D-01  0.000000D+00  0.145022D-01  0.125783D-01  0.000000D+00
     13  0.111895D-01  0.000000D+00 -0.125113D-01  0.270421D-01  0.000000D+00
     14  0.000000D+00 -0.791439D-02  0.000000D+00  0.000000D+00 -0.106991D-01
     15  0.599279D-02  0.000000D+00 -0.790254D-02 -0.499194D-02  0.000000D+00
                6             7             8             9            10 
      6  0.519556D+00
      7 -0.900546D-01  0.312599D+00
      8  0.000000D+00  0.000000D+00  0.414978D-01
      9 -0.916221D-01  0.849967D-01  0.000000D+00  0.313322D+00
     10  0.415689D-01 -0.143927D+00  0.000000D+00 -0.315963D-01  0.573546D+00
     11  0.000000D+00  0.000000D+00 -0.488881D-01  0.000000D+00  0.000000D+00
     12 -0.134678D-01  0.209743D-01  0.000000D+00 -0.255463D-01  0.239983D+00
     13  0.324478D-01  0.347890D-01  0.000000D+00 -0.208221D-01 -0.339000D+00
     14  0.000000D+00  0.000000D+00  0.305206D-01  0.000000D+00  0.000000D+00
     15  0.286344D-02  0.217072D-02  0.000000D+00 -0.173904D+00 -0.257864D+00
               11            12            13            14            15 
     11  0.579267D-01
     12  0.000000D+00  0.432370D+00
     13  0.000000D+00 -0.253807D+00  0.265980D+00
     14 -0.375539D-01  0.000000D+00  0.000000D+00  0.256467D-01
     15  0.000000D+00 -0.407859D+00  0.254693D+00  0.000000D+00  0.586802D+00
 Force constants in internal coordinates: 
                1             2             3             4             5 
      1  0.432980D+00
      2  0.247724D-01  0.264210D+00
      3  0.803364D-02  0.161080D-01  0.207064D+00
      4 -0.135413D-01  0.229644D-01  0.149515D+00  0.722743D+00
      5  0.472166D-01  0.664886D-01 -0.243028D-01  0.208904D-01  0.267189D+00
      6  0.146325D-01  0.250488D-01  0.910814D-01  0.112924D-01 -0.616806D-03
      7  0.134743D-01 -0.760905D-01  0.120618D+00  0.119391D+00 -0.249618D-01
      8  0.000000D+00  0.000000D+00  0.000000D+00  0.000000D+00  0.000000D+00
      9  0.000000D+00  0.000000D+00  0.000000D+00  0.000000D+00  0.000000D+00
                6             7             8             9 
      6  0.533914D+00
      7  0.631982D-01  0.665275D+00
      8  0.000000D+00  0.000000D+00  0.226363D-01
      9  0.000000D+00  0.000000D+00  0.299784D-01  0.110883D+00
 Leave Link  716 at Sun Mar  6 19:30:36 2022, MaxMem= 16106127360 cpu:               1.5 elap:               0.1
 (Enter /sw/contrib/gaussian/g16/B01/g16/l103.exe)

 GradGradGradGradGradGradGradGradGradGradGradGradGradGradGradGradGradGrad
 Berny optimization.
 Search for a local minimum.
 Step number   1 out of a maximum of    2
 All quantities printed in internal units (Hartrees-Bohrs-Radians)
 Second derivative matrix not updated -- analytic derivatives used.
 The second derivative matrix:
                          r1        r2        r3        r4        a1
           r1           0.43298
           r2           0.02477   0.26421
           r3           0.00803   0.01611   0.20706
           r4          -0.01354   0.02296   0.14952   0.72274
           a1           0.04722   0.06649  -0.02430   0.02089   0.26719
           a2           0.01463   0.02505   0.09108   0.01129  -0.00062
           a3           0.01347  -0.07609   0.12062   0.11939  -0.02496
           d1           0.00000   0.00000   0.00000   0.00000   0.00000
           d2           0.00000   0.00000   0.00000   0.00000   0.00000
                          a2        a3        d1        d2
           a2           0.53391
           a3           0.06320   0.66527
           d1           0.00000   0.00000   0.02264
           d2           0.00000   0.00000   0.02998   0.11088
 ITU=  0
     Eigenvalues ---    0.01342   0.12010   0.12509   0.20461   0.28820
     Eigenvalues ---    0.44853   0.52888   0.60998   0.88808
 Angle between quadratic step and forces=  18.47 degrees.
 Linear search not attempted -- first point.
 Variable       Old X    -DE/DX   Delta X   Delta X   Delta X     New X
                                 (Linear)    (Quad)   (Total)
    r1        1.86209   0.00168   0.00000   0.00020   0.00020   1.86230
    r2        2.69614   0.00232   0.00000   0.00020   0.00020   2.69634
    r3        2.60992  -0.00110   0.00000  -0.00226  -0.00226   2.60765
    r4        2.25782   0.00105   0.00000   0.00093   0.00093   2.25875
    a1        1.72072   0.00918   0.00000   0.03401   0.03401   1.75473
    a2        1.97463   0.00008   0.00000   0.00054   0.00054   1.97516
    a3        1.99550  -0.00099   0.00000  -0.00001  -0.00001   1.99550
    d1        0.00000   0.00000   0.00000   0.00000   0.00000   0.00000
    d2        0.00000   0.00000   0.00000   0.00000   0.00000   0.00000
         Item               Value     Threshold  Converged?
 Maximum Force            0.009185     0.000450     NO 
 RMS     Force            0.003263     0.000300     NO 
 Maximum Displacement     0.034012     0.001800     NO 
 RMS     Displacement     0.011368     0.001200     NO 
 Predicted change in Energy=-1.583571D-04
                       ----------------------------
                       ! Non-Optimized Parameters !
                       ! (Angstroms and Degrees)  !
 ----------------------                            ----------------------
 !      Name          Value   Derivative information (Atomic Units)     !
 ------------------------------------------------------------------------
 !       r1          0.9855   -DE/DX =    0.0017                        !
 !       r2          1.4268   -DE/DX =    0.0023                        !
 !       r3          1.3799   -DE/DX =   -0.0011                        !
 !       r4          1.1953   -DE/DX =    0.001                         !
 !       a1        100.5387   -DE/DX =    0.0092                        !
 !       a2        113.1686   -DE/DX =    0.0001                        !
 !       a3        114.3336   -DE/DX =   -0.001                         !
 !       d1          0.0      -DE/DX =    0.0                           !
 !       d2          0.0      -DE/DX =    0.0                           !
 ------------------------------------------------------------------------
 GradGradGradGradGradGradGradGradGradGradGradGradGradGradGradGradGradGrad

 Leave Link  103 at Sun Mar  6 19:30:36 2022, MaxMem= 16106127360 cpu:               1.3 elap:               0.1
 (Enter /sw/contrib/gaussian/g16/B01/g16/l9999.exe)

 ----------------------------------------------------------------------

 Electric dipole moment (input orientation):
 (Debye = 10**-18 statcoulomb cm , SI units = C m)
                  (au)            (Debye)         (10**-30 SI)
   Tot        0.423403D+00      0.107618D+01      0.358976D+01
   x         -0.103732D+00     -0.263661D+00     -0.879479D+00
   y          0.000000D+00      0.000000D+00      0.000000D+00
   z         -0.410499D+00     -0.104338D+01     -0.348036D+01

 Dipole polarizability, Alpha (input orientation).
 (esu units = cm**3 , SI units = C**2 m**2 J**-1)
 Alpha(0;0):
               (au)            (10**-24 esu)      (10**-40 SI)
   iso        0.261002D+02      0.386764D+01      0.430334D+01
   aniso      0.147519D+02      0.218600D+01      0.243226D+01
   xx         0.288380D+02      0.427335D+01      0.475474D+01
   yx         0.000000D+00      0.000000D+00      0.000000D+00
   yy         0.175849D+02      0.260582D+01      0.289936D+01
   zx        -0.398091D+01     -0.589909D+00     -0.656363D+00
   zy         0.000000D+00      0.000000D+00      0.000000D+00
   zz         0.318776D+02      0.472377D+01      0.525590D+01

 ----------------------------------------------------------------------

 Dipole orientation:
     1          0.00000000         -0.00000000         -0.00000000
     8         -0.45620614         -0.00000000         -1.80534277
     8          2.02978601         -0.00000000         -2.84890504
     7          3.90432995         -0.00000000         -1.03293635
     8          3.14112288          0.00000000          1.09198236

 Electric dipole moment (dipole orientation):
 (Debye = 10**-18 statcoulomb cm , SI units = C m)
                  (au)            (Debye)         (10**-30 SI)
   Tot        0.423403D+00      0.107618D+01      0.358976D+01
   x          0.000000D+00      0.000000D+00      0.000000D+00
   y          0.000000D+00      0.000000D+00      0.000000D+00
   z          0.423403D+00      0.107618D+01      0.358976D+01

 Dipole polarizability, Alpha (dipole orientation).
 (esu units = cm**3 , SI units = C**2 m**2 J**-1)
 Alpha(0;0):
               (au)            (10**-24 esu)      (10**-40 SI)
   iso        0.261002D+02      0.386764D+01      0.430334D+01
   aniso      0.147519D+02      0.218600D+01      0.243226D+01
   xx         0.309116D+02      0.458063D+01      0.509663D+01
   yx         0.000000D+00      0.000000D+00      0.000000D+00
   yy         0.175849D+02      0.260582D+01      0.289936D+01
   zx         0.422501D+01      0.626082D+00      0.696610D+00
   zy         0.000000D+00      0.000000D+00      0.000000D+00
   zz         0.298040D+02      0.441649D+01      0.491401D+01

 ----------------------------------------------------------------------
 1\1\GINC-N2108\Freq\RMP2-FC\Aug-CC-pVTZ\H1N1O3\CGAVINH\06-Mar-2022\1\\
 #p freq mp2/aug-cc-pvtz density=current\\title\\0,1\H\O,1,r1\O,2,r2,1,
 a1\N,3,r3,2,a2,1,d1,0\O,4,r4,3,a3,2,d2,0\\r1=0.98537664\r2=1.42673666\
 r3=1.38110764\r4=1.19478846\a1=98.58991215\a2=113.13777052\a3=114.3339
 2022\d1=0.\d2=0.\\Version=ES64L-G16RevB.01\State=1-A'\HF=-279.5058172\
 MP2=-280.4550789\RMSD=4.499e-09\RMSF=1.941e-03\ZeroPoint=0.0235341\The
 rmal=0.027447\Dipole=-0.1037322,0.,-0.4104992\DipoleDeriv=0.3208663,0.
 ,0.0297087,0.,0.2932778,0.,-0.0418984,0.,0.2052989,-0.5251039,0.,0.300
 8686,0.,-0.2497306,0.,-0.0780907,0.,-0.1380162,0.0354326,0.,0.2956742,
 0.,-0.0119043,0.,0.4010929,0.,-0.9468303,0.1716088,0.,-0.0809191,0.,0.
 0126157,0.,-0.6049902,0.,1.7456131,-0.0028039,0.,-0.5453324,0.,-0.0442
 585,0.,0.3238865,0.,-0.8660655\Polar=28.8379768,0.,17.584926,-3.980905
 1,0.,31.87758\Quadrupole=0.1787342,0.6331575,-0.8118917,0.,1.3229279,0
 .\PG=CS [SG(H1N1O3)]\NImag=0\\0.07615720,0.,0.00617723,0.02800584,0.,0
 .43297980,-0.04881876,0.,-0.00531645,0.27732905,0.,-0.00409777,0.,0.,0
 .01524677,0.03007190,0.,-0.41732989,-0.01403404,0.,0.51955638,-0.02994
 135,0.,-0.01808717,-0.17352022,0.,-0.09005456,0.31259925,0.,-0.0024437
 6,0.,0.,-0.02068656,0.,0.,0.04149779,-0.04434244,0.,-0.02224959,0.0117
 6418,0.,-0.09162213,0.08499669,0.,0.31332201,-0.00858660,0.,0.00790903
 ,-0.08203221,0.,0.04156885,-0.14392665,0.,-0.03159630,0.57354560,0.,0.
 00827868,0.,0.,0.02023662,0.,0.,-0.04888809,0.,0.,0.05792668,-0.019728
 10,0.,0.01450222,0.01257826,0.,-0.01346779,0.02097432,0.,-0.02554629,0
 .23998286,0.,0.43237049,0.01118951,0.,-0.01251125,0.02704214,0.,0.0324
 4785,0.03478898,0.,-0.02082213,-0.33900014,0.,-0.25380734,0.26597951,0
 .,-0.00791439,0.,0.,-0.01069907,0.,0.,0.03052062,0.,0.,-0.03755389,0.,
 0.,0.02564673,0.00599279,0.,-0.00790254,-0.00499194,0.,0.00286344,0.00
 217072,0.,-0.17390400,-0.25786444,0.,-0.40785864,0.25469287,0.,0.58680
 175\\0.00493258,0.,0.00167631,-0.00314529,0.,0.00200959,-0.00201829,0.
 ,-0.00253141,-0.00071989,0.,-0.00177933,0.00095088,0.,0.00062484\\\@


 WOE UNTO THEM THAT CALL EVIL GOOD, AND GOOD EVIL      
 Job cpu time:       0 days  2 hours  0 minutes 47.4 seconds.
 Elapsed time:       0 days  0 hours  4 minutes 22.2 seconds.
 File lengths (MBytes):  RWF=   7239 Int=      0 D2E=      0 Chk=      8 Scr=      1
 Normal termination of Gaussian 16 at Sun Mar  6 19:30:37 2022.
