title                                                                   
Freq      RMP2-FC                                                     Aug-CC-pVTZ         
Number of atoms                            I                5
Info1-9                                    I   N=           9
          33          24           0           0           0         100
           6           2           1
Full Title                                 C   N=           1
title       
Route                                      C   N=           4
#p freq mp2/aug-cc-pvtz density=current         
Charge                                     I                0
Multiplicity                               I                1
Number of electrons                        I               32
Number of alpha electrons                  I               16
Number of beta electrons                   I               16
Number of basis functions                  I              207
Number of independent functions            I              207
Number of point charges in /Mol/           I                0
Number of translation vectors              I                0
Atomic numbers                             I   N=           5
           1           8           8           7           8
Nuclear charges                            R   N=           5
  1.00000000E+00  8.00000000E+00  8.00000000E+00  7.00000000E+00  8.00000000E+00
Current cartesian coordinates              R   N=          15
  2.14279027E+00 -1.14151627E+00  0.00000000E+00  2.48563034E+00  6.88742513E-01
  0.00000000E+00  1.12736738E-16  1.73316629E+00  0.00000000E+00 -1.87517318E+00
 -8.21526356E-02  0.00000000E+00 -1.11270258E+00 -2.20733572E+00  0.00000000E+00
Number of symbols in /Mol/                 I                0
Force Field                                I                0
Atom Types                                 C   N=           5
                                                            
Int Atom Types                             I   N=           5
           0           0           0           0           0
MM charges                                 R   N=           5
  0.00000000E+00  0.00000000E+00  0.00000000E+00  0.00000000E+00  0.00000000E+00
Integer atomic weights                     I   N=           5
           1          16          16          14          16
Real atomic weights                        R   N=           5
  1.00782504E+00  1.59949146E+01  1.59949146E+01  1.40030740E+01  1.59949146E+01
Atom fragment info                         I   N=           5
           0           0           0           0           0
Atom residue num                           I   N=           5
           0           0           0           0           0
Nuclear spins                              I   N=           5
           1           0           0           2           0
Nuclear ZEff                               R   N=           5
 -1.00000000E+00 -5.60000000E+00 -5.60000000E+00 -4.55000000E+00 -5.60000000E+00
Nuclear ZNuc                               R   N=           5
  1.00000000E+00  8.00000000E+00  8.00000000E+00  7.00000000E+00  8.00000000E+00
Nuclear QMom                               R   N=           5
  0.00000000E+00  0.00000000E+00  0.00000000E+00  2.04400000E+00  0.00000000E+00
Nuclear GFac                               R   N=           5
  2.79284600E+00  0.00000000E+00  0.00000000E+00  4.03761000E-01  0.00000000E+00
MicOpt                                     I   N=           5
          -1          -1          -1          -1          -1
Number of residues                         I                0
Number of secondary structures             I                0
SymInf integers                            I   N=          26
           1           2           1           1           1           1
           1          -1           0           0           0           0
           0           0           0           0           0           0
           0           0           0           0           0           0
           0           0
RotTr to input orientation                 R   N=          12
 -9.82904608E-01  0.00000000E+00  1.84115537E-01  1.84115537E-01  0.00000000E+00
  9.82904608E-01  0.00000000E+00  1.00000000E+00  0.00000000E+00  2.31632931E+00
  0.00000000E+00  7.27480625E-01
Number of contracted shells                I               65
Number of primitive shells                 I              119
Pure/Cartesian d shells                    I                0
Pure/Cartesian f shells                    I                0
Highest angular momentum                   I                3
Largest degree of contraction              I                7
Shell types                                I   N=          65
           0           0           0           0           1           1
           1          -2          -2           0           0           0
           0           0           1           1           1           1
          -2          -2          -2          -3          -3           0
           0           0           0           0           1           1
           1           1          -2          -2          -2          -3
          -3           0           0           0           0           0
           1           1           1           1          -2          -2
          -2          -3          -3           0           0           0
           0           0           1           1           1           1
          -2          -2          -2          -3          -3
Number of primitives per shell             I   N=          65
           3           1           1           1           1           1
           1           1           1           7           6           1
           1           1           3           1           1           1
           1           1           1           1           1           7
           6           1           1           1           3           1
           1           1           1           1           1           1
           1           7           6           1           1           1
           3           1           1           1           1           1
           1           1           1           7           6           1
           1           1           3           1           1           1
           1           1           1           1           1
Shell to atom map                          I   N=          65
           1           1           1           1           1           1
           1           1           1           2           2           2
           2           2           2           2           2           2
           2           2           2           2           2           3
           3           3           3           3           3           3
           3           3           3           3           3           3
           3           4           4           4           4           4
           4           4           4           4           4           4
           4           4           4           5           5           5
           5           5           5           5           5           5
           5           5           5           5           5
Primitive exponents                        R   N=         119
  3.38700000E+01  5.09500000E+00  1.15900000E+00  3.25800000E-01  1.02700000E-01
  2.52600000E-02  1.40700000E+00  3.88000000E-01  1.02000000E-01  1.05700000E+00
  2.47000000E-01  1.53300000E+04  2.29900000E+03  5.22400000E+02  1.47300000E+02
  4.75500000E+01  1.67600000E+01  6.20700000E+00  5.22400000E+02  1.47300000E+02
  4.75500000E+01  1.67600000E+01  6.20700000E+00  6.88200000E-01  1.75200000E+00
  2.38400000E-01  7.37600000E-02  3.44600000E+01  7.74900000E+00  2.28000000E+00
  7.15600000E-01  2.14000000E-01  5.97400000E-02  2.31400000E+00  6.45000000E-01
  2.14000000E-01  1.42800000E+00  5.00000000E-01  1.53300000E+04  2.29900000E+03
  5.22400000E+02  1.47300000E+02  4.75500000E+01  1.67600000E+01  6.20700000E+00
  5.22400000E+02  1.47300000E+02  4.75500000E+01  1.67600000E+01  6.20700000E+00
  6.88200000E-01  1.75200000E+00  2.38400000E-01  7.37600000E-02  3.44600000E+01
  7.74900000E+00  2.28000000E+00  7.15600000E-01  2.14000000E-01  5.97400000E-02
  2.31400000E+00  6.45000000E-01  2.14000000E-01  1.42800000E+00  5.00000000E-01
  1.14200000E+04  1.71200000E+03  3.89300000E+02  1.10000000E+02  3.55700000E+01
  1.25400000E+01  4.64400000E+00  3.89300000E+02  1.10000000E+02  3.55700000E+01
  1.25400000E+01  4.64400000E+00  5.11800000E-01  1.29300000E+00  1.78700000E-01
  5.76000000E-02  2.66300000E+01  5.94800000E+00  1.74200000E+00  5.55000000E-01
  1.72500000E-01  4.91000000E-02  1.65400000E+00  4.69000000E-01  1.51000000E-01
  1.09300000E+00  3.64000000E-01  1.53300000E+04  2.29900000E+03  5.22400000E+02
  1.47300000E+02  4.75500000E+01  1.67600000E+01  6.20700000E+00  5.22400000E+02
  1.47300000E+02  4.75500000E+01  1.67600000E+01  6.20700000E+00  6.88200000E-01
  1.75200000E+00  2.38400000E-01  7.37600000E-02  3.44600000E+01  7.74900000E+00
  2.28000000E+00  7.15600000E-01  2.14000000E-01  5.97400000E-02  2.31400000E+00
  6.45000000E-01  2.14000000E-01  1.42800000E+00  5.00000000E-01
Contraction coefficients                   R   N=         119
  2.54948632E-02  1.90362766E-01  8.52162022E-01  1.00000000E+00  1.00000000E+00
  1.00000000E+00  1.00000000E+00  1.00000000E+00  1.00000000E+00  1.00000000E+00
  1.00000000E+00  5.19808943E-04  4.02025621E-03  2.07128267E-02  8.10105536E-02
  2.35962985E-01  4.42653446E-01  3.57064423E-01 -4.42115008E-05 -1.22591041E-03
 -1.05517725E-02 -6.74452633E-02 -1.71198607E-01  1.07329856E+00  1.00000000E+00
  1.00000000E+00  1.00000000E+00  4.11634896E-02  2.57762836E-01  8.02419274E-01
  1.00000000E+00  1.00000000E+00  1.00000000E+00  1.00000000E+00  1.00000000E+00
  1.00000000E+00  1.00000000E+00  1.00000000E+00  5.19808943E-04  4.02025621E-03
  2.07128267E-02  8.10105536E-02  2.35962985E-01  4.42653446E-01  3.57064423E-01
 -4.42115008E-05 -1.22591041E-03 -1.05517725E-02 -6.74452633E-02 -1.71198607E-01
  1.07329856E+00  1.00000000E+00  1.00000000E+00  1.00000000E+00  4.11634896E-02
  2.57762836E-01  8.02419274E-01  1.00000000E+00  1.00000000E+00  1.00000000E+00
  1.00000000E+00  1.00000000E+00  1.00000000E+00  1.00000000E+00  1.00000000E+00
  5.34563860E-04  4.13435660E-03  2.12335358E-02  8.25006224E-02  2.38138871E-01
  4.42551547E-01  3.53757422E-01 -4.89867350E-05 -1.19527323E-03 -1.03490714E-02
 -6.48680190E-02 -1.71552477E-01  1.07289568E+00  1.00000000E+00  1.00000000E+00
  1.00000000E+00  3.98072123E-02  2.49002660E-01  8.10479727E-01  1.00000000E+00
  1.00000000E+00  1.00000000E+00  1.00000000E+00  1.00000000E+00  1.00000000E+00
  1.00000000E+00  1.00000000E+00  5.19808943E-04  4.02025621E-03  2.07128267E-02
  8.10105536E-02  2.35962985E-01  4.42653446E-01  3.57064423E-01 -4.42115008E-05
 -1.22591041E-03 -1.05517725E-02 -6.74452633E-02 -1.71198607E-01  1.07329856E+00
  1.00000000E+00  1.00000000E+00  1.00000000E+00  4.11634896E-02  2.57762836E-01
  8.02419274E-01  1.00000000E+00  1.00000000E+00  1.00000000E+00  1.00000000E+00
  1.00000000E+00  1.00000000E+00  1.00000000E+00  1.00000000E+00
Coordinates of each shell                  R   N=         195
  2.14279027E+00 -1.14151627E+00  0.00000000E+00  2.14279027E+00 -1.14151627E+00
  0.00000000E+00  2.14279027E+00 -1.14151627E+00  0.00000000E+00  2.14279027E+00
 -1.14151627E+00  0.00000000E+00  2.14279027E+00 -1.14151627E+00  0.00000000E+00
  2.14279027E+00 -1.14151627E+00  0.00000000E+00  2.14279027E+00 -1.14151627E+00
  0.00000000E+00  2.14279027E+00 -1.14151627E+00  0.00000000E+00  2.14279027E+00
 -1.14151627E+00  0.00000000E+00  2.48563034E+00  6.88742513E-01  0.00000000E+00
  2.48563034E+00  6.88742513E-01  0.00000000E+00  2.48563034E+00  6.88742513E-01
  0.00000000E+00  2.48563034E+00  6.88742513E-01  0.00000000E+00  2.48563034E+00
  6.88742513E-01  0.00000000E+00  2.48563034E+00  6.88742513E-01  0.00000000E+00
  2.48563034E+00  6.88742513E-01  0.00000000E+00  2.48563034E+00  6.88742513E-01
  0.00000000E+00  2.48563034E+00  6.88742513E-01  0.00000000E+00  2.48563034E+00
  6.88742513E-01  0.00000000E+00  2.48563034E+00  6.88742513E-01  0.00000000E+00
  2.48563034E+00  6.88742513E-01  0.00000000E+00  2.48563034E+00  6.88742513E-01
  0.00000000E+00  2.48563034E+00  6.88742513E-01  0.00000000E+00  2.65462623E-17
  1.73316629E+00  0.00000000E+00  2.65462623E-17  1.73316629E+00  0.00000000E+00
  2.65462623E-17  1.73316629E+00  0.00000000E+00  2.65462623E-17  1.73316629E+00
  0.00000000E+00  2.65462623E-17  1.73316629E+00  0.00000000E+00  2.65462623E-17
  1.73316629E+00  0.00000000E+00  2.65462623E-17  1.73316629E+00  0.00000000E+00
  2.65462623E-17  1.73316629E+00  0.00000000E+00  2.65462623E-17  1.73316629E+00
  0.00000000E+00  2.65462623E-17  1.73316629E+00  0.00000000E+00  2.65462623E-17
  1.73316629E+00  0.00000000E+00  2.65462623E-17  1.73316629E+00  0.00000000E+00
  2.65462623E-17  1.73316629E+00  0.00000000E+00  2.65462623E-17  1.73316629E+00
  0.00000000E+00 -1.87517318E+00 -8.21526356E-02  0.00000000E+00 -1.87517318E+00
 -8.21526356E-02  0.00000000E+00 -1.87517318E+00 -8.21526356E-02  0.00000000E+00
 -1.87517318E+00 -8.21526356E-02  0.00000000E+00 -1.87517318E+00 -8.21526356E-02
  0.00000000E+00 -1.87517318E+00 -8.21526356E-02  0.00000000E+00 -1.87517318E+00
 -8.21526356E-02  0.00000000E+00 -1.87517318E+00 -8.21526356E-02  0.00000000E+00
 -1.87517318E+00 -8.21526356E-02  0.00000000E+00 -1.87517318E+00 -8.21526356E-02
  0.00000000E+00 -1.87517318E+00 -8.21526356E-02  0.00000000E+00 -1.87517318E+00
 -8.21526356E-02  0.00000000E+00 -1.87517318E+00 -8.21526356E-02  0.00000000E+00
 -1.87517318E+00 -8.21526356E-02  0.00000000E+00 -1.11270258E+00 -2.20733572E+00
  0.00000000E+00 -1.11270258E+00 -2.20733572E+00  0.00000000E+00 -1.11270258E+00
 -2.20733572E+00  0.00000000E+00 -1.11270258E+00 -2.20733572E+00  0.00000000E+00
 -1.11270258E+00 -2.20733572E+00  0.00000000E+00 -1.11270258E+00 -2.20733572E+00
  0.00000000E+00 -1.11270258E+00 -2.20733572E+00  0.00000000E+00 -1.11270258E+00
 -2.20733572E+00  0.00000000E+00 -1.11270258E+00 -2.20733572E+00  0.00000000E+00
 -1.11270258E+00 -2.20733572E+00  0.00000000E+00 -1.11270258E+00 -2.20733572E+00
  0.00000000E+00 -1.11270258E+00 -2.20733572E+00  0.00000000E+00 -1.11270258E+00
 -2.20733572E+00  0.00000000E+00 -1.11270258E+00 -2.20733572E+00  0.00000000E+00
Num ILSW                                   I              100
ILSW                                       I   N=         100
           0           0           0           0           2           0
           0           0           0           0           0          -1
           5           0           0           0           2           0
           0           0           0           0           1           0
           1           0           0           0           0           0
           0           0      100000           0          -1           0
           0           0           0           0           0           0
           0           0           0           1           1           0
           0 -2000000000           1           0           0           0
           0           0           4          52           0           0
           0           0           0           0           0           0
           0           0           0           5           4           1
           0           0           0           0           0           0
           0           0           0           0           0           0
           0           0           0           0           0           0
           0           0           0           0           0           0
           0           0           0           0
Num RLSW                                   I               52
RLSW                                       R   N=          52
  1.00000000E+00  1.00000000E+00  1.00000000E+00  1.00000000E+00  1.00000000E+00
  0.00000000E+00  0.00000000E+00  1.00000000E+00  0.00000000E+00  0.00000000E+00
  0.00000000E+00  0.00000000E+00  1.00000000E+00  0.00000000E+00  0.00000000E+00
  0.00000000E+00  0.00000000E+00  1.00000000E+00  0.00000000E+00  0.00000000E+00
  0.00000000E+00  0.00000000E+00  1.00000000E+00  0.00000000E+00  0.00000000E+00
  0.00000000E+00  0.00000000E+00  1.00000000E+00  0.00000000E+00  0.00000000E+00
  0.00000000E+00  0.00000000E+00  1.00000000E+00  0.00000000E+00  0.00000000E+00
  0.00000000E+00  0.00000000E+00  0.00000000E+00  1.00000000E+00  1.00000000E+00
  0.00000000E+00  1.00000000E+00  0.00000000E+00  0.00000000E+00  0.00000000E+00
  0.00000000E+00  0.00000000E+00  0.00000000E+00  0.00000000E+00  0.00000000E+00
  0.00000000E+00  0.00000000E+00
MxBond                                     I                2
NBond                                      I   N=           5
           1           2           2           2           1
IBond                                      I   N=          10
           2           0           1           3           2           4
           3           5           4           0
RBond                                      R   N=          10
  1.00000000E+00  0.00000000E+00  1.00000000E+00  1.00000000E+00  1.00000000E+00
  1.00000000E+00  1.00000000E+00  2.00000000E+00  2.00000000E+00  0.00000000E+00
Virial Ratio                               R      2.002251555769107E+00
SCF Energy                                 R     -2.795066497935295E+02
MP2 Energy                                 R     -2.804551492881643E+02
Total Energy                               R     -2.804551492881643E+02
Post-SCF wavefunction norm                 R      1.583670519319978E+00
RMS Force                                  R      1.486370762405614E-03
RMS Density                                R      4.365720052233408E-09
NImag                                      I                0
Job Status                                 I                1
Nuclear derivative order                   I                2
External E-field                           R   N=          35
  0.00000000E+00  0.00000000E+00  0.00000000E+00  0.00000000E+00  0.00000000E+00
  0.00000000E+00  0.00000000E+00  0.00000000E+00  0.00000000E+00  0.00000000E+00
  0.00000000E+00  0.00000000E+00  0.00000000E+00  0.00000000E+00  0.00000000E+00
  0.00000000E+00  0.00000000E+00  0.00000000E+00  0.00000000E+00  0.00000000E+00
  0.00000000E+00  0.00000000E+00  0.00000000E+00  0.00000000E+00  0.00000000E+00
  0.00000000E+00  0.00000000E+00  0.00000000E+00  0.00000000E+00  0.00000000E+00
  0.00000000E+00  0.00000000E+00  0.00000000E+00  0.00000000E+00  0.00000000E+00
IOpCl                                      I                0
IROHF                                      I                0
Alpha Orbital Energies                     R   N=         207
 -2.07200092E+01 -2.06863478E+01 -2.06678863E+01 -1.58252735E+01 -1.64310118E+00
 -1.50428724E+00 -1.29365342E+00 -9.60398466E-01 -8.33376859E-01 -7.58359938E-01
 -7.39404578E-01 -6.36919951E-01 -6.18415637E-01 -6.17726656E-01 -5.03715256E-01
 -4.97346917E-01  3.47777336E-02  6.08965274E-02  9.52004329E-02  1.00430230E-01
  1.20011466E-01  1.22594319E-01  1.49251777E-01  1.51293366E-01  1.77674052E-01
  1.80823474E-01  1.89917626E-01  2.11211708E-01  2.16479423E-01  2.42705065E-01
  2.46388074E-01  2.69440602E-01  3.12025475E-01  3.15826418E-01  3.38335800E-01
  3.43486991E-01  3.45855368E-01  3.92414073E-01  4.47955622E-01  4.86235056E-01
  5.04597839E-01  5.18877252E-01  5.46824256E-01  5.61656633E-01  6.00655704E-01
  6.19951488E-01  6.38895613E-01  6.88222746E-01  7.17860440E-01  7.24391406E-01
  7.44179256E-01  7.62657761E-01  7.67369231E-01  7.96019310E-01  8.06513352E-01
  8.41308430E-01  8.43133315E-01  8.50580317E-01  8.85871746E-01  9.07245506E-01
  9.32000926E-01  9.46600794E-01  9.54925162E-01  1.01742880E+00  1.02934251E+00
  1.05836529E+00  1.06459716E+00  1.09376415E+00  1.14229187E+00  1.15622800E+00
  1.16929271E+00  1.22299702E+00  1.22659724E+00  1.24449419E+00  1.34810925E+00
  1.36946837E+00  1.37362730E+00  1.46873762E+00  1.48635525E+00  1.50695645E+00
  1.53939231E+00  1.59611397E+00  1.59732420E+00  1.60738713E+00  1.62883774E+00
  1.69704985E+00  1.73456900E+00  1.80152631E+00  1.83061706E+00  1.88382157E+00
  1.88880788E+00  1.92646288E+00  1.97953426E+00  1.99049572E+00  2.05136506E+00
  2.12294895E+00  2.12756894E+00  2.16259012E+00  2.18555618E+00  2.24460947E+00
  2.25850314E+00  2.29111256E+00  2.34885774E+00  2.36358707E+00  2.38533801E+00
  2.40089657E+00  2.43178883E+00  2.46930473E+00  2.47833281E+00  2.52803688E+00
  2.53574953E+00  2.55161825E+00  2.55743456E+00  2.61527661E+00  2.62879086E+00
  2.67267138E+00  2.67352214E+00  2.75747991E+00  2.81546922E+00  2.82104642E+00
  2.83089666E+00  2.91905065E+00  2.98462282E+00  3.04643381E+00  3.05138882E+00
  3.11337218E+00  3.11392743E+00  3.17004638E+00  3.20506179E+00  3.30572363E+00
  3.33283550E+00  3.36396238E+00  3.47478232E+00  3.67924586E+00  3.86830512E+00
  3.91948141E+00  4.18075741E+00  4.22102997E+00  4.22771406E+00  4.26761212E+00
  4.37128964E+00  4.50245203E+00  4.51958241E+00  4.55689584E+00  4.59154102E+00
  4.69746270E+00  4.80890217E+00  4.89929355E+00  4.91374553E+00  4.94352863E+00
  5.00235854E+00  5.00621504E+00  5.10621499E+00  5.13389965E+00  5.18196443E+00
  5.24840012E+00  5.26218502E+00  5.31860112E+00  5.32929575E+00  5.35990667E+00
  5.54799498E+00  5.64523673E+00  5.70331442E+00  5.88264836E+00  5.99865403E+00
  6.26493541E+00  6.29248087E+00  6.36329044E+00  6.38209994E+00  6.59407332E+00
  6.65520329E+00  6.66340187E+00  6.68888890E+00  6.72739338E+00  6.79954229E+00
  6.80139955E+00  6.85213749E+00  6.96716556E+00  7.00755466E+00  7.06642066E+00
  7.08461662E+00  7.14818735E+00  7.17318437E+00  7.17529028E+00  7.20061480E+00
  7.24519117E+00  7.24561152E+00  7.26953178E+00  7.34742516E+00  7.38758451E+00
  7.42167656E+00  7.44312101E+00  7.46225408E+00  7.56053579E+00  7.66054321E+00
  7.66399374E+00  7.79233339E+00  7.87774858E+00  7.95180613E+00  8.05309652E+00
  8.29522503E+00  8.50434217E+00  8.65232417E+00  1.36202621E+01  1.47443174E+01
  1.50935234E+01  1.57326066E+01
Alpha MO coefficients                      R   N=       42849
  5.71293455E-05 -2.95125099E-05 -1.12676271E-03  1.23767199E-05 -5.98420342E-05
  4.28158905E-05  0.00000000E+00 -1.16698418E-04 -3.10648949E-04  0.00000000E+00
 -1.16451839E-05 -3.69188900E-04  0.00000000E+00  4.13180823E-05  0.00000000E+00
  0.00000000E+00 -2.16234179E-05 -1.26465450E-06  2.31494934E-04  0.00000000E+00
  0.00000000E+00 -2.50067106E-05 -2.06502058E-04  3.03391547E-03 -9.17453915E-05
 -1.02809525E-04  3.62093520E-03  2.53354244E-03  1.01796467E-04 -5.26959734E-05
  0.00000000E+00 -7.27780904E-04  2.71822930E-04  0.00000000E+00 -1.99650504E-03
  1.12407785E-03  0.00000000E+00 -5.39562344E-04  3.78708575E-05  0.00000000E+00
  2.03407140E-05  0.00000000E+00  0.00000000E+00 -8.92278925E-06  4.63987387E-05
 -4.47171161E-04  0.00000000E+00  0.00000000E+00  4.21904881E-04 -6.75410440E-04
 -3.68726799E-04  0.00000000E+00  0.00000000E+00  5.59154197E-04 -7.59483254E-04
  0.00000000E+00  7.43666930E-05 -5.19503974E-05  0.00000000E+00  0.00000000E+00
 -2.79604605E-05  1.10027023E-04  0.00000000E+00  2.04527168E-04 -5.17448850E-05
  0.00000000E+00  0.00000000E+00 -1.77393143E-04  3.04936253E-04  9.76906076E-01
 -9.17077762E-03  4.34050899E-02  4.53881171E-04 -2.22611082E-03  4.47581988E-04
 -2.14726665E-03  0.00000000E+00 -3.19796183E-04  2.25555684E-03  0.00000000E+00
 -2.36155633E-03 -4.64522260E-04  0.00000000E+00 -2.33146452E-04  9.95590851E-05
  0.00000000E+00  7.91759957E-06  0.00000000E+00  0.00000000E+00 -4.20812547E-06
  3.95424010E-05  8.29899618E-04  0.00000000E+00  0.00000000E+00 -4.79668109E-04
 -1.67691609E-04 -1.36234586E-04  0.00000000E+00  0.00000000E+00 -5.49457410E-04
  3.65632698E-04  0.00000000E+00 -6.24775672E-06 -7.89700313E-05  0.00000000E+00
  0.00000000E+00 -9.49584911E-06  4.82212303E-05  0.00000000E+00  9.25720390E-05
 -2.10879841E-07  0.00000000E+00  0.00000000E+00 -3.36796289E-04  3.83698126E-04
  1.04684082E-04  4.58947237E-04 -3.24601689E-04 -8.18801217E-04  3.42936931E-04
 -4.44930914E-05 -9.97343568E-05  0.00000000E+00  7.00711821E-04  1.11089178E-03
  0.00000000E+00 -7.58968651E-04 -6.85102635E-04  0.00000000E+00  1.96633803E-04
  2.11134534E-04  0.00000000E+00 -5.24639377E-05  0.00000000E+00  0.00000000E+00
  1.94940389E-05  9.30848410E-05 -4.17807403E-04  0.00000000E+00  0.00000000E+00
  4.11151148E-05  1.08223458E-03  2.79248852E-05  0.00000000E+00  0.00000000E+00
 -3.13445157E-04  1.84781363E-05  0.00000000E+00 -7.90270644E-05 -1.13465582E-04
  0.00000000E+00  0.00000000E+00 -9.63425324E-05  1.05922401E-04  0.00000000E+00
 -1.23517796E-04  4.73602005E-05  0.00000000E+00  0.00000000E+00  1.68051906E-05
  5.23607630E-04 -6.81414994E-04  4.85675855E-05 -6.89437202E-05  1.68781170E-04
 -1.91317546E-04 -2.85004089E-05 -4.13711191E-05  0.00000000E+00  1.68039825E-04
  2.53325245E-04  0.00000000E+00  5.24334940E-04  3.07593448E-04  0.00000000E+00
 -2.26960501E-04 -6.39052505E-05  0.00000000E+00 -1.33556811E-05  0.00000000E+00
  0.00000000E+00  3.91230415E-06  1.53515751E-05 -1.37165571E-07  0.00000000E+00
  0.00000000E+00 -1.67076301E-04  1.08231148E-05 -2.38595252E-05  0.00000000E+00
  0.00000000E+00 -1.65099248E-04 -4.53512412E-05  0.00000000E+00 -5.59713153E-06
 -9.15463725E-06  0.00000000E+00  0.00000000E+00 -2.24351149E-05  9.64663069E-06
  0.00000000E+00  3.98867933E-05  6.13339011E-05  0.00000000E+00  0.00000000E+00
  1.59102749E-04 -1.05291661E-04  4.35136097E-05  1.08649285E-04 -1.57164103E-04
 -2.96923226E-05  1.36753130E-05  1.09244493E-05  0.00000000E+00  2.29668566E-04
  7.06704275E-05  0.00000000E+00  1.24033043E-04  1.48040065E-05  0.00000000E+00
  1.50606277E-05  0.00000000E+00  0.00000000E+00 -1.65797176E-05  1.42344399E-05
  3.31705269E-05  0.00000000E+00  0.00000000E+00 -9.91480966E-05  4.95883211E-05
 -2.58912070E-04  2.78212988E-05 -1.54765027E-05 -5.36968690E-04  1.91688659E-04
  7.18733899E-06  1.39231792E-05  0.00000000E+00 -5.27803529E-07 -4.37087101E-05
  0.00000000E+00  1.80406060E-04  1.68325153E-04  0.00000000E+00 -5.09938216E-05
  4.49558389E-05  0.00000000E+00 -1.49705845E-06  0.00000000E+00  0.00000000E+00
 -8.28201073E-06 -1.10516018E-05  2.14586221E-05  0.00000000E+00  0.00000000E+00
  4.96157735E-05  1.05501620E-04  6.31025321E-05  0.00000000E+00  0.00000000E+00
 -1.68495320E-05 -9.76358798E-05  0.00000000E+00  7.99580633E-06  1.06323131E-05
  0.00000000E+00  0.00000000E+00 -8.73773663E-07 -2.44819494E-05  0.00000000E+00
 -1.53693277E-05 -3.69758577E-05  0.00000000E+00  0.00000000E+00 -4.86015752E-06
 -1.75689222E-05  7.10181615E-04  2.46442515E-05 -1.97249738E-05  2.73556169E-04
 -4.04122586E-04  1.64967853E-05  2.69575649E-05  0.00000000E+00 -6.54702411E-05
 -1.51600537E-04  0.00000000E+00  1.22226295E-04 -1.97402274E-04  0.00000000E+00
 -1.58399553E-04  1.44483749E-04  0.00000000E+00 -4.11106884E-06  0.00000000E+00
  0.00000000E+00 -2.94256747E-05 -9.80915073E-06 -5.06619988E-05  0.00000000E+00
  0.00000000E+00  7.94006027E-05  1.21517209E-04 -6.30631239E-05  0.00000000E+00
  0.00000000E+00  4.07844268E-05  2.98083145E-05  0.00000000E+00  2.98331996E-06
  3.44888335E-06  0.00000000E+00  0.00000000E+00 -7.83084428E-06 -2.06634827E-06
  0.00000000E+00  4.14065274E-06 -2.54435245E-05  0.00000000E+00  0.00000000E+00
  9.38607625E-05 -1.55045267E-04  2.37348212E-04  1.35876954E-03 -1.48038999E-04
 -6.69887899E-04  9.02975200E-04  6.31294304E-05 -7.08096793E-05  0.00000000E+00
  5.70833266E-04 -2.08457579E-03  0.00000000E+00  1.21590285E-04  4.73917017E-04
  0.00000000E+00  1.85816637E-04 -3.07730747E-04  0.00000000E+00 -1.27739018E-04
  0.00000000E+00  0.00000000E+00 -2.04155619E-04 -1.58475347E-04 -4.61904563E-04
  0.00000000E+00  0.00000000E+00 -6.04563694E-04 -9.16445860E-04 -4.16807931E-05
  0.00000000E+00  0.00000000E+00  6.27608520E-05  1.08620785E-04  0.00000000E+00
  8.25688137E-06  3.69036236E-05  0.00000000E+00  0.00000000E+00 -2.43309190E-05
 -4.00878815E-06  0.00000000E+00 -1.34649805E-04  1.58890072E-04  0.00000000E+00
  0.00000000E+00 -3.13761847E-04 -2.99601662E-05  9.76646523E-01 -9.88617202E-03
  4.35751560E-02  3.66899944E-03 -8.97861320E-04 -4.51790002E-04  2.13007645E-03
  0.00000000E+00  5.13035264E-04 -2.50462910E-03  0.00000000E+00 -5.63705530E-05
  7.99592640E-04  0.00000000E+00  1.03257142E-04 -6.52143541E-05  0.00000000E+00
 -1.94658453E-04  0.00000000E+00  0.00000000E+00 -7.38769417E-05 -4.34166457E-05
  4.09480267E-04  0.00000000E+00  0.00000000E+00  8.58735522E-04  4.83099829E-04
 -2.08526952E-04  0.00000000E+00  0.00000000E+00 -1.30186470E-04 -3.70965685E-05
  0.00000000E+00 -4.27996718E-06  7.03444341E-05  0.00000000E+00  0.00000000E+00
 -3.01362222E-05  1.04765546E-05  0.00000000E+00 -9.01032198E-05  9.23993595E-05
  0.00000000E+00  0.00000000E+00 -1.62742480E-04  2.04366381E-04  3.81297936E-04
  2.10852185E-03  1.23574875E-03 -1.88224495E-05  4.97572190E-05  2.70188975E-04
  0.00000000E+00  3.42666186E-04  1.06032335E-03  0.00000000E+00 -1.08167279E-04
  2.48761734E-04  0.00000000E+00 -2.33185993E-05  0.00000000E+00  0.00000000E+00
  3.54264867E-05 -2.36454305E-05 -1.87050622E-04  0.00000000E+00  0.00000000E+00
 -3.65191240E-04  3.49503532E-04  9.76833869E-01 -9.17711471E-03  4.34706168E-02
  1.17852447E-04 -1.87660993E-03 -2.03537779E-03 -8.59613379E-04  0.00000000E+00
  2.07047233E-03  7.89373795E-04  0.00000000E+00 -4.08715512E-04  7.31509999E-04
  0.00000000E+00  2.15224364E-04 -3.14383108E-04  0.00000000E+00  2.91150991E-05
  0.00000000E+00  0.00000000E+00 -7.82707281E-05  5.77434510E-05  7.72218044E-04
  0.00000000E+00  0.00000000E+00 -1.93812391E-04  3.70562507E-04 -2.34827303E-04
  0.00000000E+00  0.00000000E+00  3.57394019E-04 -3.11075281E-05  0.00000000E+00
 -8.01591033E-05  1.43827493E-06  0.00000000E+00  0.00000000E+00  1.68988386E-05