title                                                                   
Freq      RMP2-FC                                                     Aug-CC-pVTZ         
Number of atoms                            I                5
Info1-9                                    I   N=           9
          33          24           0           0           0         100
           6           2           1
Full Title                                 C   N=           1
title       
Route                                      C   N=           4
#p freq mp2/aug-cc-pvtz density=current         
Charge                                     I                0
Multiplicity                               I                1
Number of electrons                        I               32
Number of alpha electrons                  I               16
Number of beta electrons                   I               16
Number of basis functions                  I              207
Number of independent functions            I              207
Number of point charges in /Mol/           I                0
Number of translation vectors              I                0
Atomic numbers                             I   N=           5
           1           8           8           7           8
Nuclear charges                            R   N=           5
  1.00000000E+00  8.00000000E+00  8.00000000E+00  7.00000000E+00  8.00000000E+00
Current cartesian coordinates              R   N=          15
  2.15624717E+00 -1.10326729E+00  0.00000000E+00  2.50807760E+00  7.25284566E-01
  0.00000000E+00 -2.76420120E-17  1.71459035E+00  0.00000000E+00 -1.88308637E+00
 -9.25186637E-02  0.00000000E+00 -1.12990792E+00 -2.22101268E+00  0.00000000E+00
Number of symbols in /Mol/                 I                0
Force Field                                I                0
Atom Types                                 C   N=           5
                                                            
Int Atom Types                             I   N=           5
           0           0           0           0           0
MM charges                                 R   N=           5
  0.00000000E+00  0.00000000E+00  0.00000000E+00  0.00000000E+00  0.00000000E+00
Integer atomic weights                     I   N=           5
           1          16          16          14          16
Real atomic weights                        R   N=           5
  1.00782504E+00  1.59949146E+01  1.59949146E+01  1.40030740E+01  1.59949146E+01
Atom fragment info                         I   N=           5
           0           0           0           0           0
Atom residue num                           I   N=           5
           0           0           0           0           0
Nuclear spins                              I   N=           5
           1           0           0           2           0
Nuclear ZEff                               R   N=           5
 -1.00000000E+00 -5.60000000E+00 -5.60000000E+00 -4.55000000E+00 -5.60000000E+00
Nuclear ZNuc                               R   N=           5
  1.00000000E+00  8.00000000E+00  8.00000000E+00  7.00000000E+00  8.00000000E+00
Nuclear QMom                               R   N=           5
  0.00000000E+00  0.00000000E+00  0.00000000E+00  2.04400000E+00  0.00000000E+00
Nuclear GFac                               R   N=           5
  2.79284600E+00  0.00000000E+00  0.00000000E+00  4.03761000E-01  0.00000000E+00
MicOpt                                     I   N=           5
          -1          -1          -1          -1          -1
Number of residues                         I                0
Number of secondary structures             I                0
SymInf integers                            I   N=          26
           1           2           1           1           1           1
           1          -1           0           0           0           0
           0           0           0           0           0           0
           0           0           0           0           0           0
           0           0
RotTr to input orientation                 R   N=          12
 -9.81987934E-01  0.00000000E+00  1.88943635E-01  1.88943635E-01  0.00000000E+00
  9.81987934E-01  0.00000000E+00  1.00000000E+00  0.00000000E+00  2.32586404E+00
  0.00000000E+00  6.75985986E-01
Number of contracted shells                I               65
Number of primitive shells                 I              119
Pure/Cartesian d shells                    I                0
Pure/Cartesian f shells                    I                0
Highest angular momentum                   I                3
Largest degree of contraction              I                7
Shell types                                I   N=          65
           0           0           0           0           1           1
           1          -2          -2           0           0           0
           0           0           1           1           1           1
          -2          -2          -2          -3          -3           0
           0           0           0           0           1           1
           1           1          -2          -2          -2          -3
          -3           0           0           0           0           0
           1           1           1           1          -2          -2
          -2          -3          -3           0           0           0
           0           0           1           1           1           1
          -2          -2          -2          -3          -3
Number of primitives per shell             I   N=          65
           3           1           1           1           1           1
           1           1           1           7           6           1
           1           1           3           1           1           1
           1           1           1           1           1           7
           6           1           1           1           3           1
           1           1           1           1           1           1
           1           7           6           1           1           1
           3           1           1           1           1           1
           1           1           1           7           6           1
           1           1           3           1           1           1
           1           1           1           1           1
Shell to atom map                          I   N=          65
           1           1           1           1           1           1
           1           1           1           2           2           2
           2           2           2           2           2           2
           2           2           2           2           2           3
           3           3           3           3           3           3
           3           3           3           3           3           3
           3           4           4           4           4           4
           4           4           4           4           4           4
           4           4           4           5           5           5
           5           5           5           5           5           5
           5           5           5           5           5
Primitive exponents                        R   N=         119
  3.38700000E+01  5.09500000E+00  1.15900000E+00  3.25800000E-01  1.02700000E-01
  2.52600000E-02  1.40700000E+00  3.88000000E-01  1.02000000E-01  1.05700000E+00
  2.47000000E-01  1.53300000E+04  2.29900000E+03  5.22400000E+02  1.47300000E+02
  4.75500000E+01  1.67600000E+01  6.20700000E+00  5.22400000E+02  1.47300000E+02
  4.75500000E+01  1.67600000E+01  6.20700000E+00  6.88200000E-01  1.75200000E+00
  2.38400000E-01  7.37600000E-02  3.44600000E+01  7.74900000E+00  2.28000000E+00
  7.15600000E-01  2.14000000E-01  5.97400000E-02  2.31400000E+00  6.45000000E-01
  2.14000000E-01  1.42800000E+00  5.00000000E-01  1.53300000E+04  2.29900000E+03
  5.22400000E+02  1.47300000E+02  4.75500000E+01  1.67600000E+01  6.20700000E+00
  5.22400000E+02  1.47300000E+02  4.75500000E+01  1.67600000E+01  6.20700000E+00
  6.88200000E-01  1.75200000E+00  2.38400000E-01  7.37600000E-02  3.44600000E+01
  7.74900000E+00  2.28000000E+00  7.15600000E-01  2.14000000E-01  5.97400000E-02
  2.31400000E+00  6.45000000E-01  2.14000000E-01  1.42800000E+00  5.00000000E-01
  1.14200000E+04  1.71200000E+03  3.89300000E+02  1.10000000E+02  3.55700000E+01
  1.25400000E+01  4.64400000E+00  3.89300000E+02  1.10000000E+02  3.55700000E+01
  1.25400000E+01  4.64400000E+00  5.11800000E-01  1.29300000E+00  1.78700000E-01
  5.76000000E-02  2.66300000E+01  5.94800000E+00  1.74200000E+00  5.55000000E-01
  1.72500000E-01  4.91000000E-02  1.65400000E+00  4.69000000E-01  1.51000000E-01
  1.09300000E+00  3.64000000E-01  1.53300000E+04  2.29900000E+03  5.22400000E+02
  1.47300000E+02  4.75500000E+01  1.67600000E+01  6.20700000E+00  5.22400000E+02
  1.47300000E+02  4.75500000E+01  1.67600000E+01  6.20700000E+00  6.88200000E-01
  1.75200000E+00  2.38400000E-01  7.37600000E-02  3.44600000E+01  7.74900000E+00
  2.28000000E+00  7.15600000E-01  2.14000000E-01  5.97400000E-02  2.31400000E+00
  6.45000000E-01  2.14000000E-01  1.42800000E+00  5.00000000E-01
Contraction coefficients                   R   N=         119
  2.54948632E-02  1.90362766E-01  8.52162022E-01  1.00000000E+00  1.00000000E+00
  1.00000000E+00  1.00000000E+00  1.00000000E+00  1.00000000E+00  1.00000000E+00
  1.00000000E+00  5.19808943E-04  4.02025621E-03  2.07128267E-02  8.10105536E-02
  2.35962985E-01  4.42653446E-01  3.57064423E-01 -4.42115008E-05 -1.22591041E-03
 -1.05517725E-02 -6.74452633E-02 -1.71198607E-01  1.07329856E+00  1.00000000E+00
  1.00000000E+00  1.00000000E+00  4.11634896E-02  2.57762836E-01  8.02419274E-01
  1.00000000E+00  1.00000000E+00  1.00000000E+00  1.00000000E+00  1.00000000E+00
  1.00000000E+00  1.00000000E+00  1.00000000E+00  5.19808943E-04  4.02025621E-03
  2.07128267E-02  8.10105536E-02  2.35962985E-01  4.42653446E-01  3.57064423E-01
 -4.42115008E-05 -1.22591041E-03 -1.05517725E-02 -6.74452633E-02 -1.71198607E-01
  1.07329856E+00  1.00000000E+00  1.00000000E+00  1.00000000E+00  4.11634896E-02
  2.57762836E-01  8.02419274E-01  1.00000000E+00  1.00000000E+00  1.00000000E+00
  1.00000000E+00  1.00000000E+00  1.00000000E+00  1.00000000E+00  1.00000000E+00
  5.34563860E-04  4.13435660E-03  2.12335358E-02  8.25006224E-02  2.38138871E-01
  4.42551547E-01  3.53757422E-01 -4.89867350E-05 -1.19527323E-03 -1.03490714E-02
 -6.48680190E-02 -1.71552477E-01  1.07289568E+00  1.00000000E+00  1.00000000E+00
  1.00000000E+00  3.98072123E-02  2.49002660E-01  8.10479727E-01  1.00000000E+00
  1.00000000E+00  1.00000000E+00  1.00000000E+00  1.00000000E+00  1.00000000E+00
  1.00000000E+00  1.00000000E+00  5.19808943E-04  4.02025621E-03  2.07128267E-02
  8.10105536E-02  2.35962985E-01  4.42653446E-01  3.57064423E-01 -4.42115008E-05
 -1.22591041E-03 -1.05517725E-02 -6.74452633E-02 -1.71198607E-01  1.07329856E+00
  1.00000000E+00  1.00000000E+00  1.00000000E+00  4.11634896E-02  2.57762836E-01
  8.02419274E-01  1.00000000E+00  1.00000000E+00  1.00000000E+00  1.00000000E+00
  1.00000000E+00  1.00000000E+00  1.00000000E+00  1.00000000E+00
Coordinates of each shell                  R   N=         195
  2.15624717E+00 -1.10326729E+00  0.00000000E+00  2.15624717E+00 -1.10326729E+00
  0.00000000E+00  2.15624717E+00 -1.10326729E+00  0.00000000E+00  2.15624717E+00
 -1.10326729E+00  0.00000000E+00  2.15624717E+00 -1.10326729E+00  0.00000000E+00
  2.15624717E+00 -1.10326729E+00  0.00000000E+00  2.15624717E+00 -1.10326729E+00
  0.00000000E+00  2.15624717E+00 -1.10326729E+00  0.00000000E+00  2.15624717E+00
 -1.10326729E+00  0.00000000E+00  2.50807760E+00  7.25284566E-01  0.00000000E+00
  2.50807760E+00  7.25284566E-01  0.00000000E+00  2.50807760E+00  7.25284566E-01
  0.00000000E+00  2.50807760E+00  7.25284566E-01  0.00000000E+00  2.50807760E+00
  7.25284566E-01  0.00000000E+00  2.50807760E+00  7.25284566E-01  0.00000000E+00
  2.50807760E+00  7.25284566E-01  0.00000000E+00  2.50807760E+00  7.25284566E-01
  0.00000000E+00  2.50807760E+00  7.25284566E-01  0.00000000E+00  2.50807760E+00
  7.25284566E-01  0.00000000E+00  2.50807760E+00  7.25284566E-01  0.00000000E+00
  2.50807760E+00  7.25284566E-01  0.00000000E+00  2.50807760E+00  7.25284566E-01
  0.00000000E+00  2.50807760E+00  7.25284566E-01  0.00000000E+00  1.46584063E-17
  1.71459035E+00  0.00000000E+00  1.46584063E-17  1.71459035E+00  0.00000000E+00
  1.46584063E-17  1.71459035E+00  0.00000000E+00  1.46584063E-17  1.71459035E+00
  0.00000000E+00  1.46584063E-17  1.71459035E+00  0.00000000E+00  1.46584063E-17
  1.71459035E+00  0.00000000E+00  1.46584063E-17  1.71459035E+00  0.00000000E+00
  1.46584063E-17  1.71459035E+00  0.00000000E+00  1.46584063E-17  1.71459035E+00
  0.00000000E+00  1.46584063E-17  1.71459035E+00  0.00000000E+00  1.46584063E-17
  1.71459035E+00  0.00000000E+00  1.46584063E-17  1.71459035E+00  0.00000000E+00
  1.46584063E-17  1.71459035E+00  0.00000000E+00  1.46584063E-17  1.71459035E+00
  0.00000000E+00 -1.88308637E+00 -9.25186637E-02  0.00000000E+00 -1.88308637E+00
 -9.25186637E-02  0.00000000E+00 -1.88308637E+00 -9.25186637E-02  0.00000000E+00
 -1.88308637E+00 -9.25186637E-02  0.00000000E+00 -1.88308637E+00 -9.25186637E-02
  0.00000000E+00 -1.88308637E+00 -9.25186637E-02  0.00000000E+00 -1.88308637E+00
 -9.25186637E-02  0.00000000E+00 -1.88308637E+00 -9.25186637E-02  0.00000000E+00
 -1.88308637E+00 -9.25186637E-02  0.00000000E+00 -1.88308637E+00 -9.25186637E-02
  0.00000000E+00 -1.88308637E+00 -9.25186637E-02  0.00000000E+00 -1.88308637E+00
 -9.25186637E-02  0.00000000E+00 -1.88308637E+00 -9.25186637E-02  0.00000000E+00
 -1.88308637E+00 -9.25186637E-02  0.00000000E+00 -1.12990792E+00 -2.22101268E+00
  0.00000000E+00 -1.12990792E+00 -2.22101268E+00  0.00000000E+00 -1.12990792E+00
 -2.22101268E+00  0.00000000E+00 -1.12990792E+00 -2.22101268E+00  0.00000000E+00
 -1.12990792E+00 -2.22101268E+00  0.00000000E+00 -1.12990792E+00 -2.22101268E+00
  0.00000000E+00 -1.12990792E+00 -2.22101268E+00  0.00000000E+00 -1.12990792E+00
 -2.22101268E+00  0.00000000E+00 -1.12990792E+00 -2.22101268E+00  0.00000000E+00
 -1.12990792E+00 -2.22101268E+00  0.00000000E+00 -1.12990792E+00 -2.22101268E+00
  0.00000000E+00 -1.12990792E+00 -2.22101268E+00  0.00000000E+00 -1.12990792E+00
 -2.22101268E+00  0.00000000E+00 -1.12990792E+00 -2.22101268E+00  0.00000000E+00
Num ILSW                                   I              100
ILSW                                       I   N=         100
           0           0           0           0           2           0
           0           0           0           0           0          -1
           5           0           0           0           2           0
           0           0           0           0           1           0
           1           0           0           0           0           0
           0           0      100000           0          -1           0
           0           0           0           0           0           0
           0           0           0           1           1           0
           0 -2000000000           1           0           0           0
           0           0           4          52           0           0
           0           0           0           0           0           0
           0           0           0           5           4           1
           0           0           0           0           0           0
           0           0           0           0           0           0
           0           0           0           0           0           0
           0           0           0           0           0           0
           0           0           0           0
Num RLSW                                   I               52
RLSW                                       R   N=          52
  1.00000000E+00  1.00000000E+00  1.00000000E+00  1.00000000E+00  1.00000000E+00
  0.00000000E+00  0.00000000E+00  1.00000000E+00  0.00000000E+00  0.00000000E+00
  0.00000000E+00  0.00000000E+00  1.00000000E+00  0.00000000E+00  0.00000000E+00
  0.00000000E+00  0.00000000E+00  1.00000000E+00  0.00000000E+00  0.00000000E+00
  0.00000000E+00  0.00000000E+00  1.00000000E+00  0.00000000E+00  0.00000000E+00
  0.00000000E+00  0.00000000E+00  1.00000000E+00  0.00000000E+00  0.00000000E+00
  0.00000000E+00  0.00000000E+00  1.00000000E+00  0.00000000E+00  0.00000000E+00
  0.00000000E+00  0.00000000E+00  0.00000000E+00  1.00000000E+00  1.00000000E+00
  0.00000000E+00  1.00000000E+00  0.00000000E+00  0.00000000E+00  0.00000000E+00
  0.00000000E+00  0.00000000E+00  0.00000000E+00  0.00000000E+00  0.00000000E+00
  0.00000000E+00  0.00000000E+00
MxBond                                     I                2
NBond                                      I   N=           5
           1           2           2           2           1
IBond                                      I   N=          10
           2           0           1           3           2           4
           3           5           4           0
RBond                                      R   N=          10
  1.00000000E+00  0.00000000E+00  1.00000000E+00  1.00000000E+00  1.00000000E+00
  1.00000000E+00  1.00000000E+00  2.00000000E+00  2.00000000E+00  0.00000000E+00
Virial Ratio                               R      2.002263110617588E+00
SCF Energy                                 R     -2.795065436435486E+02
MP2 Energy                                 R     -2.804550725378471E+02
Total Energy                               R     -2.804550725378471E+02
Post-SCF wavefunction norm                 R      1.583785608807503E+00
RMS Force                                  R      2.422652477550773E-03
RMS Density                                R      3.976622858432894E-09
NImag                                      I                0
Job Status                                 I                1
Nuclear derivative order                   I                2
External E-field                           R   N=          35
  0.00000000E+00  0.00000000E+00  0.00000000E+00  0.00000000E+00  0.00000000E+00
  0.00000000E+00  0.00000000E+00  0.00000000E+00  0.00000000E+00  0.00000000E+00
  0.00000000E+00  0.00000000E+00  0.00000000E+00  0.00000000E+00  0.00000000E+00
  0.00000000E+00  0.00000000E+00  0.00000000E+00  0.00000000E+00  0.00000000E+00
  0.00000000E+00  0.00000000E+00  0.00000000E+00  0.00000000E+00  0.00000000E+00
  0.00000000E+00  0.00000000E+00  0.00000000E+00  0.00000000E+00  0.00000000E+00
  0.00000000E+00  0.00000000E+00  0.00000000E+00  0.00000000E+00  0.00000000E+00
IOpCl                                      I                0
IROHF                                      I                0
Alpha Orbital Energies                     R   N=         207
 -2.07179500E+01 -2.06863832E+01 -2.06702741E+01 -1.58260749E+01 -1.64222852E+00
 -1.50533404E+00 -1.29385142E+00 -9.60101678E-01 -8.31848222E-01 -7.58152412E-01
 -7.38808171E-01 -6.39740540E-01 -6.18906262E-01 -6.17042416E-01 -5.03714518E-01
 -4.97023180E-01  3.47609801E-02  6.09043146E-02  9.51799472E-02  1.00929637E-01
  1.19736260E-01  1.22424397E-01  1.48532757E-01  1.51289527E-01  1.77660308E-01
  1.80724360E-01  1.89971926E-01  2.11054348E-01  2.16671275E-01  2.40485943E-01
  2.46538933E-01  2.68969669E-01  3.10666871E-01  3.14656793E-01  3.37864540E-01
  3.45211068E-01  3.48142513E-01  3.91056744E-01  4.46411290E-01  4.87682830E-01
  5.04701489E-01  5.19584440E-01  5.44825811E-01  5.61551334E-01  6.00576471E-01
  6.20641140E-01  6.38151995E-01  6.88523150E-01  7.17624814E-01  7.25116720E-01
  7.41311570E-01  7.60873416E-01  7.66145035E-01  7.95437019E-01  8.04291537E-01
  8.42008226E-01  8.43563404E-01  8.51400999E-01  8.84959448E-01  9.06640086E-01
  9.28496250E-01  9.47474744E-01  9.53576028E-01  1.01873158E+00  1.02887948E+00
  1.05276065E+00  1.06433054E+00  1.09124455E+00  1.13947700E+00  1.15586792E+00
  1.16921533E+00  1.22150268E+00  1.22489365E+00  1.24730811E+00  1.34549713E+00
  1.36761958E+00  1.37715954E+00  1.46665693E+00  1.48492581E+00  1.50670914E+00
  1.53891999E+00  1.59164581E+00  1.59793043E+00  1.60537493E+00  1.62433801E+00
  1.69597250E+00  1.74039534E+00  1.80272841E+00  1.83138893E+00  1.88869164E+00
  1.89023741E+00  1.92551993E+00  1.97810586E+00  1.98707563E+00  2.05063691E+00
  2.12697833E+00  2.12803307E+00  2.16316539E+00  2.18298939E+00  2.24098025E+00
  2.25656565E+00  2.29600860E+00  2.34431265E+00  2.35960410E+00  2.38887661E+00
  2.39851210E+00  2.43084375E+00  2.46723088E+00  2.47394440E+00  2.52519475E+00
  2.53231813E+00  2.54890757E+00  2.55764432E+00  2.61210924E+00  2.62617341E+00
  2.66772339E+00  2.66972304E+00  2.75391165E+00  2.80872149E+00  2.80964013E+00
  2.84366791E+00  2.91312182E+00  2.98496921E+00  3.04382341E+00  3.04509975E+00
  3.11620856E+00  3.12119160E+00  3.15759743E+00  3.21295792E+00  3.30721669E+00
  3.33232141E+00  3.36983023E+00  3.47074520E+00  3.68469997E+00  3.86813568E+00
  3.91523740E+00  4.17569086E+00  4.21401462E+00  4.22052433E+00  4.25663621E+00
  4.36357959E+00  4.49476177E+00  4.50434423E+00  4.55668547E+00  4.59571295E+00
  4.69945995E+00  4.81522309E+00  4.90275602E+00  4.91283494E+00  4.93640818E+00
  4.99992087E+00  5.00715415E+00  5.10944262E+00  5.12806369E+00  5.18191269E+00
  5.24739166E+00  5.25817013E+00  5.31747629E+00  5.31832599E+00  5.34935117E+00
  5.55382265E+00  5.64578660E+00  5.70235034E+00  5.88626724E+00  6.00079153E+00
  6.26829359E+00  6.29708741E+00  6.36067363E+00  6.38000138E+00  6.59580115E+00
  6.64568452E+00  6.65640235E+00  6.68467368E+00  6.72956902E+00  6.80019525E+00
  6.80498047E+00  6.84788647E+00  6.96701689E+00  7.02019297E+00  7.06603295E+00
  7.08153811E+00  7.13285831E+00  7.16011298E+00  7.17454099E+00  7.20213171E+00
  7.24489443E+00  7.24867806E+00  7.26931491E+00  7.34339977E+00  7.38627662E+00
  7.42288017E+00  7.44341567E+00  7.46337075E+00  7.55377246E+00  7.65551025E+00
  7.66572391E+00  7.79625539E+00  7.87935255E+00  7.94403396E+00  8.04293910E+00
  8.29838580E+00  8.49312950E+00  8.65624566E+00  1.36001173E+01  1.47940591E+01
  1.50743276E+01  1.57093255E+01
Alpha MO coefficients                      R   N=       42849
  6.69241288E-05 -7.90266022E-05 -1.12003815E-03  1.65831291E-05 -5.30490506E-05
  4.33633558E-05  0.00000000E+00 -8.11424112E-05 -3.11457583E-04  0.00000000E+00
  3.22354150E-05 -3.44233204E-04  0.00000000E+00  4.45219978E-05  0.00000000E+00
  0.00000000E+00 -2.72220850E-05  1.07130122E-05  2.21329150E-04  0.00000000E+00
  0.00000000E+00 -3.81626972E-05 -1.98783318E-04  3.30394184E-03 -9.61308947E-05
 -9.22399049E-05  3.62781391E-03  2.50874437E-03  1.05881723E-04 -5.16084068E-05
  0.00000000E+00 -7.52454595E-04  2.72084701E-04  0.00000000E+00 -2.06788811E-03
  1.00733063E-03  0.00000000E+00 -5.50918783E-04  4.90001366E-05  0.00000000E+00
  2.05032592E-05  0.00000000E+00  0.00000000E+00 -1.09416796E-05  4.34598843E-05
 -4.48711237E-04  0.00000000E+00  0.00000000E+00  4.62563932E-04 -6.44406510E-04
 -3.71351459E-04  0.00000000E+00  0.00000000E+00  5.89481094E-04 -6.96773570E-04
  0.00000000E+00  7.62772446E-05 -5.15464030E-05  0.00000000E+00  0.00000000E+00
 -3.31355570E-05  1.05767055E-04  0.00000000E+00  2.06109810E-04 -4.37103183E-05
  0.00000000E+00  0.00000000E+00 -1.97941764E-04  2.91119193E-04  9.76899989E-01
 -9.16390093E-03  4.34173391E-02  4.58979242E-04 -2.17179236E-03  4.71097728E-04
 -2.13899781E-03  0.00000000E+00 -3.37350603E-04  2.23413597E-03  0.00000000E+00
 -2.39555461E-03 -4.43115552E-04  0.00000000E+00 -2.58319143E-04  8.15042819E-05
  0.00000000E+00  4.67935741E-06  0.00000000E+00  0.00000000E+00 -2.29737025E-06
  4.01596664E-05  8.34625820E-04  0.00000000E+00  0.00000000E+00 -5.01728422E-04
 -1.91835689E-04 -1.38077555E-04  0.00000000E+00  0.00000000E+00 -5.06644608E-04
  3.61529463E-04  0.00000000E+00 -6.38979209E-06 -7.80415911E-05  0.00000000E+00
  0.00000000E+00 -1.01343143E-05  4.81796325E-05  0.00000000E+00  9.68559513E-05
 -1.33076180E-06  0.00000000E+00  0.00000000E+00 -3.57172643E-04  3.78995408E-04
  1.05279719E-04  4.63753990E-04 -3.23116246E-04 -8.60579950E-04  2.66662334E-04
 -4.57702735E-05 -1.00268137E-04  0.00000000E+00  7.16822992E-04  1.12195229E-03
  0.00000000E+00 -7.60369416E-04 -7.31061758E-04  0.00000000E+00  1.80622619E-04
  1.99788743E-04  0.00000000E+00 -5.36284600E-05  0.00000000E+00  0.00000000E+00
  1.95392990E-05  9.33380771E-05 -4.11167190E-04  0.00000000E+00  0.00000000E+00
  7.28813979E-05  1.08933023E-03  3.20657333E-05  0.00000000E+00  0.00000000E+00
 -2.99323111E-04  1.63117222E-05  0.00000000E+00 -7.94309419E-05 -1.14522504E-04
  0.00000000E+00  0.00000000E+00 -9.32442185E-05  1.06556746E-04  0.00000000E+00
 -1.19391433E-04  5.50530593E-05  0.00000000E+00  0.00000000E+00  3.31971816E-05
  5.36559950E-04 -7.33042538E-04  4.82669481E-05 -7.20798293E-05  1.82313366E-04
 -1.19561329E-04 -2.86637979E-05 -4.24630491E-05  0.00000000E+00  1.67266746E-04
  2.61819571E-04  0.00000000E+00  5.39205394E-04  3.35161636E-04  0.00000000E+00
 -2.07094250E-04 -5.10640254E-05  0.00000000E+00 -1.33147764E-05  0.00000000E+00
  0.00000000E+00  4.01146119E-06  1.46446553E-05 -2.58780903E-06  0.00000000E+00
  0.00000000E+00 -1.72142202E-04  1.25677081E-05 -3.00639642E-05  0.00000000E+00
  0.00000000E+00 -1.70748308E-04 -3.62881798E-05  0.00000000E+00 -5.37809688E-06
 -9.03124615E-06  0.00000000E+00  0.00000000E+00 -2.25307080E-05  8.92082013E-06
  0.00000000E+00  3.88899710E-05  5.96203439E-05  0.00000000E+00  0.00000000E+00
  1.61083834E-04 -1.03519690E-04  4.04713227E-05  6.82065507E-05 -1.33252993E-04
 -2.80749197E-05  7.48647500E-06  1.78841656E-06  0.00000000E+00  2.57684849E-04
  7.93706958E-05  0.00000000E+00  1.41781840E-04  3.36019732E-05  0.00000000E+00
  1.76588752E-05  0.00000000E+00  0.00000000E+00 -1.79215779E-05  1.16250523E-05
  3.09634329E-05  0.00000000E+00  0.00000000E+00 -1.10272496E-04  5.14804496E-05
 -2.69749213E-04  9.42845163E-06 -1.49628326E-05 -5.43667655E-04  1.62122744E-04
  5.70611521E-06  1.44607637E-05  0.00000000E+00  1.13292174E-05 -4.12088821E-05
  0.00000000E+00  1.59262069E-04  1.20965179E-04  0.00000000E+00 -5.31593766E-05
  4.44029588E-05  0.00000000E+00  2.91763559E-07  0.00000000E+00  0.00000000E+00
 -7.47202190E-06 -1.34222761E-05  1.43778315E-05  0.00000000E+00  0.00000000E+00
  3.54394751E-05  1.12104347E-04  5.37646216E-05  0.00000000E+00  0.00000000E+00
 -1.41950169E-05 -6.58587316E-05  0.00000000E+00  6.97648909E-06  1.14617255E-05
  0.00000000E+00  0.00000000E+00 -4.96954348E-08 -2.11701843E-05  0.00000000E+00
 -1.04216319E-05 -3.04631304E-05  0.00000000E+00  0.00000000E+00  4.67317857E-06
 -2.64628685E-05  7.61556049E-04  2.21304217E-05 -1.80369286E-05  3.00619865E-04
 -3.73183030E-04  1.62129715E-05  2.71222152E-05  0.00000000E+00 -6.42631206E-05
 -1.52422264E-04  0.00000000E+00  1.44873953E-04 -1.85251996E-04  0.00000000E+00
 -1.54450169E-04  1.39176636E-04  0.00000000E+00 -3.92484557E-06  0.00000000E+00
  0.00000000E+00 -2.99068452E-05 -9.35655011E-06 -5.22794123E-05  0.00000000E+00
  0.00000000E+00  8.43815690E-05  1.19920020E-04 -6.67333345E-05  0.00000000E+00
  0.00000000E+00  6.03328609E-05  2.91548143E-05  0.00000000E+00  2.69448960E-06
  3.22538705E-06  0.00000000E+00  0.00000000E+00 -7.39751114E-06 -1.58072326E-06
  0.00000000E+00  4.42364099E-06 -2.47309480E-05  0.00000000E+00  0.00000000E+00
  9.19806420E-05 -1.59066774E-04  2.37829497E-04  1.36088553E-03 -1.48304211E-04
 -6.75703117E-04  8.86816199E-04  6.25618829E-05 -7.12323924E-05  0.00000000E+00
  5.62936047E-04 -2.08812024E-03  0.00000000E+00  1.23126310E-04  4.64452905E-04
  0.00000000E+00  1.79662646E-04 -3.07172983E-04  0.00000000E+00 -1.28104396E-04
  0.00000000E+00  0.00000000E+00 -2.05632707E-04 -1.56905016E-04 -4.60345429E-04
  0.00000000E+00  0.00000000E+00 -6.11711030E-04 -9.10700470E-04 -4.07460605E-05
  0.00000000E+00  0.00000000E+00  6.44645853E-05  1.08448148E-04  0.00000000E+00
  8.53567638E-06  3.67024598E-05  0.00000000E+00  0.00000000E+00 -2.39313728E-05
 -3.63576231E-06  0.00000000E+00 -1.32953202E-04  1.61094733E-04  0.00000000E+00
  0.00000000E+00 -3.13704468E-04 -2.29780177E-05  9.76647835E-01 -9.88687376E-03
  4.35727414E-02  3.66481563E-03 -8.87896072E-04 -4.46264783E-04  2.13275940E-03
  0.00000000E+00  5.03806549E-04 -2.50665699E-03  0.00000000E+00 -5.42019173E-05
  7.99862251E-04  0.00000000E+00  1.04749597E-04 -6.54253656E-05  0.00000000E+00
 -1.94421861E-04  0.00000000E+00  0.00000000E+00 -7.52090142E-05 -4.31703116E-05
  4.09837662E-04  0.00000000E+00  0.00000000E+00  8.61862712E-04  4.77022438E-04
 -2.08892217E-04  0.00000000E+00  0.00000000E+00 -1.31477613E-04 -3.88854166E-05
  0.00000000E+00 -3.73650879E-06  7.04227347E-05  0.00000000E+00  0.00000000E+00
 -3.05715303E-05  1.08805069E-05  0.00000000E+00 -9.02625889E-05  9.25683493E-05
  0.00000000E+00  0.00000000E+00 -1.59057960E-04  2.06844473E-04  3.82769047E-04
  2.00239006E-03  1.21670664E-03 -2.06609012E-05  4.42512788E-05  2.72237252E-04
  0.00000000E+00  3.95609783E-04  1.05193262E-03  0.00000000E+00 -6.98098816E-05
  2.41591530E-04  0.00000000E+00 -2.36683569E-05  0.00000000E+00  0.00000000E+00
  2.98928396E-05 -2.48062240E-05 -2.02158693E-04  0.00000000E+00  0.00000000E+00
 -3.62783658E-04  3.74366826E-04  9.76838673E-01 -9.18367716E-03  4.34572059E-02
  1.64334879E-04 -1.91990522E-03 -2.02158146E-03 -8.92804475E-04  0.00000000E+00
  2.05894776E-03  8.30258093E-04  0.00000000E+00 -4.27070636E-04  6.68986517E-04
  0.00000000E+00  2.24783548E-04 -2.89337402E-04  0.00000000E+00  3.26367890E-05
  0.00000000E+00  0.00000000E+00 -7.72693158E-05  5.79605715E-05  7.66971401E-04
  0.00000000E+00  0.00000000E+00 -2.17132714E-04  3.41943598E-04 -2.30242344E-04
  0.00000000E+00  0.00000000E+00  3.49726866E-04  3.99301666E-06  0.00000000E+00
 -8.01443319E-05 -1.65507332E-07  0.00000000E+00  0.00000000E+00  1.87450762E-05