title                                                                   
Freq      RMP2-FC                                                     Aug-CC-pVTZ         
Number of atoms                            I                5
Info1-9                                    I   N=           9
          33          24           0           0           0         100
           6           2           1
Full Title                                 C   N=           1
title       
Route                                      C   N=           4
#p freq mp2/aug-cc-pvtz density=current         
Charge                                     I                0
Multiplicity                               I                1
Number of electrons                        I               32
Number of alpha electrons                  I               16
Number of beta electrons                   I               16
Number of basis functions                  I              207
Number of independent functions            I              207
Number of point charges in /Mol/           I                0
Number of translation vectors              I                0
Atomic numbers                             I   N=           5
           1           8           8           7           8
Nuclear charges                            R   N=           5
  1.00000000E+00  8.00000000E+00  8.00000000E+00  7.00000000E+00  8.00000000E+00
Current cartesian coordinates              R   N=          15
  2.11661654E+00 -1.11051127E+00  0.00000000E+00  2.49399256E+00  7.12939819E-01
  4.93038066E-32 -2.36329215E-16  1.73723485E+00  3.69778549E-32 -1.86043630E+00
 -9.31842461E-02  4.93038066E-32 -1.13068787E+00 -2.22982455E+00  0.00000000E+00
Number of symbols in /Mol/                 I                0
Force Field                                I                0
Atom Types                                 C   N=           5
                                                            
Int Atom Types                             I   N=           5
           0           0           0           0           0
MM charges                                 R   N=           5
  0.00000000E+00  0.00000000E+00  0.00000000E+00  0.00000000E+00  0.00000000E+00
Integer atomic weights                     I   N=           5
           1          16          16          14          16
Real atomic weights                        R   N=           5
  1.00782504E+00  1.59949146E+01  1.59949146E+01  1.40030740E+01  1.59949146E+01
Atom fragment info                         I   N=           5
           0           0           0           0           0
Atom residue num                           I   N=           5
           0           0           0           0           0
Nuclear spins                              I   N=           5
           1           0           0           2           0
Nuclear ZEff                               R   N=           5
 -1.00000000E+00 -5.60000000E+00 -5.60000000E+00 -4.55000000E+00 -5.60000000E+00
Nuclear ZNuc                               R   N=           5
  1.00000000E+00  8.00000000E+00  8.00000000E+00  7.00000000E+00  8.00000000E+00
Nuclear QMom                               R   N=           5
  0.00000000E+00  0.00000000E+00  0.00000000E+00  2.04400000E+00  0.00000000E+00
Nuclear GFac                               R   N=           5
  2.79284600E+00  0.00000000E+00  0.00000000E+00  4.03761000E-01  0.00000000E+00
MicOpt                                     I   N=           5
          -1          -1          -1          -1          -1
Number of residues                         I                0
Number of secondary structures             I                0
SymInf integers                            I   N=          26
           1           2           1           1           1           1
           1          -1           0           0           0           0
           0           0           0           0           0           0
           0           0           0           0           0           0
           0           0
RotTr to input orientation                 R   N=          12
 -9.79248668E-01  1.22463064E-16  2.02662393E-01  2.02662393E-01 -2.53445916E-17
  9.79248668E-01  1.25058188E-16  1.00000000E+00  0.00000000E+00  2.29775280E+00
  0.00000000E+00  6.58508110E-01
Number of contracted shells                I               65
Number of primitive shells                 I              119
Pure/Cartesian d shells                    I                0
Pure/Cartesian f shells                    I                0
Highest angular momentum                   I                3
Largest degree of contraction              I                7
Shell types                                I   N=          65
           0           0           0           0           1           1
           1          -2          -2           0           0           0
           0           0           1           1           1           1
          -2          -2          -2          -3          -3           0
           0           0           0           0           1           1
           1           1          -2          -2          -2          -3
          -3           0           0           0           0           0
           1           1           1           1          -2          -2
          -2          -3          -3           0           0           0
           0           0           1           1           1           1
          -2          -2          -2          -3          -3
Number of primitives per shell             I   N=          65
           3           1           1           1           1           1
           1           1           1           7           6           1
           1           1           3           1           1           1
           1           1           1           1           1           7
           6           1           1           1           3           1
           1           1           1           1           1           1
           1           7           6           1           1           1
           3           1           1           1           1           1
           1           1           1           7           6           1
           1           1           3           1           1           1
           1           1           1           1           1
Shell to atom map                          I   N=          65
           1           1           1           1           1           1
           1           1           1           2           2           2
           2           2           2           2           2           2
           2           2           2           2           2           3
           3           3           3           3           3           3
           3           3           3           3           3           3
           3           4           4           4           4           4
           4           4           4           4           4           4
           4           4           4           5           5           5
           5           5           5           5           5           5
           5           5           5           5           5
Primitive exponents                        R   N=         119
  3.38700000E+01  5.09500000E+00  1.15900000E+00  3.25800000E-01  1.02700000E-01
  2.52600000E-02  1.40700000E+00  3.88000000E-01  1.02000000E-01  1.05700000E+00
  2.47000000E-01  1.53300000E+04  2.29900000E+03  5.22400000E+02  1.47300000E+02
  4.75500000E+01  1.67600000E+01  6.20700000E+00  5.22400000E+02  1.47300000E+02
  4.75500000E+01  1.67600000E+01  6.20700000E+00  6.88200000E-01  1.75200000E+00
  2.38400000E-01  7.37600000E-02  3.44600000E+01  7.74900000E+00  2.28000000E+00
  7.15600000E-01  2.14000000E-01  5.97400000E-02  2.31400000E+00  6.45000000E-01
  2.14000000E-01  1.42800000E+00  5.00000000E-01  1.53300000E+04  2.29900000E+03
  5.22400000E+02  1.47300000E+02  4.75500000E+01  1.67600000E+01  6.20700000E+00
  5.22400000E+02  1.47300000E+02  4.75500000E+01  1.67600000E+01  6.20700000E+00
  6.88200000E-01  1.75200000E+00  2.38400000E-01  7.37600000E-02  3.44600000E+01
  7.74900000E+00  2.28000000E+00  7.15600000E-01  2.14000000E-01  5.97400000E-02
  2.31400000E+00  6.45000000E-01  2.14000000E-01  1.42800000E+00  5.00000000E-01
  1.14200000E+04  1.71200000E+03  3.89300000E+02  1.10000000E+02  3.55700000E+01
  1.25400000E+01  4.64400000E+00  3.89300000E+02  1.10000000E+02  3.55700000E+01
  1.25400000E+01  4.64400000E+00  5.11800000E-01  1.29300000E+00  1.78700000E-01
  5.76000000E-02  2.66300000E+01  5.94800000E+00  1.74200000E+00  5.55000000E-01
  1.72500000E-01  4.91000000E-02  1.65400000E+00  4.69000000E-01  1.51000000E-01
  1.09300000E+00  3.64000000E-01  1.53300000E+04  2.29900000E+03  5.22400000E+02
  1.47300000E+02  4.75500000E+01  1.67600000E+01  6.20700000E+00  5.22400000E+02
  1.47300000E+02  4.75500000E+01  1.67600000E+01  6.20700000E+00  6.88200000E-01
  1.75200000E+00  2.38400000E-01  7.37600000E-02  3.44600000E+01  7.74900000E+00
  2.28000000E+00  7.15600000E-01  2.14000000E-01  5.97400000E-02  2.31400000E+00
  6.45000000E-01  2.14000000E-01  1.42800000E+00  5.00000000E-01
Contraction coefficients                   R   N=         119
  2.54948632E-02  1.90362766E-01  8.52162022E-01  1.00000000E+00  1.00000000E+00
  1.00000000E+00  1.00000000E+00  1.00000000E+00  1.00000000E+00  1.00000000E+00
  1.00000000E+00  5.19808943E-04  4.02025621E-03  2.07128267E-02  8.10105536E-02
  2.35962985E-01  4.42653446E-01  3.57064423E-01 -4.42115008E-05 -1.22591041E-03
 -1.05517725E-02 -6.74452633E-02 -1.71198607E-01  1.07329856E+00  1.00000000E+00
  1.00000000E+00  1.00000000E+00  4.11634896E-02  2.57762836E-01  8.02419274E-01
  1.00000000E+00  1.00000000E+00  1.00000000E+00  1.00000000E+00  1.00000000E+00
  1.00000000E+00  1.00000000E+00  1.00000000E+00  5.19808943E-04  4.02025621E-03
  2.07128267E-02  8.10105536E-02  2.35962985E-01  4.42653446E-01  3.57064423E-01
 -4.42115008E-05 -1.22591041E-03 -1.05517725E-02 -6.74452633E-02 -1.71198607E-01
  1.07329856E+00  1.00000000E+00  1.00000000E+00  1.00000000E+00  4.11634896E-02
  2.57762836E-01  8.02419274E-01  1.00000000E+00  1.00000000E+00  1.00000000E+00
  1.00000000E+00  1.00000000E+00  1.00000000E+00  1.00000000E+00  1.00000000E+00
  5.34563860E-04  4.13435660E-03  2.12335358E-02  8.25006224E-02  2.38138871E-01
  4.42551547E-01  3.53757422E-01 -4.89867350E-05 -1.19527323E-03 -1.03490714E-02
 -6.48680190E-02 -1.71552477E-01  1.07289568E+00  1.00000000E+00  1.00000000E+00
  1.00000000E+00  3.98072123E-02  2.49002660E-01  8.10479727E-01  1.00000000E+00
  1.00000000E+00  1.00000000E+00  1.00000000E+00  1.00000000E+00  1.00000000E+00
  1.00000000E+00  1.00000000E+00  5.19808943E-04  4.02025621E-03  2.07128267E-02
  8.10105536E-02  2.35962985E-01  4.42653446E-01  3.57064423E-01 -4.42115008E-05
 -1.22591041E-03 -1.05517725E-02 -6.74452633E-02 -1.71198607E-01  1.07329856E+00
  1.00000000E+00  1.00000000E+00  1.00000000E+00  4.11634896E-02  2.57762836E-01
  8.02419274E-01  1.00000000E+00  1.00000000E+00  1.00000000E+00  1.00000000E+00
  1.00000000E+00  1.00000000E+00  1.00000000E+00  1.00000000E+00
Coordinates of each shell                  R   N=         195
  2.11661654E+00 -1.11051127E+00 -1.21715077E-33  2.11661654E+00 -1.11051127E+00
 -1.21715077E-33  2.11661654E+00 -1.11051127E+00 -1.21715077E-33  2.11661654E+00
 -1.11051127E+00 -1.21715077E-33  2.11661654E+00 -1.11051127E+00 -1.21715077E-33
  2.11661654E+00 -1.11051127E+00 -1.21715077E-33  2.11661654E+00 -1.11051127E+00
 -1.21715077E-33  2.11661654E+00 -1.11051127E+00 -1.21715077E-33  2.11661654E+00
 -1.11051127E+00 -1.21715077E-33  2.49399256E+00  7.12939819E-01  2.22463933E-33
  2.49399256E+00  7.12939819E-01  2.22463933E-33  2.49399256E+00  7.12939819E-01
  2.22463933E-33  2.49399256E+00  7.12939819E-01  2.22463933E-33  2.49399256E+00
  7.12939819E-01  2.22463933E-33  2.49399256E+00  7.12939819E-01  2.22463933E-33
  2.49399256E+00  7.12939819E-01  2.22463933E-33  2.49399256E+00  7.12939819E-01
  2.22463933E-33  2.49399256E+00  7.12939819E-01  2.22463933E-33  2.49399256E+00
  7.12939819E-01  2.22463933E-33  2.49399256E+00  7.12939819E-01  2.22463933E-33
  2.49399256E+00  7.12939819E-01  2.22463933E-33  2.49399256E+00  7.12939819E-01
  2.22463933E-33  2.49399256E+00  7.12939819E-01  2.22463933E-33  1.62209831E-17
  1.73723485E+00  3.14437819E-33  1.62209831E-17  1.73723485E+00  3.14437819E-33
  1.62209831E-17  1.73723485E+00  3.14437819E-33  1.62209831E-17  1.73723485E+00
  3.14437819E-33  1.62209831E-17  1.73723485E+00  3.14437819E-33  1.62209831E-17
  1.73723485E+00  3.14437819E-33  1.62209831E-17  1.73723485E+00  3.14437819E-33
  1.62209831E-17  1.73723485E+00  3.14437819E-33  1.62209831E-17  1.73723485E+00
  3.14437819E-33  1.62209831E-17  1.73723485E+00  3.14437819E-33  1.62209831E-17
  1.73723485E+00  3.14437819E-33  1.62209831E-17  1.73723485E+00  3.14437819E-33
  1.62209831E-17  1.73723485E+00  3.14437819E-33  1.62209831E-17  1.73723485E+00
  3.14437819E-33 -1.86043630E+00 -9.31842461E-02 -8.65563795E-34 -1.86043630E+00
 -9.31842461E-02 -8.65563795E-34 -1.86043630E+00 -9.31842461E-02 -8.65563795E-34
 -1.86043630E+00 -9.31842461E-02 -8.65563795E-34 -1.86043630E+00 -9.31842461E-02
 -8.65563795E-34 -1.86043630E+00 -9.31842461E-02 -8.65563795E-34 -1.86043630E+00
 -9.31842461E-02 -8.65563795E-34 -1.86043630E+00 -9.31842461E-02 -8.65563795E-34
 -1.86043630E+00 -9.31842461E-02 -8.65563795E-34 -1.86043630E+00 -9.31842461E-02
 -8.65563795E-34 -1.86043630E+00 -9.31842461E-02 -8.65563795E-34 -1.86043630E+00
 -9.31842461E-02 -8.65563795E-34 -1.86043630E+00 -9.31842461E-02 -8.65563795E-34
 -1.86043630E+00 -9.31842461E-02 -8.65563795E-34 -1.13068787E+00 -2.22982455E+00
 -4.45950535E-33 -1.13068787E+00 -2.22982455E+00 -4.45950535E-33 -1.13068787E+00
 -2.22982455E+00 -4.45950535E-33 -1.13068787E+00 -2.22982455E+00 -4.45950535E-33
 -1.13068787E+00 -2.22982455E+00 -4.45950535E-33 -1.13068787E+00 -2.22982455E+00
 -4.45950535E-33 -1.13068787E+00 -2.22982455E+00 -4.45950535E-33 -1.13068787E+00
 -2.22982455E+00 -4.45950535E-33 -1.13068787E+00 -2.22982455E+00 -4.45950535E-33
 -1.13068787E+00 -2.22982455E+00 -4.45950535E-33 -1.13068787E+00 -2.22982455E+00
 -4.45950535E-33 -1.13068787E+00 -2.22982455E+00 -4.45950535E-33 -1.13068787E+00
 -2.22982455E+00 -4.45950535E-33 -1.13068787E+00 -2.22982455E+00 -4.45950535E-33
Num ILSW                                   I              100
ILSW                                       I   N=         100
           0           0           0           0           2           0
           0           0           0           0           0          -1
           5           0           0           0           2           0
           0           0           0           0           1           0
           1           0           0           0           0           0
           0           0      100000           0          -1           0
           0           0           0           0           0           0
           0           0           0           1           1           0
           0 -2000000000           1           0           0           0
           0           0           4          52           0           0
           0           0           0           0           0           0
           0           0           0           5           4           1
           0           0           0           0           0           0
           0           0           0           0           0           0
           0           0           0           0           0           0
           0           0           0           0           0           0
           0           0           0           0
Num RLSW                                   I               52
RLSW                                       R   N=          52
  1.00000000E+00  1.00000000E+00  1.00000000E+00  1.00000000E+00  1.00000000E+00
  0.00000000E+00  0.00000000E+00  1.00000000E+00  0.00000000E+00  0.00000000E+00
  0.00000000E+00  0.00000000E+00  1.00000000E+00  0.00000000E+00  0.00000000E+00
  0.00000000E+00  0.00000000E+00  1.00000000E+00  0.00000000E+00  0.00000000E+00
  0.00000000E+00  0.00000000E+00  1.00000000E+00  0.00000000E+00  0.00000000E+00
  0.00000000E+00  0.00000000E+00  1.00000000E+00  0.00000000E+00  0.00000000E+00
  0.00000000E+00  0.00000000E+00  1.00000000E+00  0.00000000E+00  0.00000000E+00
  0.00000000E+00  0.00000000E+00  0.00000000E+00  1.00000000E+00  1.00000000E+00
  0.00000000E+00  1.00000000E+00  0.00000000E+00  0.00000000E+00  0.00000000E+00
  0.00000000E+00  0.00000000E+00  0.00000000E+00  0.00000000E+00  0.00000000E+00
  0.00000000E+00  0.00000000E+00
MxBond                                     I                2
NBond                                      I   N=           5
           1           2           2           2           1
IBond                                      I   N=          10
           2           0           1           3           2           4
           3           5           4           0
RBond                                      R   N=          10
  1.00000000E+00  0.00000000E+00  1.00000000E+00  1.00000000E+00  1.00000000E+00
  1.00000000E+00  1.00000000E+00  2.00000000E+00  2.00000000E+00  0.00000000E+00
Virial Ratio                               R      2.002263792150558E+00
SCF Energy                                 R     -2.795062868119957E+02
MP2 Energy                                 R     -2.804550587512410E+02
Total Energy                               R     -2.804550587512410E+02
Post-SCF wavefunction norm                 R      1.583815537609002E+00
RMS Force                                  R      2.982288433726994E-03
RMS Density                                R      4.283879181102472E-09
NImag                                      I                0
Job Status                                 I                1
Nuclear derivative order                   I                2
External E-field                           R   N=          35
  0.00000000E+00  0.00000000E+00  0.00000000E+00  0.00000000E+00  0.00000000E+00
  0.00000000E+00  0.00000000E+00  0.00000000E+00  0.00000000E+00  0.00000000E+00
  0.00000000E+00  0.00000000E+00  0.00000000E+00  0.00000000E+00  0.00000000E+00
  0.00000000E+00  0.00000000E+00  0.00000000E+00  0.00000000E+00  0.00000000E+00
  0.00000000E+00  0.00000000E+00  0.00000000E+00  0.00000000E+00  0.00000000E+00
  0.00000000E+00  0.00000000E+00  0.00000000E+00  0.00000000E+00  0.00000000E+00
  0.00000000E+00  0.00000000E+00  0.00000000E+00  0.00000000E+00  0.00000000E+00
IOpCl                                      I                0
IROHF                                      I                0
Alpha Orbital Energies                     R   N=         207
 -2.07211744E+01 -2.06879029E+01 -2.06691279E+01 -1.58251553E+01 -1.64263576E+00
 -1.50699219E+00 -1.29436312E+00 -9.60777023E-01 -8.32988834E-01 -7.58652963E-01
 -7.39756358E-01 -6.39233016E-01 -6.19969420E-01 -6.19247237E-01 -5.02310103E-01
 -4.98253640E-01  3.49464042E-02  6.10139725E-02  9.51032358E-02  1.00581663E-01
  1.19749357E-01  1.22693945E-01  1.48873205E-01  1.51824462E-01  1.77730350E-01
  1.80373175E-01  1.89515948E-01  2.11124085E-01  2.16740484E-01  2.42611309E-01
  2.46355252E-01  2.68130781E-01  3.11089663E-01  3.15280557E-01  3.38094071E-01
  3.42612237E-01  3.46127422E-01  3.92644252E-01  4.46618580E-01  4.88539480E-01
  5.04406842E-01  5.19105273E-01  5.43939301E-01  5.62433179E-01  5.99315645E-01
  6.20935729E-01  6.39755031E-01  6.89171585E-01  7.17431244E-01  7.23744163E-01
  7.38663254E-01  7.65211296E-01  7.67646851E-01  7.95646054E-01  8.04384375E-01
  8.40309009E-01  8.43158168E-01  8.50762775E-01  8.84655485E-01  9.06541748E-01
  9.26787321E-01  9.48983252E-01  9.54762640E-01  1.01782381E+00  1.03158363E+00
  1.05391423E+00  1.06488293E+00  1.09265860E+00  1.14216684E+00  1.15559708E+00
  1.17241424E+00  1.22018337E+00  1.22653812E+00  1.24620970E+00  1.35015187E+00
  1.36433306E+00  1.37054137E+00  1.46921332E+00  1.48343713E+00  1.50739963E+00
  1.54102195E+00  1.58970752E+00  1.59620921E+00  1.60513286E+00  1.62822903E+00
  1.69578135E+00  1.74008245E+00  1.80164173E+00  1.82801241E+00  1.88712186E+00
  1.89652626E+00  1.92645579E+00  1.98043257E+00  1.99155325E+00  2.04862874E+00
  2.12050503E+00  2.13008859E+00  2.16389022E+00  2.18560279E+00  2.24162885E+00
  2.25967264E+00  2.29475092E+00  2.35185126E+00  2.36100898E+00  2.38616838E+00
  2.40196800E+00  2.43361539E+00  2.47055017E+00  2.47829255E+00  2.52592332E+00
  2.53739949E+00  2.54490815E+00  2.55635634E+00  2.61143168E+00  2.62693168E+00
  2.66943123E+00  2.67053278E+00  2.75636875E+00  2.80830014E+00  2.80960827E+00
  2.84300707E+00  2.91633303E+00  2.97518129E+00  3.04885490E+00  3.05482570E+00
  3.11479804E+00  3.11830172E+00  3.17197414E+00  3.21258928E+00  3.30549257E+00
  3.33513594E+00  3.36012955E+00  3.48245142E+00  3.67695404E+00  3.86866147E+00
  3.92348259E+00  4.17957643E+00  4.21482811E+00  4.21767041E+00  4.26526291E+00
  4.36449225E+00  4.50155287E+00  4.50780088E+00  4.55997121E+00  4.60047473E+00
  4.69125497E+00  4.80771768E+00  4.90490376E+00  4.91209200E+00  4.94416563E+00
  4.99486788E+00  5.00452380E+00  5.10846770E+00  5.13510290E+00  5.17601561E+00
  5.24739955E+00  5.25454748E+00  5.31549676E+00  5.33635454E+00  5.35282117E+00
  5.54167064E+00  5.64240104E+00  5.70075079E+00  5.88324891E+00  6.00278159E+00
  6.26390283E+00  6.29591170E+00  6.35879853E+00  6.37613224E+00  6.59884536E+00
  6.64664261E+00  6.65781819E+00  6.68335242E+00  6.72274583E+00  6.80663861E+00
  6.80728501E+00  6.83785372E+00  6.97011930E+00  7.01848153E+00  7.06609579E+00
  7.08057524E+00  7.14093907E+00  7.16159113E+00  7.17536852E+00  7.20244794E+00
  7.24384319E+00  7.24423035E+00  7.26932198E+00  7.34791829E+00  7.39604055E+00
  7.42169545E+00  7.44269447E+00  7.46142750E+00  7.55996342E+00  7.65068711E+00
  7.66366562E+00  7.79438759E+00  7.88183913E+00  7.95286148E+00  8.05283804E+00
  8.30400947E+00  8.50307421E+00  8.65262904E+00  1.36091438E+01  1.47622954E+01
  1.50978325E+01  1.57281081E+01
Alpha MO coefficients                      R   N=       42849
  6.59475055E-05 -6.01094552E-05 -1.11238104E-03  8.96141687E-06 -5.23203379E-05
  4.22598893E-05  0.00000000E+00 -8.02756664E-05 -3.05190978E-04  0.00000000E+00
  4.63001134E-06 -3.45114504E-04  0.00000000E+00  4.36586926E-05  0.00000000E+00
  0.00000000E+00 -2.51333991E-05  1.29320511E-05  2.24345095E-04  0.00000000E+00
  0.00000000E+00 -3.61412538E-05 -2.02794935E-04  3.03513424E-03 -9.55713581E-05
 -1.02291499E-04  3.59595014E-03  2.48205491E-03  1.04278198E-04 -5.20232456E-05
  0.00000000E+00 -7.38352432E-04  2.76581603E-04  0.00000000E+00 -2.01799541E-03
  1.08262303E-03  0.00000000E+00 -5.37723509E-04  3.93189549E-05  0.00000000E+00
  2.06084030E-05  0.00000000E+00  0.00000000E+00 -9.44652078E-06  4.40892962E-05
 -4.46211141E-04  0.00000000E+00  0.00000000E+00  4.37523430E-04 -6.55404683E-04
 -3.66782337E-04  0.00000000E+00  0.00000000E+00  5.57050599E-04 -7.29306049E-04
  0.00000000E+00  7.51689042E-05 -5.15106901E-05  0.00000000E+00  0.00000000E+00
 -2.94016618E-05  1.07185009E-04  0.00000000E+00  2.07450907E-04 -5.07946092E-05
  0.00000000E+00  0.00000000E+00 -1.76727763E-04  2.98194767E-04  9.76907528E-01
 -9.17053760E-03  4.34020799E-02  5.17104924E-04 -2.21252604E-03  4.72150082E-04
 -2.14409136E-03  0.00000000E+00 -3.41983203E-04  2.25025652E-03  0.00000000E+00
 -2.34722093E-03 -4.90950181E-04  0.00000000E+00 -2.25777811E-04  9.74572251E-05
  0.00000000E+00  7.92928158E-06  0.00000000E+00  0.00000000E+00 -4.24812596E-06
  3.75625951E-05  8.28380504E-04  0.00000000E+00  0.00000000E+00 -4.72429094E-04
 -1.79269000E-04 -1.31214900E-04  0.00000000E+00  0.00000000E+00 -5.47126855E-04
  3.56066539E-04  0.00000000E+00 -6.07584246E-06 -7.85874198E-05  0.00000000E+00
  0.00000000E+00 -9.64744882E-06  4.87551916E-05  0.00000000E+00  9.39378340E-05
 -1.49597905E-06  0.00000000E+00  0.00000000E+00 -3.47688682E-04  3.73540936E-04
  1.04244155E-04  4.58191419E-04 -3.22637192E-04 -8.19073408E-04  3.63559461E-04
 -4.19573942E-05 -1.00818244E-04  0.00000000E+00  6.90797898E-04  1.11916461E-03
  0.00000000E+00 -8.24499608E-04 -7.59032638E-04  0.00000000E+00  1.88054547E-04
  2.07410314E-04  0.00000000E+00 -5.22898203E-05  0.00000000E+00  0.00000000E+00
  2.01788105E-05  9.23730289E-05 -4.14871779E-04  0.00000000E+00  0.00000000E+00
  1.64358823E-05  1.09139589E-03  2.77736080E-05  0.00000000E+00  0.00000000E+00
 -3.47741423E-04  2.14301320E-05  0.00000000E+00 -7.73863360E-05 -1.15253041E-04
  0.00000000E+00  0.00000000E+00 -9.77824796E-05  1.04952507E-04  0.00000000E+00
 -1.18807707E-04  5.12053495E-05  0.00000000E+00  0.00000000E+00  1.07804768E-05
  5.31318897E-04 -6.80511991E-04  2.14499066E-05 -7.27871305E-05  1.48102863E-04
 -1.74809166E-04 -3.06388406E-05 -4.35667769E-05  0.00000000E+00  1.77721567E-04
  2.48995657E-04  0.00000000E+00  5.97795533E-04  3.45506104E-04  0.00000000E+00
 -2.01391841E-04 -6.31846577E-05  0.00000000E+00 -1.15297403E-05  0.00000000E+00
  0.00000000E+00  5.14929017E-06  1.18708442E-05 -1.09165558E-05  0.00000000E+00
  0.00000000E+00 -1.74350658E-04  3.45360456E-05 -3.71529183E-05  0.00000000E+00
  0.00000000E+00 -1.75858383E-04 -3.35932538E-06  0.00000000E+00 -6.65907798E-06
 -1.13866254E-05  0.00000000E+00  0.00000000E+00 -2.31767230E-05  7.82276658E-06
  0.00000000E+00  4.04110711E-05  5.68910287E-05  0.00000000E+00  0.00000000E+00
  1.43125537E-04 -1.05745915E-04  4.24655541E-05  6.40777064E-05 -1.42169817E-04
 -3.06015253E-05  1.16287191E-05  5.12027993E-06  0.00000000E+00  2.54464882E-04
  8.60274512E-05  0.00000000E+00  1.38484680E-04  3.46759579E-05  0.00000000E+00
  1.67317137E-05  0.00000000E+00  0.00000000E+00 -1.79142963E-05  1.20542995E-05
  2.79660218E-05  0.00000000E+00  0.00000000E+00 -1.14963376E-04  5.19641636E-05
 -2.47524822E-04  1.47448011E-05 -1.54885577E-05 -5.74159616E-04  1.62235066E-04
  7.60617275E-06  1.37912084E-05  0.00000000E+00  2.09962465E-06 -3.70845270E-05
  0.00000000E+00  1.90435668E-04  1.15992608E-04  0.00000000E+00 -5.01167553E-05
  4.48103545E-05  0.00000000E+00 -2.50209796E-07  0.00000000E+00  0.00000000E+00
 -8.87936263E-06 -1.33572010E-05  1.54820128E-05  0.00000000E+00  0.00000000E+00
  5.06470978E-05  1.10868943E-04  5.55439801E-05  0.00000000E+00  0.00000000E+00
 -2.70802844E-05 -7.29315504E-05  0.00000000E+00  8.01391548E-06  1.07177131E-05
  0.00000000E+00  0.00000000E+00 -1.50722425E-06 -2.21292575E-05  0.00000000E+00
 -1.14656186E-05 -3.06588996E-05  0.00000000E+00  0.00000000E+00 -4.08959598E-06
 -2.32238027E-05  7.04128410E-04  1.85257464E-05 -2.40755186E-05  3.10010030E-04
 -3.78013986E-04  1.77532569E-05  3.08253987E-05  0.00000000E+00 -7.01020171E-05
 -1.64635738E-04  0.00000000E+00  1.90652889E-04 -2.31157167E-04  0.00000000E+00
 -1.52436484E-04  1.42953819E-04  0.00000000E+00 -3.66091438E-06  0.00000000E+00
  0.00000000E+00 -2.67450094E-05 -1.13186519E-05 -5.70337275E-05  0.00000000E+00
  0.00000000E+00  6.06103974E-05  1.33413909E-04 -6.94797216E-05  0.00000000E+00
  0.00000000E+00  2.99984118E-05  2.11919644E-05  0.00000000E+00  4.16250102E-06
  6.04084540E-06  0.00000000E+00  0.00000000E+00 -5.63829974E-06 -4.07893640E-07
  0.00000000E+00  2.78543817E-06 -2.56700463E-05  0.00000000E+00  0.00000000E+00
  1.06750452E-04 -1.45619182E-04  2.37811195E-04  1.36528953E-03 -1.44730020E-04
 -6.66302999E-04  9.06012267E-04  6.39743467E-05 -6.96284329E-05  0.00000000E+00
  5.40371551E-04 -2.11252070E-03  0.00000000E+00  1.17328629E-04  5.28760923E-04
  0.00000000E+00  1.77507782E-04 -3.14366364E-04  0.00000000E+00 -1.28437011E-04
  0.00000000E+00  0.00000000E+00 -2.07259485E-04 -1.52477459E-04 -4.57782137E-04
  0.00000000E+00  0.00000000E+00 -6.42153792E-04 -9.16267411E-04 -4.17380132E-05
  0.00000000E+00  0.00000000E+00  5.12253968E-05  1.19655556E-04  0.00000000E+00
  9.74297811E-06  3.89558818E-05  0.00000000E+00  0.00000000E+00 -2.49824445E-05
 -3.32654445E-06  0.00000000E+00 -1.31050107E-04  1.54655344E-04  0.00000000E+00
  0.00000000E+00 -3.27180294E-04 -3.15763517E-05  9.76649717E-01 -9.89051531E-03
  4.35692502E-02  3.68547748E-03 -8.98158084E-04 -4.05564777E-04  2.14559504E-03
  0.00000000E+00  4.61101748E-04 -2.52662230E-03  0.00000000E+00 -4.78938130E-05
  7.96780112E-04  0.00000000E+00  1.08584702E-04 -6.60126954E-05  0.00000000E+00
 -1.92997934E-04  0.00000000E+00  0.00000000E+00 -7.58456767E-05 -4.36268776E-05
  4.10585865E-04  0.00000000E+00  0.00000000E+00  8.84886689E-04  4.54615510E-04
 -2.04357308E-04  0.00000000E+00  0.00000000E+00 -1.26313894E-04 -3.35206693E-05
  0.00000000E+00 -3.55055195E-06  7.06423694E-05  0.00000000E+00  0.00000000E+00
 -2.98947369E-05  1.18574008E-05  0.00000000E+00 -8.79648373E-05  9.38474818E-05
  0.00000000E+00  0.00000000E+00 -1.55583107E-04  2.18161387E-04  3.80130936E-04
  1.97411102E-03  1.32323305E-03 -2.23930746E-05  4.73731261E-05  2.68973609E-04
  0.00000000E+00  4.02333764E-04  1.03610860E-03  0.00000000E+00 -1.10235493E-04
  2.43190335E-04  0.00000000E+00 -2.24555573E-05  0.00000000E+00  0.00000000E+00
  3.10759930E-05 -2.73998624E-05 -2.13439354E-04  0.00000000E+00  0.00000000E+00
 -3.50450979E-04  3.96357430E-04  9.76835216E-01 -9.18649616E-03  4.34636377E-02
  1.64811071E-04 -1.91189405E-03 -2.03892267E-03 -8.54570873E-04  0.00000000E+00
  2.07302648E-03  7.89147038E-04  0.00000000E+00 -4.29164097E-04  6.56360286E-04
  0.00000000E+00  2.26925891E-04 -2.96588665E-04  0.00000000E+00  3.13697210E-05
  0.00000000E+00  0.00000000E+00 -7.39803504E-05  6.13377011E-05  7.65391627E-04
  0.00000000E+00  0.00000000E+00 -2.10079893E-04  3.51258401E-04 -2.35305665E-04
  0.00000000E+00  0.00000000E+00  3.44660470E-04  4.96172124E-06  0.00000000E+00
 -8.01482991E-05  1.63990503E-06  0.00000000E+00  0.00000000E+00  1.70647763E-05