title                                                                   
Freq      RMP2-FC                                                     Aug-CC-pVTZ         
Number of atoms                            I                5
Info1-9                                    I   N=           9
          33          24           0           0           0         100
           6           2           1
Full Title                                 C   N=           1
title       
Route                                      C   N=           4
#p freq mp2/aug-cc-pvtz density=current         
Charge                                     I                0
Multiplicity                               I                1
Number of electrons                        I               32
Number of alpha electrons                  I               16
Number of beta electrons                   I               16
Number of basis functions                  I              207
Number of independent functions            I              207
Number of point charges in /Mol/           I                0
Number of translation vectors              I                0
Atomic numbers                             I   N=           5
           1           8           8           7           8
Nuclear charges                            R   N=           5
  1.00000000E+00  8.00000000E+00  8.00000000E+00  7.00000000E+00  8.00000000E+00
Current cartesian coordinates              R   N=          15
  2.07979653E+00 -1.14549415E+00 -9.86076132E-32  2.48060545E+00  6.72949894E-01
 -1.47911420E-31 -1.20833888E-16  1.72925279E+00  1.84889275E-32 -1.88383607E+00
 -7.70746818E-02  4.93038066E-32 -1.09222345E+00 -2.19157557E+00  3.69778549E-32
Number of symbols in /Mol/                 I                0
Force Field                                I                0
Atom Types                                 C   N=           5
                                                            
Int Atom Types                             I   N=           5
           0           0           0           0           0
MM charges                                 R   N=           5
  0.00000000E+00  0.00000000E+00  0.00000000E+00  0.00000000E+00  0.00000000E+00
Integer atomic weights                     I   N=           5
           1          16          16          14          16
Real atomic weights                        R   N=           5
  1.00782504E+00  1.59949146E+01  1.59949146E+01  1.40030740E+01  1.59949146E+01
Atom fragment info                         I   N=           5
           0           0           0           0           0
Atom residue num                           I   N=           5
           0           0           0           0           0
Nuclear spins                              I   N=           5
           1           0           0           2           0
Nuclear ZEff                               R   N=           5
 -1.00000000E+00 -5.60000000E+00 -5.60000000E+00 -4.55000000E+00 -5.60000000E+00
Nuclear ZNuc                               R   N=           5
  1.00000000E+00  8.00000000E+00  8.00000000E+00  7.00000000E+00  8.00000000E+00
Nuclear QMom                               R   N=           5
  0.00000000E+00  0.00000000E+00  0.00000000E+00  2.04400000E+00  0.00000000E+00
Nuclear GFac                               R   N=           5
  2.79284600E+00  0.00000000E+00  0.00000000E+00  4.03761000E-01  0.00000000E+00
MicOpt                                     I   N=           5
          -1          -1          -1          -1          -1
Number of residues                         I                0
Number of secondary structures             I                0
SymInf integers                            I   N=          26
           1           2           1           1           1           1
           1          -1           0           0           0           0
           0           0           0           0           0           0
           0           0           0           0           0           0
           0           0
RotTr to input orientation                 R   N=          12
 -9.76559733E-01 -1.25669517E-16  2.15246575E-01  2.15246575E-01  2.76992101E-17
  9.76559733E-01 -1.28685950E-16  1.00000000E+00  0.00000000E+00  2.27760923E+00
  0.00000000E+00  6.70974383E-01
Number of contracted shells                I               65
Number of primitive shells                 I              119
Pure/Cartesian d shells                    I                0
Pure/Cartesian f shells                    I                0
Highest angular momentum                   I                3
Largest degree of contraction              I                7
Shell types                                I   N=          65
           0           0           0           0           1           1
           1          -2          -2           0           0           0
           0           0           1           1           1           1
          -2          -2          -2          -3          -3           0
           0           0           0           0           1           1
           1           1          -2          -2          -2          -3
          -3           0           0           0           0           0
           1           1           1           1          -2          -2
          -2          -3          -3           0           0           0
           0           0           1           1           1           1
          -2          -2          -2          -3          -3
Number of primitives per shell             I   N=          65
           3           1           1           1           1           1
           1           1           1           7           6           1
           1           1           3           1           1           1
           1           1           1           1           1           7
           6           1           1           1           3           1
           1           1           1           1           1           1
           1           7           6           1           1           1
           3           1           1           1           1           1
           1           1           1           7           6           1
           1           1           3           1           1           1
           1           1           1           1           1
Shell to atom map                          I   N=          65
           1           1           1           1           1           1
           1           1           1           2           2           2
           2           2           2           2           2           2
           2           2           2           2           2           3
           3           3           3           3           3           3
           3           3           3           3           3           3
           3           4           4           4           4           4
           4           4           4           4           4           4
           4           4           4           5           5           5
           5           5           5           5           5           5
           5           5           5           5           5
Primitive exponents                        R   N=         119
  3.38700000E+01  5.09500000E+00  1.15900000E+00  3.25800000E-01  1.02700000E-01
  2.52600000E-02  1.40700000E+00  3.88000000E-01  1.02000000E-01  1.05700000E+00
  2.47000000E-01  1.53300000E+04  2.29900000E+03  5.22400000E+02  1.47300000E+02
  4.75500000E+01  1.67600000E+01  6.20700000E+00  5.22400000E+02  1.47300000E+02
  4.75500000E+01  1.67600000E+01  6.20700000E+00  6.88200000E-01  1.75200000E+00
  2.38400000E-01  7.37600000E-02  3.44600000E+01  7.74900000E+00  2.28000000E+00
  7.15600000E-01  2.14000000E-01  5.97400000E-02  2.31400000E+00  6.45000000E-01
  2.14000000E-01  1.42800000E+00  5.00000000E-01  1.53300000E+04  2.29900000E+03
  5.22400000E+02  1.47300000E+02  4.75500000E+01  1.67600000E+01  6.20700000E+00
  5.22400000E+02  1.47300000E+02  4.75500000E+01  1.67600000E+01  6.20700000E+00
  6.88200000E-01  1.75200000E+00  2.38400000E-01  7.37600000E-02  3.44600000E+01
  7.74900000E+00  2.28000000E+00  7.15600000E-01  2.14000000E-01  5.97400000E-02
  2.31400000E+00  6.45000000E-01  2.14000000E-01  1.42800000E+00  5.00000000E-01
  1.14200000E+04  1.71200000E+03  3.89300000E+02  1.10000000E+02  3.55700000E+01
  1.25400000E+01  4.64400000E+00  3.89300000E+02  1.10000000E+02  3.55700000E+01
  1.25400000E+01  4.64400000E+00  5.11800000E-01  1.29300000E+00  1.78700000E-01
  5.76000000E-02  2.66300000E+01  5.94800000E+00  1.74200000E+00  5.55000000E-01
  1.72500000E-01  4.91000000E-02  1.65400000E+00  4.69000000E-01  1.51000000E-01
  1.09300000E+00  3.64000000E-01  1.53300000E+04  2.29900000E+03  5.22400000E+02
  1.47300000E+02  4.75500000E+01  1.67600000E+01  6.20700000E+00  5.22400000E+02
  1.47300000E+02  4.75500000E+01  1.67600000E+01  6.20700000E+00  6.88200000E-01
  1.75200000E+00  2.38400000E-01  7.37600000E-02  3.44600000E+01  7.74900000E+00
  2.28000000E+00  7.15600000E-01  2.14000000E-01  5.97400000E-02  2.31400000E+00
  6.45000000E-01  2.14000000E-01  1.42800000E+00  5.00000000E-01
Contraction coefficients                   R   N=         119
  2.54948632E-02  1.90362766E-01  8.52162022E-01  1.00000000E+00  1.00000000E+00
  1.00000000E+00  1.00000000E+00  1.00000000E+00  1.00000000E+00  1.00000000E+00
  1.00000000E+00  5.19808943E-04  4.02025621E-03  2.07128267E-02  8.10105536E-02
  2.35962985E-01  4.42653446E-01  3.57064423E-01 -4.42115008E-05 -1.22591041E-03
 -1.05517725E-02 -6.74452633E-02 -1.71198607E-01  1.07329856E+00  1.00000000E+00
  1.00000000E+00  1.00000000E+00  4.11634896E-02  2.57762836E-01  8.02419274E-01
  1.00000000E+00  1.00000000E+00  1.00000000E+00  1.00000000E+00  1.00000000E+00
  1.00000000E+00  1.00000000E+00  1.00000000E+00  5.19808943E-04  4.02025621E-03
  2.07128267E-02  8.10105536E-02  2.35962985E-01  4.42653446E-01  3.57064423E-01
 -4.42115008E-05 -1.22591041E-03 -1.05517725E-02 -6.74452633E-02 -1.71198607E-01
  1.07329856E+00  1.00000000E+00  1.00000000E+00  1.00000000E+00  4.11634896E-02
  2.57762836E-01  8.02419274E-01  1.00000000E+00  1.00000000E+00  1.00000000E+00
  1.00000000E+00  1.00000000E+00  1.00000000E+00  1.00000000E+00  1.00000000E+00
  5.34563860E-04  4.13435660E-03  2.12335358E-02  8.25006224E-02  2.38138871E-01
  4.42551547E-01  3.53757422E-01 -4.89867350E-05 -1.19527323E-03 -1.03490714E-02
 -6.48680190E-02 -1.71552477E-01  1.07289568E+00  1.00000000E+00  1.00000000E+00
  1.00000000E+00  3.98072123E-02  2.49002660E-01  8.10479727E-01  1.00000000E+00
  1.00000000E+00  1.00000000E+00  1.00000000E+00  1.00000000E+00  1.00000000E+00
  1.00000000E+00  1.00000000E+00  5.19808943E-04  4.02025621E-03  2.07128267E-02
  8.10105536E-02  2.35962985E-01  4.42653446E-01  3.57064423E-01 -4.42115008E-05
 -1.22591041E-03 -1.05517725E-02 -6.74452633E-02 -1.71198607E-01  1.07329856E+00
  1.00000000E+00  1.00000000E+00  1.00000000E+00  4.11634896E-02  2.57762836E-01
  8.02419274E-01  1.00000000E+00  1.00000000E+00  1.00000000E+00  1.00000000E+00
  1.00000000E+00  1.00000000E+00  1.00000000E+00  1.00000000E+00
Coordinates of each shell                  R   N=         195
  2.07979653E+00 -1.14549415E+00 -8.72453970E-32  2.07979653E+00 -1.14549415E+00
 -8.72453970E-32  2.07979653E+00 -1.14549415E+00 -8.72453970E-32  2.07979653E+00
 -1.14549415E+00 -8.72453970E-32  2.07979653E+00 -1.14549415E+00 -8.72453970E-32
  2.07979653E+00 -1.14549415E+00 -8.72453970E-32  2.07979653E+00 -1.14549415E+00
 -8.72453970E-32  2.07979653E+00 -1.14549415E+00 -8.72453970E-32  2.07979653E+00
 -1.14549415E+00 -8.72453970E-32  2.48060545E+00  6.72949894E-01 -8.38548496E-32
  2.48060545E+00  6.72949894E-01 -8.38548496E-32  2.48060545E+00  6.72949894E-01
 -8.38548496E-32  2.48060545E+00  6.72949894E-01 -8.38548496E-32  2.48060545E+00
  6.72949894E-01 -8.38548496E-32  2.48060545E+00  6.72949894E-01 -8.38548496E-32
  2.48060545E+00  6.72949894E-01 -8.38548496E-32  2.48060545E+00  6.72949894E-01
 -8.38548496E-32  2.48060545E+00  6.72949894E-01 -8.38548496E-32  2.48060545E+00
  6.72949894E-01 -8.38548496E-32  2.48060545E+00  6.72949894E-01 -8.38548496E-32
  2.48060545E+00  6.72949894E-01 -8.38548496E-32  2.48060545E+00  6.72949894E-01
 -8.38548496E-32  2.48060545E+00  6.72949894E-01 -8.38548496E-32 -2.87084487E-17
  1.72925279E+00  1.71331864E-32 -2.87084487E-17  1.72925279E+00  1.71331864E-32
 -2.87084487E-17  1.72925279E+00  1.71331864E-32 -2.87084487E-17  1.72925279E+00
  1.71331864E-32 -2.87084487E-17  1.72925279E+00  1.71331864E-32 -2.87084487E-17
  1.72925279E+00  1.71331864E-32 -2.87084487E-17  1.72925279E+00  1.71331864E-32
 -2.87084487E-17  1.72925279E+00  1.71331864E-32 -2.87084487E-17  1.72925279E+00
  1.71331864E-32 -2.87084487E-17  1.72925279E+00  1.71331864E-32 -2.87084487E-17
  1.72925279E+00  1.71331864E-32 -2.87084487E-17  1.72925279E+00  1.71331864E-32
 -2.87084487E-17  1.72925279E+00  1.71331864E-32 -2.87084487E-17  1.72925279E+00
  1.71331864E-32 -1.88383607E+00 -7.70746818E-02  6.79813663E-32 -1.88383607E+00
 -7.70746818E-02  6.79813663E-32 -1.88383607E+00 -7.70746818E-02  6.79813663E-32
 -1.88383607E+00 -7.70746818E-02  6.79813663E-32 -1.88383607E+00 -7.70746818E-02
  6.79813663E-32 -1.88383607E+00 -7.70746818E-02  6.79813663E-32 -1.88383607E+00
 -7.70746818E-02  6.79813663E-32 -1.88383607E+00 -7.70746818E-02  6.79813663E-32
 -1.88383607E+00 -7.70746818E-02  6.79813663E-32 -1.88383607E+00 -7.70746818E-02
  6.79813663E-32 -1.88383607E+00 -7.70746818E-02  6.79813663E-32 -1.88383607E+00
 -7.70746818E-02  6.79813663E-32 -1.88383607E+00 -7.70746818E-02  6.79813663E-32
 -1.88383607E+00 -7.70746818E-02  6.79813663E-32 -1.09222345E+00 -2.19157557E+00
  1.81436422E-32 -1.09222345E+00 -2.19157557E+00  1.81436422E-32 -1.09222345E+00
 -2.19157557E+00  1.81436422E-32 -1.09222345E+00 -2.19157557E+00  1.81436422E-32
 -1.09222345E+00 -2.19157557E+00  1.81436422E-32 -1.09222345E+00 -2.19157557E+00
  1.81436422E-32 -1.09222345E+00 -2.19157557E+00  1.81436422E-32 -1.09222345E+00
 -2.19157557E+00  1.81436422E-32 -1.09222345E+00 -2.19157557E+00  1.81436422E-32
 -1.09222345E+00 -2.19157557E+00  1.81436422E-32 -1.09222345E+00 -2.19157557E+00
  1.81436422E-32 -1.09222345E+00 -2.19157557E+00  1.81436422E-32 -1.09222345E+00
 -2.19157557E+00  1.81436422E-32 -1.09222345E+00 -2.19157557E+00  1.81436422E-32
Num ILSW                                   I              100
ILSW                                       I   N=         100
           0           0           0           0           2           0
           0           0           0           0           0          -1
           5           0           0           0           2           0
           0           0           0           0           1           0
           1           0           0           0           0           0
           0           0      100000           0          -1           0
           0           0           0           0           0           0
           0           0           0           1           1           0
           0 -2000000000           1           0           0           0
           0           0           4          52           0           0
           0           0           0           0           0           0
           0           0           0           5           4           1
           0           0           0           0           0           0
           0           0           0           0           0           0
           0           0           0           0           0           0
           0           0           0           0           0           0
           0           0           0           0
Num RLSW                                   I               52
RLSW                                       R   N=          52
  1.00000000E+00  1.00000000E+00  1.00000000E+00  1.00000000E+00  1.00000000E+00
  0.00000000E+00  0.00000000E+00  1.00000000E+00  0.00000000E+00  0.00000000E+00
  0.00000000E+00  0.00000000E+00  1.00000000E+00  0.00000000E+00  0.00000000E+00
  0.00000000E+00  0.00000000E+00  1.00000000E+00  0.00000000E+00  0.00000000E+00
  0.00000000E+00  0.00000000E+00  1.00000000E+00  0.00000000E+00  0.00000000E+00
  0.00000000E+00  0.00000000E+00  1.00000000E+00  0.00000000E+00  0.00000000E+00
  0.00000000E+00  0.00000000E+00  1.00000000E+00  0.00000000E+00  0.00000000E+00
  0.00000000E+00  0.00000000E+00  0.00000000E+00  1.00000000E+00  1.00000000E+00
  0.00000000E+00  1.00000000E+00  0.00000000E+00  0.00000000E+00  0.00000000E+00
  0.00000000E+00  0.00000000E+00  0.00000000E+00  0.00000000E+00  0.00000000E+00
  0.00000000E+00  0.00000000E+00
MxBond                                     I                2
NBond                                      I   N=           5
           1           2           2           2           1
IBond                                      I   N=          10
           2           0           1           3           2           4
           3           5           4           0
RBond                                      R   N=          10
  1.00000000E+00  0.00000000E+00  1.00000000E+00  1.00000000E+00  1.00000000E+00
  1.00000000E+00  1.00000000E+00  2.00000000E+00  2.00000000E+00  0.00000000E+00
Virial Ratio                               R      2.002194805927151E+00
SCF Energy                                 R     -2.795062542796352E+02
MP2 Energy                                 R     -2.804551268167545E+02
Total Energy                               R     -2.804551268167545E+02
Post-SCF wavefunction norm                 R      1.583674577270830E+00
RMS Force                                  R      2.339350195820755E-03
RMS Density                                R      4.525743448257611E-09
NImag                                      I                0
Job Status                                 I                1
Nuclear derivative order                   I                2
External E-field                           R   N=          35
  0.00000000E+00  0.00000000E+00  0.00000000E+00  0.00000000E+00  0.00000000E+00
  0.00000000E+00  0.00000000E+00  0.00000000E+00  0.00000000E+00  0.00000000E+00
  0.00000000E+00  0.00000000E+00  0.00000000E+00  0.00000000E+00  0.00000000E+00
  0.00000000E+00  0.00000000E+00  0.00000000E+00  0.00000000E+00  0.00000000E+00
  0.00000000E+00  0.00000000E+00  0.00000000E+00  0.00000000E+00  0.00000000E+00
  0.00000000E+00  0.00000000E+00  0.00000000E+00  0.00000000E+00  0.00000000E+00
  0.00000000E+00  0.00000000E+00  0.00000000E+00  0.00000000E+00  0.00000000E+00
IOpCl                                      I                0
IROHF                                      I                0
Alpha Orbital Energies                     R   N=         207
 -2.07187148E+01 -2.06867182E+01 -2.06675698E+01 -1.58267058E+01 -1.64565363E+00
 -1.50364822E+00 -1.29331731E+00 -9.60012753E-01 -8.36140784E-01 -7.59148214E-01
 -7.40167593E-01 -6.35838817E-01 -6.17772333E-01 -6.17659190E-01 -5.06503158E-01
 -4.96917129E-01  3.51588313E-02  5.96345534E-02  9.51201729E-02  1.00210276E-01
  1.19689690E-01  1.22542691E-01  1.49645234E-01  1.52232412E-01  1.77366203E-01
  1.80312463E-01  1.89989234E-01  2.10920620E-01  2.16670111E-01  2.42440271E-01
  2.46357338E-01  2.69753485E-01  3.14004856E-01  3.17966368E-01  3.37901118E-01
  3.44386271E-01  3.47699570E-01  3.92521703E-01  4.50833653E-01  4.88701819E-01
  5.05637879E-01  5.17900204E-01  5.46060121E-01  5.60106928E-01  5.99062200E-01
  6.19526749E-01  6.37933520E-01  6.89900120E-01  7.16736856E-01  7.24578354E-01
  7.46983271E-01  7.62483076E-01  7.66993455E-01  7.95835580E-01  8.08105869E-01
  8.39395265E-01  8.43169908E-01  8.52406894E-01  8.85746488E-01  9.08831208E-01
  9.33955935E-01  9.46688029E-01  9.53737933E-01  1.01879068E+00  1.03281086E+00
  1.06668374E+00  1.07054008E+00  1.09729247E+00  1.14668142E+00  1.15701703E+00
  1.16744502E+00  1.22407997E+00  1.22785926E+00  1.24581512E+00  1.35602497E+00
  1.35716154E+00  1.37347624E+00  1.46739993E+00  1.48687232E+00  1.50306900E+00
  1.54331022E+00  1.59786466E+00  1.60266375E+00  1.60647903E+00  1.62947659E+00
  1.69599389E+00  1.74120061E+00  1.80067429E+00  1.83114287E+00  1.88913806E+00
  1.89465555E+00  1.93051847E+00  1.97830596E+00  1.99012215E+00  2.05429581E+00
  2.12703614E+00  2.13068750E+00  2.16706086E+00  2.18934649E+00  2.24525620E+00
  2.25944665E+00  2.29387138E+00  2.35256421E+00  2.37098355E+00  2.38565105E+00
  2.40319433E+00  2.43334092E+00  2.46907786E+00  2.47925229E+00  2.53217950E+00
  2.53911390E+00  2.55362641E+00  2.56049424E+00  2.62016441E+00  2.63163334E+00
  2.67601199E+00  2.67888163E+00  2.75366464E+00  2.81066760E+00  2.82373012E+00
  2.83846918E+00  2.91948175E+00  2.99518875E+00  3.04556388E+00  3.04815179E+00
  3.11313234E+00  3.11994697E+00  3.17730440E+00  3.21378766E+00  3.31147065E+00
  3.33018642E+00  3.36263175E+00  3.47425082E+00  3.67912755E+00  3.87018646E+00
  3.93648811E+00  4.18830256E+00  4.22952124E+00  4.23217053E+00  4.27090773E+00
  4.37411888E+00  4.49895177E+00  4.54549292E+00  4.55313562E+00  4.59854607E+00
  4.69584266E+00  4.81158888E+00  4.89348495E+00  4.91590198E+00  4.93863258E+00
  5.00237464E+00  5.00643156E+00  5.10602033E+00  5.13251060E+00  5.18311323E+00
  5.25307974E+00  5.26185321E+00  5.32062518E+00  5.34944694E+00  5.36605739E+00
  5.55164273E+00  5.64654446E+00  5.71122545E+00  5.89361350E+00  5.99285536E+00
  6.26561883E+00  6.29560945E+00  6.36309944E+00  6.37754280E+00  6.59788544E+00
  6.66079172E+00  6.66960060E+00  6.69591527E+00  6.72932208E+00  6.78620099E+00
  6.80218159E+00  6.86616502E+00  6.96634138E+00  7.02157998E+00  7.06634596E+00
  7.07996247E+00  7.13599136E+00  7.17455951E+00  7.18937932E+00  7.20442738E+00
  7.24749884E+00  7.25041676E+00  7.27310060E+00  7.35022746E+00  7.39198166E+00
  7.43339424E+00  7.44232111E+00  7.46461626E+00  7.56085709E+00  7.66351207E+00
  7.68351748E+00  7.79562616E+00  7.88427687E+00  7.95364033E+00  8.07630541E+00
  8.31011786E+00  8.49824359E+00  8.65257274E+00  1.36243492E+01  1.47632067E+01
  1.51113269E+01  1.58015805E+01
Alpha MO coefficients                      R   N=       42849
  6.31142146E-05  7.80306136E-06 -1.11514900E-03  1.59673709E-05 -5.09437112E-05
  4.17998458E-05  0.00000000E+00 -9.63388565E-05 -2.74512944E-04  0.00000000E+00
 -3.72369646E-06 -3.53395386E-04  0.00000000E+00  4.12390495E-05  0.00000000E+00
  0.00000000E+00 -2.50989144E-05  1.15538832E-05  2.31907676E-04  0.00000000E+00
  0.00000000E+00 -4.35847291E-05 -2.14936291E-04  3.09690118E-03 -9.57684639E-05
 -9.72349451E-05  3.50241988E-03  2.48101952E-03  1.01334879E-04 -5.42848216E-05
  0.00000000E+00 -7.22049268E-04  2.93169384E-04  0.00000000E+00 -1.94646264E-03
  1.13281837E-03  0.00000000E+00 -5.38830991E-04  3.88671348E-05  0.00000000E+00
  2.04002449E-05  0.00000000E+00  0.00000000E+00 -8.50138254E-06  4.41469235E-05
 -4.41223036E-04  0.00000000E+00  0.00000000E+00  4.20910376E-04 -6.67371003E-04
 -3.62036610E-04  0.00000000E+00  0.00000000E+00  5.33368581E-04 -7.51910676E-04
  0.00000000E+00  7.31697693E-05 -5.31745442E-05  0.00000000E+00  0.00000000E+00
 -2.61488733E-05  1.08989883E-04  0.00000000E+00  2.08105945E-04 -5.03835596E-05
  0.00000000E+00  0.00000000E+00 -1.64798348E-04  3.01675309E-04  9.76900992E-01
 -9.17643789E-03  4.34107902E-02  4.81505590E-04 -2.20575985E-03  4.31248401E-04
 -2.15074174E-03  0.00000000E+00 -3.02406026E-04  2.25608016E-03  0.00000000E+00
 -2.29356137E-03 -4.81669446E-04  0.00000000E+00 -2.21950894E-04  9.70433551E-05
  0.00000000E+00  6.51490062E-06  0.00000000E+00  0.00000000E+00 -5.41389971E-06
  3.80971462E-05  8.26062931E-04  0.00000000E+00  0.00000000E+00 -4.76776832E-04
 -1.64985136E-04 -1.45116238E-04  0.00000000E+00  0.00000000E+00 -5.54693429E-04
  3.53903318E-04  0.00000000E+00 -6.64891933E-06 -7.99502770E-05  0.00000000E+00
  0.00000000E+00 -8.56697999E-06  4.75477242E-05  0.00000000E+00  9.08440423E-05
  2.65342215E-06  0.00000000E+00  0.00000000E+00 -3.27898188E-04  3.85568773E-04
  1.04529693E-04  4.57354502E-04 -3.24370737E-04 -8.39520734E-04  3.42906820E-04
 -4.60190373E-05 -9.93057209E-05  0.00000000E+00  7.03007997E-04  1.10494184E-03
  0.00000000E+00 -7.23846443E-04 -5.80596788E-04  0.00000000E+00  1.99762779E-04
  2.15476627E-04  0.00000000E+00 -5.26341854E-05  0.00000000E+00  0.00000000E+00
  1.84394123E-05  9.40172544E-05 -4.16545338E-04  0.00000000E+00  0.00000000E+00
  5.90801405E-05  1.07274971E-03  2.64294594E-05  0.00000000E+00  0.00000000E+00
 -2.94344878E-04  3.42368521E-05  0.00000000E+00 -7.96308243E-05 -1.12291901E-04
  0.00000000E+00  0.00000000E+00 -9.53408600E-05  1.06988664E-04  0.00000000E+00
 -1.28646326E-04  4.32413160E-05  0.00000000E+00  0.00000000E+00  1.85183201E-05
  5.12406766E-04 -7.27528217E-04  6.35888774E-05 -6.81674473E-05  2.62448692E-04
 -1.80278352E-04 -2.75016564E-05 -3.95981250E-05  0.00000000E+00  1.60949950E-04
  2.55480651E-04  0.00000000E+00  4.79281485E-04  3.08409521E-04  0.00000000E+00
 -2.31130660E-04 -6.16034651E-05  0.00000000E+00 -1.39800178E-05  0.00000000E+00
  0.00000000E+00  1.94238087E-06  1.77224354E-05  4.61958769E-06  0.00000000E+00
  0.00000000E+00 -1.55319203E-04 -8.98230962E-06 -1.09437690E-05  0.00000000E+00
  0.00000000E+00 -1.65783951E-04 -7.13551327E-05  0.00000000E+00 -5.18469497E-06
 -7.07383698E-06  0.00000000E+00  0.00000000E+00 -1.98486678E-05  1.08482504E-05
  0.00000000E+00  3.94372672E-05  6.31896802E-05  0.00000000E+00  0.00000000E+00
  1.67153985E-04 -1.01720746E-04  3.71229873E-05  7.04820548E-05 -8.72351566E-05
 -2.94390115E-05  2.47252574E-05  1.62308910E-05  0.00000000E+00  2.22989734E-04
  3.77248519E-05  0.00000000E+00  1.12133631E-04  1.39471662E-05  0.00000000E+00
  9.71657911E-06  0.00000000E+00  0.00000000E+00 -6.72748441E-06  2.09114107E-05
  1.67316070E-05  0.00000000E+00  0.00000000E+00 -7.94131117E-05  7.38986562E-05
 -2.68379977E-04  3.60225165E-05 -1.47440583E-05 -5.37859827E-04  1.53834874E-04
  7.12438112E-06  1.33625427E-05  0.00000000E+00 -2.69503823E-06 -4.52439617E-05
  0.00000000E+00  1.79901068E-04  1.47993933E-04  0.00000000E+00 -4.19060921E-05
  5.24668000E-05  0.00000000E+00 -2.50529927E-06  0.00000000E+00  0.00000000E+00
 -7.88611610E-06 -1.02741817E-05  2.65880305E-05  0.00000000E+00  0.00000000E+00
  4.98571707E-05  1.06898955E-04  6.70192176E-05  0.00000000E+00  0.00000000E+00
 -3.07096761E-05 -8.25580431E-05  0.00000000E+00  7.44919498E-06  9.65715968E-06
  0.00000000E+00  0.00000000E+00 -6.17182215E-07 -2.71021200E-05  0.00000000E+00
 -1.59306776E-05 -4.02342134E-05  0.00000000E+00  0.00000000E+00 -1.33968759E-06
 -1.68516812E-05  7.58482459E-04  2.46634361E-05 -1.46059499E-05  2.84636988E-04
 -4.06982039E-04  1.54212895E-05  2.42676803E-05  0.00000000E+00 -6.17499004E-05
 -1.43094420E-04  0.00000000E+00  1.26655922E-04 -1.86850678E-04  0.00000000E+00
 -1.59196774E-04  1.41488628E-04  0.00000000E+00 -4.24200668E-06  0.00000000E+00
  0.00000000E+00 -3.14385706E-05 -8.78163670E-06 -4.71619361E-05  0.00000000E+00
  0.00000000E+00  9.43146465E-05  1.12634461E-04 -6.20667430E-05  0.00000000E+00
  0.00000000E+00  4.69983280E-05  3.21656276E-05  0.00000000E+00  2.01275916E-06
  9.87004537E-07  0.00000000E+00  0.00000000E+00 -9.73015007E-06 -3.96948676E-06
  0.00000000E+00  4.80875944E-06 -2.37084095E-05  0.00000000E+00  0.00000000E+00
  8.78104636E-05 -1.60487890E-04  2.36509449E-04  1.35145061E-03 -1.49144793E-04
 -7.16880548E-04  9.08797771E-04  6.25740246E-05 -7.21343999E-05  0.00000000E+00
  5.95493252E-04 -2.06105743E-03  0.00000000E+00  1.06197137E-04  4.84517703E-04
  0.00000000E+00  1.93266114E-04 -3.00420183E-04  0.00000000E+00 -1.27217672E-04
  0.00000000E+00  0.00000000E+00 -2.01301874E-04 -1.63063273E-04 -4.62749051E-04
  0.00000000E+00  0.00000000E+00 -5.72707551E-04 -9.23103044E-04 -4.29904757E-05
  0.00000000E+00  0.00000000E+00  6.48566580E-05  1.18086390E-04  0.00000000E+00
  7.37953257E-06  3.53318331E-05  0.00000000E+00  0.00000000E+00 -2.39299463E-05
 -4.67703157E-06  0.00000000E+00 -1.39041932E-04  1.60200210E-04  0.00000000E+00
  0.00000000E+00 -3.07003696E-04 -3.60922552E-05  9.76642975E-01 -9.88189547E-03
  4.35807626E-02  3.69273487E-03 -8.96927706E-04 -4.80927326E-04  2.12020249E-03
  0.00000000E+00  5.53594064E-04 -2.48964362E-03  0.00000000E+00 -9.63634012E-05
  8.33215400E-04  0.00000000E+00  1.00591284E-04 -6.42588434E-05  0.00000000E+00
 -1.94738667E-04  0.00000000E+00  0.00000000E+00 -7.30049995E-05 -4.33366547E-05
  4.08082575E-04  0.00000000E+00  0.00000000E+00  8.37941813E-04  5.06112613E-04
 -2.05731002E-04  0.00000000E+00  0.00000000E+00 -1.53728336E-04 -4.06645252E-05
  0.00000000E+00 -5.96263575E-06  7.00820597E-05  0.00000000E+00  0.00000000E+00
 -2.80133521E-05  9.65341966E-06  0.00000000E+00 -8.92701932E-05  9.00809240E-05
  0.00000000E+00  0.00000000E+00 -1.75076735E-04  1.94226564E-04  3.70670621E-04
  2.01489266E-03  1.41960839E-03 -1.55798494E-05  5.37551264E-05  2.67935284E-04
  0.00000000E+00  3.61905276E-04  1.02139624E-03  0.00000000E+00 -1.39707093E-04
  2.34443543E-04  0.00000000E+00 -2.47209694E-05  0.00000000E+00  0.00000000E+00
  3.39804860E-05 -3.04983518E-05 -2.18907972E-04  0.00000000E+00  0.00000000E+00
 -3.46180075E-04  4.11813870E-04  9.76833642E-01 -9.18783929E-03  4.34670337E-02
  1.12038293E-04 -1.91050072E-03 -2.04802244E-03 -8.19434775E-04  0.00000000E+00
  2.08954838E-03  7.57079329E-04  0.00000000E+00 -3.80384769E-04  6.38872147E-04
  0.00000000E+00  2.23249904E-04 -3.01489872E-04  0.00000000E+00  3.01710102E-05
  0.00000000E+00  0.00000000E+00 -7.49171997E-05  6.48457481E-05  7.66308770E-04
  0.00000000E+00  0.00000000E+00 -2.08329278E-04  3.53731159E-04 -2.40464322E-04
  0.00000000E+00  0.00000000E+00  3.27331555E-04 -2.45749254E-07  0.00000000E+00
 -8.10630408E-05  1.59064856E-06  0.00000000E+00  0.00000000E+00  1.50506528E-05