title                                                                   
Freq      RMP2-FC                                                     Aug-CC-pVTZ         
Number of atoms                            I                5
Info1-9                                    I   N=           9
          33          24           0           0           0         100
           6           2           1
Full Title                                 C   N=           1
title       
Route                                      C   N=           4
#p freq mp2/aug-cc-pvtz density=current         
Charge                                     I                0
Multiplicity                               I                1
Number of electrons                        I               32
Number of alpha electrons                  I               16
Number of beta electrons                   I               16
Number of basis functions                  I              207
Number of independent functions            I              207
Number of point charges in /Mol/           I                0
Number of translation vectors              I                0
Atomic numbers                             I   N=           5
           1           8           8           7           8
Nuclear charges                            R   N=           5
  1.00000000E+00  8.00000000E+00  8.00000000E+00  7.00000000E+00  8.00000000E+00
Current cartesian coordinates              R   N=          15
  2.07867215E+00 -1.10936339E+00  0.00000000E+00  2.45956705E+00  7.13355900E-01
  0.00000000E+00  1.07377493E-17  1.72906481E+00  0.00000000E+00 -1.86396587E+00
 -9.77599095E-02  0.00000000E+00 -1.08843093E+00 -2.21821036E+00  0.00000000E+00
Number of symbols in /Mol/                 I                0
Force Field                                I                0
Atom Types                                 C   N=           5
                                                            
Int Atom Types                             I   N=           5
           0           0           0           0           0
MM charges                                 R   N=           5
  0.00000000E+00  0.00000000E+00  0.00000000E+00  0.00000000E+00  0.00000000E+00
Integer atomic weights                     I   N=           5
           1          16          16          14          16
Real atomic weights                        R   N=           5
  1.00782504E+00  1.59949146E+01  1.59949146E+01  1.40030740E+01  1.59949146E+01
Atom fragment info                         I   N=           5
           0           0           0           0           0
Atom residue num                           I   N=           5
           0           0           0           0           0
Nuclear spins                              I   N=           5
           1           0           0           2           0
Nuclear ZEff                               R   N=           5
 -1.00000000E+00 -5.60000000E+00 -5.60000000E+00 -4.55000000E+00 -5.60000000E+00
Nuclear ZNuc                               R   N=           5
  1.00000000E+00  8.00000000E+00  8.00000000E+00  7.00000000E+00  8.00000000E+00
Nuclear QMom                               R   N=           5
  0.00000000E+00  0.00000000E+00  0.00000000E+00  2.04400000E+00  0.00000000E+00
Nuclear GFac                               R   N=           5
  2.79284600E+00  0.00000000E+00  0.00000000E+00  4.03761000E-01  0.00000000E+00
MicOpt                                     I   N=           5
          -1          -1          -1          -1          -1
Number of residues                         I                0
Number of secondary structures             I                0
SymInf integers                            I   N=          26
           1           2           1           1           1           1
           1          -1           0           0           0           0
           0           0           0           0           0           0
           0           0           0           0           0           0
           0           0
RotTr to input orientation                 R   N=          12
 -9.78855670E-01  0.00000000E+00  2.04552140E-01  2.04552140E-01  0.00000000E+00
  9.78855670E-01  0.00000000E+00  1.00000000E+00  0.00000000E+00  2.26164267E+00
  0.00000000E+00  6.60709809E-01
Number of contracted shells                I               65
Number of primitive shells                 I              119
Pure/Cartesian d shells                    I                0
Pure/Cartesian f shells                    I                0
Highest angular momentum                   I                3
Largest degree of contraction              I                7
Shell types                                I   N=          65
           0           0           0           0           1           1
           1          -2          -2           0           0           0
           0           0           1           1           1           1
          -2          -2          -2          -3          -3           0
           0           0           0           0           1           1
           1           1          -2          -2          -2          -3
          -3           0           0           0           0           0
           1           1           1           1          -2          -2
          -2          -3          -3           0           0           0
           0           0           1           1           1           1
          -2          -2          -2          -3          -3
Number of primitives per shell             I   N=          65
           3           1           1           1           1           1
           1           1           1           7           6           1
           1           1           3           1           1           1
           1           1           1           1           1           7
           6           1           1           1           3           1
           1           1           1           1           1           1
           1           7           6           1           1           1
           3           1           1           1           1           1
           1           1           1           7           6           1
           1           1           3           1           1           1
           1           1           1           1           1
Shell to atom map                          I   N=          65
           1           1           1           1           1           1
           1           1           1           2           2           2
           2           2           2           2           2           2
           2           2           2           2           2           3
           3           3           3           3           3           3
           3           3           3           3           3           3
           3           4           4           4           4           4
           4           4           4           4           4           4
           4           4           4           5           5           5
           5           5           5           5           5           5
           5           5           5           5           5
Primitive exponents                        R   N=         119
  3.38700000E+01  5.09500000E+00  1.15900000E+00  3.25800000E-01  1.02700000E-01
  2.52600000E-02  1.40700000E+00  3.88000000E-01  1.02000000E-01  1.05700000E+00
  2.47000000E-01  1.53300000E+04  2.29900000E+03  5.22400000E+02  1.47300000E+02
  4.75500000E+01  1.67600000E+01  6.20700000E+00  5.22400000E+02  1.47300000E+02
  4.75500000E+01  1.67600000E+01  6.20700000E+00  6.88200000E-01  1.75200000E+00
  2.38400000E-01  7.37600000E-02  3.44600000E+01  7.74900000E+00  2.28000000E+00
  7.15600000E-01  2.14000000E-01  5.97400000E-02  2.31400000E+00  6.45000000E-01
  2.14000000E-01  1.42800000E+00  5.00000000E-01  1.53300000E+04  2.29900000E+03
  5.22400000E+02  1.47300000E+02  4.75500000E+01  1.67600000E+01  6.20700000E+00
  5.22400000E+02  1.47300000E+02  4.75500000E+01  1.67600000E+01  6.20700000E+00
  6.88200000E-01  1.75200000E+00  2.38400000E-01  7.37600000E-02  3.44600000E+01
  7.74900000E+00  2.28000000E+00  7.15600000E-01  2.14000000E-01  5.97400000E-02
  2.31400000E+00  6.45000000E-01  2.14000000E-01  1.42800000E+00  5.00000000E-01
  1.14200000E+04  1.71200000E+03  3.89300000E+02  1.10000000E+02  3.55700000E+01
  1.25400000E+01  4.64400000E+00  3.89300000E+02  1.10000000E+02  3.55700000E+01
  1.25400000E+01  4.64400000E+00  5.11800000E-01  1.29300000E+00  1.78700000E-01
  5.76000000E-02  2.66300000E+01  5.94800000E+00  1.74200000E+00  5.55000000E-01
  1.72500000E-01  4.91000000E-02  1.65400000E+00  4.69000000E-01  1.51000000E-01
  1.09300000E+00  3.64000000E-01  1.53300000E+04  2.29900000E+03  5.22400000E+02
  1.47300000E+02  4.75500000E+01  1.67600000E+01  6.20700000E+00  5.22400000E+02
  1.47300000E+02  4.75500000E+01  1.67600000E+01  6.20700000E+00  6.88200000E-01
  1.75200000E+00  2.38400000E-01  7.37600000E-02  3.44600000E+01  7.74900000E+00
  2.28000000E+00  7.15600000E-01  2.14000000E-01  5.97400000E-02  2.31400000E+00
  6.45000000E-01  2.14000000E-01  1.42800000E+00  5.00000000E-01
Contraction coefficients                   R   N=         119
  2.54948632E-02  1.90362766E-01  8.52162022E-01  1.00000000E+00  1.00000000E+00
  1.00000000E+00  1.00000000E+00  1.00000000E+00  1.00000000E+00  1.00000000E+00
  1.00000000E+00  5.19808943E-04  4.02025621E-03  2.07128267E-02  8.10105536E-02
  2.35962985E-01  4.42653446E-01  3.57064423E-01 -4.42115008E-05 -1.22591041E-03
 -1.05517725E-02 -6.74452633E-02 -1.71198607E-01  1.07329856E+00  1.00000000E+00
  1.00000000E+00  1.00000000E+00  4.11634896E-02  2.57762836E-01  8.02419274E-01
  1.00000000E+00  1.00000000E+00  1.00000000E+00  1.00000000E+00  1.00000000E+00
  1.00000000E+00  1.00000000E+00  1.00000000E+00  5.19808943E-04  4.02025621E-03
  2.07128267E-02  8.10105536E-02  2.35962985E-01  4.42653446E-01  3.57064423E-01
 -4.42115008E-05 -1.22591041E-03 -1.05517725E-02 -6.74452633E-02 -1.71198607E-01
  1.07329856E+00  1.00000000E+00  1.00000000E+00  1.00000000E+00  4.11634896E-02
  2.57762836E-01  8.02419274E-01  1.00000000E+00  1.00000000E+00  1.00000000E+00
  1.00000000E+00  1.00000000E+00  1.00000000E+00  1.00000000E+00  1.00000000E+00
  5.34563860E-04  4.13435660E-03  2.12335358E-02  8.25006224E-02  2.38138871E-01
  4.42551547E-01  3.53757422E-01 -4.89867350E-05 -1.19527323E-03 -1.03490714E-02
 -6.48680190E-02 -1.71552477E-01  1.07289568E+00  1.00000000E+00  1.00000000E+00
  1.00000000E+00  3.98072123E-02  2.49002660E-01  8.10479727E-01  1.00000000E+00
  1.00000000E+00  1.00000000E+00  1.00000000E+00  1.00000000E+00  1.00000000E+00
  1.00000000E+00  1.00000000E+00  5.19808943E-04  4.02025621E-03  2.07128267E-02
  8.10105536E-02  2.35962985E-01  4.42653446E-01  3.57064423E-01 -4.42115008E-05
 -1.22591041E-03 -1.05517725E-02 -6.74452633E-02 -1.71198607E-01  1.07329856E+00
  1.00000000E+00  1.00000000E+00  1.00000000E+00  4.11634896E-02  2.57762836E-01
  8.02419274E-01  1.00000000E+00  1.00000000E+00  1.00000000E+00  1.00000000E+00
  1.00000000E+00  1.00000000E+00  1.00000000E+00  1.00000000E+00
Coordinates of each shell                  R   N=         195
  2.07867215E+00 -1.10936339E+00  0.00000000E+00  2.07867215E+00 -1.10936339E+00
  0.00000000E+00  2.07867215E+00 -1.10936339E+00  0.00000000E+00  2.07867215E+00
 -1.10936339E+00  0.00000000E+00  2.07867215E+00 -1.10936339E+00  0.00000000E+00
  2.07867215E+00 -1.10936339E+00  0.00000000E+00  2.07867215E+00 -1.10936339E+00
  0.00000000E+00  2.07867215E+00 -1.10936339E+00  0.00000000E+00  2.07867215E+00
 -1.10936339E+00  0.00000000E+00  2.45956705E+00  7.13355900E-01  0.00000000E+00
  2.45956705E+00  7.13355900E-01  0.00000000E+00  2.45956705E+00  7.13355900E-01
  0.00000000E+00  2.45956705E+00  7.13355900E-01  0.00000000E+00  2.45956705E+00
  7.13355900E-01  0.00000000E+00  2.45956705E+00  7.13355900E-01  0.00000000E+00
  2.45956705E+00  7.13355900E-01  0.00000000E+00  2.45956705E+00  7.13355900E-01
  0.00000000E+00  2.45956705E+00  7.13355900E-01  0.00000000E+00  2.45956705E+00
  7.13355900E-01  0.00000000E+00  2.45956705E+00  7.13355900E-01  0.00000000E+00
  2.45956705E+00  7.13355900E-01  0.00000000E+00  2.45956705E+00  7.13355900E-01
  0.00000000E+00  2.45956705E+00  7.13355900E-01  0.00000000E+00  1.02293947E-17
  1.72906481E+00  0.00000000E+00  1.02293947E-17  1.72906481E+00  0.00000000E+00
  1.02293947E-17  1.72906481E+00  0.00000000E+00  1.02293947E-17  1.72906481E+00
  0.00000000E+00  1.02293947E-17  1.72906481E+00  0.00000000E+00  1.02293947E-17
  1.72906481E+00  0.00000000E+00  1.02293947E-17  1.72906481E+00  0.00000000E+00
  1.02293947E-17  1.72906481E+00  0.00000000E+00  1.02293947E-17  1.72906481E+00
  0.00000000E+00  1.02293947E-17  1.72906481E+00  0.00000000E+00  1.02293947E-17
  1.72906481E+00  0.00000000E+00  1.02293947E-17  1.72906481E+00  0.00000000E+00
  1.02293947E-17  1.72906481E+00  0.00000000E+00  1.02293947E-17  1.72906481E+00
  0.00000000E+00 -1.86396587E+00 -9.77599095E-02  0.00000000E+00 -1.86396587E+00
 -9.77599095E-02  0.00000000E+00 -1.86396587E+00 -9.77599095E-02  0.00000000E+00
 -1.86396587E+00 -9.77599095E-02  0.00000000E+00 -1.86396587E+00 -9.77599095E-02
  0.00000000E+00 -1.86396587E+00 -9.77599095E-02  0.00000000E+00 -1.86396587E+00
 -9.77599095E-02  0.00000000E+00 -1.86396587E+00 -9.77599095E-02  0.00000000E+00
 -1.86396587E+00 -9.77599095E-02  0.00000000E+00 -1.86396587E+00 -9.77599095E-02
  0.00000000E+00 -1.86396587E+00 -9.77599095E-02  0.00000000E+00 -1.86396587E+00
 -9.77599095E-02  0.00000000E+00 -1.86396587E+00 -9.77599095E-02  0.00000000E+00
 -1.86396587E+00 -9.77599095E-02  0.00000000E+00 -1.08843093E+00 -2.21821036E+00
  0.00000000E+00 -1.08843093E+00 -2.21821036E+00  0.00000000E+00 -1.08843093E+00
 -2.21821036E+00  0.00000000E+00 -1.08843093E+00 -2.21821036E+00  0.00000000E+00
 -1.08843093E+00 -2.21821036E+00  0.00000000E+00 -1.08843093E+00 -2.21821036E+00
  0.00000000E+00 -1.08843093E+00 -2.21821036E+00  0.00000000E+00 -1.08843093E+00
 -2.21821036E+00  0.00000000E+00 -1.08843093E+00 -2.21821036E+00  0.00000000E+00
 -1.08843093E+00 -2.21821036E+00  0.00000000E+00 -1.08843093E+00 -2.21821036E+00
  0.00000000E+00 -1.08843093E+00 -2.21821036E+00  0.00000000E+00 -1.08843093E+00
 -2.21821036E+00  0.00000000E+00 -1.08843093E+00 -2.21821036E+00  0.00000000E+00
Num ILSW                                   I              100
ILSW                                       I   N=         100
           0           0           0           0           2           0
           0           0           0           0           0          -1
           5           0           0           0           2           0
           0           0           0           0           1           0
           1           0           0           0           0           0
           0           0      100000           0          -1           0
           0           0           0           0           0           0
           0           0           0           1           1           0
           0 -2000000000           1           0           0           0
           0           0           4          52           0           0
           0           0           0           0           0           0
           0           0           0           5           4           1
           0           0           0           0           0           0
           0           0           0           0           0           0
           0           0           0           0           0           0
           0           0           0           0           0           0
           0           0           0           0
Num RLSW                                   I               52
RLSW                                       R   N=          52
  1.00000000E+00  1.00000000E+00  1.00000000E+00  1.00000000E+00  1.00000000E+00
  0.00000000E+00  0.00000000E+00  1.00000000E+00  0.00000000E+00  0.00000000E+00
  0.00000000E+00  0.00000000E+00  1.00000000E+00  0.00000000E+00  0.00000000E+00
  0.00000000E+00  0.00000000E+00  1.00000000E+00  0.00000000E+00  0.00000000E+00
  0.00000000E+00  0.00000000E+00  1.00000000E+00  0.00000000E+00  0.00000000E+00
  0.00000000E+00  0.00000000E+00  1.00000000E+00  0.00000000E+00  0.00000000E+00
  0.00000000E+00  0.00000000E+00  1.00000000E+00  0.00000000E+00  0.00000000E+00
  0.00000000E+00  0.00000000E+00  0.00000000E+00  1.00000000E+00  1.00000000E+00
  0.00000000E+00  1.00000000E+00  0.00000000E+00  0.00000000E+00  0.00000000E+00
  0.00000000E+00  0.00000000E+00  0.00000000E+00  0.00000000E+00  0.00000000E+00
  0.00000000E+00  0.00000000E+00
MxBond                                     I                2
NBond                                      I   N=           5
           1           2           2           2           1
IBond                                      I   N=          10
           2           0           1           3           2           4
           3           5           4           0
RBond                                      R   N=          10
  1.00000000E+00  0.00000000E+00  1.00000000E+00  1.00000000E+00  1.00000000E+00
  1.00000000E+00  1.00000000E+00  2.00000000E+00  2.00000000E+00  0.00000000E+00
Virial Ratio                               R      2.002105887888754E+00
SCF Energy                                 R     -2.795073456177496E+02
MP2 Energy                                 R     -2.804550700741231E+02
Total Energy                               R     -2.804550700741231E+02
Post-SCF wavefunction norm                 R      1.582836428658879E+00
RMS Force                                  R      3.220089359360411E-03
RMS Density                                R      4.105149410056948E-09
NImag                                      I                0
Job Status                                 I                1
Nuclear derivative order                   I                2
External E-field                           R   N=          35
  0.00000000E+00  0.00000000E+00  0.00000000E+00  0.00000000E+00  0.00000000E+00
  0.00000000E+00  0.00000000E+00  0.00000000E+00  0.00000000E+00  0.00000000E+00
  0.00000000E+00  0.00000000E+00  0.00000000E+00  0.00000000E+00  0.00000000E+00
  0.00000000E+00  0.00000000E+00  0.00000000E+00  0.00000000E+00  0.00000000E+00
  0.00000000E+00  0.00000000E+00  0.00000000E+00  0.00000000E+00  0.00000000E+00
  0.00000000E+00  0.00000000E+00  0.00000000E+00  0.00000000E+00  0.00000000E+00
  0.00000000E+00  0.00000000E+00  0.00000000E+00  0.00000000E+00  0.00000000E+00
IOpCl                                      I                0
IROHF                                      I                0
Alpha Orbital Energies                     R   N=         207
 -2.07199228E+01 -2.06875382E+01 -2.06665281E+01 -1.58257478E+01 -1.64747637E+00
 -1.51153410E+00 -1.29138130E+00 -9.61413676E-01 -8.38114060E-01 -7.60288121E-01
 -7.42689301E-01 -6.34759671E-01 -6.23043426E-01 -6.20310779E-01 -5.05363097E-01
 -4.94297084E-01  3.52750638E-02  6.01680147E-02  9.51399714E-02  1.00557369E-01
  1.19577304E-01  1.22970405E-01  1.49726012E-01  1.53825969E-01  1.77472184E-01
  1.80070770E-01  1.89661821E-01  2.11099579E-01  2.16891100E-01  2.46373669E-01
  2.51464587E-01  2.68828856E-01  3.13934920E-01  3.17229798E-01  3.38347411E-01
  3.44539778E-01  3.48532896E-01  3.92310187E-01  4.49454377E-01  4.89922282E-01
  5.05429132E-01  5.18750504E-01  5.44385027E-01  5.61138944E-01  5.99251179E-01
  6.20813540E-01  6.39107293E-01  6.90155711E-01  7.16883929E-01  7.23669230E-01
  7.45066510E-01  7.64580120E-01  7.69072905E-01  7.94513516E-01  8.06731398E-01
  8.38683307E-01  8.43420948E-01  8.51387087E-01  8.86042905E-01  9.09615509E-01
  9.33184636E-01  9.48149708E-01  9.53298529E-01  1.01915626E+00  1.03391819E+00
  1.06577439E+00  1.06676715E+00  1.09745294E+00  1.14589688E+00  1.15746296E+00
  1.16935495E+00  1.22348868E+00  1.22736087E+00  1.24712822E+00  1.35692407E+00
  1.35909953E+00  1.37216041E+00  1.46761219E+00  1.48425990E+00  1.50420550E+00
  1.54326271E+00  1.59771968E+00  1.59814642E+00  1.60598072E+00  1.63060258E+00
  1.69657127E+00  1.74343911E+00  1.80126700E+00  1.82991112E+00  1.88859283E+00
  1.90131015E+00  1.93148352E+00  1.98229295E+00  1.99031832E+00  2.05242101E+00
  2.12557202E+00  2.13135211E+00  2.16821111E+00  2.18845676E+00  2.24359147E+00
  2.26760250E+00  2.29742138E+00  2.35633224E+00  2.36774189E+00  2.38723809E+00
  2.40139923E+00  2.44323614E+00  2.47116114E+00  2.48270521E+00  2.53000549E+00
  2.53921506E+00  2.55323614E+00  2.55997925E+00  2.61770526E+00  2.63581424E+00
  2.67836114E+00  2.67869696E+00  2.76419121E+00  2.81490810E+00  2.81950281E+00
  2.84502981E+00  2.92348523E+00  2.98779154E+00  3.05158082E+00  3.05516086E+00
  3.11759132E+00  3.12161012E+00  3.18218993E+00  3.22353416E+00  3.31641128E+00
  3.33724499E+00  3.36452120E+00  3.49701188E+00  3.67821825E+00  3.87189281E+00
  3.93768734E+00  4.18982375E+00  4.22743173E+00  4.22943515E+00  4.27284244E+00
  4.37197999E+00  4.51671751E+00  4.53772892E+00  4.56354950E+00  4.60528418E+00
  4.69115560E+00  4.81438178E+00  4.90069324E+00  4.91582107E+00  4.94375385E+00
  4.99921426E+00  5.00514048E+00  5.10808896E+00  5.13720439E+00  5.17897910E+00
  5.25179052E+00  5.25850237E+00  5.32148742E+00  5.35069794E+00  5.36938786E+00
  5.54445543E+00  5.64521893E+00  5.71073078E+00  5.91456046E+00  6.00673313E+00
  6.23406068E+00  6.29912403E+00  6.36846872E+00  6.37544184E+00  6.59164583E+00
  6.64683115E+00  6.66233935E+00  6.68978341E+00  6.72358852E+00  6.79677286E+00
  6.81037194E+00  6.84785063E+00  6.97104365E+00  7.03409571E+00  7.07484106E+00
  7.08890873E+00  7.14737190E+00  7.18359197E+00  7.18564609E+00  7.22350284E+00
  7.25300225E+00  7.26195091E+00  7.27496715E+00  7.35513202E+00  7.40411346E+00
  7.44259198E+00  7.44273588E+00  7.47484958E+00  7.56419197E+00  7.67652444E+00
  7.67876502E+00  7.81032205E+00  7.90325781E+00  7.96138414E+00  8.08088152E+00
  8.33801175E+00  8.51170668E+00  8.67311979E+00  1.36929925E+01  1.47963952E+01
  1.51345427E+01  1.57936810E+01
Alpha MO coefficients                      R   N=       42849
  6.44746410E-05 -1.45194088E-05 -1.12223768E-03  1.82324893E-05 -4.55662976E-05
  3.82427762E-05  0.00000000E+00 -6.02370665E-05 -2.74399830E-04  0.00000000E+00
  2.91051686E-05 -3.31678477E-04  0.00000000E+00  4.10147372E-05  0.00000000E+00
  0.00000000E+00 -2.58599183E-05  2.21587719E-05  2.31240233E-04  0.00000000E+00
  0.00000000E+00 -4.68996907E-05 -2.17430435E-04  3.13677824E-03 -5.54338052E-05
 -1.13499531E-04  3.77496480E-03  2.58366735E-03  1.08272562E-04 -5.51206322E-05
  0.00000000E+00 -8.17813399E-04  3.31559266E-04  0.00000000E+00 -2.12161630E-03
  1.15482502E-03  0.00000000E+00 -5.66000310E-04  5.09564926E-05  0.00000000E+00
  1.46174126E-05  0.00000000E+00  0.00000000E+00 -2.79256973E-06  3.40253637E-05
 -4.61800281E-04  0.00000000E+00  0.00000000E+00  4.66870023E-04 -6.71607115E-04
 -3.77071303E-04  0.00000000E+00  0.00000000E+00  5.74768839E-04 -7.38048234E-04
  0.00000000E+00  7.69835314E-05 -5.39102335E-05  0.00000000E+00  0.00000000E+00
 -3.03467444E-05  1.11105993E-04  0.00000000E+00  2.09529627E-04 -4.39467479E-05
  0.00000000E+00  0.00000000E+00 -1.71720701E-04  2.83994498E-04  9.76890448E-01
 -9.17772289E-03  4.34389167E-02  2.47992298E-04 -2.30562850E-03  5.07970339E-04
 -2.16431578E-03  0.00000000E+00 -4.04440101E-04  2.27694678E-03  0.00000000E+00
 -2.45334960E-03 -4.45280449E-04  0.00000000E+00 -2.49671486E-04  1.00576033E-04
  0.00000000E+00  2.39379256E-06  0.00000000E+00  0.00000000E+00  1.34270423E-07
  3.16450145E-05  8.49220133E-04  0.00000000E+00  0.00000000E+00 -5.04631993E-04
 -1.45245669E-04 -1.21229853E-04  0.00000000E+00  0.00000000E+00 -5.77304887E-04
  3.73764026E-04  0.00000000E+00 -2.40360746E-06 -8.03409289E-05  0.00000000E+00
  0.00000000E+00 -1.14617672E-05  5.11813240E-05  0.00000000E+00  1.01129196E-04
 -3.18644884E-06  0.00000000E+00  0.00000000E+00 -3.43686588E-04  3.91724911E-04
  1.04369685E-04  4.58470056E-04 -3.21180049E-04 -8.41631505E-04  3.17054558E-04
 -4.24026870E-05 -9.97622726E-05  0.00000000E+00  6.88435020E-04  1.11572578E-03
  0.00000000E+00 -7.75807267E-04 -6.81375729E-04  0.00000000E+00  1.85950954E-04
  2.06520148E-04  0.00000000E+00 -5.22771059E-05  0.00000000E+00  0.00000000E+00
  1.82085928E-05  9.40473593E-05 -4.13572929E-04  0.00000000E+00  0.00000000E+00
  2.12094753E-05  1.07372748E-03  2.73948601E-05  0.00000000E+00  0.00000000E+00
 -3.20963442E-04  1.49230683E-05  0.00000000E+00 -7.67687793E-05 -1.13482551E-04
  0.00000000E+00  0.00000000E+00 -9.88901748E-05  1.02908936E-04  0.00000000E+00
 -1.24473272E-04  4.84373928E-05  0.00000000E+00  0.00000000E+00  3.49896757E-06
  5.15791668E-04 -7.08964906E-04  3.89612370E-05 -7.05827792E-05  2.21671166E-04
 -1.44635367E-04 -2.87432041E-05 -4.15620623E-05  0.00000000E+00  1.67234368E-04
  2.51460060E-04  0.00000000E+00  5.45113323E-04  3.32711663E-04  0.00000000E+00
 -2.08400208E-04 -5.60222396E-05  0.00000000E+00 -1.26981916E-05  0.00000000E+00
  0.00000000E+00  2.99103109E-06  1.50604138E-05 -3.28994858E-06  0.00000000E+00
  0.00000000E+00 -1.61651602E-04  8.95917058E-06 -2.54012196E-05  0.00000000E+00
  0.00000000E+00 -1.66889093E-04 -4.04983645E-05  0.00000000E+00 -5.73673455E-06
 -9.05241415E-06  0.00000000E+00  0.00000000E+00 -2.10515902E-05  9.23353901E-06
  0.00000000E+00  3.89234960E-05  6.01557850E-05  0.00000000E+00  0.00000000E+00
  1.57948047E-04 -9.99045021E-05  3.84976849E-05  7.12474995E-05 -9.84640934E-05
 -3.10578676E-05  2.24430847E-05  1.31290983E-05  0.00000000E+00  2.38415246E-04
  6.36376942E-05  0.00000000E+00  1.17205053E-04  2.40090691E-05  0.00000000E+00
  1.12529059E-05  0.00000000E+00  0.00000000E+00 -1.05404455E-05  1.80331163E-05
  1.81724261E-05  0.00000000E+00  0.00000000E+00 -9.54455031E-05  6.63544176E-05
 -2.36369630E-04  2.47634290E-05 -1.39740929E-05 -5.90126584E-04  1.51737882E-04
  7.46443609E-06  1.37376061E-05  0.00000000E+00  1.17833256E-06 -4.43326186E-05
  0.00000000E+00  2.00756316E-04  1.47331230E-04  0.00000000E+00 -4.18272294E-05
  4.89022665E-05  0.00000000E+00 -1.70581931E-06  0.00000000E+00  0.00000000E+00
 -8.29797213E-06 -1.15160895E-05  2.34143261E-05  0.00000000E+00  0.00000000E+00
  5.11918123E-05  1.12349028E-04  6.45710329E-05  0.00000000E+00  0.00000000E+00
 -3.35937926E-05 -8.55262108E-05  0.00000000E+00  7.76219185E-06  1.03316800E-05
  0.00000000E+00  0.00000000E+00 -8.75451205E-07 -2.63405979E-05  0.00000000E+00
 -1.33528719E-05 -3.87174735E-05  0.00000000E+00  0.00000000E+00 -1.29084573E-06
 -1.89003774E-05  7.35481393E-04  2.08584186E-05 -1.99237902E-05  3.27450617E-04
 -3.94263858E-04  1.61370915E-05  2.74666053E-05  0.00000000E+00 -6.40599802E-05
 -1.55154833E-04  0.00000000E+00  1.68526317E-04 -2.29703418E-04  0.00000000E+00
 -1.56325118E-04  1.41796193E-04  0.00000000E+00 -3.91566104E-06  0.00000000E+00
  0.00000000E+00 -2.98502753E-05 -1.06206712E-05 -5.35625142E-05  0.00000000E+00
  0.00000000E+00  8.16981815E-05  1.24768320E-04 -6.75458153E-05  0.00000000E+00
  0.00000000E+00  3.23098313E-05  2.26667626E-05  0.00000000E+00  2.80861241E-06
  3.21040678E-06  0.00000000E+00  0.00000000E+00 -7.39897345E-06 -2.66595813E-06
  0.00000000E+00  3.68829084E-06 -2.43620052E-05  0.00000000E+00  0.00000000E+00
  1.01646819E-04 -1.54154340E-04  2.36744362E-04  1.35590082E-03 -1.46173924E-04
 -7.07853412E-04  9.13232190E-04  6.36947769E-05 -7.04790007E-05  0.00000000E+00
  5.80161264E-04 -2.08463421E-03  0.00000000E+00  9.85609802E-05  5.14232657E-04
  0.00000000E+00  1.88892528E-04 -3.05972290E-04  0.00000000E+00 -1.27716529E-04
  0.00000000E+00  0.00000000E+00 -2.02734119E-04 -1.60442171E-04 -4.59733351E-04
  0.00000000E+00  0.00000000E+00 -5.92288917E-04 -9.32127028E-04 -4.19678028E-05
  0.00000000E+00  0.00000000E+00  5.46743641E-05  1.22088092E-04  0.00000000E+00
  8.24723034E-06  3.72338467E-05  0.00000000E+00  0.00000000E+00 -2.44877609E-05
 -4.72729614E-06  0.00000000E+00 -1.37163249E-04  1.56432739E-04  0.00000000E+00
  0.00000000E+00 -3.15202838E-04 -4.36439338E-05  9.76645727E-01 -9.88601022E-03
  4.35759106E-02  3.69904014E-03 -9.01472607E-04 -4.53455173E-04  2.13230705E-03
  0.00000000E+00  5.21612987E-04 -2.50693396E-03  0.00000000E+00 -7.93021977E-05
  8.23740423E-04  0.00000000E+00  1.04471059E-04 -6.48441708E-05  0.00000000E+00
 -1.93372439E-04  0.00000000E+00  0.00000000E+00 -7.43063523E-05 -4.45974126E-05
  4.09601596E-04  0.00000000E+00  0.00000000E+00  8.56519432E-04  4.91417512E-04
 -2.04450726E-04  0.00000000E+00  0.00000000E+00 -1.44506891E-04 -3.49207152E-05
  0.00000000E+00 -5.29719470E-06  7.03828302E-05  0.00000000E+00  0.00000000E+00
 -2.83817094E-05  1.03658727E-05  0.00000000E+00 -8.93624835E-05  9.11423262E-05
  0.00000000E+00  0.00000000E+00 -1.71734733E-04  2.03810344E-04  3.69719998E-04
  1.96114754E-03  1.43195975E-03 -2.58061150E-05  4.89964132E-05  2.60905059E-04
  0.00000000E+00  3.78402019E-04  1.00231820E-03  0.00000000E+00 -1.54105196E-04
  2.27138042E-04  0.00000000E+00 -2.20187069E-05  0.00000000E+00  0.00000000E+00
  3.97083040E-05 -2.96149866E-05 -2.19020881E-04  0.00000000E+00  0.00000000E+00
 -3.46127069E-04  4.14260204E-04  9.76818160E-01 -9.19027740E-03  4.35022327E-02
 -3.88932089E-05 -2.05248437E-03 -2.08128140E-03 -8.18216352E-04  0.00000000E+00
  2.14406401E-03  7.34314632E-04  0.00000000E+00 -2.89772234E-04  6.16804107E-04
  0.00000000E+00  2.53106458E-04 -3.17549517E-04  0.00000000E+00  2.50341105E-05
  0.00000000E+00  0.00000000E+00 -6.76230225E-05  5.79049876E-05  7.86248484E-04
  0.00000000E+00  0.00000000E+00 -2.56789511E-04  3.83493919E-04 -2.22510872E-04
  0.00000000E+00  0.00000000E+00  3.03829681E-04  2.12702854E-05  0.00000000E+00
 -8.38842621E-05  4.80024629E-06  0.00000000E+00  0.00000000E+00  1.95395418E-05