title                                                                   
Freq      RMP2-FC                                                     Aug-CC-pVTZ         
Number of atoms                            I                5
Info1-9                                    I   N=           9
          33          24           0           0           0         100
           6           2           1
Full Title                                 C   N=           1
title       
Route                                      C   N=           4
#p freq mp2/aug-cc-pvtz density=current         
Charge                                     I                0
Multiplicity                               I                1
Number of electrons                        I               32
Number of alpha electrons                  I               16
Number of beta electrons                   I               16
Number of basis functions                  I              207
Number of independent functions            I              207
Number of point charges in /Mol/           I                0
Number of translation vectors              I                0
Atomic numbers                             I   N=           5
           1           8           8           7           8
Nuclear charges                            R   N=           5
  1.00000000E+00  8.00000000E+00  8.00000000E+00  7.00000000E+00  8.00000000E+00
Current cartesian coordinates              R   N=          15
  2.09959377E+00 -1.13337278E+00  0.00000000E+00  2.48783888E+00  6.87795048E-01
  0.00000000E+00 -2.04340724E-16  1.72694705E+00  0.00000000E+00 -1.87132057E+00
 -9.23430893E-02  0.00000000E+00 -1.11288261E+00 -2.19227030E+00  0.00000000E+00
Number of symbols in /Mol/                 I                0
Force Field                                I                0
Atom Types                                 C   N=           5
                                                            
Int Atom Types                             I   N=           5
           0           0           0           0           0
MM charges                                 R   N=           5
  0.00000000E+00  0.00000000E+00  0.00000000E+00  0.00000000E+00  0.00000000E+00
Integer atomic weights                     I   N=           5
           1          16          16          14          16
Real atomic weights                        R   N=           5
  1.00782504E+00  1.59949146E+01  1.59949146E+01  1.40030740E+01  1.59949146E+01
Atom fragment info                         I   N=           5
           0           0           0           0           0
Atom residue num                           I   N=           5
           0           0           0           0           0
Nuclear spins                              I   N=           5
           1           0           0           2           0
Nuclear ZEff                               R   N=           5
 -1.00000000E+00 -5.60000000E+00 -5.60000000E+00 -4.55000000E+00 -5.60000000E+00
Nuclear ZNuc                               R   N=           5
  1.00000000E+00  8.00000000E+00  8.00000000E+00  7.00000000E+00  8.00000000E+00
Nuclear QMom                               R   N=           5
  0.00000000E+00  0.00000000E+00  0.00000000E+00  2.04400000E+00  0.00000000E+00
Nuclear GFac                               R   N=           5
  2.79284600E+00  0.00000000E+00  0.00000000E+00  4.03761000E-01  0.00000000E+00
MicOpt                                     I   N=           5
          -1          -1          -1          -1          -1
Number of residues                         I                0
Number of secondary structures             I                0
SymInf integers                            I   N=          26
           1           2           1           1           1           1
           1          -1           0           0           0           0
           0           0           0           0           0           0
           0           0           0           0           0           0
           0           0
RotTr to input orientation                 R   N=          12
 -9.78022489E-01  0.00000000E+00  2.08499427E-01  2.08499427E-01  0.00000000E+00
  9.78022489E-01  0.00000000E+00  1.00000000E+00  0.00000000E+00  2.28975751E+00
  0.00000000E+00  6.70699974E-01
Number of contracted shells                I               65
Number of primitive shells                 I              119
Pure/Cartesian d shells                    I                0
Pure/Cartesian f shells                    I                0
Highest angular momentum                   I                3
Largest degree of contraction              I                7
Shell types                                I   N=          65
           0           0           0           0           1           1
           1          -2          -2           0           0           0
           0           0           1           1           1           1
          -2          -2          -2          -3          -3           0
           0           0           0           0           1           1
           1           1          -2          -2          -2          -3
          -3           0           0           0           0           0
           1           1           1           1          -2          -2
          -2          -3          -3           0           0           0
           0           0           1           1           1           1
          -2          -2          -2          -3          -3
Number of primitives per shell             I   N=          65
           3           1           1           1           1           1
           1           1           1           7           6           1
           1           1           3           1           1           1
           1           1           1           1           1           7
           6           1           1           1           3           1
           1           1           1           1           1           1
           1           7           6           1           1           1
           3           1           1           1           1           1
           1           1           1           7           6           1
           1           1           3           1           1           1
           1           1           1           1           1
Shell to atom map                          I   N=          65
           1           1           1           1           1           1
           1           1           1           2           2           2
           2           2           2           2           2           2
           2           2           2           2           2           3
           3           3           3           3           3           3
           3           3           3           3           3           3
           3           4           4           4           4           4
           4           4           4           4           4           4
           4           4           4           5           5           5
           5           5           5           5           5           5
           5           5           5           5           5
Primitive exponents                        R   N=         119
  3.38700000E+01  5.09500000E+00  1.15900000E+00  3.25800000E-01  1.02700000E-01
  2.52600000E-02  1.40700000E+00  3.88000000E-01  1.02000000E-01  1.05700000E+00
  2.47000000E-01  1.53300000E+04  2.29900000E+03  5.22400000E+02  1.47300000E+02
  4.75500000E+01  1.67600000E+01  6.20700000E+00  5.22400000E+02  1.47300000E+02
  4.75500000E+01  1.67600000E+01  6.20700000E+00  6.88200000E-01  1.75200000E+00
  2.38400000E-01  7.37600000E-02  3.44600000E+01  7.74900000E+00  2.28000000E+00
  7.15600000E-01  2.14000000E-01  5.97400000E-02  2.31400000E+00  6.45000000E-01
  2.14000000E-01  1.42800000E+00  5.00000000E-01  1.53300000E+04  2.29900000E+03
  5.22400000E+02  1.47300000E+02  4.75500000E+01  1.67600000E+01  6.20700000E+00
  5.22400000E+02  1.47300000E+02  4.75500000E+01  1.67600000E+01  6.20700000E+00
  6.88200000E-01  1.75200000E+00  2.38400000E-01  7.37600000E-02  3.44600000E+01
  7.74900000E+00  2.28000000E+00  7.15600000E-01  2.14000000E-01  5.97400000E-02
  2.31400000E+00  6.45000000E-01  2.14000000E-01  1.42800000E+00  5.00000000E-01
  1.14200000E+04  1.71200000E+03  3.89300000E+02  1.10000000E+02  3.55700000E+01
  1.25400000E+01  4.64400000E+00  3.89300000E+02  1.10000000E+02  3.55700000E+01
  1.25400000E+01  4.64400000E+00  5.11800000E-01  1.29300000E+00  1.78700000E-01
  5.76000000E-02  2.66300000E+01  5.94800000E+00  1.74200000E+00  5.55000000E-01
  1.72500000E-01  4.91000000E-02  1.65400000E+00  4.69000000E-01  1.51000000E-01
  1.09300000E+00  3.64000000E-01  1.53300000E+04  2.29900000E+03  5.22400000E+02
  1.47300000E+02  4.75500000E+01  1.67600000E+01  6.20700000E+00  5.22400000E+02
  1.47300000E+02  4.75500000E+01  1.67600000E+01  6.20700000E+00  6.88200000E-01
  1.75200000E+00  2.38400000E-01  7.37600000E-02  3.44600000E+01  7.74900000E+00
  2.28000000E+00  7.15600000E-01  2.14000000E-01  5.97400000E-02  2.31400000E+00
  6.45000000E-01  2.14000000E-01  1.42800000E+00  5.00000000E-01
Contraction coefficients                   R   N=         119
  2.54948632E-02  1.90362766E-01  8.52162022E-01  1.00000000E+00  1.00000000E+00
  1.00000000E+00  1.00000000E+00  1.00000000E+00  1.00000000E+00  1.00000000E+00
  1.00000000E+00  5.19808943E-04  4.02025621E-03  2.07128267E-02  8.10105536E-02
  2.35962985E-01  4.42653446E-01  3.57064423E-01 -4.42115008E-05 -1.22591041E-03
 -1.05517725E-02 -6.74452633E-02 -1.71198607E-01  1.07329856E+00  1.00000000E+00
  1.00000000E+00  1.00000000E+00  4.11634896E-02  2.57762836E-01  8.02419274E-01
  1.00000000E+00  1.00000000E+00  1.00000000E+00  1.00000000E+00  1.00000000E+00
  1.00000000E+00  1.00000000E+00  1.00000000E+00  5.19808943E-04  4.02025621E-03
  2.07128267E-02  8.10105536E-02  2.35962985E-01  4.42653446E-01  3.57064423E-01
 -4.42115008E-05 -1.22591041E-03 -1.05517725E-02 -6.74452633E-02 -1.71198607E-01
  1.07329856E+00  1.00000000E+00  1.00000000E+00  1.00000000E+00  4.11634896E-02
  2.57762836E-01  8.02419274E-01  1.00000000E+00  1.00000000E+00  1.00000000E+00
  1.00000000E+00  1.00000000E+00  1.00000000E+00  1.00000000E+00  1.00000000E+00
  5.34563860E-04  4.13435660E-03  2.12335358E-02  8.25006224E-02  2.38138871E-01
  4.42551547E-01  3.53757422E-01 -4.89867350E-05 -1.19527323E-03 -1.03490714E-02
 -6.48680190E-02 -1.71552477E-01  1.07289568E+00  1.00000000E+00  1.00000000E+00
  1.00000000E+00  3.98072123E-02  2.49002660E-01  8.10479727E-01  1.00000000E+00
  1.00000000E+00  1.00000000E+00  1.00000000E+00  1.00000000E+00  1.00000000E+00
  1.00000000E+00  1.00000000E+00  5.19808943E-04  4.02025621E-03  2.07128267E-02
  8.10105536E-02  2.35962985E-01  4.42653446E-01  3.57064423E-01 -4.42115008E-05
 -1.22591041E-03 -1.05517725E-02 -6.74452633E-02 -1.71198607E-01  1.07329856E+00
  1.00000000E+00  1.00000000E+00  1.00000000E+00  4.11634896E-02  2.57762836E-01
  8.02419274E-01  1.00000000E+00  1.00000000E+00  1.00000000E+00  1.00000000E+00
  1.00000000E+00  1.00000000E+00  1.00000000E+00  1.00000000E+00
Coordinates of each shell                  R   N=         195
  2.09959377E+00 -1.13337278E+00  0.00000000E+00  2.09959377E+00 -1.13337278E+00
  0.00000000E+00  2.09959377E+00 -1.13337278E+00  0.00000000E+00  2.09959377E+00
 -1.13337278E+00  0.00000000E+00  2.09959377E+00 -1.13337278E+00  0.00000000E+00
  2.09959377E+00 -1.13337278E+00  0.00000000E+00  2.09959377E+00 -1.13337278E+00
  0.00000000E+00  2.09959377E+00 -1.13337278E+00  0.00000000E+00  2.09959377E+00
 -1.13337278E+00  0.00000000E+00  2.48783888E+00  6.87795048E-01  0.00000000E+00
  2.48783888E+00  6.87795048E-01  0.00000000E+00  2.48783888E+00  6.87795048E-01
  0.00000000E+00  2.48783888E+00  6.87795048E-01  0.00000000E+00  2.48783888E+00
  6.87795048E-01  0.00000000E+00  2.48783888E+00  6.87795048E-01  0.00000000E+00
  2.48783888E+00  6.87795048E-01  0.00000000E+00  2.48783888E+00  6.87795048E-01
  0.00000000E+00  2.48783888E+00  6.87795048E-01  0.00000000E+00  2.48783888E+00
  6.87795048E-01  0.00000000E+00  2.48783888E+00  6.87795048E-01  0.00000000E+00
  2.48783888E+00  6.87795048E-01  0.00000000E+00  2.48783888E+00  6.87795048E-01
  0.00000000E+00  2.48783888E+00  6.87795048E-01  0.00000000E+00 -1.10167897E-17
  1.72694705E+00  0.00000000E+00 -1.10167897E-17  1.72694705E+00  0.00000000E+00
 -1.10167897E-17  1.72694705E+00  0.00000000E+00 -1.10167897E-17  1.72694705E+00
  0.00000000E+00 -1.10167897E-17  1.72694705E+00  0.00000000E+00 -1.10167897E-17
  1.72694705E+00  0.00000000E+00 -1.10167897E-17  1.72694705E+00  0.00000000E+00
 -1.10167897E-17  1.72694705E+00  0.00000000E+00 -1.10167897E-17  1.72694705E+00
  0.00000000E+00 -1.10167897E-17  1.72694705E+00  0.00000000E+00 -1.10167897E-17
  1.72694705E+00  0.00000000E+00 -1.10167897E-17  1.72694705E+00  0.00000000E+00
 -1.10167897E-17  1.72694705E+00  0.00000000E+00 -1.10167897E-17  1.72694705E+00
  0.00000000E+00 -1.87132057E+00 -9.23430893E-02  0.00000000E+00 -1.87132057E+00
 -9.23430893E-02  0.00000000E+00 -1.87132057E+00 -9.23430893E-02  0.00000000E+00
 -1.87132057E+00 -9.23430893E-02  0.00000000E+00 -1.87132057E+00 -9.23430893E-02
  0.00000000E+00 -1.87132057E+00 -9.23430893E-02  0.00000000E+00 -1.87132057E+00
 -9.23430893E-02  0.00000000E+00 -1.87132057E+00 -9.23430893E-02  0.00000000E+00
 -1.87132057E+00 -9.23430893E-02  0.00000000E+00 -1.87132057E+00 -9.23430893E-02
  0.00000000E+00 -1.87132057E+00 -9.23430893E-02  0.00000000E+00 -1.87132057E+00
 -9.23430893E-02  0.00000000E+00 -1.87132057E+00 -9.23430893E-02  0.00000000E+00
 -1.87132057E+00 -9.23430893E-02  0.00000000E+00 -1.11288261E+00 -2.19227030E+00
  0.00000000E+00 -1.11288261E+00 -2.19227030E+00  0.00000000E+00 -1.11288261E+00
 -2.19227030E+00  0.00000000E+00 -1.11288261E+00 -2.19227030E+00  0.00000000E+00
 -1.11288261E+00 -2.19227030E+00  0.00000000E+00 -1.11288261E+00 -2.19227030E+00
  0.00000000E+00 -1.11288261E+00 -2.19227030E+00  0.00000000E+00 -1.11288261E+00
 -2.19227030E+00  0.00000000E+00 -1.11288261E+00 -2.19227030E+00  0.00000000E+00
 -1.11288261E+00 -2.19227030E+00  0.00000000E+00 -1.11288261E+00 -2.19227030E+00
  0.00000000E+00 -1.11288261E+00 -2.19227030E+00  0.00000000E+00 -1.11288261E+00
 -2.19227030E+00  0.00000000E+00 -1.11288261E+00 -2.19227030E+00  0.00000000E+00
Num ILSW                                   I              100
ILSW                                       I   N=         100
           0           0           0           0           2           0
           0           0           0           0           0          -1
           5           0           0           0           2           0
           0           0           0           0           1           0
           1           0           0           0           0           0
           0           0      100000           0          -1           0
           0           0           0           0           0           0
           0           0           0           1           1           0
           0 -2000000000           1           0           0           0
           0           0           4          52           0           0
           0           0           0           0           0           0
           0           0           0           5           4           1
           0           0           0           0           0           0
           0           0           0           0           0           0
           0           0           0           0           0           0
           0           0           0           0           0           0
           0           0           0           0
Num RLSW                                   I               52
RLSW                                       R   N=          52
  1.00000000E+00  1.00000000E+00  1.00000000E+00  1.00000000E+00  1.00000000E+00
  0.00000000E+00  0.00000000E+00  1.00000000E+00  0.00000000E+00  0.00000000E+00
  0.00000000E+00  0.00000000E+00  1.00000000E+00  0.00000000E+00  0.00000000E+00
  0.00000000E+00  0.00000000E+00  1.00000000E+00  0.00000000E+00  0.00000000E+00
  0.00000000E+00  0.00000000E+00  1.00000000E+00  0.00000000E+00  0.00000000E+00
  0.00000000E+00  0.00000000E+00  1.00000000E+00  0.00000000E+00  0.00000000E+00
  0.00000000E+00  0.00000000E+00  1.00000000E+00  0.00000000E+00  0.00000000E+00
  0.00000000E+00  0.00000000E+00  0.00000000E+00  1.00000000E+00  1.00000000E+00
  0.00000000E+00  1.00000000E+00  0.00000000E+00  0.00000000E+00  0.00000000E+00
  0.00000000E+00  0.00000000E+00  0.00000000E+00  0.00000000E+00  0.00000000E+00
  0.00000000E+00  0.00000000E+00
MxBond                                     I                2
NBond                                      I   N=           5
           1           2           2           2           1
IBond                                      I   N=          10
           2           0           1           3           2           4
           3           5           4           0
RBond                                      R   N=          10
  1.00000000E+00  0.00000000E+00  1.00000000E+00  1.00000000E+00  1.00000000E+00
  1.00000000E+00  1.00000000E+00  2.00000000E+00  2.00000000E+00  0.00000000E+00
Virial Ratio                               R      2.002016584135107E+00
SCF Energy                                 R     -2.795084571648434E+02
MP2 Energy                                 R     -2.804549972629593E+02
Total Energy                               R     -2.804549972629593E+02
Post-SCF wavefunction norm                 R      1.582433359781614E+00
RMS Force                                  R      6.751572321508415E-03
RMS Density                                R      3.276608669450399E-09
NImag                                      I                0
Job Status                                 I                1
Nuclear derivative order                   I                2
External E-field                           R   N=          35
  0.00000000E+00  0.00000000E+00  0.00000000E+00  0.00000000E+00  0.00000000E+00
  0.00000000E+00  0.00000000E+00  0.00000000E+00  0.00000000E+00  0.00000000E+00
  0.00000000E+00  0.00000000E+00  0.00000000E+00  0.00000000E+00  0.00000000E+00
  0.00000000E+00  0.00000000E+00  0.00000000E+00  0.00000000E+00  0.00000000E+00
  0.00000000E+00  0.00000000E+00  0.00000000E+00  0.00000000E+00  0.00000000E+00
  0.00000000E+00  0.00000000E+00  0.00000000E+00  0.00000000E+00  0.00000000E+00
  0.00000000E+00  0.00000000E+00  0.00000000E+00  0.00000000E+00  0.00000000E+00
IOpCl                                      I                0
IROHF                                      I                0
Alpha Orbital Energies                     R   N=         207
 -2.07167351E+01 -2.06879171E+01 -2.06671009E+01 -1.58238525E+01 -1.65209184E+00
 -1.50805698E+00 -1.29244284E+00 -9.58369266E-01 -8.37579280E-01 -7.61855957E-01
 -7.42182009E-01 -6.37495214E-01 -6.21377911E-01 -6.18871371E-01 -5.02238990E-01
 -4.96621314E-01  3.49838815E-02  6.43980122E-02  9.51547867E-02  1.00505698E-01
  1.19415599E-01  1.22729570E-01  1.49319560E-01  1.52073715E-01  1.77941608E-01
  1.80236469E-01  1.89816094E-01  2.11007754E-01  2.16774976E-01  2.43821927E-01
  2.46598665E-01  2.69371588E-01  3.12818618E-01  3.16613841E-01  3.38018369E-01
  3.44813952E-01  3.48202329E-01  3.93168977E-01  4.48735739E-01  4.89357175E-01
  5.05184632E-01  5.19259669E-01  5.45548687E-01  5.60517017E-01  6.02730671E-01
  6.22567227E-01  6.41739168E-01  6.87481621E-01  7.16775754E-01  7.24719406E-01
  7.45781765E-01  7.63132058E-01  7.67144106E-01  7.96131147E-01  8.07510443E-01
  8.41401009E-01  8.43943622E-01  8.51995759E-01  8.86819448E-01  9.08597255E-01
  9.31956054E-01  9.50802469E-01  9.54005858E-01  1.01885106E+00  1.03180849E+00
  1.06261130E+00  1.06677656E+00  1.09563305E+00  1.14406649E+00  1.15675903E+00
  1.17153035E+00  1.22408280E+00  1.22783457E+00  1.24694141E+00  1.35224858E+00
  1.36079578E+00  1.37375885E+00  1.46888588E+00  1.48603228E+00  1.50511288E+00
  1.54134916E+00  1.59662970E+00  1.59869594E+00  1.60748054E+00  1.63031058E+00
  1.69853945E+00  1.74109072E+00  1.80328669E+00  1.82981316E+00  1.89234908E+00
  1.89746935E+00  1.92674556E+00  1.98044995E+00  1.99037019E+00  2.04890409E+00
  2.12702464E+00  2.13106255E+00  2.16641112E+00  2.18663043E+00  2.24405101E+00
  2.25907104E+00  2.29520934E+00  2.35294522E+00  2.36784524E+00  2.38808568E+00
  2.40664191E+00  2.43584082E+00  2.46817853E+00  2.48021638E+00  2.52873869E+00
  2.54004229E+00  2.55320864E+00  2.56289766E+00  2.62074871E+00  2.63039616E+00
  2.67692464E+00  2.68051236E+00  2.75955032E+00  2.81259967E+00  2.82131190E+00
  2.84191762E+00  2.91995453E+00  2.98972782E+00  3.05311511E+00  3.05318441E+00
  3.11677526E+00  3.11717844E+00  3.17652454E+00  3.21403959E+00  3.31145206E+00
  3.33222526E+00  3.36313077E+00  3.47964552E+00  3.68890214E+00  3.87049758E+00
  3.93026084E+00  4.18525795E+00  4.22503992E+00  4.22990588E+00  4.29137057E+00
  4.37088944E+00  4.50429791E+00  4.52918472E+00  4.57015485E+00  4.60041976E+00
  4.69798635E+00  4.81590673E+00  4.90089166E+00  4.91380215E+00  4.94681556E+00
  4.99621206E+00  5.00456239E+00  5.11031165E+00  5.14173903E+00  5.18051682E+00
  5.26049155E+00  5.26363287E+00  5.32173932E+00  5.35013752E+00  5.35676330E+00
  5.53821973E+00  5.66516801E+00  5.71436941E+00  5.88631777E+00  6.00954040E+00
  6.26675877E+00  6.29848059E+00  6.36378843E+00  6.37943202E+00  6.59998346E+00
  6.66121147E+00  6.66156809E+00  6.69278938E+00  6.73194165E+00  6.79309432E+00
  6.80542565E+00  6.86123188E+00  6.97228787E+00  7.02112651E+00  7.06786292E+00
  7.08304178E+00  7.14544650E+00  7.18065341E+00  7.18473591E+00  7.20641021E+00
  7.25004300E+00  7.25259310E+00  7.29438416E+00  7.35537819E+00  7.40394459E+00
  7.43312003E+00  7.44691187E+00  7.47888409E+00  7.58244401E+00  7.66538983E+00
  7.67360466E+00  7.80106681E+00  7.88802599E+00  7.95938610E+00  8.08170450E+00
  8.30796513E+00  8.50170609E+00  8.65821909E+00  1.36446583E+01  1.48389481E+01
  1.51659651E+01  1.61031428E+01
Alpha MO coefficients                      R   N=       42849
  6.39245806E-05 -2.72641816E-05 -1.07774951E-03  1.53865478E-05 -5.14901881E-05
  4.19705390E-05  0.00000000E+00 -8.85341643E-05 -2.86692594E-04  0.00000000E+00
 -4.41782358E-06 -3.42504929E-04  0.00000000E+00  4.24615896E-05  0.00000000E+00
  0.00000000E+00 -2.57610489E-05  1.13336780E-05  2.24917675E-04  0.00000000E+00
  0.00000000E+00 -3.98132996E-05 -2.05370142E-04  3.18684264E-03 -9.83965313E-05
 -9.43395676E-05  3.53724943E-03  2.46328646E-03  1.02522117E-04 -5.35157463E-05
  0.00000000E+00 -7.29229425E-04  2.86630461E-04  0.00000000E+00 -1.98687632E-03
  1.10427594E-03  0.00000000E+00 -5.36298702E-04  3.95947585E-05  0.00000000E+00
  2.05139385E-05  0.00000000E+00  0.00000000E+00 -8.94867734E-06  4.42138163E-05
 -4.43645378E-04  0.00000000E+00  0.00000000E+00  4.29835536E-04 -6.62257200E-04
 -3.66663209E-04  0.00000000E+00  0.00000000E+00  5.46272376E-04 -7.35450463E-04
  0.00000000E+00  7.40296371E-05 -5.24660818E-05  0.00000000E+00  0.00000000E+00
 -2.83032870E-05  1.08363663E-04  0.00000000E+00  2.08569357E-04 -5.01054689E-05
  0.00000000E+00  0.00000000E+00 -1.70738110E-04  3.00261192E-04  9.76899495E-01
 -9.17529043E-03  4.34131898E-02  5.37709331E-04 -2.18870599E-03  4.60094885E-04
 -2.13795191E-03  0.00000000E+00 -3.33825646E-04  2.24365395E-03  0.00000000E+00
 -2.33000702E-03 -4.90320352E-04  0.00000000E+00 -2.23126176E-04  9.35555396E-05
  0.00000000E+00  7.61754862E-06  0.00000000E+00  0.00000000E+00 -6.09848418E-06
  3.90220057E-05  8.26040470E-04  0.00000000E+00  0.00000000E+00 -4.74454113E-04
 -1.67638502E-04 -1.39080266E-04  0.00000000E+00  0.00000000E+00 -5.46070042E-04
  3.54584299E-04  0.00000000E+00 -5.77068472E-06 -7.89848842E-05  0.00000000E+00
  0.00000000E+00 -8.91181623E-06  4.77520111E-05  0.00000000E+00  9.21590831E-05
  5.88852297E-07  0.00000000E+00  0.00000000E+00 -3.38733843E-04  3.78535040E-04
  1.01653770E-04  4.41451550E-04 -3.22958260E-04 -9.21838800E-04  3.19448274E-04
 -4.37247332E-05 -9.96240598E-05  0.00000000E+00  6.89640092E-04  1.12472152E-03
  0.00000000E+00 -7.98968631E-04 -6.68541246E-04  0.00000000E+00  1.92661428E-04
  2.17520977E-04  0.00000000E+00 -5.18380572E-05  0.00000000E+00  0.00000000E+00
  1.94054269E-05  9.41670561E-05 -4.12558222E-04  0.00000000E+00  0.00000000E+00
  4.66780026E-05  1.07802641E-03  3.33069536E-05  0.00000000E+00  0.00000000E+00
 -3.16458208E-04  2.17366685E-05  0.00000000E+00 -7.84489419E-05 -1.13515199E-04
  0.00000000E+00  0.00000000E+00 -9.54550453E-05  1.03781295E-04  0.00000000E+00
 -1.23313189E-04  5.02027395E-05  0.00000000E+00  0.00000000E+00  1.99995151E-05
  5.18481756E-04 -8.11901569E-04  5.27550835E-05 -7.45909761E-05  2.53334306E-04
 -1.53065114E-04 -2.81369190E-05 -4.19587701E-05  0.00000000E+00  1.67322736E-04
  2.65599592E-04  0.00000000E+00  5.15094521E-04  3.60430863E-04  0.00000000E+00
 -2.26335087E-04 -5.92348141E-05  0.00000000E+00 -1.35751961E-05  0.00000000E+00
  0.00000000E+00  2.79668694E-06  1.68124811E-05 -8.71677997E-07  0.00000000E+00
  0.00000000E+00 -1.65228950E-04 -1.62633060E-06 -2.53690906E-05  0.00000000E+00
  0.00000000E+00 -1.79964977E-04 -5.34654053E-05  0.00000000E+00 -4.88598181E-06
 -8.51130292E-06  0.00000000E+00  0.00000000E+00 -1.98942915E-05  1.04328090E-05
  0.00000000E+00  4.10464159E-05  6.14769814E-05  0.00000000E+00  0.00000000E+00
  1.62710826E-04 -1.02117833E-04  3.89484372E-05  6.03865730E-05 -8.22672801E-05
 -2.38015830E-05  2.02860862E-05  1.10628535E-05  0.00000000E+00  2.36151986E-04
  4.94109491E-05  0.00000000E+00  1.17780375E-04  2.47715229E-05  0.00000000E+00
  1.34861643E-05  0.00000000E+00  0.00000000E+00 -1.06954264E-05  1.72479960E-05
  1.69539066E-05  0.00000000E+00  0.00000000E+00 -8.37179392E-05  6.63786528E-05
 -2.30645901E-04  2.33066585E-05 -1.22297805E-05 -5.35462355E-04  1.45690411E-04
  5.82477892E-06  1.40570228E-05  0.00000000E+00  7.02538590E-06 -4.64003417E-05
  0.00000000E+00  1.56621782E-04  1.27830787E-04  0.00000000E+00 -4.38262648E-05
  5.26305607E-05  0.00000000E+00 -1.48995644E-06  0.00000000E+00  0.00000000E+00
 -8.03242374E-06 -1.15684163E-05  2.26337016E-05  0.00000000E+00  0.00000000E+00
  4.38586759E-05  1.11033077E-04  6.28129831E-05  0.00000000E+00  0.00000000E+00
 -1.69300380E-05 -6.74203281E-05  0.00000000E+00  7.23420403E-06  1.07265118E-05
  0.00000000E+00  0.00000000E+00 -4.27489753E-07 -2.51756121E-05  0.00000000E+00
 -1.37641141E-05 -3.75876333E-05  0.00000000E+00  0.00000000E+00 -2.40853152E-07
 -2.25481206E-05  8.40742715E-04  1.98964872E-05 -1.57975831E-05  3.67563149E-04
 -3.16038431E-04  1.82839856E-05  2.63602014E-05  0.00000000E+00 -7.45280268E-05
 -1.51952545E-04  0.00000000E+00  7.26791049E-05 -1.98831478E-04  0.00000000E+00
 -1.67556152E-04  1.30432162E-04  0.00000000E+00 -3.87693721E-06  0.00000000E+00
  0.00000000E+00 -3.30540116E-05 -9.24349962E-06 -5.47457090E-05  0.00000000E+00
  0.00000000E+00  1.04623727E-04  1.22913998E-04 -7.58710181E-05  0.00000000E+00
  0.00000000E+00  7.37384773E-05  4.64241248E-05  0.00000000E+00  3.32133022E-06
  2.71700584E-06  0.00000000E+00  0.00000000E+00 -7.55828158E-06 -4.72455723E-06
  0.00000000E+00  6.18448520E-06 -2.37614261E-05  0.00000000E+00  0.00000000E+00
  8.60037475E-05 -1.68970791E-04  2.41132218E-04  1.38921096E-03 -9.23916305E-05
 -1.04636090E-03  7.72222748E-04  7.36187080E-05 -1.00716206E-04  0.00000000E+00
  5.72418194E-04 -2.06075683E-03  0.00000000E+00  3.16963064E-05  5.78261771E-04
  0.00000000E+00  1.67129015E-04 -2.92646182E-04  0.00000000E+00 -1.26525666E-04
  0.00000000E+00  0.00000000E+00 -2.05480943E-04 -1.57403350E-04 -4.21091355E-04
  0.00000000E+00  0.00000000E+00 -5.19070843E-04 -9.02115351E-04 -1.35688364E-05
  0.00000000E+00  0.00000000E+00  1.02069524E-04  1.29120107E-04  0.00000000E+00
  1.43127317E-05  1.75992876E-05  0.00000000E+00  0.00000000E+00  2.87662428E-07
 -1.98820474E-05  0.00000000E+00 -1.30792524E-04  1.56521640E-04  0.00000000E+00
  0.00000000E+00 -2.81542176E-04 -3.07752004E-05  9.76624114E-01 -9.87662125E-03
  4.36101725E-02  3.91253539E-03 -7.96955149E-04 -4.55204579E-04  2.14360805E-03
  0.00000000E+00  4.97184169E-04 -2.46023496E-03  0.00000000E+00 -1.12204902E-04
  8.76421326E-04  0.00000000E+00  9.76653761E-05 -5.33645805E-05  0.00000000E+00
 -2.03858042E-04  0.00000000E+00  0.00000000E+00 -8.56596489E-05 -5.23400368E-05
  4.02076700E-04  0.00000000E+00  0.00000000E+00  8.44683402E-04  4.67950339E-04
 -1.96100312E-04  0.00000000E+00  0.00000000E+00 -1.35899627E-04 -3.79336278E-05
  0.00000000E+00 -2.40134945E-06  6.38023816E-05  0.00000000E+00  0.00000000E+00
 -2.10395805E-05  6.83489415E-06  0.00000000E+00 -9.07641190E-05  1.00417055E-04
  0.00000000E+00  0.00000000E+00 -1.67294501E-04  2.07381461E-04  3.75035007E-04
  2.00890872E-03  1.40150562E-03 -2.01141984E-05  5.15195797E-05  2.69827713E-04
  0.00000000E+00  3.73997073E-04  1.03136747E-03  0.00000000E+00 -1.29293188E-04
  2.47109773E-04  0.00000000E+00 -2.41966425E-05  0.00000000E+00  0.00000000E+00
  3.24003440E-05 -2.92176906E-05 -2.17153104E-04  0.00000000E+00  0.00000000E+00
 -3.45260719E-04  4.02977816E-04  9.76834030E-01 -9.18634213E-03  4.34656407E-02
  1.31683399E-04 -1.94020783E-03 -2.04240881E-03 -8.41177687E-04  0.00000000E+00
  2.08155683E-03  7.78629636E-04  0.00000000E+00 -4.06523310E-04  6.52655235E-04
  0.00000000E+00  2.30605532E-04 -2.99134669E-04  0.00000000E+00  3.05945553E-05
  0.00000000E+00  0.00000000E+00 -7.41022187E-05  6.27680285E-05  7.66476033E-04
  0.00000000E+00  0.00000000E+00 -2.07221713E-04  3.48335109E-04 -2.38029887E-04
  0.00000000E+00  0.00000000E+00  3.37401775E-04  4.85367389E-06  0.00000000E+00
 -8.07437974E-05  1.09510981E-06  0.00000000E+00  0.00000000E+00  1.58570691E-05