title                                                                   
Freq      RMP2-FC                                                     Aug-CC-pVTZ         
Number of atoms                            I                5
Info1-9                                    I   N=           9
          33          24           0           0           0         100
           6           2           1
Full Title                                 C   N=           1
title       
Route                                      C   N=           4
#p freq mp2/aug-cc-pvtz density=current         
Charge                                     I                0
Multiplicity                               I                1
Number of electrons                        I               32
Number of alpha electrons                  I               16
Number of beta electrons                   I               16
Number of basis functions                  I              207
Number of independent functions            I              207
Number of point charges in /Mol/           I                0
Number of translation vectors              I                0
Atomic numbers                             I   N=           5
           1           8           8           7           8
Nuclear charges                            R   N=           5
  1.00000000E+00  8.00000000E+00  8.00000000E+00  7.00000000E+00  8.00000000E+00
Current cartesian coordinates              R   N=          15
  2.11241292E+00 -1.10831268E+00 -4.93038066E-32  2.49247869E+00  7.14579676E-01
 -9.86076132E-32  1.46485205E-16  1.74255302E+00  3.69778549E-32 -1.88428249E+00
 -1.05864609E-01  4.93038066E-32 -1.10778312E+00 -2.22596208E+00  0.00000000E+00
Number of symbols in /Mol/                 I                0
Force Field                                I                0
Atom Types                                 C   N=           5
                                                            
Int Atom Types                             I   N=           5
           0           0           0           0           0
MM charges                                 R   N=           5
  0.00000000E+00  0.00000000E+00  0.00000000E+00  0.00000000E+00  0.00000000E+00
Integer atomic weights                     I   N=           5
           1          16          16          14          16
Real atomic weights                        R   N=           5
  1.00782504E+00  1.59949146E+01  1.59949146E+01  1.40030740E+01  1.59949146E+01
Atom fragment info                         I   N=           5
           0           0           0           0           0
Atom residue num                           I   N=           5
           0           0           0           0           0
Nuclear spins                              I   N=           5
           1           0           0           2           0
Nuclear ZEff                               R   N=           5
 -1.00000000E+00 -5.60000000E+00 -5.60000000E+00 -4.55000000E+00 -5.60000000E+00
Nuclear ZNuc                               R   N=           5
  1.00000000E+00  8.00000000E+00  8.00000000E+00  7.00000000E+00  8.00000000E+00
Nuclear QMom                               R   N=           5
  0.00000000E+00  0.00000000E+00  0.00000000E+00  2.04400000E+00  0.00000000E+00
Nuclear GFac                               R   N=           5
  2.79284600E+00  0.00000000E+00  0.00000000E+00  4.03761000E-01  0.00000000E+00
MicOpt                                     I   N=           5
          -1          -1          -1          -1          -1
Number of residues                         I                0
Number of secondary structures             I                0
SymInf integers                            I   N=          26
           1           2           1           1           1           1
           1          -1           0           0           0           0
           0           0           0           0           0           0
           0           0           0           0           0           0
           0           0
RotTr to input orientation                 R   N=          12
 -9.78948612E-01 -1.22549326E-16  2.04106873E-01  2.04106873E-01  2.55510448E-17
  9.78948612E-01 -1.25184637E-16  1.00000000E+00  0.00000000E+00  2.29415793E+00
  0.00000000E+00  6.53823166E-01
Number of contracted shells                I               65
Number of primitive shells                 I              119
Pure/Cartesian d shells                    I                0
Pure/Cartesian f shells                    I                0
Highest angular momentum                   I                3
Largest degree of contraction              I                7
Shell types                                I   N=          65
           0           0           0           0           1           1
           1          -2          -2           0           0           0
           0           0           1           1           1           1
          -2          -2          -2          -3          -3           0
           0           0           0           0           1           1
           1           1          -2          -2          -2          -3
          -3           0           0           0           0           0
           1           1           1           1          -2          -2
          -2          -3          -3           0           0           0
           0           0           1           1           1           1
          -2          -2          -2          -3          -3
Number of primitives per shell             I   N=          65
           3           1           1           1           1           1
           1           1           1           7           6           1
           1           1           3           1           1           1
           1           1           1           1           1           7
           6           1           1           1           3           1
           1           1           1           1           1           1
           1           7           6           1           1           1
           3           1           1           1           1           1
           1           1           1           7           6           1
           1           1           3           1           1           1
           1           1           1           1           1
Shell to atom map                          I   N=          65
           1           1           1           1           1           1
           1           1           1           2           2           2
           2           2           2           2           2           2
           2           2           2           2           2           3
           3           3           3           3           3           3
           3           3           3           3           3           3
           3           4           4           4           4           4
           4           4           4           4           4           4
           4           4           4           5           5           5
           5           5           5           5           5           5
           5           5           5           5           5
Primitive exponents                        R   N=         119
  3.38700000E+01  5.09500000E+00  1.15900000E+00  3.25800000E-01  1.02700000E-01
  2.52600000E-02  1.40700000E+00  3.88000000E-01  1.02000000E-01  1.05700000E+00
  2.47000000E-01  1.53300000E+04  2.29900000E+03  5.22400000E+02  1.47300000E+02
  4.75500000E+01  1.67600000E+01  6.20700000E+00  5.22400000E+02  1.47300000E+02
  4.75500000E+01  1.67600000E+01  6.20700000E+00  6.88200000E-01  1.75200000E+00
  2.38400000E-01  7.37600000E-02  3.44600000E+01  7.74900000E+00  2.28000000E+00
  7.15600000E-01  2.14000000E-01  5.97400000E-02  2.31400000E+00  6.45000000E-01
  2.14000000E-01  1.42800000E+00  5.00000000E-01  1.53300000E+04  2.29900000E+03
  5.22400000E+02  1.47300000E+02  4.75500000E+01  1.67600000E+01  6.20700000E+00
  5.22400000E+02  1.47300000E+02  4.75500000E+01  1.67600000E+01  6.20700000E+00
  6.88200000E-01  1.75200000E+00  2.38400000E-01  7.37600000E-02  3.44600000E+01
  7.74900000E+00  2.28000000E+00  7.15600000E-01  2.14000000E-01  5.97400000E-02
  2.31400000E+00  6.45000000E-01  2.14000000E-01  1.42800000E+00  5.00000000E-01
  1.14200000E+04  1.71200000E+03  3.89300000E+02  1.10000000E+02  3.55700000E+01
  1.25400000E+01  4.64400000E+00  3.89300000E+02  1.10000000E+02  3.55700000E+01
  1.25400000E+01  4.64400000E+00  5.11800000E-01  1.29300000E+00  1.78700000E-01
  5.76000000E-02  2.66300000E+01  5.94800000E+00  1.74200000E+00  5.55000000E-01
  1.72500000E-01  4.91000000E-02  1.65400000E+00  4.69000000E-01  1.51000000E-01
  1.09300000E+00  3.64000000E-01  1.53300000E+04  2.29900000E+03  5.22400000E+02
  1.47300000E+02  4.75500000E+01  1.67600000E+01  6.20700000E+00  5.22400000E+02
  1.47300000E+02  4.75500000E+01  1.67600000E+01  6.20700000E+00  6.88200000E-01
  1.75200000E+00  2.38400000E-01  7.37600000E-02  3.44600000E+01  7.74900000E+00
  2.28000000E+00  7.15600000E-01  2.14000000E-01  5.97400000E-02  2.31400000E+00
  6.45000000E-01  2.14000000E-01  1.42800000E+00  5.00000000E-01
Contraction coefficients                   R   N=         119
  2.54948632E-02  1.90362766E-01  8.52162022E-01  1.00000000E+00  1.00000000E+00
  1.00000000E+00  1.00000000E+00  1.00000000E+00  1.00000000E+00  1.00000000E+00
  1.00000000E+00  5.19808943E-04  4.02025621E-03  2.07128267E-02  8.10105536E-02
  2.35962985E-01  4.42653446E-01  3.57064423E-01 -4.42115008E-05 -1.22591041E-03
 -1.05517725E-02 -6.74452633E-02 -1.71198607E-01  1.07329856E+00  1.00000000E+00
  1.00000000E+00  1.00000000E+00  4.11634896E-02  2.57762836E-01  8.02419274E-01
  1.00000000E+00  1.00000000E+00  1.00000000E+00  1.00000000E+00  1.00000000E+00
  1.00000000E+00  1.00000000E+00  1.00000000E+00  5.19808943E-04  4.02025621E-03
  2.07128267E-02  8.10105536E-02  2.35962985E-01  4.42653446E-01  3.57064423E-01
 -4.42115008E-05 -1.22591041E-03 -1.05517725E-02 -6.74452633E-02 -1.71198607E-01
  1.07329856E+00  1.00000000E+00  1.00000000E+00  1.00000000E+00  4.11634896E-02
  2.57762836E-01  8.02419274E-01  1.00000000E+00  1.00000000E+00  1.00000000E+00
  1.00000000E+00  1.00000000E+00  1.00000000E+00  1.00000000E+00  1.00000000E+00
  5.34563860E-04  4.13435660E-03  2.12335358E-02  8.25006224E-02  2.38138871E-01
  4.42551547E-01  3.53757422E-01 -4.89867350E-05 -1.19527323E-03 -1.03490714E-02
 -6.48680190E-02 -1.71552477E-01  1.07289568E+00  1.00000000E+00  1.00000000E+00
  1.00000000E+00  3.98072123E-02  2.49002660E-01  8.10479727E-01  1.00000000E+00
  1.00000000E+00  1.00000000E+00  1.00000000E+00  1.00000000E+00  1.00000000E+00
  1.00000000E+00  1.00000000E+00  5.19808943E-04  4.02025621E-03  2.07128267E-02
  8.10105536E-02  2.35962985E-01  4.42653446E-01  3.57064423E-01 -4.42115008E-05
 -1.22591041E-03 -1.05517725E-02 -6.74452633E-02 -1.71198607E-01  1.07329856E+00
  1.00000000E+00  1.00000000E+00  1.00000000E+00  4.11634896E-02  2.57762836E-01
  8.02419274E-01  1.00000000E+00  1.00000000E+00  1.00000000E+00  1.00000000E+00
  1.00000000E+00  1.00000000E+00  1.00000000E+00  1.00000000E+00
Coordinates of each shell                  R   N=         195
  2.11241292E+00 -1.10831268E+00 -5.92829953E-32  2.11241292E+00 -1.10831268E+00
 -5.92829953E-32  2.11241292E+00 -1.10831268E+00 -5.92829953E-32  2.11241292E+00
 -1.10831268E+00 -5.92829953E-32  2.11241292E+00 -1.10831268E+00 -5.92829953E-32
  2.11241292E+00 -1.10831268E+00 -5.92829953E-32  2.11241292E+00 -1.10831268E+00
 -5.92829953E-32  2.11241292E+00 -1.10831268E+00 -5.92829953E-32  2.11241292E+00
 -1.10831268E+00 -5.92829953E-32  2.49247869E+00  7.14579676E-01 -5.42880806E-32
  2.49247869E+00  7.14579676E-01 -5.42880806E-32  2.49247869E+00  7.14579676E-01
 -5.42880806E-32  2.49247869E+00  7.14579676E-01 -5.42880806E-32  2.49247869E+00
  7.14579676E-01 -5.42880806E-32  2.49247869E+00  7.14579676E-01 -5.42880806E-32
  2.49247869E+00  7.14579676E-01 -5.42880806E-32  2.49247869E+00  7.14579676E-01
 -5.42880806E-32  2.49247869E+00  7.14579676E-01 -5.42880806E-32  2.49247869E+00
  7.14579676E-01 -5.42880806E-32  2.49247869E+00  7.14579676E-01 -5.42880806E-32
  2.49247869E+00  7.14579676E-01 -5.42880806E-32  2.49247869E+00  7.14579676E-01
 -5.42880806E-32  2.49247869E+00  7.14579676E-01 -5.42880806E-32  2.51010109E-17
  1.74255302E+00  1.34947018E-32  2.51010109E-17  1.74255302E+00  1.34947018E-32
  2.51010109E-17  1.74255302E+00  1.34947018E-32  2.51010109E-17  1.74255302E+00
  1.34947018E-32  2.51010109E-17  1.74255302E+00  1.34947018E-32  2.51010109E-17
  1.74255302E+00  1.34947018E-32  2.51010109E-17  1.74255302E+00  1.34947018E-32
  2.51010109E-17  1.74255302E+00  1.34947018E-32  2.51010109E-17  1.74255302E+00
  1.34947018E-32  2.51010109E-17  1.74255302E+00  1.34947018E-32  2.51010109E-17
  1.74255302E+00  1.34947018E-32  2.51010109E-17  1.74255302E+00  1.34947018E-32
  2.51010109E-17  1.74255302E+00  1.34947018E-32  2.51010109E-17  1.74255302E+00
  1.34947018E-32 -1.88428249E+00 -1.05864609E-01  4.44047934E-32 -1.88428249E+00
 -1.05864609E-01  4.44047934E-32 -1.88428249E+00 -1.05864609E-01  4.44047934E-32
 -1.88428249E+00 -1.05864609E-01  4.44047934E-32 -1.88428249E+00 -1.05864609E-01
  4.44047934E-32 -1.88428249E+00 -1.05864609E-01  4.44047934E-32 -1.88428249E+00
 -1.05864609E-01  4.44047934E-32 -1.88428249E+00 -1.05864609E-01  4.44047934E-32
 -1.88428249E+00 -1.05864609E-01  4.44047934E-32 -1.88428249E+00 -1.05864609E-01
  4.44047934E-32 -1.88428249E+00 -1.05864609E-01  4.44047934E-32 -1.88428249E+00
 -1.05864609E-01  4.44047934E-32 -1.88428249E+00 -1.05864609E-01  4.44047934E-32
 -1.88428249E+00 -1.05864609E-01  4.44047934E-32 -1.10778312E+00 -2.22596208E+00
  9.34955906E-33 -1.10778312E+00 -2.22596208E+00  9.34955906E-33 -1.10778312E+00
 -2.22596208E+00  9.34955906E-33 -1.10778312E+00 -2.22596208E+00  9.34955906E-33
 -1.10778312E+00 -2.22596208E+00  9.34955906E-33 -1.10778312E+00 -2.22596208E+00
  9.34955906E-33 -1.10778312E+00 -2.22596208E+00  9.34955906E-33 -1.10778312E+00
 -2.22596208E+00  9.34955906E-33 -1.10778312E+00 -2.22596208E+00  9.34955906E-33
 -1.10778312E+00 -2.22596208E+00  9.34955906E-33 -1.10778312E+00 -2.22596208E+00
  9.34955906E-33 -1.10778312E+00 -2.22596208E+00  9.34955906E-33 -1.10778312E+00
 -2.22596208E+00  9.34955906E-33 -1.10778312E+00 -2.22596208E+00  9.34955906E-33
Num ILSW                                   I              100
ILSW                                       I   N=         100
           0           0           0           0           2           0
           0           0           0           0           0          -1
           5           0           0           0           2           0
           0           0           0           0           1           0
           1           0           0           0           0           0
           0           0      100000           0          -1           0
           0           0           0           0           0           0
           0           0           0           1           1           0
           0 -2000000000           1           0           0           0
           0           0           4          52           0           0
           0           0           0           0           0           0
           0           0           0           5           4           1
           0           0           0           0           0           0
           0           0           0           0           0           0
           0           0           0           0           0           0
           0           0           0           0           0           0
           0           0           0           0
Num RLSW                                   I               52
RLSW                                       R   N=          52
  1.00000000E+00  1.00000000E+00  1.00000000E+00  1.00000000E+00  1.00000000E+00
  0.00000000E+00  0.00000000E+00  1.00000000E+00  0.00000000E+00  0.00000000E+00
  0.00000000E+00  0.00000000E+00  1.00000000E+00  0.00000000E+00  0.00000000E+00
  0.00000000E+00  0.00000000E+00  1.00000000E+00  0.00000000E+00  0.00000000E+00
  0.00000000E+00  0.00000000E+00  1.00000000E+00  0.00000000E+00  0.00000000E+00
  0.00000000E+00  0.00000000E+00  1.00000000E+00  0.00000000E+00  0.00000000E+00
  0.00000000E+00  0.00000000E+00  1.00000000E+00  0.00000000E+00  0.00000000E+00
  0.00000000E+00  0.00000000E+00  0.00000000E+00  1.00000000E+00  1.00000000E+00
  0.00000000E+00  1.00000000E+00  0.00000000E+00  0.00000000E+00  0.00000000E+00
  0.00000000E+00  0.00000000E+00  0.00000000E+00  0.00000000E+00  0.00000000E+00
  0.00000000E+00  0.00000000E+00
MxBond                                     I                2
NBond                                      I   N=           5
           1           2           2           2           1
IBond                                      I   N=          10
           2           0           1           3           2           4
           3           5           4           0
RBond                                      R   N=          10
  1.00000000E+00  0.00000000E+00  1.00000000E+00  1.00000000E+00  1.00000000E+00
  1.00000000E+00  1.00000000E+00  2.00000000E+00  2.00000000E+00  0.00000000E+00
Virial Ratio                               R      2.002338347112484E+00
SCF Energy                                 R     -2.795049960049335E+02
MP2 Energy                                 R     -2.804551461780705E+02
Total Energy                               R     -2.804551461780705E+02
Post-SCF wavefunction norm                 R      1.584640642935796E+00
RMS Force                                  R      2.000318985845493E-03
RMS Density                                R      4.788737046366458E-09
NImag                                      I                0
Job Status                                 I                1
Nuclear derivative order                   I                2
External E-field                           R   N=          35
  0.00000000E+00  0.00000000E+00  0.00000000E+00  0.00000000E+00  0.00000000E+00
  0.00000000E+00  0.00000000E+00  0.00000000E+00  0.00000000E+00  0.00000000E+00
  0.00000000E+00  0.00000000E+00  0.00000000E+00  0.00000000E+00  0.00000000E+00
  0.00000000E+00  0.00000000E+00  0.00000000E+00  0.00000000E+00  0.00000000E+00
  0.00000000E+00  0.00000000E+00  0.00000000E+00  0.00000000E+00  0.00000000E+00
  0.00000000E+00  0.00000000E+00  0.00000000E+00  0.00000000E+00  0.00000000E+00
  0.00000000E+00  0.00000000E+00  0.00000000E+00  0.00000000E+00  0.00000000E+00
IOpCl                                      I                0
IROHF                                      I                0
Alpha Orbital Energies                     R   N=         207
 -2.07172087E+01 -2.06908737E+01 -2.06673726E+01 -1.58279432E+01 -1.64068955E+00
 -1.50497457E+00 -1.28818450E+00 -9.61254561E-01 -8.32976002E-01 -7.57102553E-01
 -7.36502332E-01 -6.36975925E-01 -6.19818355E-01 -6.19089410E-01 -5.04358078E-01
 -4.95960080E-01  3.51413747E-02  5.79679902E-02  9.50413258E-02  1.00338223E-01
  1.19721582E-01  1.22256076E-01  1.49690969E-01  1.52435611E-01  1.77624423E-01
  1.80077038E-01  1.89881752E-01  2.10862144E-01  2.16760448E-01  2.42090891E-01
  2.46289096E-01  2.68484476E-01  3.11818142E-01  3.16211470E-01  3.37176551E-01
  3.38358830E-01  3.45349610E-01  3.90013094E-01  4.48453337E-01  4.88527352E-01
  5.04949755E-01  5.18113426E-01  5.44223148E-01  5.60681563E-01  5.98380317E-01
  6.19956590E-01  6.37769385E-01  6.89014106E-01  7.18941769E-01  7.23737342E-01
  7.42735547E-01  7.63092151E-01  7.66678766E-01  7.95753372E-01  8.05180514E-01
  8.39900579E-01  8.43735166E-01  8.51604133E-01  8.84246560E-01  9.07315333E-01
  9.29161235E-01  9.46559841E-01  9.55673721E-01  1.01777372E+00  1.03146556E+00
  1.06071059E+00  1.06539867E+00  1.09364750E+00  1.14327156E+00  1.15505609E+00
  1.16764041E+00  1.22143303E+00  1.22781165E+00  1.24568923E+00  1.35199790E+00
  1.36291318E+00  1.37264609E+00  1.46758048E+00  1.48483971E+00  1.50529228E+00
  1.54214741E+00  1.59547681E+00  1.59599544E+00  1.60190674E+00  1.62411724E+00
  1.69474343E+00  1.74079809E+00  1.80082946E+00  1.82745735E+00  1.88726258E+00
  1.89558612E+00  1.92375353E+00  1.97711553E+00  1.98767225E+00  2.05117633E+00
  2.11996889E+00  2.12824873E+00  2.16056284E+00  2.18730140E+00  2.24144549E+00
  2.25922790E+00  2.29506578E+00  2.35050173E+00  2.36356665E+00  2.38632950E+00
  2.40274084E+00  2.42835990E+00  2.46776287E+00  2.47669683E+00  2.52970370E+00
  2.53169389E+00  2.54847968E+00  2.55531333E+00  2.61213318E+00  2.62808954E+00
  2.66828987E+00  2.66892899E+00  2.75123375E+00  2.80619002E+00  2.81110814E+00
  2.84032738E+00  2.91316649E+00  2.97646986E+00  3.04111434E+00  3.04724063E+00
  3.11406967E+00  3.11643012E+00  3.17328410E+00  3.21322995E+00  3.30617068E+00
  3.32941702E+00  3.35150884E+00  3.48028398E+00  3.66584516E+00  3.86170880E+00
  3.92647262E+00  4.18259257E+00  4.21748627E+00  4.22131940E+00  4.26139366E+00
  4.36744760E+00  4.49784067E+00  4.51650716E+00  4.55308824E+00  4.59500118E+00
  4.69241349E+00  4.80801023E+00  4.88756695E+00  4.91146518E+00  4.93895586E+00
  4.98967318E+00  5.00303638E+00  5.10025809E+00  5.13048894E+00  5.17875681E+00
  5.24860539E+00  5.25704451E+00  5.30961243E+00  5.33978799E+00  5.35396828E+00
  5.54508226E+00  5.64116838E+00  5.69955623E+00  5.88640881E+00  6.00033732E+00
  6.26529498E+00  6.28772966E+00  6.35085762E+00  6.37623239E+00  6.59704100E+00
  6.65251281E+00  6.65685426E+00  6.68250322E+00  6.72248258E+00  6.80428614E+00
  6.80730449E+00  6.84026270E+00  6.95497325E+00  7.02051399E+00  7.06792169E+00
  7.07971792E+00  7.13971553E+00  7.16400146E+00  7.17017422E+00  7.20474710E+00
  7.24345700E+00  7.24451600E+00  7.26776906E+00  7.34370108E+00  7.37919476E+00
  7.42036632E+00  7.43932160E+00  7.46379539E+00  7.54144905E+00  7.65577672E+00
  7.65931686E+00  7.78993659E+00  7.87694362E+00  7.93004939E+00  8.05160987E+00
  8.30356372E+00  8.49431533E+00  8.64112775E+00  1.35360749E+01  1.46558805E+01
  1.50611115E+01  1.57254178E+01
Alpha MO coefficients                      R   N=       42849
  6.71949998E-05 -4.21622742E-05 -1.16669442E-03  9.27238766E-06 -5.20721646E-05
  4.32312373E-05  0.00000000E+00 -9.10998886E-05 -3.00099657E-04  0.00000000E+00
  4.94356187E-06 -3.61588362E-04  0.00000000E+00  4.33220759E-05  0.00000000E+00
  0.00000000E+00 -2.53017691E-05  1.31986146E-05  2.30499896E-04  0.00000000E+00
  0.00000000E+00 -4.25235235E-05 -2.08145309E-04  3.17376849E-03 -9.25711864E-05
 -9.65568533E-05  3.50162904E-03  2.49105315E-03  1.03886238E-04 -5.25941303E-05
  0.00000000E+00 -7.32140717E-04  2.77959946E-04  0.00000000E+00 -1.94591778E-03
  1.06250792E-03  0.00000000E+00 -5.39674391E-04  2.71400534E-05  0.00000000E+00
  2.07700148E-05  0.00000000E+00  0.00000000E+00 -1.02957694E-05  4.42406760E-05
 -4.45339960E-04  0.00000000E+00  0.00000000E+00  4.40941423E-04 -6.55463896E-04
 -3.63095948E-04  0.00000000E+00  0.00000000E+00  5.43688176E-04 -7.32908947E-04
  0.00000000E+00  7.50335142E-05 -5.23255802E-05  0.00000000E+00  0.00000000E+00
 -2.91838114E-05  1.07173894E-04  0.00000000E+00  2.09662325E-04 -4.96089004E-05
  0.00000000E+00  0.00000000E+00 -1.81912884E-04  3.00269272E-04  9.76917012E-01
 -9.15398511E-03  4.33830433E-02  5.62615584E-04 -2.19612866E-03  4.91660455E-04
 -2.12298154E-03  0.00000000E+00 -3.81203703E-04  2.21253846E-03  0.00000000E+00
 -2.23760698E-03 -5.39203561E-04  0.00000000E+00 -2.12377458E-04  9.81205619E-05
  0.00000000E+00  1.28005804E-05  0.00000000E+00  0.00000000E+00 -3.62555757E-06
  3.22836377E-05  8.16548028E-04  0.00000000E+00  0.00000000E+00 -4.80357423E-04
 -1.46670849E-04 -1.53369699E-04  0.00000000E+00  0.00000000E+00 -5.53286685E-04
  3.37006322E-04  0.00000000E+00 -3.48481520E-06 -7.91164575E-05  0.00000000E+00
  0.00000000E+00 -1.02608305E-05  4.80994966E-05  0.00000000E+00  9.14879162E-05
  7.71494962E-06  0.00000000E+00  0.00000000E+00 -3.27608435E-04  3.70208116E-04
  9.78295652E-05  4.07730950E-04 -3.22811131E-04 -7.23122601E-04  3.82171103E-04
 -4.57600212E-05 -1.02022773E-04  0.00000000E+00  6.32684353E-04  1.03584901E-03
  0.00000000E+00 -7.63411299E-04 -6.71691194E-04  0.00000000E+00  1.93223336E-04
  2.10428089E-04  0.00000000E+00 -4.50193025E-05  0.00000000E+00  0.00000000E+00
  2.07438290E-05  7.84580892E-05 -4.12595604E-04  0.00000000E+00  0.00000000E+00
 -1.37761224E-05  1.05759942E-03  2.41704573E-05  0.00000000E+00  0.00000000E+00
 -3.37102752E-04  3.35670844E-05  0.00000000E+00 -7.87181184E-05 -1.13859064E-04
  0.00000000E+00  0.00000000E+00 -1.01334587E-04  1.07831759E-04  0.00000000E+00
 -1.21065366E-04  4.35437573E-05  0.00000000E+00  0.00000000E+00 -5.62123233E-06
  5.19631309E-04 -8.58660888E-04  3.39616073E-05 -7.64193363E-05  1.51438033E-04
 -2.11490044E-04 -3.10464800E-05 -4.17676899E-05  0.00000000E+00  1.79719943E-04
  2.39740284E-04  0.00000000E+00  5.67322373E-04  3.01163389E-04  0.00000000E+00
 -2.11001725E-04 -7.10506148E-05  0.00000000E+00 -1.18451705E-05  0.00000000E+00
  0.00000000E+00  4.13054980E-06  1.37116322E-05 -2.28759687E-06  0.00000000E+00
  0.00000000E+00 -1.64186291E-04  2.77560718E-05 -1.76337840E-05  0.00000000E+00
  0.00000000E+00 -1.64219075E-04 -2.91065218E-05  0.00000000E+00 -7.41771316E-06
 -1.02677363E-05  0.00000000E+00  0.00000000E+00 -2.49177691E-05  7.57889086E-06
  0.00000000E+00  4.10757790E-05  6.16850998E-05  0.00000000E+00  0.00000000E+00
  1.51547304E-04 -1.02002425E-04  4.06166481E-05  4.28182226E-05 -1.41361209E-04
 -3.08849425E-05  1.50376938E-05  8.01672164E-06  0.00000000E+00  2.43307028E-04
  6.61596952E-05  0.00000000E+00  1.34251635E-04  2.70299005E-05  0.00000000E+00
  1.48666907E-05  0.00000000E+00  0.00000000E+00 -1.41244187E-05  1.37603737E-05
  2.35423580E-05  0.00000000E+00  0.00000000E+00 -1.04883433E-04  5.84071648E-05
 -1.94365804E-04  2.05458178E-05 -1.30049145E-05 -5.49125853E-04  1.71226227E-04
  7.28976227E-06  1.35989654E-05  0.00000000E+00 -2.32274552E-07 -4.00853670E-05
  0.00000000E+00  1.85276620E-04  1.01963552E-04  0.00000000E+00 -5.13414693E-05
  4.43309141E-05  0.00000000E+00 -7.78997188E-07  0.00000000E+00  0.00000000E+00
 -8.25240879E-06 -1.24382706E-05  1.72949792E-05  0.00000000E+00  0.00000000E+00
  4.68301599E-05  1.08917401E-04  5.67107932E-05  0.00000000E+00  0.00000000E+00
 -3.17341614E-05 -6.84765103E-05  0.00000000E+00  7.73709785E-06  1.04297735E-05
  0.00000000E+00  0.00000000E+00 -6.73412983E-07 -2.32270533E-05  0.00000000E+00
 -1.27261387E-05 -3.28897783E-05  0.00000000E+00  0.00000000E+00 -1.93278968E-06
 -2.07217690E-05  8.83771498E-04  1.86657618E-05 -1.15095751E-05  2.61682808E-04
 -4.18405976E-04  1.57911501E-05  2.74613961E-05  0.00000000E+00 -5.79154096E-05
 -1.47111012E-04  0.00000000E+00  2.01096291E-04 -1.70826394E-04  0.00000000E+00
 -1.47689659E-04  1.45526671E-04  0.00000000E+00 -3.75918136E-06  0.00000000E+00
  0.00000000E+00 -2.78859446E-05 -9.99421538E-06 -4.95295580E-05  0.00000000E+00
  0.00000000E+00  6.94752561E-05  1.15208323E-04 -5.91324328E-05  0.00000000E+00
  0.00000000E+00  4.80760346E-05  1.16631767E-05  0.00000000E+00  2.89142472E-06
  4.67943280E-06  0.00000000E+00  0.00000000E+00 -6.65880599E-06  1.48796579E-07
  0.00000000E+00  3.12487403E-06 -2.61161719E-05  0.00000000E+00  0.00000000E+00
  9.63851454E-05 -1.47290567E-04  2.39200377E-04  1.36645483E-03 -1.50244802E-04
 -6.14845528E-04  9.22282240E-04  6.32942195E-05 -7.21374278E-05  0.00000000E+00
  5.93493672E-04 -2.05900653E-03  0.00000000E+00  1.31054331E-04  4.97100568E-04
  0.00000000E+00  1.87421904E-04 -3.02144410E-04  0.00000000E+00 -1.28213470E-04
  0.00000000E+00  0.00000000E+00 -2.00627572E-04 -1.59870735E-04 -4.64252689E-04
  0.00000000E+00  0.00000000E+00 -6.02828211E-04 -9.13509629E-04 -4.69227419E-05
  0.00000000E+00  0.00000000E+00  5.27937929E-05  1.18936120E-04  0.00000000E+00
  8.07199122E-06  3.57928030E-05  0.00000000E+00  0.00000000E+00 -2.65610692E-05
 -4.06874983E-06  0.00000000E+00 -1.34755730E-04  1.59552268E-04  0.00000000E+00
  0.00000000E+00 -3.19441970E-04 -3.23740337E-05  9.76650446E-01 -9.89062502E-03
  4.35655617E-02  3.67232178E-03 -8.92324308E-04 -4.62502008E-04  2.12537422E-03
  0.00000000E+00  5.30199502E-04 -2.50026125E-03  0.00000000E+00 -6.37505423E-05
  8.17392243E-04  0.00000000E+00  1.07013890E-04 -6.40157585E-05  0.00000000E+00
 -1.94500638E-04  0.00000000E+00  0.00000000E+00 -7.34553352E-05 -4.59659275E-05
  4.05649411E-04  0.00000000E+00  0.00000000E+00  8.48594917E-04  4.94372523E-04
 -2.08974555E-04  0.00000000E+00  0.00000000E+00 -1.40852759E-04 -3.78781791E-05
  0.00000000E+00 -5.00640787E-06  7.02131952E-05  0.00000000E+00  0.00000000E+00
 -3.00111827E-05  1.00141754E-05  0.00000000E+00 -8.96436683E-05  8.94982822E-05
  0.00000000E+00  0.00000000E+00 -1.68036228E-04  2.00733765E-04  3.78075671E-04
  1.98738871E-03  1.31224559E-03 -1.87753570E-05  4.83200433E-05  2.69565160E-04
  0.00000000E+00  3.87359458E-04  1.03519794E-03  0.00000000E+00 -1.11298724E-04
  2.27878550E-04  0.00000000E+00 -2.31058142E-05  0.00000000E+00  0.00000000E+00
  3.14301085E-05 -2.78741495E-05 -2.13538901E-04  0.00000000E+00  0.00000000E+00
 -3.58265622E-04  4.01435484E-04  9.76835644E-01 -9.18426053E-03  4.34624128E-02
  1.10437975E-04 -1.88184945E-03 -2.03544055E-03 -8.51498393E-04  0.00000000E+00
  2.07212329E-03  7.88437602E-04  0.00000000E+00 -3.87059169E-04  6.35271332E-04
  0.00000000E+00  2.19927905E-04 -2.96945629E-04  0.00000000E+00  3.15170920E-05
  0.00000000E+00  0.00000000E+00 -7.46887920E-05  6.12038184E-05  7.65284540E-04
  0.00000000E+00  0.00000000E+00 -2.06681683E-04  3.50269954E-04 -2.36114259E-04
  0.00000000E+00  0.00000000E+00  3.32719984E-04  3.43639241E-06  0.00000000E+00
 -8.01134744E-05  8.47982397E-07  0.00000000E+00  0.00000000E+00  1.66632562E-05