 Entering Gaussian System, Link 0=g16
 Input=hoono_r2_1p466583.gjf
 Output=hoono_r2_1p466583.log
 Initial command:
 /sw/contrib/gaussian/g16/B01/g16/l1.exe "/scr/Gau-13572.inp" -scrdir="/scr/"
 Entering Link 1 = /sw/contrib/gaussian/g16/B01/g16/l1.exe PID=     13573.
  
 Copyright (c) 1988-2017, Gaussian, Inc.  All Rights Reserved.
  
 This is part of the Gaussian(R) 16 program.  It is based on
 the Gaussian(R) 09 system (copyright 2009, Gaussian, Inc.),
 the Gaussian(R) 03 system (copyright 2003, Gaussian, Inc.),
 the Gaussian(R) 98 system (copyright 1998, Gaussian, Inc.),
 the Gaussian(R) 94 system (copyright 1995, Gaussian, Inc.),
 the Gaussian 92(TM) system (copyright 1992, Gaussian, Inc.),
 the Gaussian 90(TM) system (copyright 1990, Gaussian, Inc.),
 the Gaussian 88(TM) system (copyright 1988, Gaussian, Inc.),
 the Gaussian 86(TM) system (copyright 1986, Carnegie Mellon
 University), and the Gaussian 82(TM) system (copyright 1983,
 Carnegie Mellon University). Gaussian is a federally registered
 trademark of Gaussian, Inc.
  
 This software contains proprietary and confidential information,
 including trade secrets, belonging to Gaussian, Inc.
  
 This software is provided under written license and may be
 used, copied, transmitted, or stored only in accord with that
 written license.
  
 The following legend is applicable only to US Government
 contracts under FAR:
  
                    RESTRICTED RIGHTS LEGEND
  
 Use, reproduction and disclosure by the US Government is
 subject to restrictions as set forth in subparagraphs (a)
 and (c) of the Commercial Computer Software - Restricted
 Rights clause in FAR 52.227-19.
  
 Gaussian, Inc.
 340 Quinnipiac St., Bldg. 40, Wallingford CT 06492
  
  
 ---------------------------------------------------------------
 Warning -- This program may not be used in any manner that
 competes with the business of Gaussian, Inc. or will provide
 assistance to any competitor of Gaussian, Inc.  The licensee
 of this program is prohibited from giving any competitor of
 Gaussian, Inc. access to this program.  By using this program,
 the user acknowledges that Gaussian, Inc. is engaged in the
 business of creating and licensing software in the field of
 computational chemistry and represents and warrants to the
 licensee that it is not a competitor of Gaussian, Inc. and that
 it will not use this program in any manner prohibited above.
 ---------------------------------------------------------------
  

 Cite this work as:
 Gaussian 16, Revision B.01,
 M. J. Frisch, G. W. Trucks, H. B. Schlegel, G. E. Scuseria, 
 M. A. Robb, J. R. Cheeseman, G. Scalmani, V. Barone, 
 G. A. Petersson, H. Nakatsuji, X. Li, M. Caricato, A. V. Marenich, 
 J. Bloino, B. G. Janesko, R. Gomperts, B. Mennucci, H. P. Hratchian, 
 J. V. Ortiz, A. F. Izmaylov, J. L. Sonnenberg, D. Williams-Young, 
 F. Ding, F. Lipparini, F. Egidi, J. Goings, B. Peng, A. Petrone, 
 T. Henderson, D. Ranasinghe, V. G. Zakrzewski, J. Gao, N. Rega, 
 G. Zheng, W. Liang, M. Hada, M. Ehara, K. Toyota, R. Fukuda, 
 J. Hasegawa, M. Ishida, T. Nakajima, Y. Honda, O. Kitao, H. Nakai, 
 T. Vreven, K. Throssell, J. A. Montgomery, Jr., J. E. Peralta, 
 F. Ogliaro, M. J. Bearpark, J. J. Heyd, E. N. Brothers, K. N. Kudin, 
 V. N. Staroverov, T. A. Keith, R. Kobayashi, J. Normand, 
 K. Raghavachari, A. P. Rendell, J. C. Burant, S. S. Iyengar, 
 J. Tomasi, M. Cossi, J. M. Millam, M. Klene, C. Adamo, R. Cammi, 
 J. W. Ochterski, R. L. Martin, K. Morokuma, O. Farkas, 
 J. B. Foresman, and D. J. Fox, Gaussian, Inc., Wallingford CT, 2016.
 
 ******************************************
 Gaussian 16:  ES64L-G16RevB.01 20-Dec-2017
                21-Feb-2022 
 ******************************************
 %nproc=28
 Will use up to   28 processors via shared memory.
 %mem=120GB
 %chk=hoono_r2_1p466583.chk
 ---------------------------------------
 #p freq mp2/aug-cc-pvtz density=current
 ---------------------------------------
 1/10=4,30=1,38=1/1,3;
 2/12=2,17=6,18=5,40=1/2;
 3/5=16,6=1,7=10,11=9,25=1,30=1,71=2,140=1/1,2,3;
 4//1;
 5/5=2,38=5,98=1/2;
 8/6=3,8=1,10=1,19=11,30=-1/1;
 9/15=3,16=-3/6;
 11/6=1,8=1,15=11,17=12,24=-1,27=1,28=-2,29=300,32=6,42=3/1,2,10;
 10/6=2,21=1/2;
 8/6=4,8=1,10=1,19=11,30=-1/11,4;
 10/5=1,20=4/2;
 11/12=2,14=11,16=1,17=2,28=-2,42=3,76=2/2,10,12;
 6/7=2,8=2,9=2,10=2,22=-1/1;
 7/8=1,10=1,12=2,25=1,44=2/1,2,3,16;
 1/10=4,30=1/3;
 99//99;
 Leave Link    1 at Mon Feb 21 20:06:11 2022, MaxMem= 16106127360 cpu:               4.8 elap:               0.2
 (Enter /sw/contrib/gaussian/g16/B01/g16/l101.exe)
 -----
 title
 -----
 Symbolic Z-matrix:
 Charge =  0 Multiplicity = 1
 H
 O                    1    r1
 O                    2    r2       1    a1
 N                    3    r3       2    a2       1    d1       0
 O                    4    r4       3    a3       2    d2       0
       Variables:
  r1                    0.96898                  
  r2                    1.46658                  
  r3                    1.45878                  
  r4                    1.17073                  
  a1                   97.59495                  
  a2                  102.29752                  
  a3                  109.06955                  
  d1                  180.                       
  d2                  180.                       
 
 ITRead=  0  0  0  0  0
 MicOpt= -1 -1 -1 -1 -1
 NAtoms=      5 NQM=        5 NQMF=       0 NMMI=      0 NMMIF=      0
                NMic=       0 NMicF=      0.
                    Isotopes and Nuclear Properties:
 (Nuclear quadrupole moments (NQMom) in fm**2, nuclear magnetic moments (NMagM)
  in nuclear magnetons)

  Atom         1           2           3           4           5
 IAtWgt=           1          16          16          14          16
 AtmWgt=   1.0078250  15.9949146  15.9949146  14.0030740  15.9949146
 NucSpn=           1           0           0           2           0
 AtZEff=  -0.0000000  -0.0000000  -0.0000000  -0.0000000  -0.0000000
 NQMom=    0.0000000   0.0000000   0.0000000   2.0440000   0.0000000
 NMagM=    2.7928460   0.0000000   0.0000000   0.4037610   0.0000000
 AtZNuc=   1.0000000   8.0000000   8.0000000   7.0000000   8.0000000
 Leave Link  101 at Mon Feb 21 20:06:11 2022, MaxMem= 16106127360 cpu:               2.9 elap:               0.1
 (Enter /sw/contrib/gaussian/g16/B01/g16/l103.exe)

 GradGradGradGradGradGradGradGradGradGradGradGradGradGradGradGradGradGrad
 Berny optimization.
 Initialization pass.
                       ----------------------------
                       !    Initial Parameters    !
                       ! (Angstroms and Degrees)  !
 ----------------------                            ----------------------
 !      Name          Value   Derivative information (Atomic Units)     !
 ------------------------------------------------------------------------
 !       r1          0.969    calculate D2E/DX2 analytically            !
 !       r2          1.4666   calculate D2E/DX2 analytically            !
 !       r3          1.4588   calculate D2E/DX2 analytically            !
 !       r4          1.1707   calculate D2E/DX2 analytically            !
 !       a1         97.5949   calculate D2E/DX2 analytically            !
 !       a2        102.2975   calculate D2E/DX2 analytically            !
 !       a3        109.0696   calculate D2E/DX2 analytically            !
 !       d1        180.0      calculate D2E/DX2 analytically            !
 !       d2        180.0      calculate D2E/DX2 analytically            !
 ------------------------------------------------------------------------
 Trust Radius=3.00D-01 FncErr=1.00D-07 GrdErr=1.00D-07 EigMax=2.50D+02 EigMin=1.00D-04
 Number of steps in this run=      2 maximum allowed number of steps=      2.
 GradGradGradGradGradGradGradGradGradGradGradGradGradGradGradGradGradGrad

 Leave Link  103 at Mon Feb 21 20:06:11 2022, MaxMem= 16106127360 cpu:               0.5 elap:               0.0
 (Enter /sw/contrib/gaussian/g16/B01/g16/l202.exe)
                          Input orientation:                          
 ---------------------------------------------------------------------
 Center     Atomic      Atomic             Coordinates (Angstroms)
 Number     Number       Type             X           Y           Z
 ---------------------------------------------------------------------
      1          1           0        0.000000    0.000000    0.000000
      2          8           0        0.000000    0.000000    0.968976
      3          8           0        1.453718    0.000000    1.162812
      4          7           0        1.573314    0.000000    2.616686
      5          8           0        2.707429    0.000000    2.907181
 ---------------------------------------------------------------------
                    Distance matrix (angstroms):
                    1          2          3          4          5
     1  H    0.000000
     2  O    0.968976   0.000000
     3  O    1.861566   1.466584   0.000000
     4  N    3.053254   2.278215   1.458784   0.000000
     5  O    3.972641   3.329687   2.148165   1.170729   0.000000
 Stoichiometry    HNO3
 Framework group  CS[SG(HNO3)]
 Deg. of freedom     7
 Full point group                 CS      NOp   2
 Largest Abelian subgroup         CS      NOp   2
 Largest concise Abelian subgroup C1      NOp   1
                         Standard orientation:                         
 ---------------------------------------------------------------------
 Center     Atomic      Atomic             Coordinates (Angstroms)
 Number     Number       Type             X           Y           Z
 ---------------------------------------------------------------------
      1          1           0        1.565694    1.679894    0.000000
      2          8           0        1.465948    0.716066    0.000000
      3          8           0        0.000000    0.672904    0.000000
      4          7           0       -0.268622   -0.760934   -0.000000
      5          8           0       -1.426616   -0.933140   -0.000000
 ---------------------------------------------------------------------
 Rotational constants (GHZ):          54.6702309           4.9837971           4.5674256
 Leave Link  202 at Mon Feb 21 20:06:11 2022, MaxMem= 16106127360 cpu:               0.3 elap:               0.0
 (Enter /sw/contrib/gaussian/g16/B01/g16/l301.exe)
 Standard basis: Aug-CC-pVTZ (5D, 7F)
 Ernie: Thresh=  0.10000D-02 Tol=  0.10000D-05 Strict=F.
 Ernie:  12 primitive shells out of 131 were deleted.
 There are   166 symmetry adapted cartesian basis functions of A'  symmetry.
 There are    79 symmetry adapted cartesian basis functions of A"  symmetry.
 There are   136 symmetry adapted basis functions of A'  symmetry.
 There are    71 symmetry adapted basis functions of A"  symmetry.
   207 basis functions,   315 primitive gaussians,   245 cartesian basis functions
    16 alpha electrons       16 beta electrons
       nuclear repulsion energy       116.5856595492 Hartrees.
 IExCor=    0 DFT=F Ex=HF Corr=None ExCW=0 ScaHFX=  1.000000
 ScaDFX=  1.000000  1.000000  1.000000  1.000000 ScalE2=  1.000000  1.000000
 IRadAn=      5 IRanWt=     -1 IRanGd=            0 ICorTp=0 IEmpDi=  4
 NAtoms=    5 NActive=    5 NUniq=    5 SFac= 1.00D+00 NAtFMM=   60 NAOKFM=F Big=F
 Integral buffers will be    131072 words long.
 Raffenetti 1 integral format.
 Two-electron integral symmetry is turned on.
 Leave Link  301 at Mon Feb 21 20:06:11 2022, MaxMem= 16106127360 cpu:               1.6 elap:               0.1
 (Enter /sw/contrib/gaussian/g16/B01/g16/l302.exe)
 NPDir=0 NMtPBC=     1 NCelOv=     1 NCel=       1 NClECP=     1 NCelD=      1
         NCelK=      1 NCelE2=     1 NClLst=     1 CellRange=     0.0.
 One-electron integrals computed using PRISM.
 One-electron integral symmetry used in STVInt
 NBasis=   207 RedAO= T EigKep=  1.83D-04  NBF=   136    71
 NBsUse=   207 1.00D-06 EigRej= -1.00D+00 NBFU=   136    71
 Leave Link  302 at Mon Feb 21 20:06:11 2022, MaxMem= 16106127360 cpu:               5.0 elap:               0.2
 (Enter /sw/contrib/gaussian/g16/B01/g16/l303.exe)
 DipDrv:  MaxL=1.
 Leave Link  303 at Mon Feb 21 20:06:12 2022, MaxMem= 16106127360 cpu:               3.6 elap:               0.2
 (Enter /sw/contrib/gaussian/g16/B01/g16/l401.exe)
 ExpMin= 2.53D-02 ExpMax= 1.53D+04 ExpMxC= 5.22D+02 IAcc=3 IRadAn=         5 AccDes= 0.00D+00
 Harris functional with IExCor=  205 and IRadAn=       5 diagonalized for initial guess.
 HarFok:  IExCor=  205 AccDes= 0.00D+00 IRadAn=         5 IDoV= 1 UseB2=F ITyADJ=14
 ICtDFT=  3500011 ScaDFX=  1.000000  1.000000  1.000000  1.000000
 FoFCou: FMM=F IPFlag=           0 FMFlag=      100000 FMFlg1=           0
         NFxFlg=           0 DoJE=T BraDBF=F KetDBF=T FulRan=T
         wScrn=  0.000000 ICntrl=       500 IOpCl=  0 I1Cent=   200000004 NGrid=           0
         NMat0=    1 NMatS0=      1 NMatT0=    0 NMatD0=    1 NMtDS0=    0 NMtDT0=    0
 Petite list used in FoFCou.
 Harris En= -279.628151122455    
 JPrj=0 DoOrth=F DoCkMO=F.
 Initial guess orbital symmetries:
       Occupied  (A') (A') (A') (A') (A') (A') (A') (A') (A') (A')
                 (A") (A') (A') (A") (A") (A')
       Virtual   (A") (A') (A') (A') (A') (A') (A") (A') (A') (A')
                 (A") (A') (A") (A') (A') (A") (A') (A") (A') (A')
                 (A') (A') (A') (A') (A') (A") (A') (A") (A') (A')
                 (A") (A') (A") (A') (A') (A") (A') (A") (A') (A')
                 (A") (A') (A") (A') (A") (A') (A') (A') (A") (A")
                 (A') (A') (A') (A') (A") (A') (A") (A') (A") (A')
                 (A') (A') (A") (A') (A') (A") (A') (A") (A') (A')
                 (A") (A') (A') (A") (A") (A') (A') (A") (A') (A')
                 (A') (A") (A') (A") (A') (A") (A') (A") (A') (A')
                 (A') (A") (A') (A") (A') (A") (A") (A') (A') (A")
                 (A') (A') (A") (A') (A') (A') (A') (A") (A") (A')
                 (A") (A') (A') (A') (A") (A') (A') (A') (A") (A')
                 (A") (A') (A') (A") (A") (A') (A') (A") (A") (A')
                 (A') (A') (A') (A") (A") (A') (A") (A') (A') (A')
                 (A') (A") (A") (A') (A') (A") (A') (A') (A') (A')
                 (A') (A") (A') (A") (A') (A") (A') (A") (A") (A')
                 (A') (A") (A') (A") (A') (A") (A") (A") (A') (A')
                 (A") (A') (A") (A') (A') (A") (A") (A") (A') (A')
                 (A') (A') (A') (A') (A') (A') (A') (A') (A') (A')
                 (A')
 The electronic state of the initial guess is 1-A'.
 Leave Link  401 at Mon Feb 21 20:06:12 2022, MaxMem= 16106127360 cpu:               7.4 elap:               0.3
 (Enter /sw/contrib/gaussian/g16/B01/g16/l502.exe)
 Keep R1 ints in memory in symmetry-blocked form, NReq=348887737.
 FoFCou: FMM=F IPFlag=           0 FMFlag=           0 FMFlg1=           0
         NFxFlg=           0 DoJE=F BraDBF=F KetDBF=F FulRan=T
         wScrn=  0.000000 ICntrl=       600 IOpCl=  0 I1Cent=           0 NGrid=           0
         NMat0=    1 NMatS0=  21528 NMatT0=    0 NMatD0=    1 NMtDS0=    0 NMtDT0=    0
 Petite list used in FoFCou.
 Closed shell SCF:
 Using DIIS extrapolation, IDIIS=  1040.
 NGot= 16106127360 LenX= 15988850015 LenY= 15988789549
 Requested convergence on RMS density matrix=1.00D-08 within 128 cycles.
 Requested convergence on MAX density matrix=1.00D-06.
 Requested convergence on             energy=1.00D-06.
 No special actions if energy rises.

 Cycle   1  Pass 1  IDiag  1:
 E= -279.369111079742    
 DIIS: error= 2.88D-02 at cycle   1 NSaved=   1.
 NSaved= 1 IEnMin= 1 EnMin= -279.369111079742     IErMin= 1 ErrMin= 2.88D-02
 ErrMax= 2.88D-02  0.00D+00 EMaxC= 1.00D-01 BMatC= 4.38D-01 BMatP= 4.38D-01
 IDIUse=3 WtCom= 7.12D-01 WtEn= 2.88D-01
 Coeff-Com:  0.100D+01
 Coeff-En:   0.100D+01
 Coeff:      0.100D+01
 Gap=     0.515 Goal=   None    Shift=    0.000
 GapD=    0.515 DampG=2.000 DampE=0.500 DampFc=1.0000 IDamp=-1.
 RMSDP=1.62D-03 MaxDP=9.92D-02              OVMax= 1.14D-01

 Cycle   2  Pass 1  IDiag  1:
 E= -279.450691398582     Delta-E=       -0.081580318840 Rises=F Damp=F
 DIIS: error= 1.81D-02 at cycle   2 NSaved=   2.
 NSaved= 2 IEnMin= 2 EnMin= -279.450691398582     IErMin= 2 ErrMin= 1.81D-02
 ErrMax= 1.81D-02  0.00D+00 EMaxC= 1.00D-01 BMatC= 7.28D-02 BMatP= 4.38D-01
 IDIUse=3 WtCom= 8.19D-01 WtEn= 1.81D-01
 Coeff-Com:  0.197D+00 0.803D+00
 Coeff-En:   0.502D-03 0.999D+00
 Coeff:      0.161D+00 0.839D+00
 Gap=     0.530 Goal=   None    Shift=    0.000
 RMSDP=9.05D-04 MaxDP=3.73D-02 DE=-8.16D-02 OVMax= 6.99D-02

 Cycle   3  Pass 1  IDiag  1:
 E= -279.480157737127     Delta-E=       -0.029466338546 Rises=F Damp=F
 DIIS: error= 1.05D-02 at cycle   3 NSaved=   3.
 NSaved= 3 IEnMin= 3 EnMin= -279.480157737127     IErMin= 3 ErrMin= 1.05D-02
 ErrMax= 1.05D-02  0.00D+00 EMaxC= 1.00D-01 BMatC= 2.92D-02 BMatP= 7.28D-02
 IDIUse=3 WtCom= 8.95D-01 WtEn= 1.05D-01
 Coeff-Com: -0.332D-01 0.379D+00 0.654D+00
 Coeff-En:   0.000D+00 0.243D+00 0.757D+00
 Coeff:     -0.297D-01 0.364D+00 0.665D+00
 Gap=     0.511 Goal=   None    Shift=    0.000
 RMSDP=3.79D-04 MaxDP=1.52D-02 DE=-2.95D-02 OVMax= 3.84D-02

 Cycle   4  Pass 1  IDiag  1:
 E= -279.499581547818     Delta-E=       -0.019423810690 Rises=F Damp=F
 DIIS: error= 1.31D-03 at cycle   4 NSaved=   4.
 NSaved= 4 IEnMin= 4 EnMin= -279.499581547818     IErMin= 4 ErrMin= 1.31D-03
 ErrMax= 1.31D-03  0.00D+00 EMaxC= 1.00D-01 BMatC= 5.02D-04 BMatP= 2.92D-02
 IDIUse=3 WtCom= 9.87D-01 WtEn= 1.31D-02
 Coeff-Com: -0.118D-01 0.584D-01 0.160D+00 0.793D+00
 Coeff-En:   0.000D+00 0.000D+00 0.000D+00 0.100D+01
 Coeff:     -0.117D-01 0.577D-01 0.158D+00 0.796D+00
 Gap=     0.502 Goal=   None    Shift=    0.000
 RMSDP=9.03D-05 MaxDP=2.82D-03 DE=-1.94D-02 OVMax= 1.12D-02

 Cycle   5  Pass 1  IDiag  1:
 E= -279.500259412242     Delta-E=       -0.000677864425 Rises=F Damp=F
 DIIS: error= 7.43D-04 at cycle   5 NSaved=   5.
 NSaved= 5 IEnMin= 5 EnMin= -279.500259412242     IErMin= 5 ErrMin= 7.43D-04
 ErrMax= 7.43D-04  0.00D+00 EMaxC= 1.00D-01 BMatC= 8.77D-05 BMatP= 5.02D-04
 IDIUse=3 WtCom= 9.93D-01 WtEn= 7.43D-03
 Coeff-Com:  0.611D-02-0.721D-01-0.117D+00 0.241D-01 0.116D+01
 Coeff-En:   0.000D+00 0.000D+00 0.000D+00 0.000D+00 0.100D+01
 Coeff:      0.607D-02-0.716D-01-0.116D+00 0.239D-01 0.116D+01
 Gap=     0.502 Goal=   None    Shift=    0.000
 RMSDP=7.56D-05 MaxDP=2.08D-03 DE=-6.78D-04 OVMax= 1.09D-02

 Cycle   6  Pass 1  IDiag  1:
 E= -279.500572579419     Delta-E=       -0.000313167177 Rises=F Damp=F
 DIIS: error= 2.93D-04 at cycle   6 NSaved=   6.
 NSaved= 6 IEnMin= 6 EnMin= -279.500572579419     IErMin= 6 ErrMin= 2.93D-04
 ErrMax= 2.93D-04  0.00D+00 EMaxC= 1.00D-01 BMatC= 1.69D-05 BMatP= 8.77D-05
 IDIUse=3 WtCom= 9.97D-01 WtEn= 2.93D-03
 Coeff-Com:  0.748D-03-0.296D-03 0.117D-02-0.127D+00-0.205D+00 0.133D+01
 Coeff-En:   0.000D+00 0.000D+00 0.000D+00 0.000D+00 0.000D+00 0.100D+01
 Coeff:      0.746D-03-0.296D-03 0.117D-02-0.126D+00-0.204D+00 0.133D+01
 Gap=     0.503 Goal=   None    Shift=    0.000
 RMSDP=4.46D-05 MaxDP=1.24D-03 DE=-3.13D-04 OVMax= 5.43D-03

 Cycle   7  Pass 1  IDiag  1:
 E= -279.500644693048     Delta-E=       -0.000072113629 Rises=F Damp=F
 DIIS: error= 1.28D-04 at cycle   7 NSaved=   7.
 NSaved= 7 IEnMin= 7 EnMin= -279.500644693048     IErMin= 7 ErrMin= 1.28D-04
 ErrMax= 1.28D-04  0.00D+00 EMaxC= 1.00D-01 BMatC= 5.09D-06 BMatP= 1.69D-05
 IDIUse=3 WtCom= 9.99D-01 WtEn= 1.28D-03
 Coeff-Com: -0.943D-03 0.139D-01 0.269D-01-0.289D-01-0.302D+00 0.439D+00
 Coeff-Com:  0.852D+00
 Coeff-En:   0.000D+00 0.000D+00 0.000D+00 0.000D+00 0.000D+00 0.000D+00
 Coeff-En:   0.100D+01
 Coeff:     -0.942D-03 0.138D-01 0.268D-01-0.288D-01-0.301D+00 0.438D+00
 Coeff:      0.852D+00
 Gap=     0.503 Goal=   None    Shift=    0.000
 RMSDP=1.36D-05 MaxDP=3.83D-04 DE=-7.21D-05 OVMax= 1.58D-03

 Cycle   8  Pass 1  IDiag  1:
 E= -279.500654309907     Delta-E=       -0.000009616859 Rises=F Damp=F
 DIIS: error= 5.48D-05 at cycle   8 NSaved=   8.
 NSaved= 8 IEnMin= 8 EnMin= -279.500654309907     IErMin= 8 ErrMin= 5.48D-05
 ErrMax= 5.48D-05  0.00D+00 EMaxC= 1.00D-01 BMatC= 6.07D-07 BMatP= 5.09D-06
 IDIUse=1 WtCom= 1.00D+00 WtEn= 0.00D+00
 Coeff-Com: -0.447D-03 0.343D-02 0.753D-02 0.275D-01-0.408D-01-0.193D+00
 Coeff-Com:  0.117D+00 0.108D+01
 Coeff:     -0.447D-03 0.343D-02 0.753D-02 0.275D-01-0.408D-01-0.193D+00
 Coeff:      0.117D+00 0.108D+01
 Gap=     0.502 Goal=   None    Shift=    0.000
 RMSDP=7.25D-06 MaxDP=2.11D-04 DE=-9.62D-06 OVMax= 7.83D-04

 Cycle   9  Pass 1  IDiag  1:
 E= -279.500656205212     Delta-E=       -0.000001895304 Rises=F Damp=F
 DIIS: error= 1.59D-05 at cycle   9 NSaved=   9.
 NSaved= 9 IEnMin= 9 EnMin= -279.500656205212     IErMin= 9 ErrMin= 1.59D-05
 ErrMax= 1.59D-05  0.00D+00 EMaxC= 1.00D-01 BMatC= 6.73D-08 BMatP= 6.07D-07
 IDIUse=1 WtCom= 1.00D+00 WtEn= 0.00D+00
 Coeff-Com:  0.123D-03-0.172D-02-0.306D-02-0.197D-02 0.342D-01 0.225D-03
 Coeff-Com: -0.151D+00-0.130D+00 0.125D+01
 Coeff:      0.123D-03-0.172D-02-0.306D-02-0.197D-02 0.342D-01 0.225D-03
 Coeff:     -0.151D+00-0.130D+00 0.125D+01
 Gap=     0.502 Goal=   None    Shift=    0.000
 RMSDP=1.94D-06 MaxDP=6.63D-05 DE=-1.90D-06 OVMax= 1.74D-04

 Cycle  10  Pass 1  IDiag  1:
 E= -279.500656365086     Delta-E=       -0.000000159874 Rises=F Damp=F
 DIIS: error= 4.09D-06 at cycle  10 NSaved=  10.
 NSaved=10 IEnMin=10 EnMin= -279.500656365086     IErMin=10 ErrMin= 4.09D-06
 ErrMax= 4.09D-06  0.00D+00 EMaxC= 1.00D-01 BMatC= 5.54D-09 BMatP= 6.73D-08
 IDIUse=1 WtCom= 1.00D+00 WtEn= 0.00D+00
 Coeff-Com:  0.302D-04-0.233D-03-0.306D-03-0.267D-02 0.140D-02 0.194D-01
 Coeff-Com: -0.881D-02-0.771D-01-0.837D-01 0.115D+01
 Coeff:      0.302D-04-0.233D-03-0.306D-03-0.267D-02 0.140D-02 0.194D-01
 Coeff:     -0.881D-02-0.771D-01-0.837D-01 0.115D+01
 Gap=     0.502 Goal=   None    Shift=    0.000
 RMSDP=5.07D-07 MaxDP=2.11D-05 DE=-1.60D-07 OVMax= 4.13D-05

 Cycle  11  Pass 1  IDiag  1:
 E= -279.500656377640     Delta-E=       -0.000000012554 Rises=F Damp=F
 DIIS: error= 2.02D-06 at cycle  11 NSaved=  11.
 NSaved=11 IEnMin=11 EnMin= -279.500656377640     IErMin=11 ErrMin= 2.02D-06
 ErrMax= 2.02D-06  0.00D+00 EMaxC= 1.00D-01 BMatC= 6.53D-10 BMatP= 5.54D-09
 IDIUse=1 WtCom= 1.00D+00 WtEn= 0.00D+00
 Coeff-Com: -0.212D-04 0.244D-03 0.482D-03 0.514D-03-0.428D-02-0.337D-02
 Coeff-Com:  0.180D-01 0.347D-01-0.139D+00-0.179D+00 0.127D+01
 Coeff:     -0.212D-04 0.244D-03 0.482D-03 0.514D-03-0.428D-02-0.337D-02
 Coeff:      0.180D-01 0.347D-01-0.139D+00-0.179D+00 0.127D+01
 Gap=     0.502 Goal=   None    Shift=    0.000
 RMSDP=1.77D-07 MaxDP=6.47D-06 DE=-1.26D-08 OVMax= 1.74D-05

 Cycle  12  Pass 1  IDiag  1:
 E= -279.500656379429     Delta-E=       -0.000000001789 Rises=F Damp=F
 DIIS: error= 5.83D-07 at cycle  12 NSaved=  12.
 NSaved=12 IEnMin=12 EnMin= -279.500656379429     IErMin=12 ErrMin= 5.83D-07
 ErrMax= 5.83D-07  0.00D+00 EMaxC= 1.00D-01 BMatC= 7.15D-11 BMatP= 6.53D-10
 IDIUse=1 WtCom= 1.00D+00 WtEn= 0.00D+00
 Coeff-Com:  0.123D-05-0.292D-04-0.625D-04 0.187D-03 0.109D-02-0.227D-02
 Coeff-Com: -0.409D-02 0.518D-02 0.418D-01-0.115D+00-0.276D+00 0.135D+01
 Coeff:      0.123D-05-0.292D-04-0.625D-04 0.187D-03 0.109D-02-0.227D-02
 Coeff:     -0.409D-02 0.518D-02 0.418D-01-0.115D+00-0.276D+00 0.135D+01
 Gap=     0.502 Goal=   None    Shift=    0.000
 RMSDP=7.16D-08 MaxDP=2.83D-06 DE=-1.79D-09 OVMax= 6.73D-06

 Cycle  13  Pass 1  IDiag  1:
 E= -279.500656379660     Delta-E=       -0.000000000231 Rises=F Damp=F
 DIIS: error= 1.73D-07 at cycle  13 NSaved=  13.
 NSaved=13 IEnMin=13 EnMin= -279.500656379660     IErMin=13 ErrMin= 1.73D-07
 ErrMax= 1.73D-07  0.00D+00 EMaxC= 1.00D-01 BMatC= 4.08D-12 BMatP= 7.15D-11
 IDIUse=1 WtCom= 1.00D+00 WtEn= 0.00D+00
 Coeff-Com:  0.129D-05-0.141D-04-0.226D-04-0.881D-04 0.121D-03 0.741D-03
 Coeff-Com: -0.646D-03-0.345D-02 0.571D-03 0.415D-01-0.378D-01-0.324D+00
 Coeff-Com:  0.132D+01
 Coeff:      0.129D-05-0.141D-04-0.226D-04-0.881D-04 0.121D-03 0.741D-03
 Coeff:     -0.646D-03-0.345D-02 0.571D-03 0.415D-01-0.378D-01-0.324D+00
 Coeff:      0.132D+01
 Gap=     0.502 Goal=   None    Shift=    0.000
 RMSDP=1.93D-08 MaxDP=5.63D-07 DE=-2.31D-10 OVMax= 1.59D-06

 Cycle  14  Pass 1  IDiag  1:
 E= -279.500656379673     Delta-E=       -0.000000000013 Rises=F Damp=F
 DIIS: error= 2.54D-08 at cycle  14 NSaved=  14.
 NSaved=14 IEnMin=14 EnMin= -279.500656379673     IErMin=14 ErrMin= 2.54D-08
 ErrMax= 2.54D-08  0.00D+00 EMaxC= 1.00D-01 BMatC= 2.09D-13 BMatP= 4.08D-12
 IDIUse=1 WtCom= 1.00D+00 WtEn= 0.00D+00
 Coeff-Com: -0.194D-06 0.319D-05 0.565D-05 0.446D-05-0.845D-04 0.473D-04
 Coeff-Com:  0.258D-03 0.267D-03-0.249D-02 0.148D-02 0.175D-01-0.259D-01
 Coeff-Com: -0.205D+00 0.121D+01
 Coeff:     -0.194D-06 0.319D-05 0.565D-05 0.446D-05-0.845D-04 0.473D-04
 Coeff:      0.258D-03 0.267D-03-0.249D-02 0.148D-02 0.175D-01-0.259D-01
 Coeff:     -0.205D+00 0.121D+01
 Gap=     0.502 Goal=   None    Shift=    0.000
 RMSDP=3.91D-09 MaxDP=9.18D-08 DE=-1.28D-11 OVMax= 3.59D-07

 SCF Done:  E(RHF) =  -279.500656380     A.U. after   14 cycles
            NFock= 14  Conv=0.39D-08     -V/T= 2.0024
 KE= 2.788256990402D+02 PE=-8.944853171704D+02 EE= 2.195733022013D+02
 Leave Link  502 at Mon Feb 21 20:06:16 2022, MaxMem= 16106127360 cpu:              56.9 elap:               3.7
 (Enter /sw/contrib/gaussian/g16/B01/g16/l801.exe)
 ExpMin= 2.53D-02 ExpMax= 1.53D+04 ExpMxC= 5.22D+02 IAcc=3 IRadAn=         5 AccDes= 0.00D+00
 HarFok:  IExCor=  205 AccDes= 0.00D+00 IRadAn=         5 IDoV=-2 UseB2=F ITyADJ=14
 ICtDFT= 12500011 ScaDFX=  1.000000  1.000000  1.000000  1.000000
 Largest valence mixing into a core orbital is  2.08D-04
 Largest core mixing into a valence orbital is  3.64D-05
 Range of M.O.s used for correlation:     5   207
 NBasis=   207 NAE=    16 NBE=    16 NFC=     4 NFV=     0
 NROrb=    203 NOA=    12 NOB=    12 NVA=   191 NVB=   191

 **** Warning!!: The largest alpha MO coefficient is  0.17583910D+02

 Leave Link  801 at Mon Feb 21 20:06:16 2022, MaxMem= 16106127360 cpu:               2.8 elap:               0.1
 (Enter /sw/contrib/gaussian/g16/B01/g16/l906.exe)
 Frozen-core derivative calculation, NFC=   4 NFV=   0.
 FulOut=F Deriv=T AODrv=T NAtomX=     5
   MMem=           0  MDisk=          12 MDiskD=          12
  W3Min=      811440 MinDsk=     2425030 NBas6D=         245
 NBas2D=       30762    NTT=       30135    LW2=     7400000
    MDV= 16105574339 MDiskM=      328644 NBas2p=       30702
 Disk-based method using ON**2 memory for 12 occupieds at a time.
 Permanent disk used for amplitudes=    11516536 words.
 Estimated scratch disk usage=   321251614 words.
 IMap=   1   2   3   4   5   6   7   8   9  10  11  12  13  14  15  16
 Actual    scratch disk usage=   310331678 words.
 JobTyp=1 Pass  1:  I=   5 to  16 NPSUse= 28 ParTrn=T ParDer=T DoDerP=T.
 (rs|ai) integrals will be sorted in core.
 Spin components of T(2) and E(2):
     alpha-alpha T2 =       0.3413471526D-01 E2=     -0.1224785834D+00
     alpha-beta  T2 =       0.1877000724D+00 E2=     -0.7010489599D+00
     beta-beta   T2 =       0.3413471526D-01 E2=     -0.1224785834D+00
 The integrals were generated   1 times.
 ANorm=    0.1120700452D+01
 E2 =    -0.9460061268D+00 EUMP2 =    -0.28044666250652D+03
 Leave Link  906 at Mon Feb 21 20:07:53 2022, MaxMem= 16106127360 cpu:            2708.7 elap:              96.9
 (Enter /sw/contrib/gaussian/g16/B01/g16/l1101.exe)
 Using compressed Sx but separate Hx and Fx, NAtomX=     5.
 Will process      6 centers per pass.
 Leave Link 1101 at Mon Feb 21 20:07:53 2022, MaxMem= 16106127360 cpu:               5.0 elap:               0.2
 (Enter /sw/contrib/gaussian/g16/B01/g16/l1102.exe)
 Leave Link 1102 at Mon Feb 21 20:07:53 2022, MaxMem= 16106127360 cpu:               0.7 elap:               0.0
 (Enter /sw/contrib/gaussian/g16/B01/g16/l1110.exe)
 Forming Gx(P) for the SCF density, NAtomX=     5.
 Integral derivatives from FoFJK, PRISM(SPDF).
 Do as many integral derivatives as possible in FoFJK.
 G2DrvN: MDV=   16106126844.
 G2DrvN: will do     6 centers at a time, making    1 passes.
 Calling FoFCou, ICntrl=  3107 FMM=F I1Cent=   0 AccDes= 0.00D+00.
 FoFJK:  IHMeth= 1 ICntrl=    3107 DoSepK=F KAlg= 0 I1Cent=           0 FoldK=F
 IRaf=         0 NMat=       1 IRICut=       1 DoRegI=T DoRafI=F ISym2E= 1 IDoP0=0 IntGTp=1.
 FoFCou: FMM=F IPFlag=           0 FMFlag=      100000 FMFlg1=           0
         NFxFlg=           0 DoJE=F BraDBF=F KetDBF=F FulRan=T
         wScrn=  0.000000 ICntrl=      3107 IOpCl=  0 I1Cent=           0 NGrid=           0
         NMat0=    1 NMatS0=      1 NMatT0=    0 NMatD0=    1 NMtDS0=    0 NMtDT0=    0
 Petite list used in FoFCou.
 End of G2Drv F.D. properties file   721 does not exist.
 End of G2Drv F.D. properties file   722 does not exist.
 End of G2Drv F.D. properties file   788 does not exist.
 Leave Link 1110 at Mon Feb 21 20:07:56 2022, MaxMem= 16106127360 cpu:              84.8 elap:               3.1
 (Enter /sw/contrib/gaussian/g16/B01/g16/l1002.exe)
 Minotr:  Closed shell wavefunction.
          IDoAtm=11111
          Frozen-core window.
          Direct CPHF calculation.
          Differentiating once with respect to electric field.
                with respect to dipole field.
          Differentiating once with respect to nuclear coordinates.
          Requested convergence is 1.0D-08 RMS, and 1.0D-07 maximum.
          Secondary convergence is 1.0D-12 RMS, and 1.0D-12 maximum.
          NewPWx=T KeepS1=T KeepF1=T KeepIn=T MapXYZ=F SortEE=F KeepMc=T.
 Keep R1 ints in memory in symmetry-blocked form, NReq=348888983.
 FoFCou: FMM=F IPFlag=           0 FMFlag=           0 FMFlg1=           0
         NFxFlg=           0 DoJE=F BraDBF=F KetDBF=F FulRan=T
         wScrn=  0.000000 ICntrl=       600 IOpCl=  0 I1Cent=           0 NGrid=           0
         NMat0=    1 NMatS0=  21528 NMatT0=    0 NMatD0=    1 NMtDS0=    0 NMtDT0=    0
 Petite list used in FoFCou.
          MDV=   16106127360 using IRadAn=       1.
          Solving linear equations simultaneously, MaxMat=       0.
          There are    18 degrees of freedom in the 1st order CPHF.  IDoFFX=6 NUNeed=    18.
     15 vectors produced by pass  0 Test12= 1.70D-14 5.56D-09 XBig12= 8.44D+00 9.79D-01.
 AX will form    15 AO Fock derivatives at one time.
     15 vectors produced by pass  1 Test12= 1.70D-14 5.56D-09 XBig12= 1.36D+00 2.66D-01.
     15 vectors produced by pass  2 Test12= 1.70D-14 5.56D-09 XBig12= 1.44D-01 9.60D-02.
     15 vectors produced by pass  3 Test12= 1.70D-14 5.56D-09 XBig12= 5.00D-03 1.07D-02.
     15 vectors produced by pass  4 Test12= 1.70D-14 5.56D-09 XBig12= 9.93D-05 1.90D-03.
     15 vectors produced by pass  5 Test12= 1.70D-14 5.56D-09 XBig12= 1.41D-06 1.77D-04.
     15 vectors produced by pass  6 Test12= 1.70D-14 5.56D-09 XBig12= 1.12D-08 1.50D-05.
     12 vectors produced by pass  7 Test12= 1.70D-14 5.56D-09 XBig12= 8.22D-11 1.28D-06.
      3 vectors produced by pass  8 Test12= 1.70D-14 5.56D-09 XBig12= 5.81D-13 1.22D-07.
      2 vectors produced by pass  9 Test12= 1.70D-14 5.56D-09 XBig12= 3.82D-15 1.04D-08.
 InvSVY:  IOpt=1 It=  1 EMax= 1.55D-15
 Solved reduced A of dimension   122 with    15 vectors.
 FullF1:  Do perturbations      1 to      18.
 Saving first derivative matrices.
 End of Minotr F.D. properties file   721 does not exist.
 End of Minotr F.D. properties file   722 does not exist.
 End of Minotr F.D. properties file   788 does not exist.
 Leave Link 1002 at Mon Feb 21 20:07:59 2022, MaxMem= 16106127360 cpu:              79.7 elap:               2.9
 (Enter /sw/contrib/gaussian/g16/B01/g16/l811.exe)
 MDV= 16106127360.
 Form MO integral derivatives with frozen-active canonical formalism.
 MOERI=1 MOERIx=1 NAtoms=     5 NAtomX=     5.
 Discarding MO integrals.
 MO basis two electron integral derivatives will not be stored on disk.
 IAlg= 3 DoFC=T DoPWx=T Debug=F.
 Frozen-core window:  NFC=   4 NFV=   0.
 Reordered first order wavefunction length =     18678272
 In DefCFB: NBatch=  1 ICI= 16 ICA=191 LFMax= 96
            Large arrays: LIAPS=   619940160 LIARS=   288257200 words.
 In StABat: MaxSiz= 55 MinSiz= 25 NAtomB=  5
 DoIAMN: NPSUse= 28.
 Leave Link  811 at Mon Feb 21 20:09:19 2022, MaxMem= 16106127360 cpu:            2228.4 elap:              79.7
 (Enter /sw/contrib/gaussian/g16/B01/g16/l804.exe)
 Frozen-core window:  NFC=   4 NFV=   0.
 Closed-shell transformation, MDV= 16106127360 ITran=4 ISComp=1.
 Semi-Direct transformation.
 ModeAB=           2 MOrb=            16 LenV=   16104923065
 LASXX=     67341636 LTotXX=    67341636 LenRXX=    67341636
 LTotAB=    68301760 MaxLAS=    99807120 LenRXY=    99807120
 NonZer=   134683272 LenScr=   202817536 LnRSAI=           0
 LnScr1=           0 LExtra=           0 Total=    369966292
 MaxDsk=          -1 SrtSym=           F ITran=            4
 DoSDTr:  NPSUse= 28
 JobTyp=0 Pass  1:  I=   1 to  16.
 (rs|ai) integrals will be sorted in core.
 Complete sort for first half transformation.
 First half transformation complete.
 Begin second half transformation for I=  10.
 Begin second half transformation for I=  10.
 Complete sort for second half transformation.
 Second half transformation complete.
 Spin components of T(2) and E(2):
     alpha-alpha T2 =       0.3413471526D-01 E2=     -0.1224785834D+00
     alpha-beta  T2 =       0.1877000724D+00 E2=     -0.7010489599D+00
     beta-beta   T2 =       0.3413471526D-01 E2=     -0.1224785834D+00
 ANorm=    0.1584909778D+01
 E2 =    -0.9460061268D+00 EUMP2 =    -0.28044666250652D+03
 Leave Link  804 at Mon Feb 21 20:09:35 2022, MaxMem= 16106127360 cpu:             458.8 elap:              16.5
 (Enter /sw/contrib/gaussian/g16/B01/g16/l1002.exe)
 Minotr:  Closed shell wavefunction.
          Computing MP2/KS-MP2 derivatives.
          Using Z-Vector for PSCF gradient.
          Skipping F1 and S1 gradient terms here.
          IDoAtm=11111
          Frozen-core window.
          Using MO integrals in the linear equations.
          Forming densities via direct SCF.
          Differentiating once with respect to electric field.
                with respect to dipole field.
          Differentiating once with respect to nuclear coordinates.
          Using symmetry in CPHF.
          Requested convergence is 1.0D-10 RMS, and 1.0D-09 maximum.
          NewPWx=F KeepS1=T KeepF1=T KeepIn=T MapXYZ=F SortEE=F KeepMc=T.
          MDV=   16106127360 using IRadAn=       5.
          Solving linear equations separately, MaxMat=       0.
          There are     1 degrees of freedom in the 1st order CPHF.  IDoFFX=0 NUNeed=     1.
 FoFJK:  IHMeth= 1 ICntrl=       0 DoSepK=F KAlg= 0 I1Cent=           0 FoldK=F
 IRaf=         0 NMat=       1 IRICut=       1 DoRegI=T DoRafI=F ISym2E= 0 IDoP0=0 IntGTp=1.
 FoFCou: FMM=F IPFlag=           0 FMFlag=      100000 FMFlg1=           0
         NFxFlg=           0 DoJE=F BraDBF=F KetDBF=F FulRan=T
         wScrn=  0.000000 ICntrl=         0 IOpCl=  0 I1Cent=           0 NGrid=           0
         NMat0=    1 NMatS0=      1 NMatT0=    0 NMatD0=    1 NMtDS0=    0 NMtDT0=    0
 Symmetry not used in FoFCou.
 LinEq1:  Iter=  0 NonCon=     1 RMS=5.98D-03 Max=1.33D-01 NDo=     1
 LinEq1:  Iter=  1 NonCon=     1 RMS=1.91D-03 Max=3.81D-02 NDo=     1
 LinEq1:  Iter=  2 NonCon=     1 RMS=8.70D-04 Max=1.43D-02 NDo=     1
 LinEq1:  Iter=  3 NonCon=     1 RMS=3.87D-04 Max=7.76D-03 NDo=     1
 LinEq1:  Iter=  4 NonCon=     1 RMS=1.19D-04 Max=1.88D-03 NDo=     1
 LinEq1:  Iter=  5 NonCon=     1 RMS=4.44D-05 Max=7.04D-04 NDo=     1
 LinEq1:  Iter=  6 NonCon=     1 RMS=2.01D-05 Max=2.14D-04 NDo=     1
 LinEq1:  Iter=  7 NonCon=     1 RMS=8.17D-06 Max=1.49D-04 NDo=     1
 LinEq1:  Iter=  8 NonCon=     1 RMS=3.50D-06 Max=3.41D-05 NDo=     1
 LinEq1:  Iter=  9 NonCon=     1 RMS=9.53D-07 Max=1.33D-05 NDo=     1
 LinEq1:  Iter= 10 NonCon=     1 RMS=1.87D-07 Max=2.05D-06 NDo=     1
 LinEq1:  Iter= 11 NonCon=     1 RMS=3.49D-08 Max=3.40D-07 NDo=     1
 LinEq1:  Iter= 12 NonCon=     1 RMS=8.46D-09 Max=1.14D-07 NDo=     1
 LinEq1:  Iter= 13 NonCon=     1 RMS=1.56D-09 Max=2.25D-08 NDo=     1
 LinEq1:  Iter= 14 NonCon=     1 RMS=2.82D-10 Max=3.97D-09 NDo=     1
 LinEq1:  Iter= 15 NonCon=     0 RMS=5.12D-11 Max=5.32D-10 NDo=     1
 Linear equations converged to 1.000D-10 1.000D-09 after    15 iterations.
 End of Minotr F.D. properties file   721 does not exist.
 End of Minotr F.D. properties file   722 does not exist.
 End of Minotr F.D. properties file   788 does not exist.
 Leave Link 1002 at Mon Feb 21 20:09:38 2022, MaxMem= 16106127360 cpu:              63.1 elap:               2.3
 (Enter /sw/contrib/gaussian/g16/B01/g16/l1102.exe)
 Use density number 2.
 Symmetrizing basis deriv contribution to polar:
 IMax=3 JMax=2 DiffMx= 0.00D+00
 Leave Link 1102 at Mon Feb 21 20:09:38 2022, MaxMem= 16106127360 cpu:               0.9 elap:               0.1
 (Enter /sw/contrib/gaussian/g16/B01/g16/l1110.exe)
 Forming Gx(P) for generalized density number  2 NAtomX=     5.
 Integral derivatives from FoFJK, PRISM(SPDF).
 Do as many integral derivatives as possible in FoFJK.
 G2DrvN: MDV=   16106126844.
 G2DrvN: will do     6 centers at a time, making    1 passes.
 Calling FoFCou, ICntrl=  3107 FMM=F I1Cent=   0 AccDes= 0.00D+00.
 FoFJK:  IHMeth= 1 ICntrl=    3107 DoSepK=F KAlg= 0 I1Cent=           0 FoldK=F
 IRaf=         0 NMat=       1 IRICut=       1 DoRegI=T DoRafI=F ISym2E= 1 IDoP0=0 IntGTp=1.
 FoFCou: FMM=F IPFlag=           0 FMFlag=      100000 FMFlg1=           0
         NFxFlg=           0 DoJE=F BraDBF=F KetDBF=F FulRan=T
         wScrn=  0.000000 ICntrl=      3107 IOpCl=  0 I1Cent=           0 NGrid=           0
         NMat0=    1 NMatS0=      1 NMatT0=    0 NMatD0=    1 NMtDS0=    0 NMtDT0=    0
 Petite list used in FoFCou.
 End of G2Drv F.D. properties file   721 does not exist.
 End of G2Drv F.D. properties file   722 does not exist.
 End of G2Drv F.D. properties file   788 does not exist.
 Leave Link 1110 at Mon Feb 21 20:09:41 2022, MaxMem= 16106127360 cpu:              83.9 elap:               3.0
 (Enter /sw/contrib/gaussian/g16/B01/g16/l1112.exe)
 MP22nd: MDV=   16106127360
 This link is doing NAtomX=     5 total of    18 degrees of freedom.
 Using ON3 I/O method in MakUI.
 Frozen-core window:  NFC=   4 NFV=   0.
 Using Ix for Sx.
 Use MO integrals over full window.
 Using OV2 memory method for fx*t*t/D, MaxI=    16 DoOO2=F NP=  28.
 R2 and R3 integrals will be kept in memory, NReq=   915591705.
 FoFCou: FMM=F IPFlag=           0 FMFlag=           0 FMFlg1=           0
         NFxFlg=           0 DoJE=F BraDBF=F KetDBF=F FulRan=T
         wScrn=  0.000000 ICntrl=       600 IOpCl=  0 I1Cent=           0 NGrid=           0
         NMat0=    1 NMatS0=      1 NMatT0=    0 NMatD0=    1 NMtDS0=    0 NMtDT0=    0
 Symmetry not used in FoFCou.
 DD1Dir will call FoFMem   1 times, MxPair=       272
 NAB=   136 NAA=     0 NBB=     0.
 Symmetry is being used.
 FoFJK:  IHMeth= 1 ICntrl=       0 DoSepK=F KAlg= 0 I1Cent=           0 FoldK=F
 IRaf=         0 NMat=      18 IRICut=      45 DoRegI=T DoRafI=T ISym2E= 2 IDoP0=3 IntGTp=3.
 Discarding MO integrals.
 Leave Link 1112 at Mon Feb 21 20:10:20 2022, MaxMem= 16106127360 cpu:            1092.4 elap:              39.5
 (Enter /sw/contrib/gaussian/g16/B01/g16/l601.exe)
 Copying SCF densities to generalized density rwf, IOpCl= 0 IROHF=0.

 **********************************************************************

            Population analysis using the MP2 Density.

 **********************************************************************

 Orbital symmetries:
       Occupied  (A') (A') (A') (A') (A') (A') (A') (A') (A') (A')
                 (A") (A') (A") (A') (A") (A')
       Virtual   (A') (A") (A') (A') (A') (A") (A') (A') (A") (A')
                 (A") (A') (A') (A') (A") (A') (A') (A") (A') (A')
                 (A') (A') (A') (A') (A") (A') (A') (A") (A') (A')
                 (A") (A') (A") (A') (A') (A") (A') (A') (A") (A')
                 (A") (A') (A") (A') (A') (A") (A') (A') (A") (A')
                 (A") (A') (A') (A') (A") (A') (A") (A') (A") (A')
                 (A') (A') (A") (A') (A') (A") (A') (A") (A') (A')
                 (A") (A') (A') (A") (A") (A') (A') (A") (A') (A')
                 (A') (A") (A') (A") (A') (A") (A') (A") (A') (A')
                 (A") (A') (A') (A") (A') (A") (A') (A") (A') (A')
                 (A") (A') (A") (A') (A') (A") (A') (A') (A") (A')
                 (A") (A') (A') (A') (A") (A') (A') (A') (A") (A')
                 (A") (A') (A") (A') (A') (A") (A") (A') (A") (A')
                 (A') (A') (A') (A") (A") (A") (A') (A') (A') (A')
                 (A") (A') (A") (A') (A') (A") (A') (A') (A') (A')
                 (A") (A') (A') (A") (A') (A") (A') (A") (A") (A')
                 (A') (A") (A') (A") (A') (A") (A") (A') (A") (A')
                 (A") (A') (A") (A') (A") (A') (A") (A") (A') (A')
                 (A') (A') (A') (A') (A') (A') (A') (A') (A') (A')
                 (A')
 The electronic state is 1-A'.
 Alpha  occ. eigenvalues --  -20.69154 -20.68450 -20.66098 -15.81306  -1.62370
 Alpha  occ. eigenvalues --   -1.49116  -1.25648  -0.94791  -0.77158  -0.75826
 Alpha  occ. eigenvalues --   -0.71077  -0.67937  -0.61935  -0.58780  -0.48729
 Alpha  occ. eigenvalues --   -0.47276
 Alpha virt. eigenvalues --    0.02960   0.07166   0.08564   0.10166   0.13335
 Alpha virt. eigenvalues --    0.13397   0.14402   0.15448   0.17828   0.19428
 Alpha virt. eigenvalues --    0.19985   0.20623   0.21876   0.23115   0.23728
 Alpha virt. eigenvalues --    0.26597   0.29334   0.30379   0.31019   0.34276
 Alpha virt. eigenvalues --    0.34929   0.38705   0.42144   0.43145   0.52715
 Alpha virt. eigenvalues --    0.52901   0.55831   0.58132   0.62573   0.63837
 Alpha virt. eigenvalues --    0.67453   0.68459   0.70544   0.71148   0.72348
 Alpha virt. eigenvalues --    0.72969   0.74477   0.79074   0.79192   0.81032
 Alpha virt. eigenvalues --    0.81251   0.82979   0.86811   0.90712   0.92175
 Alpha virt. eigenvalues --    0.92533   0.95707   0.97692   0.98387   1.01642
 Alpha virt. eigenvalues --    1.05117   1.05508   1.08127   1.11640   1.13946
 Alpha virt. eigenvalues --    1.18869   1.22077   1.23182   1.33852   1.34974
 Alpha virt. eigenvalues --    1.38611   1.45311   1.48799   1.50977   1.53735
 Alpha virt. eigenvalues --    1.56601   1.57900   1.61254   1.66215   1.66900
 Alpha virt. eigenvalues --    1.70310   1.79169   1.83047   1.83446   1.87714
 Alpha virt. eigenvalues --    1.90913   1.95603   1.99074   2.00692   2.07704
 Alpha virt. eigenvalues --    2.11838   2.13184   2.14756   2.22389   2.26208
 Alpha virt. eigenvalues --    2.26387   2.28887   2.31306   2.34074   2.38747
 Alpha virt. eigenvalues --    2.42254   2.42699   2.45331   2.46300   2.47532
 Alpha virt. eigenvalues --    2.50009   2.58799   2.59503   2.61732   2.62284
 Alpha virt. eigenvalues --    2.63131   2.66391   2.75677   2.82407   2.85241
 Alpha virt. eigenvalues --    2.87850   2.88819   2.92033   2.95521   3.01722
 Alpha virt. eigenvalues --    3.06828   3.12407   3.19033   3.22304   3.31246
 Alpha virt. eigenvalues --    3.34583   3.51292   3.64152   3.83829   3.84169
 Alpha virt. eigenvalues --    4.14662   4.15922   4.18197   4.25618   4.34887
 Alpha virt. eigenvalues --    4.39060   4.45236   4.52097   4.66009   4.70447
 Alpha virt. eigenvalues --    4.80395   4.82420   4.82995   4.89476   5.02234
 Alpha virt. eigenvalues --    5.07706   5.10100   5.14462   5.17861   5.24093
 Alpha virt. eigenvalues --    5.27206   5.30790   5.32800   5.35235   5.59970
 Alpha virt. eigenvalues --    5.67345   5.76618   5.80849   5.95325   6.16612
 Alpha virt. eigenvalues --    6.32704   6.33650   6.39710   6.49454   6.50555
 Alpha virt. eigenvalues --    6.61641   6.67557   6.70093   6.75830   6.75854
 Alpha virt. eigenvalues --    6.83227   6.89724   7.00411   7.04046   7.04769
 Alpha virt. eigenvalues --    7.08175   7.12295   7.14202   7.17783   7.22202
 Alpha virt. eigenvalues --    7.23869   7.30520   7.32475   7.34742   7.39657
 Alpha virt. eigenvalues --    7.41719   7.48336   7.59936   7.61379   7.62123
 Alpha virt. eigenvalues --    7.66151   7.77761   7.88401   8.07366   8.29931
 Alpha virt. eigenvalues --    8.39651   8.54455  13.35693  14.37915  15.14903
 Alpha virt. eigenvalues --   16.15094
          Condensed to atoms (all electrons):
               1          2          3          4          5
     1  H    0.588774   0.128095   0.020652   0.012156  -0.000603
     2  O    0.128095   8.307693  -0.159418  -0.088522   0.015135
     3  O    0.020652  -0.159418   8.456071  -0.131235  -0.038308
     4  N    0.012156  -0.088522  -0.131235   6.970262  -0.055355
     5  O   -0.000603   0.015135  -0.038308  -0.055355   8.272006
 Mulliken charges:
               1
     1  H    0.250926
     2  O   -0.202983
     3  O   -0.147762
     4  N    0.292693
     5  O   -0.192874
 Sum of Mulliken charges =  -0.00000
 Mulliken charges with hydrogens summed into heavy atoms:
               1
     2  O    0.047943
     3  O   -0.147762
     4  N    0.292693
     5  O   -0.192874
 APT charges:
               1
     1  H    0.298403
     2  O   -0.288847
     3  O   -0.495673
     4  N    0.877246
     5  O   -0.391128
 Sum of APT charges =  -0.00000
 APT charges with hydrogens summed into heavy atoms:
               1
     2  O    0.009555
     3  O   -0.495673
     4  N    0.877246
     5  O   -0.391128
 Electronic spatial extent (au):  <R**2>=            254.0134
 Charge=             -0.0000 electrons
 Dipole moment (field-independent basis, Debye):
    X=              0.5104    Y=              1.3504    Z=              0.0000  Tot=              1.4436
 Quadrupole moment (field-independent basis, Debye-Ang):
   XX=            -22.4049   YY=            -18.6586   ZZ=            -22.0265
   XY=              3.2925   XZ=             -0.0000   YZ=              0.0000
 Traceless Quadrupole moment (field-independent basis, Debye-Ang):
   XX=             -1.3749   YY=              2.3714   ZZ=             -0.9965
   XY=              3.2925   XZ=             -0.0000   YZ=              0.0000
 Octapole moment (field-independent basis, Debye-Ang**2):
  XXX=              3.0314  YYY=             11.1400  ZZZ=             -0.0000  XYY=              7.9226
  XXY=              6.6954  XXZ=              0.0000  XZZ=             -1.6016  YZZ=             -0.8625
  YYZ=              0.0000  XYZ=              0.0000
 Hexadecapole moment (field-independent basis, Debye-Ang**3):
 XXXX=           -160.2054 YYYY=            -89.2182 ZZZZ=            -18.2728 XXXY=            -36.4175
 XXXZ=             -0.0000 YYYX=            -30.7955 YYYZ=             -0.0000 ZZZX=             -0.0000
 ZZZY=             -0.0000 XXYY=            -33.9797 XXZZ=            -31.2421 YYZZ=            -20.5447
 XXYZ=             -0.0000 YYXZ=             -0.0000 ZZXY=            -15.0783
 N-N= 1.165856595492D+02 E-N=-8.952743339439D+02  KE= 2.801814496338D+02
 Symmetry A'   KE= 2.662166285201D+02
 Symmetry A"   KE= 1.396482111363D+01
  Exact polarizability:  34.287   9.490  30.206   0.000  -0.000  17.966
 Approx polarizability:  29.352   5.097  23.495   0.000   0.000  15.541
 No NMR shielding tensors so no spin-rotation constants.
 Leave Link  601 at Mon Feb 21 20:10:21 2022, MaxMem= 16106127360 cpu:               5.6 elap:               0.3
 (Enter /sw/contrib/gaussian/g16/B01/g16/l701.exe)
 ... and contract with generalized density number  2.
 Compute integral second derivatives.
 Leave Link  701 at Mon Feb 21 20:10:21 2022, MaxMem= 16106127360 cpu:               6.4 elap:               0.3
 (Enter /sw/contrib/gaussian/g16/B01/g16/l702.exe)
 L702 exits ... SP integral derivatives will be done elsewhere.
 Leave Link  702 at Mon Feb 21 20:10:21 2022, MaxMem= 16106127360 cpu:               1.9 elap:               0.1
 (Enter /sw/contrib/gaussian/g16/B01/g16/l703.exe)
 Integral derivatives from FoFJK, PRISM(SPDF).
 Compute integral second derivatives, UseDBF=F ICtDFT=           0.
 Calling FoFJK, ICntrl=  10100127 FMM=F ISym2X=1 I1Cent= 0 IOpClX= 0 NMat=1 NMatS=1 NMatT=0.
 FoFJK:  IHMeth= 1 ICntrl=10100127 DoSepK=F KAlg= 0 I1Cent=           0 FoldK=F
 IRaf=         0 NMat=       1 IRICut=       1 DoRegI=T DoRafI=F ISym2E= 1 IDoP0=0 IntGTp=1.
 FoFCou: FMM=F IPFlag=           0 FMFlag=      100000 FMFlg1=         800
         NFxFlg=           0 DoJE=F BraDBF=F KetDBF=F FulRan=T
         wScrn=  0.000000 ICntrl=  10100127 IOpCl=  0 I1Cent=           0 NGrid=           0
         NMat0=    1 NMatS0=      1 NMatT0=    0 NMatD0=    1 NMtDS0=    0 NMtDT0=    0
 Petite list used in FoFCou.
 Leave Link  703 at Mon Feb 21 20:10:36 2022, MaxMem= 16106127360 cpu:             427.2 elap:              15.3
 (Enter /sw/contrib/gaussian/g16/B01/g16/l716.exe)
 Dipole        = 2.00810146D-01 5.31284350D-01 6.30844213D-33
 Polarizability= 3.42866172D+01 9.49033026D+00 3.02057552D+01
                 2.66558201D-30-1.37330781D-31 1.79662226D+01
 Full mass-weighted force constant matrix:
 Low frequencies --- -273.7816  -21.4009   -0.0013   -0.0006    0.0010   32.7507
 Low frequencies ---   51.8731  233.4322  342.9791
 ******    1 imaginary frequencies (negative Signs) ****** 
 Diagonal vibrational polarizability:
       14.4205789      24.9869400      45.1257860
 Harmonic frequencies (cm**-1), IR intensities (KM/Mole), Raman scattering
 activities (A**4/AMU), depolarization ratios for plane and unpolarized
 incident light, reduced masses (AMU), force constants (mDyne/A),
 and normal coordinates:
                      1                      2                      3
                     A"                     A"                     A'
 Frequencies --   -273.6040               232.8338               342.9180
 Red. masses --      1.1407                10.3640                 8.6893
 Frc consts  --      0.0503                 0.3310                 0.6020
 IR Inten    --    124.3183                 0.8752                 3.1234
  Atom  AN      X      Y      Z        X      Y      Z        X      Y      Z
     1   1     0.00  -0.00   1.00     0.00  -0.00  -0.58     0.53  -0.45   0.00
     2   8     0.00  -0.00  -0.07     0.00  -0.00  -0.30    -0.10  -0.38   0.00
     3   8     0.00   0.00  -0.04    -0.00   0.00   0.32    -0.15   0.42  -0.00
     4   7    -0.00  -0.00   0.06    -0.00   0.00   0.52     0.06   0.27  -0.00
     5   8    -0.00  -0.00  -0.01     0.00  -0.00  -0.44     0.17  -0.25   0.00
                      4                      5                      6
                     A'                     A'                     A'
 Frequencies --    448.2306               777.5262               944.3511
 Red. masses --     12.2103                13.0876                15.0338
 Frc consts  --      1.4454                 4.6617                 7.8993
 IR Inten    --    199.3502               165.7107                29.5831
  Atom  AN      X      Y      Z        X      Y      Z        X      Y      Z
     1   1     0.43   0.17   0.00    -0.33   0.19   0.00    -0.23  -0.02  -0.00
     2   8     0.32   0.19   0.00     0.45   0.08   0.00    -0.48   0.04   0.00
     3   8     0.17   0.45  -0.00    -0.11  -0.27  -0.00     0.74  -0.04  -0.00
     4   7    -0.35  -0.39  -0.00    -0.13   0.61  -0.00    -0.13   0.28  -0.00
     5   8    -0.21  -0.31   0.00    -0.21  -0.35   0.00    -0.13  -0.25   0.00
                      7                      8                      9
                     A'                     A'                     A'
 Frequencies --   1358.1616              1676.7431              3779.8081
 Red. masses --      1.1327                13.3359                 1.0676
 Frc consts  --      1.2310                22.0905                 8.9868
 IR Inten    --    151.8448               141.2045                81.9617
  Atom  AN      X      Y      Z        X      Y      Z        X      Y      Z
     1   1     0.99  -0.06   0.00    -0.33   0.01  -0.00     0.11   0.99  -0.00
     2   8    -0.03   0.05   0.00    -0.00  -0.04  -0.00    -0.01  -0.06  -0.00
     3   8    -0.02  -0.05  -0.00     0.00   0.15   0.00     0.00   0.00   0.00
     4   7     0.02   0.01  -0.00     0.71  -0.06   0.00    -0.00  -0.00   0.00
     5   8    -0.03  -0.01   0.00    -0.60  -0.06  -0.00     0.00   0.00  -0.00

 -------------------
 - Thermochemistry -
 -------------------
 Temperature   298.150 Kelvin.  Pressure   1.00000 Atm.
 Atom     1 has atomic number  1 and mass   1.00783
 Atom     2 has atomic number  8 and mass  15.99491
 Atom     3 has atomic number  8 and mass  15.99491
 Atom     4 has atomic number  7 and mass  14.00307
 Atom     5 has atomic number  8 and mass  15.99491
 Molecular mass:    62.99564 amu.
 Principal axes and moments of inertia in atomic units:
                           1         2         3
     Eigenvalues --    33.01141 362.12173 395.13313
           X            0.81440  -0.58030   0.00000
           Y            0.58030   0.81440   0.00000
           Z           -0.00000   0.00000   1.00000
 This molecule is an asymmetric top.
 Rotational symmetry number  1.
 Rotational temperatures (Kelvin)      2.62376     0.23918     0.21920
 Rotational constants (GHZ):          54.67023     4.98380     4.56743
    1 imaginary frequencies ignored.
 Zero-point vibrational energy      57184.9 (Joules/Mol)
                                   13.66752 (Kcal/Mol)
 Warning -- explicit consideration of   3 degrees of freedom as
           vibrations may cause significant error
 Vibrational temperatures:    335.00   493.38   644.90  1118.69  1358.71
          (Kelvin)           1954.09  2412.46  5438.30
 
 Zero-point correction=                           0.021781 (Hartree/Particle)
 Thermal correction to Energy=                    0.025901
 Thermal correction to Enthalpy=                  0.026845
 Thermal correction to Gibbs Free Energy=        -0.004343
 Sum of electronic and zero-point Energies=           -280.424882
 Sum of electronic and thermal Energies=              -280.420762
 Sum of electronic and thermal Enthalpies=            -280.419818
 Sum of electronic and thermal Free Energies=         -280.451005
 
                     E (Thermal)             CV                S
                      KCal/Mol        Cal/Mol-Kelvin    Cal/Mol-Kelvin
 Total                   16.253             11.999             65.640
 Electronic               0.000              0.000              0.000
 Translational            0.889              2.981             38.341
 Rotational               0.889              2.981             23.073
 Vibrational             14.475              6.038              4.227
 Vibration     1          0.654              1.791              1.857
 Vibration     2          0.722              1.590              1.199
 Vibration     3          0.807              1.365              0.801
                       Q            Log10(Q)             Ln(Q)
 Total Bot       0.994516D+02          1.997612          4.599671
 Total V=0       0.103748D+13         12.015978         27.667811
 Vib (Bot)       0.205691D-09         -9.686784        -22.304645
 Vib (Bot)    1  0.844863D+00         -0.073214         -0.168580
 Vib (Bot)    2  0.540483D+00         -0.267218         -0.615292
 Vib (Bot)    3  0.383135D+00         -0.416648         -0.959367
 Vib (V=0)       0.214576D+01          0.331581          0.763494
 Vib (V=0)    1  0.148173D+01          0.170769          0.393210
 Vib (V=0)    2  0.123629D+01          0.092120          0.212114
 Vib (V=0)    3  0.112991D+01          0.053046          0.122142
 Electronic      0.100000D+01          0.000000          0.000000
 Translational   0.196526D+08          7.293420         16.793719
 Rotational      0.246024D+05          4.390977         10.110597
 
                                                                title
                                                             IR Spectrum
 
     3                                                                      1          1                                             
     7                                                                      6          3             9    7          4   3   2       
     8                                                                      7          5             4    7          4   4   3       
     0                                                                      7          8             4    8          8   3   3       
 
     X                                                                      X          X             X    X          X   X   X       
     X                                                                      X          X             X    X          X               
     X                                                                      X          X             X    X          X               
     X                                                                      X          X                  X          X               
     X                                                                      X          X                  X          X               
     X                                                                      X          X                  X          X               
     X                                                                      X          X                  X          X               
     X                                                                      X          X                  X          X               
                                                                            X          X                  X          X               
                                                                            X          X                  X          X               
                                                                            X          X                  X          X               
                                                                            X          X                  X          X               
                                                                            X          X                  X          X               
                                                                            X          X                  X          X               
                                                                                       X                  X          X               
                                                                                                          X          X               
                                                                                                          X          X               
                                                                                                                     X               
                                                                                                                     X               
                                                                                                                     X               
 
 ***** Axes restored to original set *****
 -------------------------------------------------------------------
 Center     Atomic                   Forces (Hartrees/Bohr)
 Number     Number              X              Y              Z
 -------------------------------------------------------------------
      1        1           0.000836916   -0.000000000   -0.000230035
      2        8           0.005212696   -0.000000000    0.002078353
      3        8          -0.005242294    0.000000000   -0.001773973
      4        7          -0.001154582    0.000000000    0.000243633
      5        8           0.000347264   -0.000000000   -0.000317977
 -------------------------------------------------------------------
 Cartesian Forces:  Max     0.005242294 RMS     0.002073449
 -----------------------------------------------------------------------------------------------
                       Internal Coordinate Forces (Hartree/Bohr or radian)
  Cent   Atom   N1       Length/X         N2         Alpha/Y        N3         Beta/Z          J
 -----------------------------------------------------------------------------------------------
      1  H 
      2  O        1   0.000230(     1)
      3  O        2  -0.006241(     2)      1  -0.001532(     5)
      4  N        3  -0.000140(     3)      2  -0.001329(     6)      1  -0.000000(     8)     0
      5  O        4   0.000258(     4)      3  -0.000872(     7)      2  -0.000000(     9)     0
 -----------------------------------------------------------------------------------------------
 Internal  Forces:  Max     0.006240830 RMS     0.002210141
 Force constants in Cartesian coordinates: 
                1             2             3             4             5 
      1  0.634154D-01
      2  0.000000D+00 -0.245734D-02
      3  0.457860D-02  0.000000D+00  0.512638D+00
      4 -0.359303D-01  0.000000D+00 -0.158000D-01  0.256736D+00
      5  0.000000D+00  0.340569D-02  0.000000D+00  0.000000D+00  0.349610D-02
      6  0.476569D-01  0.000000D+00 -0.509115D+00  0.293237D-01  0.000000D+00
      7 -0.170187D-01  0.000000D+00  0.127022D-01 -0.205137D+00  0.000000D+00
      8  0.000000D+00  0.678380D-03  0.000000D+00  0.000000D+00 -0.807852D-02
      9 -0.517828D-01  0.000000D+00 -0.104859D-03 -0.160255D-01  0.000000D+00
     10 -0.929674D-02  0.000000D+00 -0.476385D-02 -0.164411D-01  0.000000D+00
     11  0.000000D+00 -0.262351D-02  0.000000D+00  0.000000D+00 -0.511373D-02
     12  0.524717D-02  0.000000D+00 -0.485182D-02  0.113888D-01  0.000000D+00
     13 -0.116969D-02  0.000000D+00  0.328307D-02  0.773127D-03  0.000000D+00
     14  0.000000D+00  0.996782D-03  0.000000D+00  0.000000D+00  0.629046D-02
     15 -0.569982D-02  0.000000D+00  0.143397D-02 -0.888708D-02  0.000000D+00
                6             7             8             9            10 
      6  0.594177D+00
      7 -0.179112D-01  0.324818D+00
      8  0.000000D+00  0.000000D+00  0.584993D-02
      9 -0.781631D-01  0.316581D-01  0.000000D+00  0.180216D+00
     10 -0.510594D-01 -0.773180D-01  0.000000D+00  0.174659D+00  0.827158D+00
     11  0.000000D+00  0.000000D+00  0.875325D-02  0.000000D+00  0.000000D+00
     12  0.174238D-01  0.638548D-01  0.000000D+00 -0.815170D-01 -0.189069D-01
     13 -0.801001D-02 -0.253440D-01  0.000000D+00 -0.138508D+00 -0.724102D+00
     14  0.000000D+00  0.000000D+00 -0.720304D-02  0.000000D+00  0.000000D+00
     15 -0.243223D-01 -0.903039D-01  0.000000D+00 -0.204309D-01 -0.999284D-01
               11            12            13            14            15 
     11  0.825557D-02
     12  0.000000D+00  0.185847D+00
     13  0.000000D+00 -0.615839D-01  0.749842D+00
     14 -0.927158D-02  0.000000D+00  0.000000D+00  0.918738D-02
     15  0.000000D+00 -0.116902D+00  0.204819D+00  0.000000D+00  0.160222D+00
 Force constants in internal coordinates: 
                1             2             3             4             5 
      1  0.512638D+00
      2 -0.106574D-01  0.262731D+00
      3  0.352774D-02  0.211449D-02  0.116363D+00
      4 -0.353621D-02  0.532435D-02  0.153179D+00  0.812005D+00
      5  0.922082D-02  0.625282D-01  0.239740D-02  0.466454D-02  0.213049D+00
      6  0.456688D-02  0.563979D-01  0.394476D-01  0.220501D-01  0.312740D-01
      7 -0.127099D-02  0.369125D-01  0.314339D-01  0.841761D-01  0.211936D-01
      8  0.000000D+00  0.000000D+00  0.000000D+00  0.000000D+00  0.000000D+00
      9  0.000000D+00  0.000000D+00  0.000000D+00  0.000000D+00  0.000000D+00
                6             7             8             9 
      6  0.276598D+00
      7  0.950626D-01  0.480520D+00
      8  0.000000D+00  0.000000D+00 -0.748006D-02
      9  0.000000D+00  0.000000D+00 -0.378233D-02  0.409460D-01
 Leave Link  716 at Mon Feb 21 20:10:36 2022, MaxMem= 16106127360 cpu:               0.8 elap:               0.1
 (Enter /sw/contrib/gaussian/g16/B01/g16/l103.exe)

 GradGradGradGradGradGradGradGradGradGradGradGradGradGradGradGradGradGrad
 Berny optimization.
 Search for a local minimum.
 Step number   1 out of a maximum of    2
 All quantities printed in internal units (Hartrees-Bohrs-Radians)
 Second derivative matrix not updated -- analytic derivatives used.
 The second derivative matrix:
                          r1        r2        r3        r4        a1
           r1           0.51264
           r2          -0.01066   0.26273
           r3           0.00353   0.00211   0.11636
           r4          -0.00354   0.00532   0.15318   0.81201
           a1           0.00922   0.06253   0.00240   0.00466   0.21305
           a2           0.00457   0.05640   0.03945   0.02205   0.03127
           a3          -0.00127   0.03691   0.03143   0.08418   0.02119
           d1          -0.00000   0.00000  -0.00000  -0.00000   0.00000
           d2           0.00000   0.00000  -0.00000  -0.00000   0.00000
                          a2        a3        d1        d2
           a2           0.27660
           a3           0.09506   0.48052
           d1           0.00000   0.00000  -0.00748
           d2           0.00000   0.00000  -0.00378   0.04095
 ITU=  0
     Eigenvalues ---   -0.00777   0.04124   0.07777   0.16965   0.21885
     Eigenvalues ---    0.31196   0.51196   0.51347   0.87024
 Eigenvalue     1 is  -7.77D-03 should be greater than     0.000000 Eigenvector:
                          d1        d2        r3        a2        a3
   1                    0.99700   0.07740   0.00000  -0.00000  -0.00000
                          a1        r4        r2        r1
   1                    0.00000  -0.00000  -0.00000  -0.00000
 Angle between quadratic step and forces=  19.83 degrees.
 Linear search not attempted -- first point.
 Variable       Old X    -DE/DX   Delta X   Delta X   Delta X     New X
                                 (Linear)    (Quad)   (Total)
    r1        1.83110   0.00023   0.00000  -0.00002  -0.00002   1.83107
    r2        2.77144  -0.00624   0.00000  -0.02375  -0.02375   2.74769
    r3        2.75670  -0.00014   0.00000  -0.00196  -0.00196   2.75474
    r4        2.21236   0.00026   0.00000   0.00084   0.00084   2.21320
    a1        1.70335  -0.00153   0.00000  -0.00026  -0.00026   1.70310
    a2        1.78543  -0.00133   0.00000   0.00030   0.00030   1.78573
    a3        1.90362  -0.00087   0.00000  -0.00006  -0.00006   1.90357
    d1        3.14159  -0.00000   0.00000   0.00000   0.00000   3.14159
    d2        3.14159  -0.00000   0.00000  -0.00000   0.00000   3.14159
         Item               Value     Threshold  Converged?
 Maximum Force            0.006241     0.000450     NO 
 RMS     Force            0.002210     0.000300     NO 
 Maximum Displacement     0.023751     0.001800     NO 
 RMS     Displacement     0.007950     0.001200     NO 
 Predicted change in Energy=-7.437927D-05
                       ----------------------------
                       ! Non-Optimized Parameters !
                       ! (Angstroms and Degrees)  !
 ----------------------                            ----------------------
 !      Name          Value   Derivative information (Atomic Units)     !
 ------------------------------------------------------------------------
 !       r1          0.969    -DE/DX =    0.0002                        !
 !       r2          1.454    -DE/DX =   -0.0062                        !
 !       r3          1.4577   -DE/DX =   -0.0001                        !
 !       r4          1.1712   -DE/DX =    0.0003                        !
 !       a1         97.5803   -DE/DX =   -0.0015                        !
 !       a2        102.3147   -DE/DX =   -0.0013                        !
 !       a3        109.0663   -DE/DX =   -0.0009                        !
 !       d1        180.0      -DE/DX =    0.0                           !
 !       d2        180.0      -DE/DX =    0.0                           !
 ------------------------------------------------------------------------
 GradGradGradGradGradGradGradGradGradGradGradGradGradGradGradGradGradGrad

 Leave Link  103 at Mon Feb 21 20:10:36 2022, MaxMem= 16106127360 cpu:               0.5 elap:               0.0
 (Enter /sw/contrib/gaussian/g16/B01/g16/l9999.exe)

 ----------------------------------------------------------------------

 Electric dipole moment (input orientation):
 (Debye = 10**-18 statcoulomb cm , SI units = C m)
                  (au)            (Debye)         (10**-30 SI)
   Tot        0.567968D+00      0.144363D+01      0.481543D+01
   x         -0.145053D+00     -0.368688D+00     -0.122981D+01
   y          0.000000D+00      0.000000D+00      0.000000D+00
   z         -0.549133D+00     -0.139576D+01     -0.465575D+01

 Dipole polarizability, Alpha (input orientation).
 (esu units = cm**3 , SI units = C**2 m**2 J**-1)
 Alpha(0;0):
               (au)            (10**-24 esu)      (10**-40 SI)
   iso        0.274862D+02      0.407303D+01      0.453186D+01
   aniso      0.220592D+02      0.326883D+01      0.363706D+01
   xx         0.322999D+02      0.478635D+01      0.532553D+01
   yx         0.000000D+00      0.000000D+00      0.000000D+00
   yy         0.179662D+02      0.266232D+01      0.296223D+01
   zx         0.970705D+01      0.143844D+01      0.160048D+01
   zy         0.000000D+00      0.000000D+00      0.000000D+00
   zz         0.321925D+02      0.477043D+01      0.530782D+01

 ----------------------------------------------------------------------

 Dipole orientation:
     1          0.00000000          0.00000000         -0.00000000
     8         -0.46764352          0.00000000         -1.77037595
     8          2.09483617          0.00000000         -2.82611553
     7          1.61168190          0.00000000         -5.54014755
     8          3.54358146          0.00000000         -6.61824175

 Electric dipole moment (dipole orientation):
 (Debye = 10**-18 statcoulomb cm , SI units = C m)
                  (au)            (Debye)         (10**-30 SI)
   Tot        0.567968D+00      0.144363D+01      0.481543D+01
   x          0.000000D+00      0.000000D+00      0.000000D+00
   y          0.000000D+00      0.000000D+00      0.000000D+00
   z          0.567968D+00      0.144363D+01      0.481543D+01

 Dipole polarizability, Alpha (dipole orientation).
 (esu units = cm**3 , SI units = C**2 m**2 J**-1)
 Alpha(0;0):
               (au)            (10**-24 esu)      (10**-40 SI)
   iso        0.274862D+02      0.407303D+01      0.453186D+01
   aniso      0.220592D+02      0.326883D+01      0.363706D+01
   xx         0.274991D+02      0.407495D+01      0.453400D+01
   yx         0.000000D+00      0.000000D+00      0.000000D+00
   yy         0.179662D+02      0.266232D+01      0.296223D+01
   zx        -0.846731D+01     -0.125473D+01     -0.139607D+01
   zy         0.000000D+00      0.000000D+00      0.000000D+00
   zz         0.369932D+02      0.548183D+01      0.609936D+01

 ----------------------------------------------------------------------
 1\1\GINC-N2109\Freq\RMP2-FC\Aug-CC-pVTZ\H1N1O3\CGAVINH\21-Feb-2022\1\\
 #p freq mp2/aug-cc-pvtz density=current\\title\\0,1\H\O,1,r1\O,2,r2,1,
 a1\N,3,r3,2,a2,1,d1,0\O,4,r4,3,a3,2,d2,0\\r1=0.96897556\r2=1.46658371\
 r3=1.45878406\r4=1.17072885\a1=97.59494903\a2=102.29752444\a3=109.0695
 5123\d1=180.\d2=180.\\Version=ES64L-G16RevB.01\State=1-A'\HF=-279.5006
 564\MP2=-280.4466625\RMSD=3.907e-09\RMSF=2.073e-03\ZeroPoint=0.0217806
 \Thermal=0.0259006\Dipole=-0.1450532,0.,-0.5491333\DipoleDeriv=0.26609
 8,0.,0.0476138,0.,0.3550531,0.,0.0838078,0.,0.2740571,-0.3277559,0.,-0
 .2016628,0.,-0.314004,0.,-0.1156661,0.,-0.2247824,-0.0493427,0.,0.1411
 53,0.,-0.087269,0.,-0.7523276,0.,-1.3504068,0.8951908,0.,0.9096926,0.,
 0.0661583,0.,0.9268718,0.,1.6703884,-0.7841902,0.,-0.8967966,0.,-0.019
 9385,0.,-0.1426859,0.,-0.3692562\Polar=32.2998919,0.,17.9662226,9.7070
 512,0.,32.1924805\Quadrupole=-1.4939783,-0.7408859,2.2348643,0.,2.1107
 99,0.\PG=CS [SG(H1N1O3)]\NImag=1\\0.06341542,0.,-0.00245734,0.00457860
 ,0.,0.51263788,-0.03593031,0.,-0.01580001,0.25673567,0.,0.00340569,0.,
 0.,0.00349610,0.04765687,0.,-0.50911518,0.02932373,0.,0.59417670,-0.01
 701868,0.,0.01270218,-0.20513741,0.,-0.01791119,0.32481805,0.,0.000678
 38,0.,0.,-0.00807852,0.,0.,0.00584993,-0.05178283,0.,-0.00010486,-0.01
 602548,0.,-0.07816310,0.03165808,0.,0.18021581,-0.00929674,0.,-0.00476
 385,-0.01644108,0.,-0.05105940,-0.07731799,0.,0.17465855,0.82715770,0.
 ,-0.00262351,0.,0.,-0.00511373,0.,0.,0.00875325,0.,0.,0.00825557,0.005
 24717,0.,-0.00485182,0.01138883,0.,0.01742384,0.06385481,0.,-0.0815169
 7,-0.01890690,0.,0.18584740,-0.00116969,0.,0.00328307,0.00077313,0.,-0
 .00801001,-0.02534396,0.,-0.13850833,-0.72410189,0.,-0.06158392,0.7498
 4242,0.,0.00099678,0.,0.,0.00629046,0.,0.,-0.00720304,0.,0.,-0.0092715
 8,0.,0.,0.00918738,-0.00569982,0.,0.00143397,-0.00888708,0.,-0.0243222
 7,-0.09030389,0.,-0.02043088,-0.09992841,0.,-0.11690245,0.20481919,0.,
 0.16022163\\-0.00083692,0.,0.00023004,-0.00521270,0.,-0.00207835,0.005
 24229,0.,0.00177397,0.00115458,0.,-0.00024363,-0.00034726,0.,0.0003179
 8\\\@


 THERE ARE PEOPLE SO ADDICTED TO EXAGERATING THEY
 CAN'T TELL THE TRUTH WITHOUT LYING. -- FORTUNE COOKIE
 Job cpu time:       0 days  2 hours  2 minutes 17.2 seconds.
 Elapsed time:       0 days  0 hours  4 minutes 25.5 seconds.
 File lengths (MBytes):  RWF=   7239 Int=      0 D2E=      0 Chk=      8 Scr=      1
 Normal termination of Gaussian 16 at Mon Feb 21 20:10:38 2022.
