 Entering Gaussian System, Link 0=g16
 Input=hoono_d2_2p624862.gjf
 Output=hoono_d2_2p624862.log
 Initial command:
 /sw/contrib/gaussian/g16/B01/g16/l1.exe "/scr/Gau-3444.inp" -scrdir="/scr/"
 Entering Link 1 = /sw/contrib/gaussian/g16/B01/g16/l1.exe PID=      3445.
  
 Copyright (c) 1988-2017, Gaussian, Inc.  All Rights Reserved.
  
 This is part of the Gaussian(R) 16 program.  It is based on
 the Gaussian(R) 09 system (copyright 2009, Gaussian, Inc.),
 the Gaussian(R) 03 system (copyright 2003, Gaussian, Inc.),
 the Gaussian(R) 98 system (copyright 1998, Gaussian, Inc.),
 the Gaussian(R) 94 system (copyright 1995, Gaussian, Inc.),
 the Gaussian 92(TM) system (copyright 1992, Gaussian, Inc.),
 the Gaussian 90(TM) system (copyright 1990, Gaussian, Inc.),
 the Gaussian 88(TM) system (copyright 1988, Gaussian, Inc.),
 the Gaussian 86(TM) system (copyright 1986, Carnegie Mellon
 University), and the Gaussian 82(TM) system (copyright 1983,
 Carnegie Mellon University). Gaussian is a federally registered
 trademark of Gaussian, Inc.
  
 This software contains proprietary and confidential information,
 including trade secrets, belonging to Gaussian, Inc.
  
 This software is provided under written license and may be
 used, copied, transmitted, or stored only in accord with that
 written license.
  
 The following legend is applicable only to US Government
 contracts under FAR:
  
                    RESTRICTED RIGHTS LEGEND
  
 Use, reproduction and disclosure by the US Government is
 subject to restrictions as set forth in subparagraphs (a)
 and (c) of the Commercial Computer Software - Restricted
 Rights clause in FAR 52.227-19.
  
 Gaussian, Inc.
 340 Quinnipiac St., Bldg. 40, Wallingford CT 06492
  
  
 ---------------------------------------------------------------
 Warning -- This program may not be used in any manner that
 competes with the business of Gaussian, Inc. or will provide
 assistance to any competitor of Gaussian, Inc.  The licensee
 of this program is prohibited from giving any competitor of
 Gaussian, Inc. access to this program.  By using this program,
 the user acknowledges that Gaussian, Inc. is engaged in the
 business of creating and licensing software in the field of
 computational chemistry and represents and warrants to the
 licensee that it is not a competitor of Gaussian, Inc. and that
 it will not use this program in any manner prohibited above.
 ---------------------------------------------------------------
  

 Cite this work as:
 Gaussian 16, Revision B.01,
 M. J. Frisch, G. W. Trucks, H. B. Schlegel, G. E. Scuseria, 
 M. A. Robb, J. R. Cheeseman, G. Scalmani, V. Barone, 
 G. A. Petersson, H. Nakatsuji, X. Li, M. Caricato, A. V. Marenich, 
 J. Bloino, B. G. Janesko, R. Gomperts, B. Mennucci, H. P. Hratchian, 
 J. V. Ortiz, A. F. Izmaylov, J. L. Sonnenberg, D. Williams-Young, 
 F. Ding, F. Lipparini, F. Egidi, J. Goings, B. Peng, A. Petrone, 
 T. Henderson, D. Ranasinghe, V. G. Zakrzewski, J. Gao, N. Rega, 
 G. Zheng, W. Liang, M. Hada, M. Ehara, K. Toyota, R. Fukuda, 
 J. Hasegawa, M. Ishida, T. Nakajima, Y. Honda, O. Kitao, H. Nakai, 
 T. Vreven, K. Throssell, J. A. Montgomery, Jr., J. E. Peralta, 
 F. Ogliaro, M. J. Bearpark, J. J. Heyd, E. N. Brothers, K. N. Kudin, 
 V. N. Staroverov, T. A. Keith, R. Kobayashi, J. Normand, 
 K. Raghavachari, A. P. Rendell, J. C. Burant, S. S. Iyengar, 
 J. Tomasi, M. Cossi, J. M. Millam, M. Klene, C. Adamo, R. Cammi, 
 J. W. Ochterski, R. L. Martin, K. Morokuma, O. Farkas, 
 J. B. Foresman, and D. J. Fox, Gaussian, Inc., Wallingford CT, 2016.
 
 ******************************************
 Gaussian 16:  ES64L-G16RevB.01 20-Dec-2017
                 6-Mar-2022 
 ******************************************
 %nproc=28
 Will use up to   28 processors via shared memory.
 %mem=120GB
 %chk=hoono_d2_2p624862.chk
 ---------------------------------------
 #p freq mp2/aug-cc-pvtz density=current
 ---------------------------------------
 1/10=4,30=1,38=1/1,3;
 2/12=2,17=6,18=5,40=1/2;
 3/5=16,6=1,7=10,11=9,25=1,30=1,71=2,140=1/1,2,3;
 4//1;
 5/5=2,38=5,98=1/2;
 8/6=3,8=1,10=1,19=11,30=-1/1;
 9/15=3,16=-3/6;
 11/6=1,8=1,15=11,17=12,24=-1,27=1,28=-2,29=300,32=6,42=3/1,2,10;
 10/6=2,21=1/2;
 8/6=4,8=1,10=1,19=11,30=-1/11,4;
 10/5=1,20=4/2;
 11/12=2,14=11,16=1,17=2,28=-2,42=3,76=2/2,10,12;
 6/7=2,8=2,9=2,10=2,22=-1/1;
 7/8=1,10=1,12=2,25=1,44=2/1,2,3,16;
 1/10=4,30=1/3;
 99//99;
 Leave Link    1 at Sun Mar  6 19:57:00 2022, MaxMem= 16106127360 cpu:               2.1 elap:               0.1
 (Enter /sw/contrib/gaussian/g16/B01/g16/l101.exe)
 -----
 title
 -----
 Symbolic Z-matrix:
 Charge =  0 Multiplicity = 1
 H
 O                    1    r1
 O                    2    r2       1    a1
 N                    3    r3       2    a2       1    d1       0
 O                    4    r4       3    a3       2    d2       0
       Variables:
  r1                    0.98538                  
  r2                    1.42674                  
  r3                    1.38111                  
  r4                    1.19479                  
  a1                  100.63551                  
  a2                  113.13777                  
  a3                  114.33392                  
  d1                    0.                       
  d2                    2.62486                  
 
 ITRead=  0  0  0  0  0
 MicOpt= -1 -1 -1 -1 -1
 NAtoms=      5 NQM=        5 NQMF=       0 NMMI=      0 NMMIF=      0
                NMic=       0 NMicF=      0.
                    Isotopes and Nuclear Properties:
 (Nuclear quadrupole moments (NQMom) in fm**2, nuclear magnetic moments (NMagM)
  in nuclear magnetons)

  Atom         1           2           3           4           5
 IAtWgt=           1          16          16          14          16
 AtmWgt=   1.0078250  15.9949146  15.9949146  14.0030740  15.9949146
 NucSpn=           1           0           0           2           0
 AtZEff=  -0.0000000  -0.0000000  -0.0000000  -0.0000000  -0.0000000
 NQMom=    0.0000000   0.0000000   0.0000000   2.0440000   0.0000000
 NMagM=    2.7928460   0.0000000   0.0000000   0.4037610   0.0000000
 AtZNuc=   1.0000000   8.0000000   8.0000000   7.0000000   8.0000000
 Leave Link  101 at Sun Mar  6 19:57:00 2022, MaxMem= 16106127360 cpu:               2.6 elap:               0.1
 (Enter /sw/contrib/gaussian/g16/B01/g16/l103.exe)

 GradGradGradGradGradGradGradGradGradGradGradGradGradGradGradGradGradGrad
 Berny optimization.
 Initialization pass.
                       ----------------------------
                       !    Initial Parameters    !
                       ! (Angstroms and Degrees)  !
 ----------------------                            ----------------------
 !      Name          Value   Derivative information (Atomic Units)     !
 ------------------------------------------------------------------------
 !       r1          0.9854   calculate D2E/DX2 analytically            !
 !       r2          1.4267   calculate D2E/DX2 analytically            !
 !       r3          1.3811   calculate D2E/DX2 analytically            !
 !       r4          1.1948   calculate D2E/DX2 analytically            !
 !       a1        100.6355   calculate D2E/DX2 analytically            !
 !       a2        113.1378   calculate D2E/DX2 analytically            !
 !       a3        114.3339   calculate D2E/DX2 analytically            !
 !       d1          0.0      calculate D2E/DX2 analytically            !
 !       d2          2.6249   calculate D2E/DX2 analytically            !
 ------------------------------------------------------------------------
 Trust Radius=3.00D-01 FncErr=1.00D-07 GrdErr=1.00D-07 EigMax=2.50D+02 EigMin=1.00D-04
 Number of steps in this run=      2 maximum allowed number of steps=      2.
 GradGradGradGradGradGradGradGradGradGradGradGradGradGradGradGradGradGrad

 Leave Link  103 at Sun Mar  6 19:57:00 2022, MaxMem= 16106127360 cpu:               0.5 elap:               0.0
 (Enter /sw/contrib/gaussian/g16/B01/g16/l202.exe)
                          Input orientation:                          
 ---------------------------------------------------------------------
 Center     Atomic      Atomic             Coordinates (Angstroms)
 Number     Number       Type             X           Y           Z
 ---------------------------------------------------------------------
      1          1           0        0.000000    0.000000    0.000000
      2          8           0        0.000000    0.000000    0.985377
      3          8           0        1.402227    0.000000    1.248696
      4          7           0        2.169996    0.000000    0.100659
      5          8           0        1.539701    0.049856   -0.913127
 ---------------------------------------------------------------------
                    Distance matrix (angstroms):
                    1          2          3          4          5
     1  H    0.000000
     2  O    0.985377   0.000000
     3  O    1.877627   1.426737   0.000000
     4  N    2.172329   2.343418   1.381108   0.000000
     5  O    1.790800   2.444889   2.166763   1.194788   0.000000
 Stoichiometry    HNO3
 Framework group  C1[X(HNO3)]
 Deg. of freedom     9
 Full point group                 C1      NOp   1
 Largest Abelian subgroup         C1      NOp   1
 Largest concise Abelian subgroup C1      NOp   1
                         Standard orientation:                         
 ---------------------------------------------------------------------
 Center     Atomic      Atomic             Coordinates (Angstroms)
 Number     Number       Type             X           Y           Z
 ---------------------------------------------------------------------
      1          1           0       -0.540299   -1.138484    0.026055
      2          8           0       -1.277008   -0.484510    0.002710
      3          8           0       -0.542887    0.738802   -0.009611
      4          7           0        0.825183    0.550993    0.014258
      5          8           0        1.165396   -0.594101   -0.008832
 ---------------------------------------------------------------------
 Rotational constants (GHZ):          21.3560064           8.1039522           5.8755511
 Leave Link  202 at Sun Mar  6 19:57:00 2022, MaxMem= 16106127360 cpu:               0.3 elap:               0.0
 (Enter /sw/contrib/gaussian/g16/B01/g16/l301.exe)
 Standard basis: Aug-CC-pVTZ (5D, 7F)
 Ernie: Thresh=  0.10000D-02 Tol=  0.10000D-05 Strict=F.
 Ernie:  12 primitive shells out of 131 were deleted.
 There are   245 symmetry adapted cartesian basis functions of A   symmetry.
 There are   207 symmetry adapted basis functions of A   symmetry.
   207 basis functions,   315 primitive gaussians,   245 cartesian basis functions
    16 alpha electrons       16 beta electrons
       nuclear repulsion energy       122.7452825213 Hartrees.
 IExCor=    0 DFT=F Ex=HF Corr=None ExCW=0 ScaHFX=  1.000000
 ScaDFX=  1.000000  1.000000  1.000000  1.000000 ScalE2=  1.000000  1.000000
 IRadAn=      5 IRanWt=     -1 IRanGd=            0 ICorTp=0 IEmpDi=  4
 NAtoms=    5 NActive=    5 NUniq=    5 SFac= 1.00D+00 NAtFMM=   60 NAOKFM=F Big=F
 Integral buffers will be    131072 words long.
 Raffenetti 1 integral format.
 Two-electron integral symmetry is turned on.
 Leave Link  301 at Sun Mar  6 19:57:01 2022, MaxMem= 16106127360 cpu:               1.6 elap:               0.1
 (Enter /sw/contrib/gaussian/g16/B01/g16/l302.exe)
 NPDir=0 NMtPBC=     1 NCelOv=     1 NCel=       1 NClECP=     1 NCelD=      1
         NCelK=      1 NCelE2=     1 NClLst=     1 CellRange=     0.0.
 One-electron integrals computed using PRISM.
 One-electron integral symmetry used in STVInt
 NBasis=   207 RedAO= T EigKep=  1.31D-04  NBF=   207
 NBsUse=   207 1.00D-06 EigRej= -1.00D+00 NBFU=   207
 Leave Link  302 at Sun Mar  6 19:57:01 2022, MaxMem= 16106127360 cpu:               4.7 elap:               0.2
 (Enter /sw/contrib/gaussian/g16/B01/g16/l303.exe)
 DipDrv:  MaxL=1.
 Leave Link  303 at Sun Mar  6 19:57:01 2022, MaxMem= 16106127360 cpu:               0.9 elap:               0.1
 (Enter /sw/contrib/gaussian/g16/B01/g16/l401.exe)
 ExpMin= 2.53D-02 ExpMax= 1.53D+04 ExpMxC= 5.22D+02 IAcc=3 IRadAn=         5 AccDes= 0.00D+00
 Harris functional with IExCor=  205 and IRadAn=       5 diagonalized for initial guess.
 HarFok:  IExCor=  205 AccDes= 0.00D+00 IRadAn=         5 IDoV= 1 UseB2=F ITyADJ=14
 ICtDFT=  3500011 ScaDFX=  1.000000  1.000000  1.000000  1.000000
 FoFCou: FMM=F IPFlag=           0 FMFlag=      100000 FMFlg1=           0
         NFxFlg=           0 DoJE=T BraDBF=F KetDBF=T FulRan=T
         wScrn=  0.000000 ICntrl=       500 IOpCl=  0 I1Cent=   200000004 NGrid=           0
         NMat0=    1 NMatS0=      1 NMatT0=    0 NMatD0=    1 NMtDS0=    0 NMtDT0=    0
 Petite list used in FoFCou.
 Harris En= -279.644875446962    
 JPrj=0 DoOrth=F DoCkMO=F.
 Leave Link  401 at Sun Mar  6 19:57:01 2022, MaxMem= 16106127360 cpu:               7.3 elap:               0.3
 (Enter /sw/contrib/gaussian/g16/B01/g16/l502.exe)
 Keep R1 ints in memory in canonical form, NReq=245623665.
 FoFCou: FMM=F IPFlag=           0 FMFlag=           0 FMFlg1=           0
         NFxFlg=           0 DoJE=F BraDBF=F KetDBF=F FulRan=T
         wScrn=  0.000000 ICntrl=       600 IOpCl=  0 I1Cent=           0 NGrid=           0
         NMat0=    1 NMatS0=  21528 NMatT0=    0 NMatD0=    1 NMtDS0=    0 NMtDT0=    0
 Symmetry not used in FoFCou.
 Two-electron integral symmetry not used.
 Closed shell SCF:
 Using DIIS extrapolation, IDIIS=  1040.
 NGot= 16106127360 LenX= 15874260251 LenY= 15874199785
 Requested convergence on RMS density matrix=1.00D-08 within 128 cycles.
 Requested convergence on MAX density matrix=1.00D-06.
 Requested convergence on             energy=1.00D-06.
 No special actions if energy rises.

 Cycle   1  Pass 1  IDiag  1:
 E= -279.364116692940    
 DIIS: error= 2.69D-02 at cycle   1 NSaved=   1.
 NSaved= 1 IEnMin= 1 EnMin= -279.364116692940     IErMin= 1 ErrMin= 2.69D-02
 ErrMax= 2.69D-02  0.00D+00 EMaxC= 1.00D-01 BMatC= 4.51D-01 BMatP= 4.51D-01
 IDIUse=3 WtCom= 7.31D-01 WtEn= 2.69D-01
 Coeff-Com:  0.100D+01
 Coeff-En:   0.100D+01
 Coeff:      0.100D+01
 Gap=     0.520 Goal=   None    Shift=    0.000
 GapD=    0.520 DampG=2.000 DampE=0.500 DampFc=1.0000 IDamp=-1.
 RMSDP=1.68D-03 MaxDP=8.78D-02              OVMax= 1.23D-01

 Cycle   2  Pass 1  IDiag  1:
 E= -279.446173670518     Delta-E=       -0.082056977578 Rises=F Damp=F
 DIIS: error= 1.91D-02 at cycle   2 NSaved=   2.
 NSaved= 2 IEnMin= 2 EnMin= -279.446173670518     IErMin= 2 ErrMin= 1.91D-02
 ErrMax= 1.91D-02  0.00D+00 EMaxC= 1.00D-01 BMatC= 8.60D-02 BMatP= 4.51D-01
 IDIUse=3 WtCom= 8.09D-01 WtEn= 1.91D-01
 Coeff-Com:  0.219D+00 0.781D+00
 Coeff-En:   0.769D-01 0.923D+00
 Coeff:      0.192D+00 0.808D+00
 Gap=     0.587 Goal=   None    Shift=    0.000
 RMSDP=9.66D-04 MaxDP=3.67D-02 DE=-8.21D-02 OVMax= 9.12D-02

 Cycle   3  Pass 1  IDiag  1:
 E= -279.483995299411     Delta-E=       -0.037821628893 Rises=F Damp=F
 DIIS: error= 8.93D-03 at cycle   3 NSaved=   3.
 NSaved= 3 IEnMin= 3 EnMin= -279.483995299411     IErMin= 3 ErrMin= 8.93D-03
 ErrMax= 8.93D-03  0.00D+00 EMaxC= 1.00D-01 BMatC= 3.08D-02 BMatP= 8.60D-02
 IDIUse=3 WtCom= 9.11D-01 WtEn= 8.93D-02
 Coeff-Com: -0.347D-01 0.364D+00 0.671D+00
 Coeff-En:   0.000D+00 0.217D+00 0.783D+00
 Coeff:     -0.316D-01 0.351D+00 0.681D+00
 Gap=     0.541 Goal=   None    Shift=    0.000
 RMSDP=4.07D-04 MaxDP=1.57D-02 DE=-3.78D-02 OVMax= 3.82D-02

 Cycle   4  Pass 1  IDiag  1:
 E= -279.505099970834     Delta-E=       -0.021104671424 Rises=F Damp=F
 DIIS: error= 1.61D-03 at cycle   4 NSaved=   4.
 NSaved= 4 IEnMin= 4 EnMin= -279.505099970834     IErMin= 4 ErrMin= 1.61D-03
 ErrMax= 1.61D-03  0.00D+00 EMaxC= 1.00D-01 BMatC= 5.63D-04 BMatP= 3.08D-02
 IDIUse=3 WtCom= 9.84D-01 WtEn= 1.61D-02
 Coeff-Com: -0.119D-01 0.484D-01 0.149D+00 0.814D+00
 Coeff-En:   0.000D+00 0.000D+00 0.000D+00 0.100D+01
 Coeff:     -0.117D-01 0.476D-01 0.147D+00 0.817D+00
 Gap=     0.528 Goal=   None    Shift=    0.000
 RMSDP=9.85D-05 MaxDP=2.40D-03 DE=-2.11D-02 OVMax= 1.16D-02

 Cycle   5  Pass 1  IDiag  1:
 E= -279.505889120240     Delta-E=       -0.000789149405 Rises=F Damp=F
 DIIS: error= 1.09D-03 at cycle   5 NSaved=   5.
 NSaved= 5 IEnMin= 5 EnMin= -279.505889120240     IErMin= 5 ErrMin= 1.09D-03
 ErrMax= 1.09D-03  0.00D+00 EMaxC= 1.00D-01 BMatC= 1.02D-04 BMatP= 5.63D-04
 IDIUse=3 WtCom= 9.89D-01 WtEn= 1.09D-02
 Coeff-Com:  0.538D-02-0.658D-01-0.111D+00 0.596D-01 0.111D+01
 Coeff-En:   0.000D+00 0.000D+00 0.000D+00 0.000D+00 0.100D+01
 Coeff:      0.532D-02-0.651D-01-0.110D+00 0.589D-01 0.111D+01
 Gap=     0.532 Goal=   None    Shift=    0.000
 RMSDP=7.98D-05 MaxDP=2.12D-03 DE=-7.89D-04 OVMax= 1.29D-02

 Cycle   6  Pass 1  IDiag  1:
 E= -279.506251186427     Delta-E=       -0.000362066187 Rises=F Damp=F
 DIIS: error= 3.29D-04 at cycle   6 NSaved=   6.
 NSaved= 6 IEnMin= 6 EnMin= -279.506251186427     IErMin= 6 ErrMin= 3.29D-04
 ErrMax= 3.29D-04  0.00D+00 EMaxC= 1.00D-01 BMatC= 2.40D-05 BMatP= 1.02D-04
 IDIUse=3 WtCom= 9.97D-01 WtEn= 3.29D-03
 Coeff-Com:  0.188D-02-0.743D-02-0.169D-01-0.184D+00 0.137D-01 0.119D+01
 Coeff-En:   0.000D+00 0.000D+00 0.000D+00 0.000D+00 0.000D+00 0.100D+01
 Coeff:      0.188D-02-0.741D-02-0.168D-01-0.183D+00 0.136D-01 0.119D+01
 Gap=     0.532 Goal=   None    Shift=    0.000
 RMSDP=4.66D-05 MaxDP=1.07D-03 DE=-3.62D-04 OVMax= 6.10D-03

 Cycle   7  Pass 1  IDiag  1:
 E= -279.506336929532     Delta-E=       -0.000085743105 Rises=F Damp=F
 DIIS: error= 1.07D-04 at cycle   7 NSaved=   7.
 NSaved= 7 IEnMin= 7 EnMin= -279.506336929532     IErMin= 7 ErrMin= 1.07D-04
 ErrMax= 1.07D-04  0.00D+00 EMaxC= 1.00D-01 BMatC= 3.57D-06 BMatP= 2.40D-05
 IDIUse=3 WtCom= 9.99D-01 WtEn= 1.07D-03
 Coeff-Com: -0.109D-02 0.114D-01 0.249D-01 0.164D-01-0.181D+00-0.149D+00
 Coeff-Com:  0.128D+01
 Coeff-En:   0.000D+00 0.000D+00 0.000D+00 0.000D+00 0.000D+00 0.000D+00
 Coeff-En:   0.100D+01
 Coeff:     -0.109D-02 0.114D-01 0.249D-01 0.164D-01-0.181D+00-0.149D+00
 Coeff:      0.128D+01
 Gap=     0.532 Goal=   None    Shift=    0.000
 RMSDP=1.75D-05 MaxDP=5.10D-04 DE=-8.57D-05 OVMax= 2.33D-03

 Cycle   8  Pass 1  IDiag  1:
 E= -279.506348908597     Delta-E=       -0.000011979065 Rises=F Damp=F
 DIIS: error= 4.58D-05 at cycle   8 NSaved=   8.
 NSaved= 8 IEnMin= 8 EnMin= -279.506348908597     IErMin= 8 ErrMin= 4.58D-05
 ErrMax= 4.58D-05  0.00D+00 EMaxC= 1.00D-01 BMatC= 6.01D-07 BMatP= 3.57D-06
 IDIUse=1 WtCom= 1.00D+00 WtEn= 0.00D+00
 Coeff-Com: -0.560D-03 0.414D-02 0.960D-02 0.251D-01-0.572D-01-0.193D+00
 Coeff-Com:  0.354D+00 0.858D+00
 Coeff:     -0.560D-03 0.414D-02 0.960D-02 0.251D-01-0.572D-01-0.193D+00
 Coeff:      0.354D+00 0.858D+00
 Gap=     0.532 Goal=   None    Shift=    0.000
 RMSDP=5.45D-06 MaxDP=1.49D-04 DE=-1.20D-05 OVMax= 6.51D-04

 Cycle   9  Pass 1  IDiag  1:
 E= -279.506350290927     Delta-E=       -0.000001382330 Rises=F Damp=F
 DIIS: error= 2.10D-05 at cycle   9 NSaved=   9.
 NSaved= 9 IEnMin= 9 EnMin= -279.506350290927     IErMin= 9 ErrMin= 2.10D-05
 ErrMax= 2.10D-05  0.00D+00 EMaxC= 1.00D-01 BMatC= 1.16D-07 BMatP= 6.01D-07
 IDIUse=1 WtCom= 1.00D+00 WtEn= 0.00D+00
 Coeff-Com:  0.241D-03-0.257D-02-0.530D-02-0.565D-02 0.469D-01 0.490D-01
 Coeff-Com: -0.339D+00 0.301D-01 0.123D+01
 Coeff:      0.241D-03-0.257D-02-0.530D-02-0.565D-02 0.469D-01 0.490D-01
 Coeff:     -0.339D+00 0.301D-01 0.123D+01
 Gap=     0.532 Goal=   None    Shift=    0.000
 RMSDP=2.47D-06 MaxDP=7.42D-05 DE=-1.38D-06 OVMax= 2.21D-04

 Cycle  10  Pass 1  IDiag  1:
 E= -279.506350555737     Delta-E=       -0.000000264810 Rises=F Damp=F
 DIIS: error= 5.55D-06 at cycle  10 NSaved=  10.
 NSaved=10 IEnMin=10 EnMin= -279.506350555737     IErMin=10 ErrMin= 5.55D-06
 ErrMax= 5.55D-06  0.00D+00 EMaxC= 1.00D-01 BMatC= 8.30D-09 BMatP= 1.16D-07
 IDIUse=1 WtCom= 1.00D+00 WtEn= 0.00D+00
 Coeff-Com: -0.379D-04 0.486D-03 0.120D-02-0.187D-02-0.109D-01 0.540D-02
 Coeff-Com:  0.723D-01-0.536D-01-0.435D+00 0.142D+01
 Coeff:     -0.379D-04 0.486D-03 0.120D-02-0.187D-02-0.109D-01 0.540D-02
 Coeff:      0.723D-01-0.536D-01-0.435D+00 0.142D+01
 Gap=     0.532 Goal=   None    Shift=    0.000
 RMSDP=7.11D-07 MaxDP=2.54D-05 DE=-2.65D-07 OVMax= 6.55D-05

 Cycle  11  Pass 1  IDiag  1:
 E= -279.506350580982     Delta-E=       -0.000000025245 Rises=F Damp=F
 DIIS: error= 2.20D-06 at cycle  11 NSaved=  11.
 NSaved=11 IEnMin=11 EnMin= -279.506350580982     IErMin=11 ErrMin= 2.20D-06
 ErrMax= 2.20D-06  0.00D+00 EMaxC= 1.00D-01 BMatC= 8.54D-10 BMatP= 8.30D-09
 IDIUse=1 WtCom= 1.00D+00 WtEn= 0.00D+00
 Coeff-Com: -0.164D-04 0.167D-03 0.340D-03 0.909D-03-0.218D-02-0.725D-02
 Coeff-Com:  0.190D-01 0.195D-01-0.491D-01-0.327D+00 0.135D+01
 Coeff:     -0.164D-04 0.167D-03 0.340D-03 0.909D-03-0.218D-02-0.725D-02
 Coeff:      0.190D-01 0.195D-01-0.491D-01-0.327D+00 0.135D+01
 Gap=     0.532 Goal=   None    Shift=    0.000
 RMSDP=2.50D-07 MaxDP=8.91D-06 DE=-2.52D-08 OVMax= 2.44D-05

 Cycle  12  Pass 1  IDiag  1:
 E= -279.506350584110     Delta-E=       -0.000000003128 Rises=F Damp=F
 DIIS: error= 7.17D-07 at cycle  12 NSaved=  12.
 NSaved=12 IEnMin=12 EnMin= -279.506350584110     IErMin=12 ErrMin= 7.17D-07
 ErrMax= 7.17D-07  0.00D+00 EMaxC= 1.00D-01 BMatC= 9.29D-11 BMatP= 8.54D-10
 IDIUse=1 WtCom= 1.00D+00 WtEn= 0.00D+00
 Coeff-Com:  0.271D-05-0.464D-04-0.102D-03 0.138D-03 0.116D-02-0.757D-03
 Coeff-Com: -0.750D-02 0.648D-02 0.422D-01-0.116D+00-0.185D+00 0.126D+01
 Coeff:      0.271D-05-0.464D-04-0.102D-03 0.138D-03 0.116D-02-0.757D-03
 Coeff:     -0.750D-02 0.648D-02 0.422D-01-0.116D+00-0.185D+00 0.126D+01
 Gap=     0.532 Goal=   None    Shift=    0.000
 RMSDP=9.04D-08 MaxDP=2.71D-06 DE=-3.13D-09 OVMax= 8.57D-06

 Cycle  13  Pass 1  IDiag  1:
 E= -279.506350584457     Delta-E=       -0.000000000347 Rises=F Damp=F
 DIIS: error= 1.65D-07 at cycle  13 NSaved=  13.
 NSaved=13 IEnMin=13 EnMin= -279.506350584457     IErMin=13 ErrMin= 1.65D-07
 ErrMax= 1.65D-07  0.00D+00 EMaxC= 1.00D-01 BMatC= 9.19D-12 BMatP= 9.29D-11
 IDIUse=1 WtCom= 1.00D+00 WtEn= 0.00D+00
 Coeff-Com:  0.136D-05-0.128D-04-0.175D-04-0.130D-03 0.408D-04 0.994D-03
 Coeff-Com: -0.105D-02-0.280D-02-0.242D-02 0.590D-01-0.133D+00-0.170D+00
 Coeff-Com:  0.125D+01
 Coeff:      0.136D-05-0.128D-04-0.175D-04-0.130D-03 0.408D-04 0.994D-03
 Coeff:     -0.105D-02-0.280D-02-0.242D-02 0.590D-01-0.133D+00-0.170D+00
 Coeff:      0.125D+01
 Gap=     0.532 Goal=   None    Shift=    0.000
 RMSDP=2.78D-08 MaxDP=5.19D-07 DE=-3.47D-10 OVMax= 3.33D-06

 Cycle  14  Pass 1  IDiag  1:
 E= -279.506350584491     Delta-E=       -0.000000000034 Rises=F Damp=F
 DIIS: error= 6.26D-08 at cycle  14 NSaved=  14.
 NSaved=14 IEnMin=14 EnMin= -279.506350584491     IErMin=14 ErrMin= 6.26D-08
 ErrMax= 6.26D-08  0.00D+00 EMaxC= 1.00D-01 BMatC= 1.25D-12 BMatP= 9.19D-12
 IDIUse=1 WtCom= 1.00D+00 WtEn= 0.00D+00
 Coeff-Com: -0.462D-06 0.644D-05 0.122D-04 0.456D-05-0.141D-03-0.316D-06
 Coeff-Com:  0.883D-03-0.248D-03-0.419D-02 0.561D-02 0.307D-01-0.971D-01
 Coeff-Com: -0.125D+00 0.119D+01
 Coeff:     -0.462D-06 0.644D-05 0.122D-04 0.456D-05-0.141D-03-0.316D-06
 Coeff:      0.883D-03-0.248D-03-0.419D-02 0.561D-02 0.307D-01-0.971D-01
 Coeff:     -0.125D+00 0.119D+01
 Gap=     0.532 Goal=   None    Shift=    0.000
 RMSDP=9.81D-09 MaxDP=2.22D-07 DE=-3.40D-11 OVMax= 1.68D-06

 SCF Done:  E(RHF) =  -279.506350584     A.U. after   14 cycles
            NFock= 14  Conv=0.98D-08     -V/T= 2.0022
 KE= 2.788852930439D+02 PE=-9.063584731642D+02 EE= 2.252215470145D+02
 Leave Link  502 at Sun Mar  6 19:57:08 2022, MaxMem= 16106127360 cpu:              40.7 elap:               6.7
 (Enter /sw/contrib/gaussian/g16/B01/g16/l801.exe)
 ExpMin= 2.53D-02 ExpMax= 1.53D+04 ExpMxC= 5.22D+02 IAcc=3 IRadAn=         5 AccDes= 0.00D+00
 HarFok:  IExCor=  205 AccDes= 0.00D+00 IRadAn=         5 IDoV=-2 UseB2=F ITyADJ=14
 ICtDFT= 12500011 ScaDFX=  1.000000  1.000000  1.000000  1.000000
 Largest valence mixing into a core orbital is  2.07D-04
 Largest core mixing into a valence orbital is  3.10D-05
 Range of M.O.s used for correlation:     5   207
 NBasis=   207 NAE=    16 NBE=    16 NFC=     4 NFV=     0
 NROrb=    203 NOA=    12 NOB=    12 NVA=   191 NVB=   191

 **** Warning!!: The largest alpha MO coefficient is  0.16331638D+02

 Leave Link  801 at Sun Mar  6 19:57:08 2022, MaxMem= 16106127360 cpu:               2.9 elap:               0.2
 (Enter /sw/contrib/gaussian/g16/B01/g16/l906.exe)
 Frozen-core derivative calculation, NFC=   4 NFV=   0.
 FulOut=F Deriv=T AODrv=T NAtomX=     5
   MMem=           0  MDisk=          12 MDiskD=          12
  W3Min=      811440 MinDsk=     2425030 NBas6D=         245
 NBas2D=       30762    NTT=       30135    LW2=     7400000
    MDV= 16105635804 MDiskM=      328645 NBas2p=       30759
 Disk-based method using ON**2 memory for 12 occupieds at a time.
 Permanent disk used for amplitudes=    11516536 words.
 Estimated scratch disk usage=   321863743 words.
 IMap=   1   2   3   4   5   6   7   8   9  10  11  12  13  14  15  16
 Actual    scratch disk usage=   310892607 words.
 JobTyp=1 Pass  1:  I=   5 to  16 NPSUse= 28 ParTrn=T ParDer=T DoDerP=T.
 (rs|ai) integrals will be sorted in core.
 Spin components of T(2) and E(2):
     alpha-alpha T2 =       0.3479529299D-01 E2=     -0.1245439869D+00
     alpha-beta  T2 =       0.1844960191D+00 E2=     -0.6996878820D+00
     beta-beta   T2 =       0.3479529299D-01 E2=     -0.1245439869D+00
 The integrals were generated   1 times.
 ANorm=    0.1119860083D+01
 E2 =    -0.9487758559D+00 EUMP2 =    -0.28045512644042D+03
 Leave Link  906 at Sun Mar  6 19:58:46 2022, MaxMem= 16106127360 cpu:            2746.1 elap:              98.2
 (Enter /sw/contrib/gaussian/g16/B01/g16/l1101.exe)
 Using compressed Sx but separate Hx and Fx, NAtomX=     5.
 Will process      6 centers per pass.
 Leave Link 1101 at Sun Mar  6 19:58:46 2022, MaxMem= 16106127360 cpu:               5.2 elap:               0.2
 (Enter /sw/contrib/gaussian/g16/B01/g16/l1102.exe)
 Leave Link 1102 at Sun Mar  6 19:58:47 2022, MaxMem= 16106127360 cpu:               0.5 elap:               0.0
 (Enter /sw/contrib/gaussian/g16/B01/g16/l1110.exe)
 Forming Gx(P) for the SCF density, NAtomX=     5.
 Integral derivatives from FoFJK, PRISM(SPDF).
 Do as many integral derivatives as possible in FoFJK.
 G2DrvN: MDV=   16106126844.
 G2DrvN: will do     6 centers at a time, making    1 passes.
 Calling FoFCou, ICntrl=  3107 FMM=F I1Cent=   0 AccDes= 0.00D+00.
 FoFJK:  IHMeth= 1 ICntrl=    3107 DoSepK=F KAlg= 0 I1Cent=           0 FoldK=F
 IRaf=         0 NMat=       1 IRICut=       1 DoRegI=T DoRafI=F ISym2E= 0 IDoP0=0 IntGTp=1.
 FoFCou: FMM=F IPFlag=           0 FMFlag=      100000 FMFlg1=           0
         NFxFlg=           0 DoJE=F BraDBF=F KetDBF=F FulRan=T
         wScrn=  0.000000 ICntrl=      3107 IOpCl=  0 I1Cent=           0 NGrid=           0
         NMat0=    1 NMatS0=      1 NMatT0=    0 NMatD0=    1 NMtDS0=    0 NMtDT0=    0
 Symmetry not used in FoFCou.
 End of G2Drv F.D. properties file   721 does not exist.
 End of G2Drv F.D. properties file   722 does not exist.
 End of G2Drv F.D. properties file   788 does not exist.
 Leave Link 1110 at Sun Mar  6 19:58:50 2022, MaxMem= 16106127360 cpu:              87.9 elap:               3.2
 (Enter /sw/contrib/gaussian/g16/B01/g16/l1002.exe)
 Minotr:  Closed shell wavefunction.
          IDoAtm=11111
          Frozen-core window.
          Direct CPHF calculation.
          Differentiating once with respect to electric field.
                with respect to dipole field.
          Differentiating once with respect to nuclear coordinates.
          Requested convergence is 1.0D-08 RMS, and 1.0D-07 maximum.
          Secondary convergence is 1.0D-12 RMS, and 1.0D-12 maximum.
          NewPWx=T KeepS1=T KeepF1=T KeepIn=T MapXYZ=F SortEE=F KeepMc=T.
 Keep R1 ints in memory in canonical form, NReq=245624906.
 FoFCou: FMM=F IPFlag=           0 FMFlag=           0 FMFlg1=           0
         NFxFlg=           0 DoJE=F BraDBF=F KetDBF=F FulRan=T
         wScrn=  0.000000 ICntrl=       600 IOpCl=  0 I1Cent=           0 NGrid=           0
         NMat0=    1 NMatS0=  21528 NMatT0=    0 NMatD0=    1 NMtDS0=    0 NMtDT0=    0
 Symmetry not used in FoFCou.
 Two-electron integral symmetry not used.
          MDV=   16106127360 using IRadAn=       1.
          Solving linear equations simultaneously, MaxMat=       0.
          There are    18 degrees of freedom in the 1st order CPHF.  IDoFFX=6 NUNeed=    18.
     15 vectors produced by pass  0 Test12= 1.70D-14 5.56D-09 XBig12= 7.45D+00 1.31D+00.
 AX will form    15 AO Fock derivatives at one time.
     15 vectors produced by pass  1 Test12= 1.70D-14 5.56D-09 XBig12= 1.30D+00 2.35D-01.
     15 vectors produced by pass  2 Test12= 1.70D-14 5.56D-09 XBig12= 9.08D-02 8.06D-02.
     15 vectors produced by pass  3 Test12= 1.70D-14 5.56D-09 XBig12= 3.21D-03 1.20D-02.
     15 vectors produced by pass  4 Test12= 1.70D-14 5.56D-09 XBig12= 6.98D-05 1.60D-03.
     15 vectors produced by pass  5 Test12= 1.70D-14 5.56D-09 XBig12= 7.39D-07 1.06D-04.
     15 vectors produced by pass  6 Test12= 1.70D-14 5.56D-09 XBig12= 4.64D-09 1.23D-05.
     13 vectors produced by pass  7 Test12= 1.70D-14 5.56D-09 XBig12= 3.41D-11 8.67D-07.
      3 vectors produced by pass  8 Test12= 1.70D-14 5.56D-09 XBig12= 2.83D-13 6.14D-08.
      1 vectors produced by pass  9 Test12= 1.70D-14 5.56D-09 XBig12= 2.48D-15 7.90D-09.
 InvSVY:  IOpt=1 It=  1 EMax= 1.89D-15
 Solved reduced A of dimension   122 with    15 vectors.
 FullF1:  Do perturbations      1 to      18.
 Saving first derivative matrices.
 End of Minotr F.D. properties file   721 does not exist.
 End of Minotr F.D. properties file   722 does not exist.
 End of Minotr F.D. properties file   788 does not exist.
 Leave Link 1002 at Sun Mar  6 19:58:53 2022, MaxMem= 16106127360 cpu:              91.7 elap:               3.7
 (Enter /sw/contrib/gaussian/g16/B01/g16/l811.exe)
 MDV= 16106127360.
 Form MO integral derivatives with frozen-active canonical formalism.
 MOERI=1 MOERIx=1 NAtoms=     5 NAtomX=     5.
 Discarding MO integrals.
 MO basis two electron integral derivatives will not be stored on disk.
 IAlg= 3 DoFC=T DoPWx=T Debug=F.
 Frozen-core window:  NFC=   4 NFV=   0.
 Reordered first order wavefunction length =     18678272
 In DefCFB: NBatch=  1 ICI= 16 ICA=191 LFMax= 96
            Large arrays: LIAPS=   619940160 LIARS=   288257200 words.
 In StABat: MaxSiz= 55 MinSiz= 25 NAtomB=  5
 DoIAMN: NPSUse= 28.
 Leave Link  811 at Sun Mar  6 20:00:29 2022, MaxMem= 16106127360 cpu:            2674.4 elap:              95.6
 (Enter /sw/contrib/gaussian/g16/B01/g16/l804.exe)
 Frozen-core window:  NFC=   4 NFV=   0.
 Closed-shell transformation, MDV= 16106127360 ITran=4 ISComp=1.
 Semi-Direct transformation.
 ModeAB=           2 MOrb=            16 LenV=   16104922737
 LASXX=     67341636 LTotXX=    67341636 LenRXX=    67341636
 LTotAB=    68301760 MaxLAS=    99807120 LenRXY=    99807120
 NonZer=   134683272 LenScr=   202817536 LnRSAI=           0
 LnScr1=           0 LExtra=           0 Total=    369966292
 MaxDsk=          -1 SrtSym=           F ITran=            4
 DoSDTr:  NPSUse= 28
 JobTyp=0 Pass  1:  I=   1 to  16.
 (rs|ai) integrals will be sorted in core.
 Complete sort for first half transformation.
 First half transformation complete.
 Begin second half transformation for I=  10.
 Begin second half transformation for I=  10.
 Complete sort for second half transformation.
 Second half transformation complete.
 SymMOI:  orbitals are not symmetric.
 Spin components of T(2) and E(2):
     alpha-alpha T2 =       0.3479529299D-01 E2=     -0.1245439869D+00
     alpha-beta  T2 =       0.1844960191D+00 E2=     -0.6996878820D+00
     beta-beta   T2 =       0.3479529299D-01 E2=     -0.1245439869D+00
 ANorm=    0.1583721317D+01
 E2 =    -0.9487758559D+00 EUMP2 =    -0.28045512644042D+03
 Leave Link  804 at Sun Mar  6 20:00:44 2022, MaxMem= 16106127360 cpu:             417.5 elap:              15.0
 (Enter /sw/contrib/gaussian/g16/B01/g16/l1002.exe)
 Minotr:  Closed shell wavefunction.
          Computing MP2/KS-MP2 derivatives.
          Using Z-Vector for PSCF gradient.
          Skipping F1 and S1 gradient terms here.
          IDoAtm=11111
          Frozen-core window.
          Using MO integrals in the linear equations.
          Forming densities via direct SCF.
          Differentiating once with respect to electric field.
                with respect to dipole field.
          Differentiating once with respect to nuclear coordinates.
          Requested convergence is 1.0D-10 RMS, and 1.0D-09 maximum.
          NewPWx=F KeepS1=T KeepF1=T KeepIn=T MapXYZ=F SortEE=F KeepMc=T.
          MDV=   16106127360 using IRadAn=       5.
          Solving linear equations separately, MaxMat=       0.
          There are     1 degrees of freedom in the 1st order CPHF.  IDoFFX=0 NUNeed=     1.
 FoFJK:  IHMeth= 1 ICntrl=       0 DoSepK=F KAlg= 0 I1Cent=           0 FoldK=F
 IRaf=         0 NMat=       1 IRICut=       1 DoRegI=T DoRafI=F ISym2E= 0 IDoP0=0 IntGTp=1.
 FoFCou: FMM=F IPFlag=           0 FMFlag=      100000 FMFlg1=           0
         NFxFlg=           0 DoJE=F BraDBF=F KetDBF=F FulRan=T
         wScrn=  0.000000 ICntrl=         0 IOpCl=  0 I1Cent=           0 NGrid=           0
         NMat0=    1 NMatS0=      1 NMatT0=    0 NMatD0=    1 NMtDS0=    0 NMtDT0=    0
 Symmetry not used in FoFCou.
 LinEq1:  Iter=  0 NonCon=     1 RMS=6.59D-03 Max=1.69D-01 NDo=     1
 LinEq1:  Iter=  1 NonCon=     1 RMS=2.00D-03 Max=3.06D-02 NDo=     1
 LinEq1:  Iter=  2 NonCon=     1 RMS=8.88D-04 Max=1.44D-02 NDo=     1
 LinEq1:  Iter=  3 NonCon=     1 RMS=3.80D-04 Max=8.08D-03 NDo=     1
 LinEq1:  Iter=  4 NonCon=     1 RMS=1.37D-04 Max=1.65D-03 NDo=     1
 LinEq1:  Iter=  5 NonCon=     1 RMS=7.64D-05 Max=1.11D-03 NDo=     1
 LinEq1:  Iter=  6 NonCon=     1 RMS=2.44D-05 Max=3.12D-04 NDo=     1
 LinEq1:  Iter=  7 NonCon=     1 RMS=8.23D-06 Max=9.47D-05 NDo=     1
 LinEq1:  Iter=  8 NonCon=     1 RMS=4.03D-06 Max=6.38D-05 NDo=     1
 LinEq1:  Iter=  9 NonCon=     1 RMS=1.07D-06 Max=1.25D-05 NDo=     1
 LinEq1:  Iter= 10 NonCon=     1 RMS=2.55D-07 Max=5.06D-06 NDo=     1
 LinEq1:  Iter= 11 NonCon=     1 RMS=7.00D-08 Max=2.16D-06 NDo=     1
 LinEq1:  Iter= 12 NonCon=     1 RMS=2.08D-08 Max=5.29D-07 NDo=     1
 LinEq1:  Iter= 13 NonCon=     1 RMS=4.91D-09 Max=8.26D-08 NDo=     1
 LinEq1:  Iter= 14 NonCon=     1 RMS=9.55D-10 Max=9.12D-09 NDo=     1
 LinEq1:  Iter= 15 NonCon=     1 RMS=2.52D-10 Max=2.75D-09 NDo=     1
 LinEq1:  Iter= 16 NonCon=     0 RMS=5.09D-11 Max=6.75D-10 NDo=     1
 Linear equations converged to 1.000D-10 1.000D-09 after    16 iterations.
 End of Minotr F.D. properties file   721 does not exist.
 End of Minotr F.D. properties file   722 does not exist.
 End of Minotr F.D. properties file   788 does not exist.
 Leave Link 1002 at Sun Mar  6 20:00:47 2022, MaxMem= 16106127360 cpu:              65.4 elap:               2.4
 (Enter /sw/contrib/gaussian/g16/B01/g16/l1102.exe)
 Use density number 2.
 Symmetrizing basis deriv contribution to polar:
 IMax=3 JMax=2 DiffMx= 0.00D+00
 Leave Link 1102 at Sun Mar  6 20:00:47 2022, MaxMem= 16106127360 cpu:               0.6 elap:               0.0
 (Enter /sw/contrib/gaussian/g16/B01/g16/l1110.exe)
 Forming Gx(P) for generalized density number  2 NAtomX=     5.
 Integral derivatives from FoFJK, PRISM(SPDF).
 Do as many integral derivatives as possible in FoFJK.
 G2DrvN: MDV=   16106126844.
 G2DrvN: will do     6 centers at a time, making    1 passes.
 Calling FoFCou, ICntrl=  3107 FMM=F I1Cent=   0 AccDes= 0.00D+00.
 FoFJK:  IHMeth= 1 ICntrl=    3107 DoSepK=F KAlg= 0 I1Cent=           0 FoldK=F
 IRaf=         0 NMat=       1 IRICut=       1 DoRegI=T DoRafI=F ISym2E= 0 IDoP0=0 IntGTp=1.
 FoFCou: FMM=F IPFlag=           0 FMFlag=      100000 FMFlg1=           0
         NFxFlg=           0 DoJE=F BraDBF=F KetDBF=F FulRan=T
         wScrn=  0.000000 ICntrl=      3107 IOpCl=  0 I1Cent=           0 NGrid=           0
         NMat0=    1 NMatS0=      1 NMatT0=    0 NMatD0=    1 NMtDS0=    0 NMtDT0=    0
 Symmetry not used in FoFCou.
 End of G2Drv F.D. properties file   721 does not exist.
 End of G2Drv F.D. properties file   722 does not exist.
 End of G2Drv F.D. properties file   788 does not exist.
 Leave Link 1110 at Sun Mar  6 20:00:50 2022, MaxMem= 16106127360 cpu:              87.7 elap:               3.2
 (Enter /sw/contrib/gaussian/g16/B01/g16/l1112.exe)
 MP22nd: MDV=   16106127360
 This link is doing NAtomX=     5 total of    18 degrees of freedom.
 Using ON3 I/O method in MakUI.
 Frozen-core window:  NFC=   4 NFV=   0.
 Using Ix for Sx.
 Use MO integrals over full window.
 Using OV2 memory method for fx*t*t/D, MaxI=    16 DoOO2=F NP=  28.
 R2 and R3 integrals will be kept in memory, NReq=   915591705.
 FoFCou: FMM=F IPFlag=           0 FMFlag=           0 FMFlg1=           0
         NFxFlg=           0 DoJE=F BraDBF=F KetDBF=F FulRan=T
         wScrn=  0.000000 ICntrl=       600 IOpCl=  0 I1Cent=           0 NGrid=           0
         NMat0=    1 NMatS0=      1 NMatT0=    0 NMatD0=    1 NMtDS0=    0 NMtDT0=    0
 Symmetry not used in FoFCou.
 DD1Dir will call FoFMem   1 times, MxPair=       272
 NAB=   136 NAA=     0 NBB=     0.
 Symmetry is being used.
 FoFJK:  IHMeth= 1 ICntrl=       0 DoSepK=F KAlg= 0 I1Cent=           0 FoldK=F
 IRaf=         0 NMat=      18 IRICut=      45 DoRegI=T DoRafI=T ISym2E= 2 IDoP0=3 IntGTp=3.
 Discarding MO integrals.
 Leave Link 1112 at Sun Mar  6 20:01:16 2022, MaxMem= 16106127360 cpu:             726.6 elap:              26.0
 (Enter /sw/contrib/gaussian/g16/B01/g16/l601.exe)
 Copying SCF densities to generalized density rwf, IOpCl= 0 IROHF=0.

 **********************************************************************

            Population analysis using the MP2 Density.

 **********************************************************************

 Orbital symmetries:
       Occupied  (A) (A) (A) (A) (A) (A) (A) (A) (A) (A) (A) (A)
                 (A) (A) (A) (A)
       Virtual   (A) (A) (A) (A) (A) (A) (A) (A) (A) (A) (A) (A)
                 (A) (A) (A) (A) (A) (A) (A) (A) (A) (A) (A) (A)
                 (A) (A) (A) (A) (A) (A) (A) (A) (A) (A) (A) (A)
                 (A) (A) (A) (A) (A) (A) (A) (A) (A) (A) (A) (A)
                 (A) (A) (A) (A) (A) (A) (A) (A) (A) (A) (A) (A)
                 (A) (A) (A) (A) (A) (A) (A) (A) (A) (A) (A) (A)
                 (A) (A) (A) (A) (A) (A) (A) (A) (A) (A) (A) (A)
                 (A) (A) (A) (A) (A) (A) (A) (A) (A) (A) (A) (A)
                 (A) (A) (A) (A) (A) (A) (A) (A) (A) (A) (A) (A)
                 (A) (A) (A) (A) (A) (A) (A) (A) (A) (A) (A) (A)
                 (A) (A) (A) (A) (A) (A) (A) (A) (A) (A) (A) (A)
                 (A) (A) (A) (A) (A) (A) (A) (A) (A) (A) (A) (A)
                 (A) (A) (A) (A) (A) (A) (A) (A) (A) (A) (A) (A)
                 (A) (A) (A) (A) (A) (A) (A) (A) (A) (A) (A) (A)
                 (A) (A) (A) (A) (A) (A) (A) (A) (A) (A) (A) (A)
                 (A) (A) (A) (A) (A) (A) (A) (A) (A) (A) (A)
 The electronic state is 1-A.
 Alpha  occ. eigenvalues --  -20.71974 -20.68726 -20.66832 -15.82600  -1.64426
 Alpha  occ. eigenvalues --   -1.50516  -1.29375  -0.96036  -0.83461  -0.75893
 Alpha  occ. eigenvalues --   -0.73993  -0.63745  -0.61907  -0.61806  -0.50478
 Alpha  occ. eigenvalues --   -0.49737
 Alpha virt. eigenvalues --    0.03506   0.06018   0.09512   0.10038   0.11933
 Alpha virt. eigenvalues --    0.12290   0.14940   0.15204   0.17741   0.18047
 Alpha virt. eigenvalues --    0.18969   0.21110   0.21676   0.24253   0.24633
 Alpha virt. eigenvalues --    0.26894   0.31193   0.31746   0.33806   0.34386
 Alpha virt. eigenvalues --    0.34681   0.39261   0.44860   0.48806   0.50548
 Alpha virt. eigenvalues --    0.51861   0.54488   0.56124   0.59903   0.62030
 Alpha virt. eigenvalues --    0.63843   0.68974   0.71691   0.72453   0.74315
 Alpha virt. eigenvalues --    0.76374   0.76728   0.79517   0.80626   0.84047
 Alpha virt. eigenvalues --    0.84319   0.85194   0.88552   0.90778   0.93021
 Alpha virt. eigenvalues --    0.94842   0.95418   1.01800   1.03270   1.06175
 Alpha virt. eigenvalues --    1.06568   1.09585   1.14384   1.15632   1.17003
 Alpha virt. eigenvalues --    1.22207   1.22703   1.24611   1.35233   1.36201
 Alpha virt. eigenvalues --    1.37131   1.46850   1.48577   1.50474   1.54161
 Alpha virt. eigenvalues --    1.59347   1.59785   1.60875   1.62872   1.69553
 Alpha virt. eigenvalues --    1.74050   1.80121   1.82992   1.88736   1.89694
 Alpha virt. eigenvalues --    1.92951   1.97911   1.98949   2.05222   2.12378
 Alpha virt. eigenvalues --    2.13062   2.16538   2.18805   2.24126   2.26215
 Alpha virt. eigenvalues --    2.29449   2.35212   2.36608   2.38651   2.40222
 Alpha virt. eigenvalues --    2.43368   2.46843   2.48000   2.52885   2.53890
 Alpha virt. eigenvalues --    2.54888   2.55946   2.61614   2.63021   2.67118
 Alpha virt. eigenvalues --    2.67453   2.75400   2.80886   2.81872   2.84148
 Alpha virt. eigenvalues --    2.91867   2.98526   3.04678   3.05104   3.11549
 Alpha virt. eigenvalues --    3.11821   3.17335   3.21318   3.30781   3.33234
 Alpha virt. eigenvalues --    3.36109   3.47780   3.67801   3.86974   3.93041
 Alpha virt. eigenvalues --    4.18327   4.22031   4.22821   4.26889   4.36979
 Alpha virt. eigenvalues --    4.50023   4.52803   4.55619   4.59914   4.69373
 Alpha virt. eigenvalues --    4.80979   4.89669   4.91680   4.94133   4.99821
 Alpha virt. eigenvalues --    5.00604   5.10809   5.13307   5.17955   5.24996
 Alpha virt. eigenvalues --    5.25899   5.31788   5.34706   5.35618   5.54701
 Alpha virt. eigenvalues --    5.64495   5.70629   5.88950   5.99742   6.26457
 Alpha virt. eigenvalues --    6.29597   6.36107   6.37672   6.59826   6.65930
 Alpha virt. eigenvalues --    6.65979   6.69002   6.72605   6.79576   6.80653
 Alpha virt. eigenvalues --    6.85085   6.96792   7.02074   7.06638   7.08040
 Alpha virt. eigenvalues --    7.13873   7.17291   7.17768   7.20346   7.24463
 Alpha virt. eigenvalues --    7.24887   7.27158   7.34962   7.39431   7.42818
 Alpha virt. eigenvalues --    7.44284   7.46293   7.55969   7.66349   7.66756
 Alpha virt. eigenvalues --    7.79447   7.88303   7.95284   8.06429   8.30664
 Alpha virt. eigenvalues --    8.49992   8.65223  13.61900  14.76290  15.10455
 Alpha virt. eigenvalues --   15.76338
          Condensed to atoms (all electrons):
               1          2          3          4          5
     1  H    0.578585   0.124255   0.024220  -0.000296  -0.004826
     2  O    0.124255   8.390203  -0.230732  -0.000636  -0.008963
     3  O    0.024220  -0.230732   8.371994  -0.169093  -0.034037
     4  N   -0.000296  -0.000636  -0.169093   7.135247  -0.119460
     5  O   -0.004826  -0.008963  -0.034037  -0.119460   8.363108
 Mulliken charges:
               1
     1  H    0.278062
     2  O   -0.274127
     3  O    0.037648
     4  N    0.154239
     5  O   -0.195823
 Sum of Mulliken charges =  -0.00000
 Mulliken charges with hydrogens summed into heavy atoms:
               1
     2  O    0.003936
     3  O    0.037648
     4  N    0.154239
     5  O   -0.195823
 APT charges:
               1
     1  H    0.271458
     2  O   -0.302500
     3  O   -0.309263
     4  N    0.643214
     5  O   -0.302908
 Sum of APT charges =  -0.00000
 APT charges with hydrogens summed into heavy atoms:
               1
     2  O   -0.031042
     3  O   -0.309263
     4  N    0.643214
     5  O   -0.302908
 Electronic spatial extent (au):  <R**2>=            207.2309
 Charge=             -0.0000 electrons
 Dipole moment (field-independent basis, Debye):
    X=              0.6061    Y=             -0.9129    Z=              0.0373  Tot=              1.0965
 Quadrupole moment (field-independent basis, Debye-Ang):
   XX=            -25.1098   YY=            -21.2122   ZZ=            -21.9319
   XY=              0.3829   XZ=             -0.0244   YZ=             -0.0962
 Traceless Quadrupole moment (field-independent basis, Debye-Ang):
   XX=             -2.3585   YY=              1.5390   ZZ=              0.8194
   XY=              0.3829   XZ=             -0.0244   YZ=             -0.0962
 Octapole moment (field-independent basis, Debye-Ang**2):
  XXX=             -0.1517  YYY=             -5.4955  ZZZ=             -0.0366  XYY=             -2.3113
  XXY=              0.5373  XXZ=             -0.0749  XZZ=              0.8897  YZZ=             -0.2236
  YYZ=              0.0492  XYZ=              0.0280
 Hexadecapole moment (field-independent basis, Debye-Ang**3):
 XXXX=           -153.9820 YYYY=            -65.2330 ZZZZ=            -18.0566 XXXY=             -2.8058
 XXXZ=             -0.0397 YYYX=             -0.2071 YYYZ=             -0.2060 ZZZX=             -0.0307
 ZZZY=             -0.0335 XXYY=            -36.9616 XXZZ=            -27.9829 YYZZ=            -14.9464
 XXYZ=             -0.0776 YYXZ=             -0.1120 ZZXY=             -0.9806
 N-N= 1.227452825213D+02 E-N=-9.070467271868D+02  KE= 2.802026825124D+02
  Exact polarizability:  34.497  -0.729  26.273   0.032  -0.007  17.623
 Approx polarizability:  26.140  -1.635  26.073   0.016   0.006  15.519
 No NMR shielding tensors so no spin-rotation constants.
 Leave Link  601 at Sun Mar  6 20:01:16 2022, MaxMem= 16106127360 cpu:               6.9 elap:               0.3
 (Enter /sw/contrib/gaussian/g16/B01/g16/l701.exe)
 ... and contract with generalized density number  2.
 Compute integral second derivatives.
 Leave Link  701 at Sun Mar  6 20:01:16 2022, MaxMem= 16106127360 cpu:               6.1 elap:               0.2
 (Enter /sw/contrib/gaussian/g16/B01/g16/l702.exe)
 L702 exits ... SP integral derivatives will be done elsewhere.
 Leave Link  702 at Sun Mar  6 20:01:16 2022, MaxMem= 16106127360 cpu:               1.3 elap:               0.1
 (Enter /sw/contrib/gaussian/g16/B01/g16/l703.exe)
 Integral derivatives from FoFJK, PRISM(SPDF).
 Compute integral second derivatives, UseDBF=F ICtDFT=           0.
 Calling FoFJK, ICntrl=  10100127 FMM=F ISym2X=0 I1Cent= 0 IOpClX= 0 NMat=1 NMatS=1 NMatT=0.
 FoFJK:  IHMeth= 1 ICntrl=10100127 DoSepK=F KAlg= 0 I1Cent=           0 FoldK=F
 IRaf=         0 NMat=       1 IRICut=       1 DoRegI=T DoRafI=F ISym2E= 0 IDoP0=0 IntGTp=1.
 FoFCou: FMM=F IPFlag=           0 FMFlag=      100000 FMFlg1=         800
         NFxFlg=           0 DoJE=F BraDBF=F KetDBF=F FulRan=T
         wScrn=  0.000000 ICntrl=  10100127 IOpCl=  0 I1Cent=           0 NGrid=           0
         NMat0=    1 NMatS0=      1 NMatT0=    0 NMatD0=    1 NMtDS0=    0 NMtDT0=    0
 Symmetry not used in FoFCou.
 Leave Link  703 at Sun Mar  6 20:01:33 2022, MaxMem= 16106127360 cpu:             447.6 elap:              16.0
 (Enter /sw/contrib/gaussian/g16/B01/g16/l716.exe)
 Dipole        = 2.38476810D-01-3.59168891D-01 1.46615003D-02
 Polarizability= 3.44970215D+01-7.29499003D-01 2.62731403D+01
                 3.19026285D-02-6.69500977D-03 1.76225741D+01
 Full mass-weighted force constant matrix:
 Low frequencies ---  -17.3427   -9.0239   -0.0001    0.0008    0.0017    7.3885
 Low frequencies ---  352.2527  396.2724  522.5072
 Diagonal vibrational polarizability:
       13.7856819       3.4614254      16.1714668
 Harmonic frequencies (cm**-1), IR intensities (KM/Mole), Raman scattering
 activities (A**4/AMU), depolarization ratios for plane and unpolarized
 incident light, reduced masses (AMU), force constants (mDyne/A),
 and normal coordinates:
                      1                      2                      3
                      A                      A                      A
 Frequencies --    352.2526               396.2629               522.5069
 Red. masses --      1.5480                 7.1106                 2.9361
 Frc consts  --      0.1132                 0.6578                 0.4723
 IR Inten    --     63.2120                 7.7914                25.4013
  Atom  AN      X      Y      Z        X      Y      Z        X      Y      Z
     1   1    -0.04   0.01   0.98     0.73   0.23   0.03     0.02   0.02   0.93
     2   8    -0.01  -0.00  -0.11     0.45  -0.06  -0.02     0.02  -0.01   0.05
     3   8    -0.00  -0.00   0.11     0.00   0.11   0.04    -0.00   0.01  -0.18
     4   7     0.00   0.00  -0.11    -0.10   0.04  -0.05    -0.00  -0.00   0.27
     5   8     0.01   0.00   0.03    -0.41  -0.10   0.02    -0.02  -0.00  -0.17
                      4                      5                      6
                      A                      A                      A
 Frequencies --    711.4906               837.0761               970.9920
 Red. masses --     13.3175                12.3667                 9.7783
 Frc consts  --      3.9720                 5.1054                 5.4318
 IR Inten    --    217.2644                30.6681                12.7669
  Atom  AN      X      Y      Z        X      Y      Z        X      Y      Z
     1   1    -0.28  -0.21   0.04     0.26   0.39   0.02     0.51   0.37   0.01
     2   8    -0.05   0.06   0.00     0.31   0.48  -0.00    -0.06  -0.25   0.00
     3   8     0.64  -0.25  -0.00    -0.32  -0.21   0.00     0.05   0.54  -0.00
     4   7    -0.60   0.13   0.01    -0.38  -0.21   0.00    -0.33  -0.19  -0.01
     5   8    -0.05   0.09  -0.01     0.33  -0.11  -0.00     0.27  -0.15   0.00
                      7                      8                      9
                      A                      A                      A
 Frequencies --   1434.3635              1570.2523              3487.8563
 Red. masses --      1.3056                 6.3928                 1.0638
 Frc consts  --      1.5826                 9.2870                 7.6245
 IR Inten    --     79.8980               150.1036                42.5852
  Atom  AN      X      Y      Z        X      Y      Z        X      Y      Z
     1   1     0.66   0.74   0.00    -0.51  -0.59   0.00     0.71  -0.70   0.02
     2   8    -0.08   0.00  -0.00     0.03  -0.01   0.00    -0.04   0.04  -0.00
     3   8     0.01  -0.06   0.00    -0.06   0.03  -0.00    -0.00   0.00  -0.00
     4   7     0.02   0.08   0.00    -0.04   0.47   0.01     0.00  -0.00   0.00
     5   8     0.01  -0.05  -0.00     0.10  -0.39  -0.01     0.00   0.00  -0.00

 -------------------
 - Thermochemistry -
 -------------------
 Temperature   298.150 Kelvin.  Pressure   1.00000 Atm.
 Atom     1 has atomic number  1 and mass   1.00783
 Atom     2 has atomic number  8 and mass  15.99491
 Atom     3 has atomic number  8 and mass  15.99491
 Atom     4 has atomic number  7 and mass  14.00307
 Atom     5 has atomic number  8 and mass  15.99491
 Molecular mass:    62.99564 amu.
 Principal axes and moments of inertia in atomic units:
                           1         2         3
     Eigenvalues --    84.50743 222.69890 307.16118
           X            0.99987   0.01593  -0.00024
           Y           -0.01593   0.99987  -0.00127
           Z            0.00022   0.00128   1.00000
 This molecule is an asymmetric top.
 Rotational symmetry number  1.
 Rotational temperatures (Kelvin)      1.02493     0.38893     0.28198
 Rotational constants (GHZ):          21.35601     8.10395     5.87555
 Zero-point vibrational energy      61506.3 (Joules/Mol)
                                   14.70036 (Kcal/Mol)
 Warning -- explicit consideration of   3 degrees of freedom as
           vibrations may cause significant error
 Vibrational temperatures:    506.81   570.13   751.77  1023.68  1204.37
          (Kelvin)           1397.04  2063.73  2259.24  5018.25
 
 Zero-point correction=                           0.023427 (Hartree/Particle)
 Thermal correction to Energy=                    0.027367
 Thermal correction to Enthalpy=                  0.028311
 Thermal correction to Gibbs Free Energy=        -0.002550
 Sum of electronic and zero-point Energies=           -280.431700
 Sum of electronic and thermal Energies=              -280.427760
 Sum of electronic and thermal Enthalpies=            -280.426816
 Sum of electronic and thermal Free Energies=         -280.457676
 
                     E (Thermal)             CV                S
                      KCal/Mol        Cal/Mol-Kelvin    Cal/Mol-Kelvin
 Total                   17.173             12.172             64.952
 Electronic               0.000              0.000              0.000
 Translational            0.889              2.981             38.341
 Rotational               0.889              2.981             23.273
 Vibrational             15.395              6.211              3.338
 Vibration     1          0.729              1.571              1.156
 Vibration     2          0.763              1.478              0.976
 Vibration     3          0.877              1.200              0.604
                       Q            Log10(Q)             Ln(Q)
 Total Bot       0.148896D+02          1.172884          2.700664
 Total V=0       0.887819D+12         11.948325         27.512034
 Vib (Bot)       0.278374D-10        -10.555371        -24.304641
 Vib (Bot)    1  0.523003D+00         -0.281496         -0.648169
 Vib (Bot)    2  0.451020D+00         -0.345805         -0.796245
 Vib (Bot)    3  0.308211D+00         -0.511152         -1.176972
 Vib (V=0)       0.165985D+01          0.220070          0.506729
 Vib (V=0)    1  0.122355D+01          0.087623          0.201760
 Vib (V=0)    2  0.117336D+01          0.069433          0.159875
 Vib (V=0)    3  0.108736D+01          0.036374          0.083754
 Electronic      0.100000D+01          0.000000          0.000000
 Translational   0.196526D+08          7.293420         16.793719
 Rotational      0.272167D+05          4.434835         10.211586
 
                                                                title
                                                             IR Spectrum
 
     3                                                                     1    1                                                    
     4                                                                     5    4                9    8    7     5    3 3            
     8                                                                     7    3                7    3    1     2    9 5            
     8                                                                     0    4                1    7    1     3    6 2            
 
     X                                                                     X    X                X    X    X     X    X X            
     X                                                                     X    X                     X    X     X      X            
     X                                                                     X    X                     X    X            X            
     X                                                                     X    X                          X            X            
                                                                           X    X                          X            X            
                                                                           X    X                          X            X            
                                                                           X    X                          X                         
                                                                           X                               X                         
                                                                           X                               X                         
                                                                           X                               X                         
                                                                           X                               X                         
                                                                           X                               X                         
                                                                           X                               X                         
                                                                           X                               X                         
                                                                                                           X                         
                                                                                                           X                         
                                                                                                           X                         
                                                                                                           X                         
                                                                                                           X                         
                                                                                                           X                         
 
 ***** Axes restored to original set *****
 -------------------------------------------------------------------
 Center     Atomic                   Forces (Hartrees/Bohr)
 Number     Number              X              Y              Z
 -------------------------------------------------------------------
      1        1          -0.000011299    0.000704459    0.000029888
      2        8          -0.000234161    0.001002913    0.000041906
      3        8           0.000170572   -0.002840274   -0.000324902
      4        7           0.000342164    0.003530897    0.000518139
      5        8          -0.000267276   -0.002397994   -0.000265031
 -------------------------------------------------------------------
 Cartesian Forces:  Max     0.003530897 RMS     0.001378558
 -----------------------------------------------------------------------------------------------
                       Internal Coordinate Forces (Hartree/Bohr or radian)
  Cent   Atom   N1       Length/X         N2         Alpha/Y        N3         Beta/Z          J
 -----------------------------------------------------------------------------------------------
      1  H 
      2  O        1  -0.000030(     1)
      3  O        2   0.000228(     2)      1   0.000021(     5)
      4  N        3  -0.000169(     3)      2   0.000333(     6)      1  -0.001289(     8)     0
      5  O        4   0.000266(     4)      3  -0.000094(     7)      2  -0.004963(     9)     0
 -----------------------------------------------------------------------------------------------
 Internal  Forces:  Max     0.004962878 RMS     0.001718002
 Force constants in Cartesian coordinates: 
                1             2             3             4             5 
      1  0.721903D-01
      2 -0.563819D-03  0.604864D-02
      3  0.241217D-01  0.464007D-03  0.436747D+00
      4 -0.519116D-01 -0.275811D-03 -0.472930D-02  0.280989D+00
      5 -0.790175D-04 -0.241259D-02  0.159000D-03 -0.104621D-02  0.121698D-01
      6  0.321832D-01 -0.385885D-03 -0.420534D+00 -0.124479D-01 -0.911744D-03
      7 -0.251264D-01  0.190539D-03 -0.158671D-01 -0.170717D+00  0.102934D-02
      8  0.482786D-03 -0.420241D-02 -0.632417D-03  0.100222D-02 -0.189792D-01
      9 -0.439599D-01  0.412883D-03 -0.198927D-01  0.105782D-01  0.785852D-03
     10 -0.572436D-02  0.170534D-03  0.643870D-02 -0.840984D-01  0.977868D-03
     11 -0.373074D-04  0.801312D-02  0.595780D-03 -0.132899D-03  0.198227D-01
     12 -0.191853D-01 -0.438890D-03  0.119116D-01  0.107352D-01  0.170164D-03
     13  0.105720D-01  0.478556D-03 -0.996394D-02  0.257387D-01 -0.881984D-03
     14  0.197357D-03 -0.744676D-02 -0.586370D-03  0.452701D-03 -0.106007D-01
     15  0.684034D-02 -0.521151D-04 -0.823213D-02 -0.413613D-02 -0.203272D-03
                6             7             8             9            10 
      6  0.522445D+00
      7 -0.910907D-01  0.303718D+00
      8  0.150413D-02 -0.215458D-02  0.410980D-01
      9 -0.964896D-01  0.813711D-01 -0.589573D-02  0.316359D+00
     10  0.402975D-01 -0.143784D+00  0.215987D-02 -0.354975D-01  0.553796D+00
     11 -0.385049D-03  0.296555D-02 -0.479265D-01  0.654258D-03 -0.190856D-01
     12 -0.103809D-01  0.160242D-01  0.645835D-03 -0.252712D-01  0.242840D+00
     13  0.310579D-01  0.359090D-01 -0.149029D-02 -0.124919D-01 -0.320189D+00
     14  0.178548D-03 -0.203085D-02  0.300100D-01  0.404274D-02  0.157773D-01
     15  0.495999D-02  0.956246D-02  0.437818D-02 -0.174706D+00 -0.254079D+00
               11            12            13            14            15 
     11  0.585471D-01
     12 -0.203232D-01  0.448034D+00
     13  0.162903D-01 -0.250414D+00  0.247969D+00
     14 -0.384564D-01  0.199461D-01 -0.143965D-01  0.264939D-01
     15  0.194582D-01 -0.424293D+00  0.241812D+00 -0.235810D-01  0.602271D+00
 Force constants in internal coordinates: 
                1             2             3             4             5 
      1  0.436747D+00
      2  0.220515D-01  0.259080D+00
      3  0.501825D-02  0.173161D-01  0.207591D+00
      4 -0.122169D-01  0.225991D-01  0.148882D+00  0.721451D+00
      5  0.449055D-01  0.564624D-01 -0.241262D-01  0.211776D-01  0.250257D+00
      6  0.115930D-01  0.222191D-01  0.920534D-01  0.966267D-02 -0.877384D-02
      7  0.924318D-02 -0.733668D-01  0.121307D+00  0.117138D+00 -0.225046D-01
      8  0.154158D-02 -0.148383D-02 -0.140699D-02  0.949601D-03 -0.216390D-02
      9  0.241651D-02 -0.436557D-02 -0.290286D-02  0.133921D-02 -0.296442D-02
                6             7             8             9 
      6  0.520783D+00
      7  0.619918D-01  0.662907D+00
      8 -0.306446D-02 -0.237223D-02  0.202011D-01
      9 -0.341217D-02 -0.208708D-02  0.279441D-01  0.107873D+00
 Leave Link  716 at Sun Mar  6 20:01:33 2022, MaxMem= 16106127360 cpu:               0.7 elap:               0.0
 (Enter /sw/contrib/gaussian/g16/B01/g16/l103.exe)

 GradGradGradGradGradGradGradGradGradGradGradGradGradGradGradGradGradGrad
 Berny optimization.
 Search for a local minimum.
 Step number   1 out of a maximum of    2
 All quantities printed in internal units (Hartrees-Bohrs-Radians)
 Second derivative matrix not updated -- analytic derivatives used.
 The second derivative matrix:
                          r1        r2        r3        r4        a1
           r1           0.43675
           r2           0.02205   0.25908
           r3           0.00502   0.01732   0.20759
           r4          -0.01222   0.02260   0.14888   0.72145
           a1           0.04491   0.05646  -0.02413   0.02118   0.25026
           a2           0.01159   0.02222   0.09205   0.00966  -0.00877
           a3           0.00924  -0.07337   0.12131   0.11714  -0.02250
           d1           0.00154  -0.00148  -0.00141   0.00095  -0.00216
           d2           0.00242  -0.00437  -0.00290   0.00134  -0.00296
                          a2        a3        d1        d2
           a2           0.52078
           a3           0.06199   0.66291
           d1          -0.00306  -0.00237   0.02020
           d2          -0.00341  -0.00209   0.02794   0.10787
 ITU=  0
     Eigenvalues ---    0.01203   0.11528   0.12480   0.20349   0.27577
     Eigenvalues ---    0.44942   0.51512   0.60760   0.88337
 Angle between quadratic step and forces=  14.70 degrees.
 Linear search not attempted -- first point.
 Variable       Old X    -DE/DX   Delta X   Delta X   Delta X     New X
                                 (Linear)    (Quad)   (Total)
    r1        1.86209  -0.00003   0.00000   0.00031   0.00031   1.86240
    r2        2.69614   0.00023   0.00000   0.00028   0.00028   2.69642
    r3        2.60992  -0.00017   0.00000  -0.00262  -0.00262   2.60729
    r4        2.25782   0.00027   0.00000   0.00102   0.00102   2.25884
    a1        1.75642   0.00002   0.00000  -0.00090  -0.00090   1.75552
    a2        1.97463   0.00033   0.00000   0.00075   0.00075   1.97538
    a3        1.99550  -0.00009   0.00000  -0.00006  -0.00006   1.99544
    d1        0.00000  -0.00129   0.00000  -0.00043  -0.00043  -0.00043
    d2        0.04581  -0.00496   0.00000  -0.04598  -0.04598  -0.00016
         Item               Value     Threshold  Converged?
 Maximum Force            0.004963     0.000450     NO 
 RMS     Force            0.001718     0.000300     NO 
 Maximum Displacement     0.045977     0.001800     NO 
 RMS     Displacement     0.015361     0.001200     NO 
 Predicted change in Energy=-1.148676D-04
                       ----------------------------
                       ! Non-Optimized Parameters !
                       ! (Angstroms and Degrees)  !
 ----------------------                            ----------------------
 !      Name          Value   Derivative information (Atomic Units)     !
 ------------------------------------------------------------------------
 !       r1          0.9855   -DE/DX =    0.0                           !
 !       r2          1.4269   -DE/DX =    0.0002                        !
 !       r3          1.3797   -DE/DX =   -0.0002                        !
 !       r4          1.1953   -DE/DX =    0.0003                        !
 !       a1        100.5839   -DE/DX =    0.0                           !
 !       a2        113.181    -DE/DX =    0.0003                        !
 !       a3        114.3303   -DE/DX =   -0.0001                        !
 !       d1         -0.0244   -DE/DX =   -0.0013                        !
 !       d2         -0.0094   -DE/DX =   -0.005                         !
 ------------------------------------------------------------------------
 GradGradGradGradGradGradGradGradGradGradGradGradGradGradGradGradGradGrad

 Leave Link  103 at Sun Mar  6 20:01:33 2022, MaxMem= 16106127360 cpu:               1.2 elap:               0.1
 (Enter /sw/contrib/gaussian/g16/B01/g16/l9999.exe)

 ----------------------------------------------------------------------

 Electric dipole moment (input orientation):
 (Debye = 10**-18 statcoulomb cm , SI units = C m)
                  (au)            (Debye)         (10**-30 SI)
   Tot        0.431380D+00      0.109646D+01      0.365739D+01
   x         -0.110308D+00     -0.280376D+00     -0.935233D+00
   y         -0.430462D-02     -0.109412D-01     -0.364961D-01
   z         -0.417016D+00     -0.105995D+01     -0.353561D+01

 Dipole polarizability, Alpha (input orientation).
 (esu units = cm**3 , SI units = C**2 m**2 J**-1)
 Alpha(0;0):
               (au)            (10**-24 esu)      (10**-40 SI)
   iso        0.261309D+02      0.387220D+01      0.430841D+01
   aniso      0.146699D+02      0.217385D+01      0.241874D+01
   xx         0.291737D+02      0.432309D+01      0.481009D+01
   yx         0.284276D-01      0.421254D-02      0.468708D-02
   yy         0.176286D+02      0.261229D+01      0.290657D+01
   zx        -0.399698D+01     -0.592291D+00     -0.659013D+00
   zy        -0.285371D+00     -0.422876D-01     -0.470513D-01
   zz         0.315905D+02      0.468122D+01      0.520856D+01

 ----------------------------------------------------------------------

 Dipole orientation:
     1          0.00000000          0.00000000          0.00000000
     8         -0.47615631          0.01858130         -1.80008790
     8          1.95832698          0.02698470         -2.95870763
     7          3.91571941          0.00721850         -1.23247432
     8          3.25399680         -0.10765328          0.92314443

 Electric dipole moment (dipole orientation):
 (Debye = 10**-18 statcoulomb cm , SI units = C m)
                  (au)            (Debye)         (10**-30 SI)
   Tot        0.431380D+00      0.109646D+01      0.365739D+01
   x          0.000000D+00      0.000000D+00      0.000000D+00
   y          0.000000D+00      0.000000D+00      0.000000D+00
   z          0.431380D+00      0.109646D+01      0.365739D+01

 Dipole polarizability, Alpha (dipole orientation).
 (esu units = cm**3 , SI units = C**2 m**2 J**-1)
 Alpha(0;0):
               (au)            (10**-24 esu)      (10**-40 SI)
   iso        0.261309D+02      0.387220D+01      0.430841D+01
   aniso      0.146699D+02      0.217385D+01      0.241874D+01
   xx         0.313076D+02      0.463931D+01      0.516192D+01
   yx        -0.158824D+00     -0.235353D-01     -0.261865D-01
   yy         0.176355D+02      0.261332D+01      0.290771D+01
   zx         0.406999D+01      0.603111D+00      0.671051D+00
   zy        -0.391858D+00     -0.580674D-01     -0.646087D-01
   zz         0.294496D+02      0.436398D+01      0.485558D+01

 ----------------------------------------------------------------------
 1\1\GINC-N2218\Freq\RMP2-FC\Aug-CC-pVTZ\H1N1O3\CGAVINH\06-Mar-2022\1\\
 #p freq mp2/aug-cc-pvtz density=current\\title\\0,1\H\O,1,r1\O,2,r2,1,
 a1\N,3,r3,2,a2,1,d1,0\O,4,r4,3,a3,2,d2,0\\r1=0.98537664\r2=1.42673666\
 r3=1.38110764\r4=1.19478846\a1=100.6355057\a2=113.13777052\a3=114.3339
 2022\d1=0.\d2=2.6248625\\Version=ES64L-G16RevB.01\State=1-A\HF=-279.50
 63506\MP2=-280.4551264\RMSD=9.814e-09\RMSF=1.379e-03\ZeroPoint=0.02342
 65\Thermal=0.0273667\Dipole=-0.1103083,-0.0043046,-0.4170156\DipoleDer
 iv=0.3166969,0.0019943,0.0380917,0.0025392,0.2981352,-0.0002572,-0.024
 1472,-0.0013714,0.1995421,-0.5276597,-0.004448,0.2807741,-0.0027336,-0
 .2543578,0.0072613,-0.1051759,-0.0017691,-0.1254821,0.003477,-0.001113
 ,0.3365075,0.0070047,-0.0104324,-0.012881,0.4424713,0.0212335,-0.92083
 44,0.1997407,-0.0090458,-0.1403144,0.0052796,0.0130511,-0.0264408,-0.6
 66646,-0.031916,1.7168488,0.0077451,0.0126125,-0.5150589,-0.01209,-0.0
 46396,0.0323176,0.3534978,0.013823,-0.8700745\Polar=29.17366,0.0284276
 ,17.628613,-3.9969804,-0.2853711,31.5904629\Quadrupole=0.1501206,0.606
 5629,-0.7566835,0.034196,1.4063188,0.0601893\PG=C01 [X(H1N1O3)]\NImag=
 0\\0.07219031,-0.00056382,0.00604864,0.02412166,0.00046401,0.43674727,
 -0.05191158,-0.00027581,-0.00472930,0.28098865,-0.00007902,-0.00241259
 ,0.00015900,-0.00104621,0.01216984,0.03218318,-0.00038588,-0.42053409,
 -0.01244795,-0.00091174,0.52244467,-0.02512637,0.00019054,-0.01586712,
 -0.17071735,0.00102934,-0.09109067,0.30371847,0.00048279,-0.00420241,-
 0.00063242,0.00100222,-0.01897922,0.00150413,-0.00215458,0.04109804,-0
 .04395989,0.00041288,-0.01989266,0.01057819,0.00078585,-0.09648964,0.0
 8137110,-0.00589573,0.31635911,-0.00572436,0.00017053,0.00643870,-0.08
 409839,0.00097787,0.04029752,-0.14378374,0.00215987,-0.03549746,0.5537
 9565,-0.00003731,0.00801312,0.00059578,-0.00013290,0.01982271,-0.00038
 505,0.00296555,-0.04792645,0.00065426,-0.01908561,0.05854705,-0.019185
 28,-0.00043889,0.01191160,0.01073518,0.00017016,-0.01038093,0.01602423
 ,0.00064584,-0.02527118,0.24284018,-0.02032321,0.44803359,0.01057201,0
 .00047856,-0.00996394,0.02573867,-0.00088198,0.03105791,0.03590899,-0.
 00149029,-0.01249194,-0.32018916,0.01629027,-0.25041431,0.24796950,0.0
 0019736,-0.00744676,-0.00058637,0.00045270,-0.01060074,0.00017855,-0.0
 0203085,0.03001004,0.00404274,0.01577734,-0.03845643,0.01994610,-0.014
 39655,0.02649389,0.00684034,-0.00005212,-0.00823213,-0.00413613,-0.000
 20327,0.00495999,0.00956246,0.00437818,-0.17470563,-0.25407895,0.01945
 822,-0.42429308,0.24181228,-0.02358101,0.60227085\\0.00001130,-0.00070
 446,-0.00002989,0.00023416,-0.00100291,-0.00004191,-0.00017057,0.00284
 027,0.00032490,-0.00034216,-0.00353090,-0.00051814,0.00026728,0.002397
 99,0.00026503\\\@


      LET US REMEMBER, PLEASE, THAT THE SEARCH FOR THE CONSTITUTION
      OF THE WORLD IS ONE OF THE GREATEST AND NOBLEST PROBLEMS PRESENTED 
      BY NATURE.

                                                  -- GALILEO
 Job cpu time:       0 days  2 hours  3 minutes 53.0 seconds.
 Elapsed time:       0 days  0 hours  4 minutes 32.3 seconds.
 File lengths (MBytes):  RWF=   7239 Int=      0 D2E=      0 Chk=      8 Scr=      1
 Normal termination of Gaussian 16 at Sun Mar  6 20:01:34 2022.
