title                                                                   
Freq      RMP2-FC                                                     Aug-CC-pVTZ         
Number of atoms                            I                5
Info1-9                                    I   N=           9
          33          24           0           0           0         100
           6           2           1
Full Title                                 C   N=           1
title       
Route                                      C   N=           4
#p freq mp2/aug-cc-pvtz density=current         
Charge                                     I                0
Multiplicity                               I                1
Number of electrons                        I               32
Number of alpha electrons                  I               16
Number of beta electrons                   I               16
Number of basis functions                  I              207
Number of independent functions            I              207
Number of point charges in /Mol/           I                0
Number of translation vectors              I                0
Atomic numbers                             I   N=           5
           1           8           8           7           8
Nuclear charges                            R   N=           5
  1.00000000E+00  8.00000000E+00  8.00000000E+00  7.00000000E+00  8.00000000E+00
Current cartesian coordinates              R   N=          15
  2.07107891E+00 -1.16261291E+00  0.00000000E+00  2.47739435E+00  6.54608680E-01
  4.93038066E-32 -4.09354879E-17  1.71842089E+00 -6.16297582E-33 -1.85713196E+00
 -5.15346850E-02  4.93038066E-32 -1.11128875E+00 -2.18261011E+00  0.00000000E+00
Number of symbols in /Mol/                 I                0
Force Field                                I                0
Atom Types                                 C   N=           5
                                                            
Int Atom Types                             I   N=           5
           0           0           0           0           0
MM charges                                 R   N=           5
  0.00000000E+00  0.00000000E+00  0.00000000E+00  0.00000000E+00  0.00000000E+00
Integer atomic weights                     I   N=           5
           1          16          16          14          16
Real atomic weights                        R   N=           5
  1.00782504E+00  1.59949146E+01  1.59949146E+01  1.40030740E+01  1.59949146E+01
Atom fragment info                         I   N=           5
           0           0           0           0           0
Atom residue num                           I   N=           5
           0           0           0           0           0
Nuclear spins                              I   N=           5
           1           0           0           2           0
Nuclear ZEff                               R   N=           5
 -1.00000000E+00 -5.60000000E+00 -5.60000000E+00 -4.55000000E+00 -5.60000000E+00
Nuclear ZNuc                               R   N=           5
  1.00000000E+00  8.00000000E+00  8.00000000E+00  7.00000000E+00  8.00000000E+00
Nuclear QMom                               R   N=           5
  0.00000000E+00  0.00000000E+00  0.00000000E+00  2.04400000E+00  0.00000000E+00
Nuclear GFac                               R   N=           5
  2.79284600E+00  0.00000000E+00  0.00000000E+00  4.03761000E-01  0.00000000E+00
MicOpt                                     I   N=           5
          -1          -1          -1          -1          -1
Number of residues                         I                0
Number of secondary structures             I                0
SymInf integers                            I   N=          26
           1           2           1           1           1           1
           1          -1           0           0           0           0
           0           0           0           0           0           0
           0           0           0           0           0           0
           0           0
RotTr to input orientation                 R   N=          12
 -9.75903235E-01 -1.26835753E-16  2.18203747E-01  2.18203747E-01  2.83594064E-17
  9.75903235E-01 -1.29967550E-16  1.00000000E+00  0.00000000E+00  2.27485910E+00
  0.00000000E+00  6.82680520E-01
Number of contracted shells                I               65
Number of primitive shells                 I              119
Pure/Cartesian d shells                    I                0
Pure/Cartesian f shells                    I                0
Highest angular momentum                   I                3
Largest degree of contraction              I                7
Shell types                                I   N=          65
           0           0           0           0           1           1
           1          -2          -2           0           0           0
           0           0           1           1           1           1
          -2          -2          -2          -3          -3           0
           0           0           0           0           1           1
           1           1          -2          -2          -2          -3
          -3           0           0           0           0           0
           1           1           1           1          -2          -2
          -2          -3          -3           0           0           0
           0           0           1           1           1           1
          -2          -2          -2          -3          -3
Number of primitives per shell             I   N=          65
           3           1           1           1           1           1
           1           1           1           7           6           1
           1           1           3           1           1           1
           1           1           1           1           1           7
           6           1           1           1           3           1
           1           1           1           1           1           1
           1           7           6           1           1           1
           3           1           1           1           1           1
           1           1           1           7           6           1
           1           1           3           1           1           1
           1           1           1           1           1
Shell to atom map                          I   N=          65
           1           1           1           1           1           1
           1           1           1           2           2           2
           2           2           2           2           2           2
           2           2           2           2           2           3
           3           3           3           3           3           3
           3           3           3           3           3           3
           3           4           4           4           4           4
           4           4           4           4           4           4
           4           4           4           5           5           5
           5           5           5           5           5           5
           5           5           5           5           5
Primitive exponents                        R   N=         119
  3.38700000E+01  5.09500000E+00  1.15900000E+00  3.25800000E-01  1.02700000E-01
  2.52600000E-02  1.40700000E+00  3.88000000E-01  1.02000000E-01  1.05700000E+00
  2.47000000E-01  1.53300000E+04  2.29900000E+03  5.22400000E+02  1.47300000E+02
  4.75500000E+01  1.67600000E+01  6.20700000E+00  5.22400000E+02  1.47300000E+02
  4.75500000E+01  1.67600000E+01  6.20700000E+00  6.88200000E-01  1.75200000E+00
  2.38400000E-01  7.37600000E-02  3.44600000E+01  7.74900000E+00  2.28000000E+00
  7.15600000E-01  2.14000000E-01  5.97400000E-02  2.31400000E+00  6.45000000E-01
  2.14000000E-01  1.42800000E+00  5.00000000E-01  1.53300000E+04  2.29900000E+03
  5.22400000E+02  1.47300000E+02  4.75500000E+01  1.67600000E+01  6.20700000E+00
  5.22400000E+02  1.47300000E+02  4.75500000E+01  1.67600000E+01  6.20700000E+00
  6.88200000E-01  1.75200000E+00  2.38400000E-01  7.37600000E-02  3.44600000E+01
  7.74900000E+00  2.28000000E+00  7.15600000E-01  2.14000000E-01  5.97400000E-02
  2.31400000E+00  6.45000000E-01  2.14000000E-01  1.42800000E+00  5.00000000E-01
  1.14200000E+04  1.71200000E+03  3.89300000E+02  1.10000000E+02  3.55700000E+01
  1.25400000E+01  4.64400000E+00  3.89300000E+02  1.10000000E+02  3.55700000E+01
  1.25400000E+01  4.64400000E+00  5.11800000E-01  1.29300000E+00  1.78700000E-01
  5.76000000E-02  2.66300000E+01  5.94800000E+00  1.74200000E+00  5.55000000E-01
  1.72500000E-01  4.91000000E-02  1.65400000E+00  4.69000000E-01  1.51000000E-01
  1.09300000E+00  3.64000000E-01  1.53300000E+04  2.29900000E+03  5.22400000E+02
  1.47300000E+02  4.75500000E+01  1.67600000E+01  6.20700000E+00  5.22400000E+02
  1.47300000E+02  4.75500000E+01  1.67600000E+01  6.20700000E+00  6.88200000E-01
  1.75200000E+00  2.38400000E-01  7.37600000E-02  3.44600000E+01  7.74900000E+00
  2.28000000E+00  7.15600000E-01  2.14000000E-01  5.97400000E-02  2.31400000E+00
  6.45000000E-01  2.14000000E-01  1.42800000E+00  5.00000000E-01
Contraction coefficients                   R   N=         119
  2.54948632E-02  1.90362766E-01  8.52162022E-01  1.00000000E+00  1.00000000E+00
  1.00000000E+00  1.00000000E+00  1.00000000E+00  1.00000000E+00  1.00000000E+00
  1.00000000E+00  5.19808943E-04  4.02025621E-03  2.07128267E-02  8.10105536E-02
  2.35962985E-01  4.42653446E-01  3.57064423E-01 -4.42115008E-05 -1.22591041E-03
 -1.05517725E-02 -6.74452633E-02 -1.71198607E-01  1.07329856E+00  1.00000000E+00
  1.00000000E+00  1.00000000E+00  4.11634896E-02  2.57762836E-01  8.02419274E-01
  1.00000000E+00  1.00000000E+00  1.00000000E+00  1.00000000E+00  1.00000000E+00
  1.00000000E+00  1.00000000E+00  1.00000000E+00  5.19808943E-04  4.02025621E-03
  2.07128267E-02  8.10105536E-02  2.35962985E-01  4.42653446E-01  3.57064423E-01
 -4.42115008E-05 -1.22591041E-03 -1.05517725E-02 -6.74452633E-02 -1.71198607E-01
  1.07329856E+00  1.00000000E+00  1.00000000E+00  1.00000000E+00  4.11634896E-02
  2.57762836E-01  8.02419274E-01  1.00000000E+00  1.00000000E+00  1.00000000E+00
  1.00000000E+00  1.00000000E+00  1.00000000E+00  1.00000000E+00  1.00000000E+00
  5.34563860E-04  4.13435660E-03  2.12335358E-02  8.25006224E-02  2.38138871E-01
  4.42551547E-01  3.53757422E-01 -4.89867350E-05 -1.19527323E-03 -1.03490714E-02
 -6.48680190E-02 -1.71552477E-01  1.07289568E+00  1.00000000E+00  1.00000000E+00
  1.00000000E+00  3.98072123E-02  2.49002660E-01  8.10479727E-01  1.00000000E+00
  1.00000000E+00  1.00000000E+00  1.00000000E+00  1.00000000E+00  1.00000000E+00
  1.00000000E+00  1.00000000E+00  5.19808943E-04  4.02025621E-03  2.07128267E-02
  8.10105536E-02  2.35962985E-01  4.42653446E-01  3.57064423E-01 -4.42115008E-05
 -1.22591041E-03 -1.05517725E-02 -6.74452633E-02 -1.71198607E-01  1.07329856E+00
  1.00000000E+00  1.00000000E+00  1.00000000E+00  4.11634896E-02  2.57762836E-01
  8.02419274E-01  1.00000000E+00  1.00000000E+00  1.00000000E+00  1.00000000E+00
  1.00000000E+00  1.00000000E+00  1.00000000E+00  1.00000000E+00
Coordinates of each shell                  R   N=         195
  2.07107891E+00 -1.16261291E+00 -2.45708574E-34  2.07107891E+00 -1.16261291E+00
 -2.45708574E-34  2.07107891E+00 -1.16261291E+00 -2.45708574E-34  2.07107891E+00
 -1.16261291E+00 -2.45708574E-34  2.07107891E+00 -1.16261291E+00 -2.45708574E-34
  2.07107891E+00 -1.16261291E+00 -2.45708574E-34  2.07107891E+00 -1.16261291E+00
 -2.45708574E-34  2.07107891E+00 -1.16261291E+00 -2.45708574E-34  2.07107891E+00
 -1.16261291E+00 -2.45708574E-34  2.47739435E+00  6.54608680E-01  4.24490666E-34
  2.47739435E+00  6.54608680E-01  4.24490666E-34  2.47739435E+00  6.54608680E-01
  4.24490666E-34  2.47739435E+00  6.54608680E-01  4.24490666E-34  2.47739435E+00
  6.54608680E-01  4.24490666E-34  2.47739435E+00  6.54608680E-01  4.24490666E-34
  2.47739435E+00  6.54608680E-01  4.24490666E-34  2.47739435E+00  6.54608680E-01
  4.24490666E-34  2.47739435E+00  6.54608680E-01  4.24490666E-34  2.47739435E+00
  6.54608680E-01  4.24490666E-34  2.47739435E+00  6.54608680E-01  4.24490666E-34
  2.47739435E+00  6.54608680E-01  4.24490666E-34  2.47739435E+00  6.54608680E-01
  4.24490666E-34  2.47739435E+00  6.54608680E-01  4.24490666E-34  1.62085636E-17
  1.71842089E+00  6.03585924E-34  1.62085636E-17  1.71842089E+00  6.03585924E-34
  1.62085636E-17  1.71842089E+00  6.03585924E-34  1.62085636E-17  1.71842089E+00
  6.03585924E-34  1.62085636E-17  1.71842089E+00  6.03585924E-34  1.62085636E-17
  1.71842089E+00  6.03585924E-34  1.62085636E-17  1.71842089E+00  6.03585924E-34
  1.62085636E-17  1.71842089E+00  6.03585924E-34  1.62085636E-17  1.71842089E+00
  6.03585924E-34  1.62085636E-17  1.71842089E+00  6.03585924E-34  1.62085636E-17
  1.71842089E+00  6.03585924E-34  1.62085636E-17  1.71842089E+00  6.03585924E-34
  1.62085636E-17  1.71842089E+00  6.03585924E-34  1.62085636E-17  1.71842089E+00
  6.03585924E-34 -1.85713196E+00 -5.15346850E-02 -1.63951724E-34 -1.85713196E+00
 -5.15346850E-02 -1.63951724E-34 -1.85713196E+00 -5.15346850E-02 -1.63951724E-34
 -1.85713196E+00 -5.15346850E-02 -1.63951724E-34 -1.85713196E+00 -5.15346850E-02
 -1.63951724E-34 -1.85713196E+00 -5.15346850E-02 -1.63951724E-34 -1.85713196E+00
 -5.15346850E-02 -1.63951724E-34 -1.85713196E+00 -5.15346850E-02 -1.63951724E-34
 -1.85713196E+00 -5.15346850E-02 -1.63951724E-34 -1.85713196E+00 -5.15346850E-02
 -1.63951724E-34 -1.85713196E+00 -5.15346850E-02 -1.63951724E-34 -1.85713196E+00
 -5.15346850E-02 -1.63951724E-34 -1.85713196E+00 -5.15346850E-02 -1.63951724E-34
 -1.85713196E+00 -5.15346850E-02 -1.63951724E-34 -1.11128875E+00 -2.18261011E+00
 -8.53905259E-34 -1.11128875E+00 -2.18261011E+00 -8.53905259E-34 -1.11128875E+00
 -2.18261011E+00 -8.53905259E-34 -1.11128875E+00 -2.18261011E+00 -8.53905259E-34
 -1.11128875E+00 -2.18261011E+00 -8.53905259E-34 -1.11128875E+00 -2.18261011E+00
 -8.53905259E-34 -1.11128875E+00 -2.18261011E+00 -8.53905259E-34 -1.11128875E+00
 -2.18261011E+00 -8.53905259E-34 -1.11128875E+00 -2.18261011E+00 -8.53905259E-34
 -1.11128875E+00 -2.18261011E+00 -8.53905259E-34 -1.11128875E+00 -2.18261011E+00
 -8.53905259E-34 -1.11128875E+00 -2.18261011E+00 -8.53905259E-34 -1.11128875E+00
 -2.18261011E+00 -8.53905259E-34 -1.11128875E+00 -2.18261011E+00 -8.53905259E-34
Num ILSW                                   I              100
ILSW                                       I   N=         100
           0           0           0           0           2           0
           0           0           0           0           0          -1
           5           0           0           0           2           0
           0           0           0           0           1           0
           1           0           0           0           0           0
           0           0      100000           0          -1           0
           0           0           0           0           0           0
           0           0           0           1           1           0
           0 -2000000000           1           0           0           0
           0           0           4          52           0           0
           0           0           0           0           0           0
           0           0           0           5           4           1
           0           0           0           0           0           0
           0           0           0           0           0           0
           0           0           0           0           0           0
           0           0           0           0           0           0
           0           0           0           0
Num RLSW                                   I               52
RLSW                                       R   N=          52
  1.00000000E+00  1.00000000E+00  1.00000000E+00  1.00000000E+00  1.00000000E+00
  0.00000000E+00  0.00000000E+00  1.00000000E+00  0.00000000E+00  0.00000000E+00
  0.00000000E+00  0.00000000E+00  1.00000000E+00  0.00000000E+00  0.00000000E+00
  0.00000000E+00  0.00000000E+00  1.00000000E+00  0.00000000E+00  0.00000000E+00
  0.00000000E+00  0.00000000E+00  1.00000000E+00  0.00000000E+00  0.00000000E+00
  0.00000000E+00  0.00000000E+00  1.00000000E+00  0.00000000E+00  0.00000000E+00
  0.00000000E+00  0.00000000E+00  1.00000000E+00  0.00000000E+00  0.00000000E+00
  0.00000000E+00  0.00000000E+00  0.00000000E+00  1.00000000E+00  1.00000000E+00
  0.00000000E+00  1.00000000E+00  0.00000000E+00  0.00000000E+00  0.00000000E+00
  0.00000000E+00  0.00000000E+00  0.00000000E+00  0.00000000E+00  0.00000000E+00
  0.00000000E+00  0.00000000E+00
MxBond                                     I                2
NBond                                      I   N=           5
           1           2           2           2           1
IBond                                      I   N=          10
           2           0           1           3           2           4
           3           5           4           0
RBond                                      R   N=          10
  1.00000000E+00  0.00000000E+00  1.00000000E+00  1.00000000E+00  1.00000000E+00
  1.00000000E+00  1.00000000E+00  2.00000000E+00  2.00000000E+00  0.00000000E+00
Virial Ratio                               R      2.002046268553046E+00
SCF Energy                                 R     -2.795081877083812E+02
MP2 Energy                                 R     -2.804550309313609E+02
Total Energy                               R     -2.804550309313609E+02
Post-SCF wavefunction norm                 R      1.582390919275628E+00
RMS Force                                  R      3.358244159141872E-03
RMS Density                                R      3.780216710804805E-09
NImag                                      I                0
Job Status                                 I                1
Nuclear derivative order                   I                2
External E-field                           R   N=          35
  0.00000000E+00  0.00000000E+00  0.00000000E+00  0.00000000E+00  0.00000000E+00
  0.00000000E+00  0.00000000E+00  0.00000000E+00  0.00000000E+00  0.00000000E+00
  0.00000000E+00  0.00000000E+00  0.00000000E+00  0.00000000E+00  0.00000000E+00
  0.00000000E+00  0.00000000E+00  0.00000000E+00  0.00000000E+00  0.00000000E+00
  0.00000000E+00  0.00000000E+00  0.00000000E+00  0.00000000E+00  0.00000000E+00
  0.00000000E+00  0.00000000E+00  0.00000000E+00  0.00000000E+00  0.00000000E+00
  0.00000000E+00  0.00000000E+00  0.00000000E+00  0.00000000E+00  0.00000000E+00
IOpCl                                      I                0
IROHF                                      I                0
Alpha Orbital Energies                     R   N=         207
 -2.07237467E+01 -2.06817094E+01 -2.06695822E+01 -1.58231213E+01 -1.65060717E+00
 -1.50505834E+00 -1.30229274E+00 -9.59192390E-01 -8.37193889E-01 -7.62023835E-01
 -7.45521889E-01 -6.38346498E-01 -6.17850724E-01 -6.16165983E-01 -5.04780966E-01
 -4.99799600E-01  3.49615204E-02  6.38061416E-02  9.51412576E-02  1.00494701E-01
  1.19702982E-01  1.23079387E-01  1.48608117E-01  1.51579951E-01  1.77391274E-01
  1.80703978E-01  1.89610193E-01  2.11226678E-01  2.16612682E-01  2.42668829E-01
  2.46465214E-01  2.69641404E-01  3.13996237E-01  3.17642197E-01  3.38694117E-01
  3.44897539E-01  3.54805530E-01  3.99596226E-01  4.49735568E-01  4.89197790E-01
  5.05288631E-01  5.18922789E-01  5.46224143E-01  5.61785184E-01  6.00316477E-01
  6.20543525E-01  6.40491004E-01  6.90249869E-01  7.14070564E-01  7.24805998E-01
  7.44291787E-01  7.64610989E-01  7.68121884E-01  7.95722580E-01  8.08413021E-01
  8.39627406E-01  8.42407807E-01  8.51788645E-01  8.86798980E-01  9.08547470E-01
  9.33208660E-01  9.49605202E-01  9.52024113E-01  1.01930958E+00  1.03321921E+00
  1.06624710E+00  1.06758528E+00  1.09775740E+00  1.14552682E+00  1.15888127E+00
  1.17241482E+00  1.22360665E+00  1.22661412E+00  1.24680475E+00  1.35460382E+00
  1.35570493E+00  1.37358357E+00  1.46977955E+00  1.48606205E+00  1.50431810E+00
  1.54212508E+00  1.59729301E+00  1.59995315E+00  1.61147639E+00  1.63689696E+00
  1.69733911E+00  1.74033409E+00  1.80122034E+00  1.83348655E+00  1.88981724E+00
  1.89598996E+00  1.93751851E+00  1.98255500E+00  1.99341678E+00  2.05354466E+00
  2.12995319E+00  2.13365713E+00  2.16849579E+00  2.19185635E+00  2.24691705E+00
  2.25997660E+00  2.29304887E+00  2.35505870E+00  2.37087268E+00  2.38526068E+00
  2.40250732E+00  2.44219059E+00  2.47235360E+00  2.48292343E+00  2.52931787E+00
  2.54671535E+00  2.55367817E+00  2.56373858E+00  2.62266520E+00  2.63265557E+00
  2.68014795E+00  2.68252892E+00  2.75992627E+00  2.81535555E+00  2.82730644E+00
  2.84019143E+00  2.92619617E+00  2.99816364E+00  3.05436038E+00  3.05585950E+00
  3.11811626E+00  3.12135511E+00  3.17597386E+00  3.21402976E+00  3.31276786E+00
  3.33630893E+00  3.37616962E+00  3.47454360E+00  3.69835834E+00  3.88081784E+00
  3.93769235E+00  4.18823567E+00  4.22890129E+00  4.23315030E+00  4.28185163E+00
  4.37354322E+00  4.50464526E+00  4.54769429E+00  4.56064773E+00  4.60451021E+00
  4.69657917E+00  4.81298179E+00  4.91623467E+00  4.91802050E+00  4.94429287E+00
  5.00926843E+00  5.01464563E+00  5.11746544E+00  5.13704725E+00  5.18175254E+00
  5.25353679E+00  5.26054192E+00  5.33307956E+00  5.34453328E+00  5.37366477E+00
  5.54913452E+00  5.65078079E+00  5.71470385E+00  5.89241784E+00  5.99330809E+00
  6.26420081E+00  6.30380050E+00  6.37573247E+00  6.38296712E+00  6.60055081E+00
  6.66427822E+00  6.67100359E+00  6.70108507E+00  6.73262437E+00  6.78614675E+00
  6.80058000E+00  6.86985216E+00  6.98890383E+00  7.02060139E+00  7.06386334E+00
  7.08057392E+00  7.13558613E+00  7.18296428E+00  7.19660602E+00  7.20181983E+00
  7.24988439E+00  7.25094742E+00  7.27680963E+00  7.35761820E+00  7.41169263E+00
  7.44570024E+00  7.44706379E+00  7.46271580E+00  7.58851495E+00  7.66994252E+00
  7.68690513E+00  7.80214430E+00  7.89357843E+00  7.98583927E+00  8.08963505E+00
  8.31239364E+00  8.50840832E+00  8.66909628E+00  1.37746148E+01  1.48880384E+01
  1.52185631E+01  1.58304686E+01
Alpha MO coefficients                      R   N=       42849
  6.03301765E-05  6.89641625E-06 -1.03952959E-03  1.90606135E-05 -5.05933115E-05
  4.01467231E-05  0.00000000E+00 -8.65160135E-05 -2.70130888E-04  0.00000000E+00
 -7.40834926E-06 -3.32975268E-04  0.00000000E+00  4.07731387E-05  0.00000000E+00
  0.00000000E+00 -2.48287074E-05  1.08923182E-05  2.25941263E-04  0.00000000E+00
  0.00000000E+00 -3.73376422E-05 -2.12280229E-04  2.92183051E-03 -1.00356955E-04
 -1.03321173E-04  3.60269209E-03  2.47026366E-03  1.00666826E-04 -5.42611645E-05
  0.00000000E+00 -7.24296272E-04  2.97494474E-04  0.00000000E+00 -2.02239004E-03
  1.18172567E-03  0.00000000E+00 -5.36723423E-04  5.63488966E-05  0.00000000E+00
  2.00437330E-05  0.00000000E+00  0.00000000E+00 -6.92312188E-06  4.37838302E-05
 -4.40175371E-04  0.00000000E+00  0.00000000E+00  4.09212661E-04 -6.70914813E-04
 -3.65874459E-04  0.00000000E+00  0.00000000E+00  5.43392104E-04 -7.55559494E-04
  0.00000000E+00  7.25718923E-05 -5.26027909E-05  0.00000000E+00  0.00000000E+00
 -2.50889069E-05  1.09617325E-04  0.00000000E+00  2.05056975E-04 -5.18805518E-05
  0.00000000E+00  0.00000000E+00 -1.52699277E-04  2.99027708E-04  9.76882633E-01
 -9.20560997E-03  4.34437393E-02  4.19657432E-04 -2.21876462E-03  3.85171434E-04
 -2.18385606E-03  0.00000000E+00 -2.29165836E-04  2.31246652E-03  0.00000000E+00
 -2.43950492E-03 -4.01552512E-04  0.00000000E+00 -2.42302684E-04  9.60225886E-05
  0.00000000E+00 -1.77956630E-06  0.00000000E+00  0.00000000E+00 -6.90731186E-06
  4.66685508E-05  8.41579078E-04  0.00000000E+00  0.00000000E+00 -4.65387650E-04
 -2.06297648E-04 -1.16669715E-04  0.00000000E+00  0.00000000E+00 -5.43719817E-04
  3.80241858E-04  0.00000000E+00 -1.03746808E-05 -7.92111710E-05  0.00000000E+00
  0.00000000E+00 -6.83917091E-06  4.74173847E-05  0.00000000E+00  9.28150333E-05
 -1.01976564E-05  0.00000000E+00  0.00000000E+00 -3.49248353E-04  3.95357743E-04
  1.14911737E-04  5.39700214E-04 -3.18668691E-04 -1.02139198E-03  2.91254421E-04
 -3.96367944E-05 -9.45542903E-05  0.00000000E+00  7.99733307E-04  1.22268863E-03
  0.00000000E+00 -7.78248309E-04 -6.42661864E-04  0.00000000E+00  1.95029410E-04
  2.13955219E-04  0.00000000E+00 -6.38452512E-05  0.00000000E+00  0.00000000E+00
  1.73950785E-05  1.15995719E-04 -4.15982342E-04  0.00000000E+00  0.00000000E+00
  1.29102970E-04  1.10561983E-03  3.46137117E-05  0.00000000E+00  0.00000000E+00
 -2.84712445E-04  1.46710464E-05  0.00000000E+00 -7.72382011E-05 -1.11713715E-04
  0.00000000E+00  0.00000000E+00 -8.71622729E-05  1.01196644E-04  0.00000000E+00
 -1.28431970E-04  5.16973652E-05  0.00000000E+00  0.00000000E+00  4.72076393E-05
  5.17866676E-04 -5.59096006E-04  6.41057617E-05 -6.46003326E-05  3.16394970E-04
 -1.17848754E-04 -2.53513065E-05 -4.11019969E-05  0.00000000E+00  1.49837706E-04
  2.75150863E-04  0.00000000E+00  4.72998009E-04  3.65301462E-04  0.00000000E+00
 -2.29377227E-04 -4.76467484E-05  0.00000000E+00 -1.46210145E-05  0.00000000E+00
  0.00000000E+00  1.99456682E-06  1.74723569E-05 -2.29354297E-06  0.00000000E+00
  0.00000000E+00 -1.63514173E-04 -1.83368867E-05 -3.01452163E-05  0.00000000E+00
  0.00000000E+00 -1.78432443E-04 -6.19689510E-05  0.00000000E+00 -3.47367897E-06
 -7.23914516E-06  0.00000000E+00  0.00000000E+00 -1.57556813E-05  1.21255835E-05
  0.00000000E+00  3.84885009E-05  5.93982721E-05  0.00000000E+00  0.00000000E+00
  1.65673780E-04 -1.05418489E-04  3.83394481E-05  9.83076108E-05 -6.73857497E-05
 -2.83555621E-05  2.49106812E-05  1.60683795E-05  0.00000000E+00  2.29982947E-04
  4.90100948E-05  0.00000000E+00  1.09432670E-04  1.86285214E-05  0.00000000E+00
  1.02841929E-05  0.00000000E+00  0.00000000E+00 -8.39332581E-06  2.11724365E-05
  1.84072884E-05  0.00000000E+00  0.00000000E+00 -8.09264791E-05  7.30343973E-05
 -4.50913354E-04  3.62841629E-05 -2.24754836E-05 -5.60834002E-04  1.36380442E-04
  7.62329638E-06  1.36664403E-05  0.00000000E+00 -1.05346313E-06 -4.47475984E-05
  0.00000000E+00  1.83521960E-04  1.78974712E-04  0.00000000E+00 -3.67903650E-05
  5.64709549E-05  0.00000000E+00 -2.58898559E-06  0.00000000E+00  0.00000000E+00
 -8.46093257E-06 -1.04733969E-05  2.79617330E-05  0.00000000E+00  0.00000000E+00
  5.49305266E-05  1.08448750E-04  6.98738502E-05  0.00000000E+00  0.00000000E+00
 -2.61319018E-05 -9.23255824E-05  0.00000000E+00  7.69526748E-06  9.84366113E-06
  0.00000000E+00  0.00000000E+00 -1.63697726E-06 -2.74321570E-05  0.00000000E+00
 -1.59233648E-05 -4.08738664E-05  0.00000000E+00  0.00000000E+00 -3.38481198E-06
 -1.78451771E-05  5.91699253E-04  2.84810169E-05 -2.62908057E-05  3.63736826E-04
 -3.51882440E-04  1.77651818E-05  2.65934912E-05  0.00000000E+00 -7.99316483E-05
 -1.62752495E-04  0.00000000E+00  7.91065520E-05 -2.60873708E-04  0.00000000E+00
 -1.70511952E-04  1.37325702E-04  0.00000000E+00 -4.46253841E-06  0.00000000E+00
  0.00000000E+00 -3.19252368E-05 -9.58474502E-06 -5.45452335E-05  0.00000000E+00
  0.00000000E+00  9.70445952E-05  1.32402938E-04 -7.42886027E-05  0.00000000E+00
  0.00000000E+00  2.98825128E-05  5.17920953E-05  0.00000000E+00  3.16789239E-06
  1.14128297E-06  0.00000000E+00  0.00000000E+00 -9.92302729E-06 -6.31388813E-06
  0.00000000E+00  4.83153039E-06 -2.31582603E-05  0.00000000E+00  0.00000000E+00
  9.48781272E-05 -1.65728510E-04  2.33693911E-04  1.34280849E-03 -1.42650765E-04
 -8.28960185E-04  8.79099878E-04  6.28867483E-05 -6.93311990E-05  0.00000000E+00
  5.37244589E-04 -2.12246991E-03  0.00000000E+00  7.65166151E-05  5.08045855E-04
  0.00000000E+00  1.83509432E-04 -3.14237502E-04  0.00000000E+00 -1.27083509E-04
  0.00000000E+00  0.00000000E+00 -2.09164895E-04 -1.56339964E-04 -4.54337578E-04
  0.00000000E+00  0.00000000E+00 -6.01911497E-04 -9.31806975E-04 -3.42872978E-05
  0.00000000E+00  0.00000000E+00  6.90186924E-05  1.16483932E-04  0.00000000E+00
  8.82920279E-06  3.86712965E-05  0.00000000E+00  0.00000000E+00 -2.08212184E-05
 -4.25184541E-06  0.00000000E+00 -1.36373608E-04  1.55564331E-04  0.00000000E+00
  0.00000000E+00 -3.09547225E-04 -3.70865606E-05  9.76639069E-01 -9.87860749E-03
  4.35907371E-02  3.71899714E-03 -9.01411558E-04 -4.25597998E-04  2.14109507E-03
  0.00000000E+00  4.86363578E-04 -2.51459005E-03  0.00000000E+00 -8.79347171E-05
  8.18095318E-04  0.00000000E+00  1.00769784E-04 -6.60751931E-05  0.00000000E+00
 -1.92883740E-04  0.00000000E+00  0.00000000E+00 -7.57074753E-05 -3.97228917E-05
  4.14485954E-04  0.00000000E+00  0.00000000E+00  8.74929563E-04  4.67260378E-04
 -2.00222342E-04  0.00000000E+00  0.00000000E+00 -1.41760352E-04 -3.55063199E-05
  0.00000000E+00 -4.61109336E-06  7.05242550E-05  0.00000000E+00  0.00000000E+00
 -2.72868389E-05  1.13337367E-05  0.00000000E+00 -8.78249808E-05  9.51581489E-05
  0.00000000E+00  0.00000000E+00 -1.63797094E-04  2.11952127E-04  3.70103792E-04
  2.00934028E-03  1.47570644E-03 -1.83141663E-05  5.48305850E-05  2.66711577E-04
  0.00000000E+00  3.70162117E-04  1.01664489E-03  0.00000000E+00 -1.49642422E-04
  2.53426194E-04  0.00000000E+00 -2.46553223E-05  0.00000000E+00  0.00000000E+00
  3.46098838E-05 -3.07994503E-05 -2.21549382E-04  0.00000000E+00  0.00000000E+00
 -3.32349662E-04  4.11618483E-04  9.76832328E-01 -9.19134959E-03  4.34702771E-02
  1.72316939E-04 -1.95425332E-03 -2.05685183E-03 -8.09736934E-04  0.00000000E+00
  2.09705674E-03  7.44927857E-04  0.00000000E+00 -4.24648979E-04  6.65973180E-04
  0.00000000E+00  2.32265056E-04 -3.02119412E-04  0.00000000E+00  2.94151781E-05
  0.00000000E+00  0.00000000E+00 -7.41218800E-05  6.63636295E-05  7.67120796E-04
  0.00000000E+00  0.00000000E+00 -2.12553991E-04  3.56911216E-04 -2.40750729E-04
  0.00000000E+00  0.00000000E+00  3.38394508E-04 -7.04170137E-07  0.00000000E+00
 -8.14213397E-05  2.83866937E-06  0.00000000E+00  0.00000000E+00  1.48496861E-05