 Entering Gaussian System, Link 0=g16
 Input=hoono_r4_1p187505.gjf
 Output=hoono_r4_1p187505.log
 Initial command:
 /sw/contrib/gaussian/g16/B01/g16/l1.exe "/scr/Gau-26591.inp" -scrdir="/scr/"
 Entering Link 1 = /sw/contrib/gaussian/g16/B01/g16/l1.exe PID=     26592.
  
 Copyright (c) 1988-2017, Gaussian, Inc.  All Rights Reserved.
  
 This is part of the Gaussian(R) 16 program.  It is based on
 the Gaussian(R) 09 system (copyright 2009, Gaussian, Inc.),
 the Gaussian(R) 03 system (copyright 2003, Gaussian, Inc.),
 the Gaussian(R) 98 system (copyright 1998, Gaussian, Inc.),
 the Gaussian(R) 94 system (copyright 1995, Gaussian, Inc.),
 the Gaussian 92(TM) system (copyright 1992, Gaussian, Inc.),
 the Gaussian 90(TM) system (copyright 1990, Gaussian, Inc.),
 the Gaussian 88(TM) system (copyright 1988, Gaussian, Inc.),
 the Gaussian 86(TM) system (copyright 1986, Carnegie Mellon
 University), and the Gaussian 82(TM) system (copyright 1983,
 Carnegie Mellon University). Gaussian is a federally registered
 trademark of Gaussian, Inc.
  
 This software contains proprietary and confidential information,
 including trade secrets, belonging to Gaussian, Inc.
  
 This software is provided under written license and may be
 used, copied, transmitted, or stored only in accord with that
 written license.
  
 The following legend is applicable only to US Government
 contracts under FAR:
  
                    RESTRICTED RIGHTS LEGEND
  
 Use, reproduction and disclosure by the US Government is
 subject to restrictions as set forth in subparagraphs (a)
 and (c) of the Commercial Computer Software - Restricted
 Rights clause in FAR 52.227-19.
  
 Gaussian, Inc.
 340 Quinnipiac St., Bldg. 40, Wallingford CT 06492
  
  
 ---------------------------------------------------------------
 Warning -- This program may not be used in any manner that
 competes with the business of Gaussian, Inc. or will provide
 assistance to any competitor of Gaussian, Inc.  The licensee
 of this program is prohibited from giving any competitor of
 Gaussian, Inc. access to this program.  By using this program,
 the user acknowledges that Gaussian, Inc. is engaged in the
 business of creating and licensing software in the field of
 computational chemistry and represents and warrants to the
 licensee that it is not a competitor of Gaussian, Inc. and that
 it will not use this program in any manner prohibited above.
 ---------------------------------------------------------------
  

 Cite this work as:
 Gaussian 16, Revision B.01,
 M. J. Frisch, G. W. Trucks, H. B. Schlegel, G. E. Scuseria, 
 M. A. Robb, J. R. Cheeseman, G. Scalmani, V. Barone, 
 G. A. Petersson, H. Nakatsuji, X. Li, M. Caricato, A. V. Marenich, 
 J. Bloino, B. G. Janesko, R. Gomperts, B. Mennucci, H. P. Hratchian, 
 J. V. Ortiz, A. F. Izmaylov, J. L. Sonnenberg, D. Williams-Young, 
 F. Ding, F. Lipparini, F. Egidi, J. Goings, B. Peng, A. Petrone, 
 T. Henderson, D. Ranasinghe, V. G. Zakrzewski, J. Gao, N. Rega, 
 G. Zheng, W. Liang, M. Hada, M. Ehara, K. Toyota, R. Fukuda, 
 J. Hasegawa, M. Ishida, T. Nakajima, Y. Honda, O. Kitao, H. Nakai, 
 T. Vreven, K. Throssell, J. A. Montgomery, Jr., J. E. Peralta, 
 F. Ogliaro, M. J. Bearpark, J. J. Heyd, E. N. Brothers, K. N. Kudin, 
 V. N. Staroverov, T. A. Keith, R. Kobayashi, J. Normand, 
 K. Raghavachari, A. P. Rendell, J. C. Burant, S. S. Iyengar, 
 J. Tomasi, M. Cossi, J. M. Millam, M. Klene, C. Adamo, R. Cammi, 
 J. W. Ochterski, R. L. Martin, K. Morokuma, O. Farkas, 
 J. B. Foresman, and D. J. Fox, Gaussian, Inc., Wallingford CT, 2016.
 
 ******************************************
 Gaussian 16:  ES64L-G16RevB.01 20-Dec-2017
                 6-Mar-2022 
 ******************************************
 %nproc=28
 Will use up to   28 processors via shared memory.
 %mem=120GB
 %chk=hoono_r4_1p187505.chk
 ---------------------------------------
 #p freq mp2/aug-cc-pvtz density=current
 ---------------------------------------
 1/10=4,30=1,38=1/1,3;
 2/12=2,17=6,18=5,40=1/2;
 3/5=16,6=1,7=10,11=9,25=1,30=1,71=2,140=1/1,2,3;
 4//1;
 5/5=2,38=5,98=1/2;
 8/6=3,8=1,10=1,19=11,30=-1/1;
 9/15=3,16=-3/6;
 11/6=1,8=1,15=11,17=12,24=-1,27=1,28=-2,29=300,32=6,42=3/1,2,10;
 10/6=2,21=1/2;
 8/6=4,8=1,10=1,19=11,30=-1/11,4;
 10/5=1,20=4/2;
 11/12=2,14=11,16=1,17=2,28=-2,42=3,76=2/2,10,12;
 6/7=2,8=2,9=2,10=2,22=-1/1;
 7/8=1,10=1,12=2,25=1,44=2/1,2,3,16;
 1/10=4,30=1/3;
 99//99;
 Leave Link    1 at Sun Mar  6 19:16:46 2022, MaxMem= 16106127360 cpu:               3.0 elap:               0.1
 (Enter /sw/contrib/gaussian/g16/B01/g16/l101.exe)
 -----
 title
 -----
 Symbolic Z-matrix:
 Charge =  0 Multiplicity = 1
 H
 O                    1    r1
 O                    2    r2       1    a1
 N                    3    r3       2    a2       1    d1       0
 O                    4    r4       3    a3       2    d2       0
       Variables:
  r1                    0.98538                  
  r2                    1.42674                  
  r3                    1.38111                  
  r4                    1.18751                  
  a1                  100.63551                  
  a2                  113.13777                  
  a3                  114.33392                  
  d1                    0.                       
  d2                    0.                       
 
 ITRead=  0  0  0  0  0
 MicOpt= -1 -1 -1 -1 -1
 NAtoms=      5 NQM=        5 NQMF=       0 NMMI=      0 NMMIF=      0
                NMic=       0 NMicF=      0.
                    Isotopes and Nuclear Properties:
 (Nuclear quadrupole moments (NQMom) in fm**2, nuclear magnetic moments (NMagM)
  in nuclear magnetons)

  Atom         1           2           3           4           5
 IAtWgt=           1          16          16          14          16
 AtmWgt=   1.0078250  15.9949146  15.9949146  14.0030740  15.9949146
 NucSpn=           1           0           0           2           0
 AtZEff=  -0.0000000  -0.0000000  -0.0000000  -0.0000000  -0.0000000
 NQMom=    0.0000000   0.0000000   0.0000000   2.0440000   0.0000000
 NMagM=    2.7928460   0.0000000   0.0000000   0.4037610   0.0000000
 AtZNuc=   1.0000000   8.0000000   8.0000000   7.0000000   8.0000000
 Leave Link  101 at Sun Mar  6 19:16:46 2022, MaxMem= 16106127360 cpu:               2.6 elap:               0.1
 (Enter /sw/contrib/gaussian/g16/B01/g16/l103.exe)

 GradGradGradGradGradGradGradGradGradGradGradGradGradGradGradGradGradGrad
 Berny optimization.
 Initialization pass.
                       ----------------------------
                       !    Initial Parameters    !
                       ! (Angstroms and Degrees)  !
 ----------------------                            ----------------------
 !      Name          Value   Derivative information (Atomic Units)     !
 ------------------------------------------------------------------------
 !       r1          0.9854   calculate D2E/DX2 analytically            !
 !       r2          1.4267   calculate D2E/DX2 analytically            !
 !       r3          1.3811   calculate D2E/DX2 analytically            !
 !       r4          1.1875   calculate D2E/DX2 analytically            !
 !       a1        100.6355   calculate D2E/DX2 analytically            !
 !       a2        113.1378   calculate D2E/DX2 analytically            !
 !       a3        114.3339   calculate D2E/DX2 analytically            !
 !       d1          0.0      calculate D2E/DX2 analytically            !
 !       d2          0.0      calculate D2E/DX2 analytically            !
 ------------------------------------------------------------------------
 Trust Radius=3.00D-01 FncErr=1.00D-07 GrdErr=1.00D-07 EigMax=2.50D+02 EigMin=1.00D-04
 Number of steps in this run=      2 maximum allowed number of steps=      2.
 GradGradGradGradGradGradGradGradGradGradGradGradGradGradGradGradGradGrad

 Leave Link  103 at Sun Mar  6 19:16:46 2022, MaxMem= 16106127360 cpu:               1.5 elap:               0.1
 (Enter /sw/contrib/gaussian/g16/B01/g16/l202.exe)
                          Input orientation:                          
 ---------------------------------------------------------------------
 Center     Atomic      Atomic             Coordinates (Angstroms)
 Number     Number       Type             X           Y           Z
 ---------------------------------------------------------------------
      1          1           0        0.000000    0.000000    0.000000
      2          8           0        0.000000    0.000000    0.985377
      3          8           0        1.402227    0.000000    1.248696
      4          7           0        2.169996    0.000000    0.100659
      5          8           0        1.542599    0.000000   -0.907578
 ---------------------------------------------------------------------
                    Distance matrix (angstroms):
                    1          2          3          4          5
     1  H    0.000000
     2  O    0.985377   0.000000
     3  O    1.877627   1.426737   0.000000
     4  N    2.172329   2.343418   1.381108   0.000000
     5  O    1.789780   2.441903   2.160838   1.187505   0.000000
 Stoichiometry    HNO3
 Framework group  CS[SG(HNO3)]
 Deg. of freedom     7
 Full point group                 CS      NOp   2
 Largest Abelian subgroup         CS      NOp   2
 Largest concise Abelian subgroup C1      NOp   1
                         Standard orientation:                         
 ---------------------------------------------------------------------
 Center     Atomic      Atomic             Coordinates (Angstroms)
 Number     Number       Type             X           Y           Z
 ---------------------------------------------------------------------
      1          1           0        1.110212   -0.598961    0.000000
      2          8           0        1.316201    0.364645    0.000000
      3          8           0        0.000000    0.915275    0.000000
      4          7           0       -0.990797   -0.046899    0.000000
      5          8           0       -0.588030   -1.164014    0.000000
 ---------------------------------------------------------------------
 Rotational constants (GHZ):          21.4705602           8.1177601           5.8905965
 Leave Link  202 at Sun Mar  6 19:16:46 2022, MaxMem= 16106127360 cpu:               0.3 elap:               0.0
 (Enter /sw/contrib/gaussian/g16/B01/g16/l301.exe)
 Standard basis: Aug-CC-pVTZ (5D, 7F)
 Ernie: Thresh=  0.10000D-02 Tol=  0.10000D-05 Strict=F.
 Ernie:  12 primitive shells out of 131 were deleted.
 There are   166 symmetry adapted cartesian basis functions of A'  symmetry.
 There are    79 symmetry adapted cartesian basis functions of A"  symmetry.
 There are   136 symmetry adapted basis functions of A'  symmetry.
 There are    71 symmetry adapted basis functions of A"  symmetry.
   207 basis functions,   315 primitive gaussians,   245 cartesian basis functions
    16 alpha electrons       16 beta electrons
       nuclear repulsion energy       122.9585500615 Hartrees.
 IExCor=    0 DFT=F Ex=HF Corr=None ExCW=0 ScaHFX=  1.000000
 ScaDFX=  1.000000  1.000000  1.000000  1.000000 ScalE2=  1.000000  1.000000
 IRadAn=      5 IRanWt=     -1 IRanGd=            0 ICorTp=0 IEmpDi=  4
 NAtoms=    5 NActive=    5 NUniq=    5 SFac= 1.00D+00 NAtFMM=   60 NAOKFM=F Big=F
 Integral buffers will be    131072 words long.
 Raffenetti 1 integral format.
 Two-electron integral symmetry is turned on.
 Leave Link  301 at Sun Mar  6 19:16:47 2022, MaxMem= 16106127360 cpu:               1.7 elap:               0.1
 (Enter /sw/contrib/gaussian/g16/B01/g16/l302.exe)
 NPDir=0 NMtPBC=     1 NCelOv=     1 NCel=       1 NClECP=     1 NCelD=      1
         NCelK=      1 NCelE2=     1 NClLst=     1 CellRange=     0.0.
 One-electron integrals computed using PRISM.
 One-electron integral symmetry used in STVInt
 NBasis=   207 RedAO= T EigKep=  1.30D-04  NBF=   136    71
 NBsUse=   207 1.00D-06 EigRej= -1.00D+00 NBFU=   136    71
 Leave Link  302 at Sun Mar  6 19:16:47 2022, MaxMem= 16106127360 cpu:               5.0 elap:               0.2
 (Enter /sw/contrib/gaussian/g16/B01/g16/l303.exe)
 DipDrv:  MaxL=1.
 Leave Link  303 at Sun Mar  6 19:16:47 2022, MaxMem= 16106127360 cpu:               0.9 elap:               0.1
 (Enter /sw/contrib/gaussian/g16/B01/g16/l401.exe)
 ExpMin= 2.53D-02 ExpMax= 1.53D+04 ExpMxC= 5.22D+02 IAcc=3 IRadAn=         5 AccDes= 0.00D+00
 Harris functional with IExCor=  205 and IRadAn=       5 diagonalized for initial guess.
 HarFok:  IExCor=  205 AccDes= 0.00D+00 IRadAn=         5 IDoV= 1 UseB2=F ITyADJ=14
 ICtDFT=  3500011 ScaDFX=  1.000000  1.000000  1.000000  1.000000
 FoFCou: FMM=F IPFlag=           0 FMFlag=      100000 FMFlg1=           0
         NFxFlg=           0 DoJE=T BraDBF=F KetDBF=T FulRan=T
         wScrn=  0.000000 ICntrl=       500 IOpCl=  0 I1Cent=   200000004 NGrid=           0
         NMat0=    1 NMatS0=      1 NMatT0=    0 NMatD0=    1 NMtDS0=    0 NMtDT0=    0
 Petite list used in FoFCou.
 Harris En= -279.644863306322    
 JPrj=0 DoOrth=F DoCkMO=F.
 Initial guess orbital symmetries:
       Occupied  (A') (A') (A') (A') (A') (A') (A') (A') (A') (A')
                 (A") (A') (A") (A') (A") (A')
       Virtual   (A") (A') (A') (A') (A') (A") (A') (A') (A') (A')
                 (A") (A') (A") (A') (A') (A") (A') (A') (A") (A')
                 (A') (A') (A') (A') (A") (A') (A') (A') (A") (A')
                 (A') (A") (A") (A') (A') (A") (A') (A") (A') (A")
                 (A') (A") (A') (A") (A') (A') (A') (A") (A') (A')
                 (A') (A") (A') (A") (A') (A") (A') (A') (A') (A")
                 (A') (A') (A") (A') (A') (A') (A") (A") (A') (A')
                 (A") (A') (A") (A") (A') (A') (A") (A') (A') (A')
                 (A") (A') (A') (A") (A') (A") (A') (A") (A') (A')
                 (A') (A") (A') (A") (A') (A') (A") (A') (A") (A')
                 (A") (A') (A') (A") (A") (A') (A') (A') (A") (A')
                 (A") (A') (A') (A') (A") (A') (A') (A') (A") (A')
                 (A") (A') (A') (A") (A") (A") (A") (A') (A') (A')
                 (A') (A') (A') (A") (A') (A") (A') (A") (A') (A')
                 (A") (A") (A') (A') (A') (A") (A') (A') (A') (A")
                 (A') (A') (A') (A") (A') (A") (A") (A') (A') (A")
                 (A') (A") (A") (A') (A") (A') (A') (A") (A") (A')
                 (A") (A") (A") (A') (A') (A") (A') (A') (A") (A')
                 (A') (A') (A') (A') (A') (A') (A') (A') (A') (A')
                 (A')
 The electronic state of the initial guess is 1-A'.
 Leave Link  401 at Sun Mar  6 19:16:47 2022, MaxMem= 16106127360 cpu:               6.9 elap:               0.3
 (Enter /sw/contrib/gaussian/g16/B01/g16/l502.exe)
 Keep R1 ints in memory in symmetry-blocked form, NReq=348887737.
 FoFCou: FMM=F IPFlag=           0 FMFlag=           0 FMFlg1=           0
         NFxFlg=           0 DoJE=F BraDBF=F KetDBF=F FulRan=T
         wScrn=  0.000000 ICntrl=       600 IOpCl=  0 I1Cent=           0 NGrid=           0
         NMat0=    1 NMatS0=  21528 NMatT0=    0 NMatD0=    1 NMtDS0=    0 NMtDT0=    0
 Petite list used in FoFCou.
 Closed shell SCF:
 Using DIIS extrapolation, IDIIS=  1040.
 NGot= 16106127360 LenX= 15988850015 LenY= 15988789549
 Requested convergence on RMS density matrix=1.00D-08 within 128 cycles.
 Requested convergence on MAX density matrix=1.00D-06.
 Requested convergence on             energy=1.00D-06.
 No special actions if energy rises.

 Cycle   1  Pass 1  IDiag  1:
 E= -279.366695836300    
 DIIS: error= 2.73D-02 at cycle   1 NSaved=   1.
 NSaved= 1 IEnMin= 1 EnMin= -279.366695836300     IErMin= 1 ErrMin= 2.73D-02
 ErrMax= 2.73D-02  0.00D+00 EMaxC= 1.00D-01 BMatC= 4.49D-01 BMatP= 4.49D-01
 IDIUse=3 WtCom= 7.27D-01 WtEn= 2.73D-01
 Coeff-Com:  0.100D+01
 Coeff-En:   0.100D+01
 Coeff:      0.100D+01
 Gap=     0.501 Goal=   None    Shift=    0.000
 GapD=    0.501 DampG=2.000 DampE=0.500 DampFc=1.0000 IDamp=-1.
 RMSDP=1.67D-03 MaxDP=8.76D-02              OVMax= 1.20D-01

 Cycle   2  Pass 1  IDiag  1:
 E= -279.449544865099     Delta-E=       -0.082849028799 Rises=F Damp=F
 DIIS: error= 1.88D-02 at cycle   2 NSaved=   2.
 NSaved= 2 IEnMin= 2 EnMin= -279.449544865099     IErMin= 2 ErrMin= 1.88D-02
 ErrMax= 1.88D-02  0.00D+00 EMaxC= 1.00D-01 BMatC= 8.30D-02 BMatP= 4.49D-01
 IDIUse=3 WtCom= 8.12D-01 WtEn= 1.88D-01
 Coeff-Com:  0.214D+00 0.786D+00
 Coeff-En:   0.568D-01 0.943D+00
 Coeff:      0.184D+00 0.816D+00
 Gap=     0.561 Goal=   None    Shift=    0.000
 RMSDP=9.57D-04 MaxDP=3.70D-02 DE=-8.28D-02 OVMax= 8.86D-02

 Cycle   3  Pass 1  IDiag  1:
 E= -279.485527251354     Delta-E=       -0.035982386255 Rises=F Damp=F
 DIIS: error= 1.10D-02 at cycle   3 NSaved=   3.
 NSaved= 3 IEnMin= 3 EnMin= -279.485527251354     IErMin= 3 ErrMin= 1.10D-02
 ErrMax= 1.10D-02  0.00D+00 EMaxC= 1.00D-01 BMatC= 3.06D-02 BMatP= 8.30D-02
 IDIUse=3 WtCom= 8.90D-01 WtEn= 1.10D-01
 Coeff-Com: -0.346D-01 0.368D+00 0.667D+00
 Coeff-En:   0.000D+00 0.222D+00 0.778D+00
 Coeff:     -0.308D-01 0.351D+00 0.679D+00
 Gap=     0.541 Goal=   None    Shift=    0.000
 RMSDP=4.07D-04 MaxDP=1.55D-02 DE=-3.60D-02 OVMax= 3.79D-02

 Cycle   4  Pass 1  IDiag  1:
 E= -279.506361685063     Delta-E=       -0.020834433708 Rises=F Damp=F
 DIIS: error= 1.64D-03 at cycle   4 NSaved=   4.
 NSaved= 4 IEnMin= 4 EnMin= -279.506361685063     IErMin= 4 ErrMin= 1.64D-03
 ErrMax= 1.64D-03  0.00D+00 EMaxC= 1.00D-01 BMatC= 5.83D-04 BMatP= 3.06D-02
 IDIUse=3 WtCom= 9.84D-01 WtEn= 1.64D-02
 Coeff-Com: -0.118D-01 0.476D-01 0.153D+00 0.812D+00
 Coeff-En:   0.000D+00 0.000D+00 0.000D+00 0.100D+01
 Coeff:     -0.116D-01 0.468D-01 0.150D+00 0.815D+00
 Gap=     0.528 Goal=   None    Shift=    0.000
 RMSDP=9.78D-05 MaxDP=2.30D-03 DE=-2.08D-02 OVMax= 1.16D-02

 Cycle   5  Pass 1  IDiag  1:
 E= -279.507152191415     Delta-E=       -0.000790506353 Rises=F Damp=F
 DIIS: error= 1.08D-03 at cycle   5 NSaved=   5.
 NSaved= 5 IEnMin= 5 EnMin= -279.507152191415     IErMin= 5 ErrMin= 1.08D-03
 ErrMax= 1.08D-03  0.00D+00 EMaxC= 1.00D-01 BMatC= 1.00D-04 BMatP= 5.83D-04
 IDIUse=3 WtCom= 9.89D-01 WtEn= 1.08D-02
 Coeff-Com:  0.531D-02-0.661D-01-0.110D+00 0.604D-01 0.111D+01
 Coeff-En:   0.000D+00 0.000D+00 0.000D+00 0.000D+00 0.100D+01
 Coeff:      0.526D-02-0.654D-01-0.108D+00 0.597D-01 0.111D+01
 Gap=     0.531 Goal=   None    Shift=    0.000
 RMSDP=7.88D-05 MaxDP=2.09D-03 DE=-7.91D-04 OVMax= 1.27D-02

 Cycle   6  Pass 1  IDiag  1:
 E= -279.507505391505     Delta-E=       -0.000353200090 Rises=F Damp=F
 DIIS: error= 3.31D-04 at cycle   6 NSaved=   6.
 NSaved= 6 IEnMin= 6 EnMin= -279.507505391505     IErMin= 6 ErrMin= 3.31D-04
 ErrMax= 3.31D-04  0.00D+00 EMaxC= 1.00D-01 BMatC= 2.35D-05 BMatP= 1.00D-04
 IDIUse=3 WtCom= 9.97D-01 WtEn= 3.31D-03
 Coeff-Com:  0.187D-02-0.731D-02-0.180D-01-0.183D+00 0.160D-01 0.119D+01
 Coeff-En:   0.000D+00 0.000D+00 0.000D+00 0.000D+00 0.000D+00 0.100D+01
 Coeff:      0.187D-02-0.729D-02-0.179D-01-0.182D+00 0.159D-01 0.119D+01
 Gap=     0.532 Goal=   None    Shift=    0.000
 RMSDP=4.61D-05 MaxDP=1.06D-03 DE=-3.53D-04 OVMax= 6.00D-03

 Cycle   7  Pass 1  IDiag  1:
 E= -279.507588952021     Delta-E=       -0.000083560516 Rises=F Damp=F
 DIIS: error= 1.29D-04 at cycle   7 NSaved=   7.
 NSaved= 7 IEnMin= 7 EnMin= -279.507588952021     IErMin= 7 ErrMin= 1.29D-04
 ErrMax= 1.29D-04  0.00D+00 EMaxC= 1.00D-01 BMatC= 3.47D-06 BMatP= 2.35D-05
 IDIUse=3 WtCom= 9.99D-01 WtEn= 1.29D-03
 Coeff-Com: -0.109D-02 0.115D-01 0.249D-01 0.179D-01-0.183D+00-0.157D+00
 Coeff-Com:  0.129D+01
 Coeff-En:   0.000D+00 0.000D+00 0.000D+00 0.000D+00 0.000D+00 0.000D+00
 Coeff-En:   0.100D+01
 Coeff:     -0.108D-02 0.115D-01 0.249D-01 0.179D-01-0.183D+00-0.157D+00
 Coeff:      0.129D+01
 Gap=     0.532 Goal=   None    Shift=    0.000
 RMSDP=1.74D-05 MaxDP=5.01D-04 DE=-8.36D-05 OVMax= 2.29D-03

 Cycle   8  Pass 1  IDiag  1:
 E= -279.507600574551     Delta-E=       -0.000011622531 Rises=F Damp=F
 DIIS: error= 4.52D-05 at cycle   8 NSaved=   8.
 NSaved= 8 IEnMin= 8 EnMin= -279.507600574551     IErMin= 8 ErrMin= 4.52D-05
 ErrMax= 4.52D-05  0.00D+00 EMaxC= 1.00D-01 BMatC= 5.56D-07 BMatP= 3.47D-06
 IDIUse=1 WtCom= 1.00D+00 WtEn= 0.00D+00
 Coeff-Com: -0.546D-03 0.408D-02 0.952D-02 0.247D-01-0.570D-01-0.188D+00
 Coeff-Com:  0.349D+00 0.858D+00
 Coeff:     -0.546D-03 0.408D-02 0.952D-02 0.247D-01-0.570D-01-0.188D+00
 Coeff:      0.349D+00 0.858D+00
 Gap=     0.532 Goal=   None    Shift=    0.000
 RMSDP=5.21D-06 MaxDP=1.46D-04 DE=-1.16D-05 OVMax= 6.14D-04

 Cycle   9  Pass 1  IDiag  1:
 E= -279.507601842873     Delta-E=       -0.000001268322 Rises=F Damp=F
 DIIS: error= 2.37D-05 at cycle   9 NSaved=   9.
 NSaved= 9 IEnMin= 9 EnMin= -279.507601842873     IErMin= 9 ErrMin= 2.37D-05
 ErrMax= 2.37D-05  0.00D+00 EMaxC= 1.00D-01 BMatC= 1.09D-07 BMatP= 5.56D-07
 IDIUse=1 WtCom= 1.00D+00 WtEn= 0.00D+00
 Coeff-Com:  0.233D-03-0.253D-02-0.521D-02-0.550D-02 0.461D-01 0.480D-01
 Coeff-Com: -0.334D+00 0.419D-01 0.121D+01
 Coeff:      0.233D-03-0.253D-02-0.521D-02-0.550D-02 0.461D-01 0.480D-01
 Coeff:     -0.334D+00 0.419D-01 0.121D+01
 Gap=     0.532 Goal=   None    Shift=    0.000
 RMSDP=2.34D-06 MaxDP=6.30D-05 DE=-1.27D-06 OVMax= 2.45D-04

 Cycle  10  Pass 1  IDiag  1:
 E= -279.507602082263     Delta-E=       -0.000000239390 Rises=F Damp=F
 DIIS: error= 5.41D-06 at cycle  10 NSaved=  10.
 NSaved=10 IEnMin=10 EnMin= -279.507602082263     IErMin=10 ErrMin= 5.41D-06
 ErrMax= 5.41D-06  0.00D+00 EMaxC= 1.00D-01 BMatC= 7.34D-09 BMatP= 1.09D-07
 IDIUse=1 WtCom= 1.00D+00 WtEn= 0.00D+00
 Coeff-Com: -0.356D-04 0.474D-03 0.114D-02-0.174D-02-0.105D-01 0.503D-02
 Coeff-Com:  0.701D-01-0.550D-01-0.425D+00 0.142D+01
 Coeff:     -0.356D-04 0.474D-03 0.114D-02-0.174D-02-0.105D-01 0.503D-02
 Coeff:      0.701D-01-0.550D-01-0.425D+00 0.142D+01
 Gap=     0.532 Goal=   None    Shift=    0.000
 RMSDP=6.59D-07 MaxDP=2.44D-05 DE=-2.39D-07 OVMax= 6.95D-05

 Cycle  11  Pass 1  IDiag  1:
 E= -279.507602104062     Delta-E=       -0.000000021798 Rises=F Damp=F
 DIIS: error= 2.14D-06 at cycle  11 NSaved=  11.
 NSaved=11 IEnMin=11 EnMin= -279.507602104062     IErMin=11 ErrMin= 2.14D-06
 ErrMax= 2.14D-06  0.00D+00 EMaxC= 1.00D-01 BMatC= 7.23D-10 BMatP= 7.34D-09
 IDIUse=1 WtCom= 1.00D+00 WtEn= 0.00D+00
 Coeff-Com: -0.145D-04 0.144D-03 0.287D-03 0.908D-03-0.170D-02-0.710D-02
 Coeff-Com:  0.158D-01 0.208D-01-0.321D-01-0.372D+00 0.138D+01
 Coeff:     -0.145D-04 0.144D-03 0.287D-03 0.908D-03-0.170D-02-0.710D-02
 Coeff:      0.158D-01 0.208D-01-0.321D-01-0.372D+00 0.138D+01
 Gap=     0.532 Goal=   None    Shift=    0.000
 RMSDP=2.28D-07 MaxDP=8.33D-06 DE=-2.18D-08 OVMax= 2.63D-05

 Cycle  12  Pass 1  IDiag  1:
 E= -279.507602106662     Delta-E=       -0.000000002600 Rises=F Damp=F
 DIIS: error= 6.05D-07 at cycle  12 NSaved=  12.
 NSaved=12 IEnMin=12 EnMin= -279.507602106662     IErMin=12 ErrMin= 6.05D-07
 ErrMax= 6.05D-07  0.00D+00 EMaxC= 1.00D-01 BMatC= 7.11D-11 BMatP= 7.23D-10
 IDIUse=1 WtCom= 1.00D+00 WtEn= 0.00D+00
 Coeff-Com:  0.300D-05-0.477D-04-0.995D-04 0.593D-04 0.109D-02-0.279D-03
 Coeff-Com: -0.737D-02 0.497D-02 0.377D-01-0.818D-01-0.243D+00 0.129D+01
 Coeff:      0.300D-05-0.477D-04-0.995D-04 0.593D-04 0.109D-02-0.279D-03
 Coeff:     -0.737D-02 0.497D-02 0.377D-01-0.818D-01-0.243D+00 0.129D+01
 Gap=     0.532 Goal=   None    Shift=    0.000
 RMSDP=7.75D-08 MaxDP=2.46D-06 DE=-2.60D-09 OVMax= 8.73D-06

 Cycle  13  Pass 1  IDiag  1:
 E= -279.507602106911     Delta-E=       -0.000000000250 Rises=F Damp=F
 DIIS: error= 1.40D-07 at cycle  13 NSaved=  13.
 NSaved=13 IEnMin=13 EnMin= -279.507602106911     IErMin=13 ErrMin= 1.40D-07
 ErrMax= 1.40D-07  0.00D+00 EMaxC= 1.00D-01 BMatC= 5.34D-12 BMatP= 7.11D-11
 IDIUse=1 WtCom= 1.00D+00 WtEn= 0.00D+00
 Coeff-Com:  0.980D-06-0.843D-05-0.102D-04-0.105D-03-0.188D-04 0.832D-03
 Coeff-Com: -0.531D-03-0.247D-02-0.379D-02 0.536D-01-0.109D+00-0.177D+00
 Coeff-Com:  0.124D+01
 Coeff:      0.980D-06-0.843D-05-0.102D-04-0.105D-03-0.188D-04 0.832D-03
 Coeff:     -0.531D-03-0.247D-02-0.379D-02 0.536D-01-0.109D+00-0.177D+00
 Coeff:      0.124D+01
 Gap=     0.532 Goal=   None    Shift=    0.000
 RMSDP=1.95D-08 MaxDP=5.54D-07 DE=-2.50D-10 OVMax= 1.77D-06

 Cycle  14  Pass 1  IDiag  1:
 E= -279.507602106927     Delta-E=       -0.000000000015 Rises=F Damp=F
 DIIS: error= 3.55D-08 at cycle  14 NSaved=  14.
 NSaved=14 IEnMin=14 EnMin= -279.507602106927     IErMin=14 ErrMin= 3.55D-08
 ErrMax= 3.55D-08  0.00D+00 EMaxC= 1.00D-01 BMatC= 3.86D-13 BMatP= 5.34D-12
 IDIUse=1 WtCom= 1.00D+00 WtEn= 0.00D+00
 Coeff-Com: -0.312D-06 0.444D-05 0.857D-05-0.131D-06-0.104D-03 0.277D-04
 Coeff-Com:  0.613D-03-0.248D-03-0.321D-02 0.624D-02 0.174D-01-0.860D-01
 Coeff-Com: -0.980D-02 0.108D+01
 Coeff:     -0.312D-06 0.444D-05 0.857D-05-0.131D-06-0.104D-03 0.277D-04
 Coeff:      0.613D-03-0.248D-03-0.321D-02 0.624D-02 0.174D-01-0.860D-01
 Coeff:     -0.980D-02 0.108D+01
 Gap=     0.532 Goal=   None    Shift=    0.000
 RMSDP=3.73D-09 MaxDP=9.52D-08 DE=-1.53D-11 OVMax= 3.95D-07

 SCF Done:  E(RHF) =  -279.507602107     A.U. after   14 cycles
            NFock= 14  Conv=0.37D-08     -V/T= 2.0021
 KE= 2.789180110596D+02 PE=-9.068094280684D+02 EE= 2.254252648403D+02
 Leave Link  502 at Sun Mar  6 19:16:51 2022, MaxMem= 16106127360 cpu:              55.1 elap:               3.7
 (Enter /sw/contrib/gaussian/g16/B01/g16/l801.exe)
 ExpMin= 2.53D-02 ExpMax= 1.53D+04 ExpMxC= 5.22D+02 IAcc=3 IRadAn=         5 AccDes= 0.00D+00
 HarFok:  IExCor=  205 AccDes= 0.00D+00 IRadAn=         5 IDoV=-2 UseB2=F ITyADJ=14
 ICtDFT= 12500011 ScaDFX=  1.000000  1.000000  1.000000  1.000000
 DSYEVD-2 returned Info=          93 IAlg= 4 N=    46 NDim=    46 NE2=   350130240 trying  DSYEV.
 Largest valence mixing into a core orbital is  2.07D-04
 Largest core mixing into a valence orbital is  3.08D-05
 Range of M.O.s used for correlation:     5   207
 NBasis=   207 NAE=    16 NBE=    16 NFC=     4 NFV=     0
 NROrb=    203 NOA=    12 NOB=    12 NVA=   191 NVB=   191

 **** Warning!!: The largest alpha MO coefficient is  0.15852647D+02

 Leave Link  801 at Sun Mar  6 19:16:51 2022, MaxMem= 16106127360 cpu:               2.1 elap:               0.1
 (Enter /sw/contrib/gaussian/g16/B01/g16/l906.exe)
 Frozen-core derivative calculation, NFC=   4 NFV=   0.
 FulOut=F Deriv=T AODrv=T NAtomX=     5
   MMem=           0  MDisk=          12 MDiskD=          12
  W3Min=      811440 MinDsk=     2425030 NBas6D=         245
 NBas2D=       30762    NTT=       30135    LW2=     7400000
    MDV= 16105571518 MDiskM=      328644 NBas2p=       30759
 Disk-based method using ON**2 memory for 12 occupieds at a time.
 Permanent disk used for amplitudes=    11516536 words.
 Estimated scratch disk usage=   321863743 words.
 IMap=   1   2   3   4   5   6   7   8   9  10  11  12  13  14  15  16
 Actual    scratch disk usage=   310892607 words.
 JobTyp=1 Pass  1:  I=   5 to  16 NPSUse= 28 ParTrn=T ParDer=T DoDerP=T.
 (rs|ai) integrals will be sorted in core.
 Spin components of T(2) and E(2):
     alpha-alpha T2 =       0.3464150689D-01 E2=     -0.1243830263D+00
     alpha-beta  T2 =       0.1836893276D+00 E2=     -0.6987983856D+00
     beta-beta   T2 =       0.3464150689D-01 E2=     -0.1243830263D+00
 The integrals were generated   1 times.
 ANorm=    0.1119362471D+01
 E2 =    -0.9475644383D+00 EUMP2 =    -0.28045516654522D+03
 Leave Link  906 at Sun Mar  6 19:18:28 2022, MaxMem= 16106127360 cpu:            2718.0 elap:              97.2
 (Enter /sw/contrib/gaussian/g16/B01/g16/l1101.exe)
 Using compressed Sx but separate Hx and Fx, NAtomX=     5.
 Will process      6 centers per pass.
 Leave Link 1101 at Sun Mar  6 19:18:28 2022, MaxMem= 16106127360 cpu:               5.1 elap:               0.2
 (Enter /sw/contrib/gaussian/g16/B01/g16/l1102.exe)
 Leave Link 1102 at Sun Mar  6 19:18:28 2022, MaxMem= 16106127360 cpu:               1.0 elap:               0.1
 (Enter /sw/contrib/gaussian/g16/B01/g16/l1110.exe)
 Forming Gx(P) for the SCF density, NAtomX=     5.
 Integral derivatives from FoFJK, PRISM(SPDF).
 Do as many integral derivatives as possible in FoFJK.
 G2DrvN: MDV=   16106126844.
 G2DrvN: will do     6 centers at a time, making    1 passes.
 Calling FoFCou, ICntrl=  3107 FMM=F I1Cent=   0 AccDes= 0.00D+00.
 FoFJK:  IHMeth= 1 ICntrl=    3107 DoSepK=F KAlg= 0 I1Cent=           0 FoldK=F
 IRaf=         0 NMat=       1 IRICut=       1 DoRegI=T DoRafI=F ISym2E= 1 IDoP0=0 IntGTp=1.
 FoFCou: FMM=F IPFlag=           0 FMFlag=      100000 FMFlg1=           0
         NFxFlg=           0 DoJE=F BraDBF=F KetDBF=F FulRan=T
         wScrn=  0.000000 ICntrl=      3107 IOpCl=  0 I1Cent=           0 NGrid=           0
         NMat0=    1 NMatS0=      1 NMatT0=    0 NMatD0=    1 NMtDS0=    0 NMtDT0=    0
 Petite list used in FoFCou.
 End of G2Drv F.D. properties file   721 does not exist.
 End of G2Drv F.D. properties file   722 does not exist.
 End of G2Drv F.D. properties file   788 does not exist.
 Leave Link 1110 at Sun Mar  6 19:18:32 2022, MaxMem= 16106127360 cpu:              87.2 elap:               3.1
 (Enter /sw/contrib/gaussian/g16/B01/g16/l1002.exe)
 Minotr:  Closed shell wavefunction.
          IDoAtm=11111
          Frozen-core window.
          Direct CPHF calculation.
          Differentiating once with respect to electric field.
                with respect to dipole field.
          Differentiating once with respect to nuclear coordinates.
          Requested convergence is 1.0D-08 RMS, and 1.0D-07 maximum.
          Secondary convergence is 1.0D-12 RMS, and 1.0D-12 maximum.
          NewPWx=T KeepS1=T KeepF1=T KeepIn=T MapXYZ=F SortEE=F KeepMc=T.
 Keep R1 ints in memory in symmetry-blocked form, NReq=348888983.
 FoFCou: FMM=F IPFlag=           0 FMFlag=           0 FMFlg1=           0
         NFxFlg=           0 DoJE=F BraDBF=F KetDBF=F FulRan=T
         wScrn=  0.000000 ICntrl=       600 IOpCl=  0 I1Cent=           0 NGrid=           0
         NMat0=    1 NMatS0=  21528 NMatT0=    0 NMatD0=    1 NMtDS0=    0 NMtDT0=    0
 Petite list used in FoFCou.
          MDV=   16106127360 using IRadAn=       1.
          Solving linear equations simultaneously, MaxMat=       0.
          There are    18 degrees of freedom in the 1st order CPHF.  IDoFFX=6 NUNeed=    18.
     15 vectors produced by pass  0 Test12= 1.70D-14 5.56D-09 XBig12= 7.82D+00 1.20D+00.
 AX will form    15 AO Fock derivatives at one time.
     15 vectors produced by pass  1 Test12= 1.70D-14 5.56D-09 XBig12= 1.33D+00 2.21D-01.
     15 vectors produced by pass  2 Test12= 1.70D-14 5.56D-09 XBig12= 6.59D-02 5.70D-02.
     15 vectors produced by pass  3 Test12= 1.70D-14 5.56D-09 XBig12= 1.91D-03 1.08D-02.
     15 vectors produced by pass  4 Test12= 1.70D-14 5.56D-09 XBig12= 4.21D-05 1.21D-03.
     15 vectors produced by pass  5 Test12= 1.70D-14 5.56D-09 XBig12= 5.81D-07 1.22D-04.
     15 vectors produced by pass  6 Test12= 1.70D-14 5.56D-09 XBig12= 4.50D-09 1.28D-05.
     14 vectors produced by pass  7 Test12= 1.70D-14 5.56D-09 XBig12= 3.40D-11 7.77D-07.
      3 vectors produced by pass  8 Test12= 1.70D-14 5.56D-09 XBig12= 2.37D-13 6.08D-08.
      1 vectors produced by pass  9 Test12= 1.70D-14 5.56D-09 XBig12= 1.59D-15 7.18D-09.
 InvSVY:  IOpt=1 It=  1 EMax= 1.11D-15
 Solved reduced A of dimension   123 with    15 vectors.
 FullF1:  Do perturbations      1 to      18.
 Saving first derivative matrices.
 End of Minotr F.D. properties file   721 does not exist.
 End of Minotr F.D. properties file   722 does not exist.
 End of Minotr F.D. properties file   788 does not exist.
 Leave Link 1002 at Sun Mar  6 19:18:34 2022, MaxMem= 16106127360 cpu:              76.8 elap:               2.9
 (Enter /sw/contrib/gaussian/g16/B01/g16/l811.exe)
 MDV= 16106127360.
 Form MO integral derivatives with frozen-active canonical formalism.
 MOERI=1 MOERIx=1 NAtoms=     5 NAtomX=     5.
 Discarding MO integrals.
 MO basis two electron integral derivatives will not be stored on disk.
 IAlg= 3 DoFC=T DoPWx=T Debug=F.
 Frozen-core window:  NFC=   4 NFV=   0.
 Reordered first order wavefunction length =     18678272
 In DefCFB: NBatch=  1 ICI= 16 ICA=191 LFMax= 96
            Large arrays: LIAPS=   619940160 LIARS=   288257200 words.
 In StABat: MaxSiz= 55 MinSiz= 25 NAtomB=  5
 DoIAMN: NPSUse= 28.
 Leave Link  811 at Sun Mar  6 19:19:55 2022, MaxMem= 16106127360 cpu:            2257.0 elap:              80.7
 (Enter /sw/contrib/gaussian/g16/B01/g16/l804.exe)
 Frozen-core window:  NFC=   4 NFV=   0.
 Closed-shell transformation, MDV= 16106127360 ITran=4 ISComp=1.
 Semi-Direct transformation.
 ModeAB=           2 MOrb=            16 LenV=   16104919911
 LASXX=     67341636 LTotXX=    67341636 LenRXX=    67341636
 LTotAB=    68301760 MaxLAS=    99807120 LenRXY=    99807120
 NonZer=   134683272 LenScr=   202817536 LnRSAI=           0
 LnScr1=           0 LExtra=           0 Total=    369966292
 MaxDsk=          -1 SrtSym=           F ITran=            4
 DoSDTr:  NPSUse= 28
 JobTyp=0 Pass  1:  I=   1 to  16.
 (rs|ai) integrals will be sorted in core.
 Complete sort for first half transformation.
 First half transformation complete.
 Begin second half transformation for I=  10.
 Begin second half transformation for I=  10.
 Complete sort for second half transformation.
 Second half transformation complete.
 Spin components of T(2) and E(2):
     alpha-alpha T2 =       0.3464150689D-01 E2=     -0.1243830263D+00
     alpha-beta  T2 =       0.1836893276D+00 E2=     -0.6987983856D+00
     beta-beta   T2 =       0.3464150689D-01 E2=     -0.1243830263D+00
 ANorm=    0.1583017588D+01
 E2 =    -0.9475644383D+00 EUMP2 =    -0.28045516654522D+03
 Leave Link  804 at Sun Mar  6 19:20:11 2022, MaxMem= 16106127360 cpu:             441.2 elap:              15.8
 (Enter /sw/contrib/gaussian/g16/B01/g16/l1002.exe)
 Minotr:  Closed shell wavefunction.
          Computing MP2/KS-MP2 derivatives.
          Using Z-Vector for PSCF gradient.
          Skipping F1 and S1 gradient terms here.
          IDoAtm=11111
          Frozen-core window.
          Using MO integrals in the linear equations.
          Forming densities via direct SCF.
          Differentiating once with respect to electric field.
                with respect to dipole field.
          Differentiating once with respect to nuclear coordinates.
          Using symmetry in CPHF.
          Requested convergence is 1.0D-10 RMS, and 1.0D-09 maximum.
          NewPWx=F KeepS1=T KeepF1=T KeepIn=T MapXYZ=F SortEE=F KeepMc=T.
          MDV=   16106127360 using IRadAn=       5.
          Solving linear equations separately, MaxMat=       0.
          There are     1 degrees of freedom in the 1st order CPHF.  IDoFFX=0 NUNeed=     1.
 FoFJK:  IHMeth= 1 ICntrl=       0 DoSepK=F KAlg= 0 I1Cent=           0 FoldK=F
 IRaf=         0 NMat=       1 IRICut=       1 DoRegI=T DoRafI=F ISym2E= 0 IDoP0=0 IntGTp=1.
 FoFCou: FMM=F IPFlag=           0 FMFlag=      100000 FMFlg1=           0
         NFxFlg=           0 DoJE=F BraDBF=F KetDBF=F FulRan=T
         wScrn=  0.000000 ICntrl=         0 IOpCl=  0 I1Cent=           0 NGrid=           0
         NMat0=    1 NMatS0=      1 NMatT0=    0 NMatD0=    1 NMtDS0=    0 NMtDT0=    0
 Symmetry not used in FoFCou.
 LinEq1:  Iter=  0 NonCon=     1 RMS=6.55D-03 Max=1.71D-01 NDo=     1
 LinEq1:  Iter=  1 NonCon=     1 RMS=1.97D-03 Max=3.00D-02 NDo=     1
 LinEq1:  Iter=  2 NonCon=     1 RMS=8.71D-04 Max=1.40D-02 NDo=     1
 LinEq1:  Iter=  3 NonCon=     1 RMS=3.69D-04 Max=7.74D-03 NDo=     1
 LinEq1:  Iter=  4 NonCon=     1 RMS=1.33D-04 Max=1.63D-03 NDo=     1
 LinEq1:  Iter=  5 NonCon=     1 RMS=7.36D-05 Max=1.36D-03 NDo=     1
 LinEq1:  Iter=  6 NonCon=     1 RMS=2.38D-05 Max=3.37D-04 NDo=     1
 LinEq1:  Iter=  7 NonCon=     1 RMS=7.84D-06 Max=1.04D-04 NDo=     1
 LinEq1:  Iter=  8 NonCon=     1 RMS=3.84D-06 Max=5.81D-05 NDo=     1
 LinEq1:  Iter=  9 NonCon=     1 RMS=1.00D-06 Max=1.11D-05 NDo=     1
 LinEq1:  Iter= 10 NonCon=     1 RMS=2.23D-07 Max=2.75D-06 NDo=     1
 LinEq1:  Iter= 11 NonCon=     1 RMS=4.79D-08 Max=7.76D-07 NDo=     1
 LinEq1:  Iter= 12 NonCon=     1 RMS=1.13D-08 Max=1.67D-07 NDo=     1
 LinEq1:  Iter= 13 NonCon=     1 RMS=1.98D-09 Max=2.06D-08 NDo=     1
 LinEq1:  Iter= 14 NonCon=     1 RMS=4.13D-10 Max=5.47D-09 NDo=     1
 LinEq1:  Iter= 15 NonCon=     0 RMS=8.45D-11 Max=8.59D-10 NDo=     1
 Linear equations converged to 1.000D-10 1.000D-09 after    15 iterations.
 End of Minotr F.D. properties file   721 does not exist.
 End of Minotr F.D. properties file   722 does not exist.
 End of Minotr F.D. properties file   788 does not exist.
 Leave Link 1002 at Sun Mar  6 19:20:14 2022, MaxMem= 16106127360 cpu:              65.6 elap:               2.4
 (Enter /sw/contrib/gaussian/g16/B01/g16/l1102.exe)
 Use density number 2.
 Symmetrizing basis deriv contribution to polar:
 IMax=3 JMax=2 DiffMx= 0.00D+00
 Leave Link 1102 at Sun Mar  6 19:20:14 2022, MaxMem= 16106127360 cpu:               1.1 elap:               0.1
 (Enter /sw/contrib/gaussian/g16/B01/g16/l1110.exe)
 Forming Gx(P) for generalized density number  2 NAtomX=     5.
 Integral derivatives from FoFJK, PRISM(SPDF).
 Do as many integral derivatives as possible in FoFJK.
 G2DrvN: MDV=   16106126844.
 G2DrvN: will do     6 centers at a time, making    1 passes.
 Calling FoFCou, ICntrl=  3107 FMM=F I1Cent=   0 AccDes= 0.00D+00.
 FoFJK:  IHMeth= 1 ICntrl=    3107 DoSepK=F KAlg= 0 I1Cent=           0 FoldK=F
 IRaf=         0 NMat=       1 IRICut=       1 DoRegI=T DoRafI=F ISym2E= 1 IDoP0=0 IntGTp=1.
 FoFCou: FMM=F IPFlag=           0 FMFlag=      100000 FMFlg1=           0
         NFxFlg=           0 DoJE=F BraDBF=F KetDBF=F FulRan=T
         wScrn=  0.000000 ICntrl=      3107 IOpCl=  0 I1Cent=           0 NGrid=           0
         NMat0=    1 NMatS0=      1 NMatT0=    0 NMatD0=    1 NMtDS0=    0 NMtDT0=    0
 Petite list used in FoFCou.
 End of G2Drv F.D. properties file   721 does not exist.
 End of G2Drv F.D. properties file   722 does not exist.
 End of G2Drv F.D. properties file   788 does not exist.
 Leave Link 1110 at Sun Mar  6 19:20:17 2022, MaxMem= 16106127360 cpu:              87.6 elap:               3.2
 (Enter /sw/contrib/gaussian/g16/B01/g16/l1112.exe)
 MP22nd: MDV=   16106127360
 This link is doing NAtomX=     5 total of    18 degrees of freedom.
 Using ON3 I/O method in MakUI.
 Frozen-core window:  NFC=   4 NFV=   0.
 Using Ix for Sx.
 Use MO integrals over full window.
 Using OV2 memory method for fx*t*t/D, MaxI=    16 DoOO2=F NP=  28.
 R2 and R3 integrals will be kept in memory, NReq=   915591705.
 FoFCou: FMM=F IPFlag=           0 FMFlag=           0 FMFlg1=           0
         NFxFlg=           0 DoJE=F BraDBF=F KetDBF=F FulRan=T
         wScrn=  0.000000 ICntrl=       600 IOpCl=  0 I1Cent=           0 NGrid=           0
         NMat0=    1 NMatS0=      1 NMatT0=    0 NMatD0=    1 NMtDS0=    0 NMtDT0=    0
 Symmetry not used in FoFCou.
 DD1Dir will call FoFMem   1 times, MxPair=       272
 NAB=   136 NAA=     0 NBB=     0.
 Symmetry is being used.
 FoFJK:  IHMeth= 1 ICntrl=       0 DoSepK=F KAlg= 0 I1Cent=           0 FoldK=F
 IRaf=         0 NMat=      18 IRICut=      45 DoRegI=T DoRafI=T ISym2E= 2 IDoP0=3 IntGTp=3.
 Discarding MO integrals.
 Leave Link 1112 at Sun Mar  6 19:20:53 2022, MaxMem= 16106127360 cpu:            1001.7 elap:              36.2
 (Enter /sw/contrib/gaussian/g16/B01/g16/l601.exe)
 Copying SCF densities to generalized density rwf, IOpCl= 0 IROHF=0.

 **********************************************************************

            Population analysis using the MP2 Density.

 **********************************************************************

 Orbital symmetries:
       Occupied  (A') (A') (A') (A') (A') (A') (A') (A') (A') (A')
                 (A") (A') (A") (A') (A') (A")
       Virtual   (A') (A") (A') (A') (A") (A') (A') (A') (A") (A')
                 (A") (A') (A') (A') (A") (A') (A') (A") (A') (A')
                 (A') (A') (A') (A') (A") (A') (A') (A") (A') (A')
                 (A') (A") (A") (A') (A') (A') (A") (A') (A") (A')
                 (A") (A") (A') (A') (A") (A') (A') (A") (A') (A')
                 (A') (A") (A') (A') (A") (A') (A") (A') (A") (A')
                 (A') (A') (A") (A') (A') (A') (A") (A") (A') (A')
                 (A") (A') (A") (A") (A') (A') (A") (A') (A') (A')
                 (A") (A') (A') (A") (A') (A") (A") (A') (A') (A')
                 (A') (A') (A") (A") (A') (A') (A") (A") (A') (A")
                 (A') (A') (A") (A') (A") (A') (A') (A') (A") (A")
                 (A') (A') (A') (A') (A") (A') (A') (A') (A") (A')
                 (A") (A") (A') (A') (A") (A") (A') (A") (A') (A')
                 (A') (A') (A") (A') (A') (A") (A") (A') (A') (A')
                 (A") (A") (A') (A') (A') (A") (A') (A') (A') (A")
                 (A') (A') (A') (A") (A') (A") (A") (A') (A') (A")
                 (A') (A") (A') (A") (A") (A') (A") (A') (A") (A')
                 (A") (A") (A") (A') (A') (A") (A') (A') (A") (A')
                 (A') (A') (A') (A') (A') (A') (A') (A') (A') (A')
                 (A')
 The electronic state is 1-A'.
 Alpha  occ. eigenvalues --  -20.71813 -20.68762 -20.66764 -15.82484  -1.64847
 Alpha  occ. eigenvalues --   -1.50681  -1.29305  -0.95926  -0.83627  -0.76051
 Alpha  occ. eigenvalues --   -0.74114  -0.63744  -0.62004  -0.61884  -0.50337
 Alpha  occ. eigenvalues --   -0.49703
 Alpha virt. eigenvalues --    0.03502   0.06252   0.09515   0.10044   0.11955
 Alpha virt. eigenvalues --    0.12267   0.14932   0.15206   0.17775   0.18028
 Alpha virt. eigenvalues --    0.18980   0.21101   0.21674   0.24324   0.24649
 Alpha virt. eigenvalues --    0.26922   0.31276   0.31669   0.33804   0.34445
 Alpha virt. eigenvalues --    0.34749   0.39291   0.44886   0.48907   0.50514
 Alpha virt. eigenvalues --    0.51890   0.54531   0.56080   0.60128   0.62153
 Alpha virt. eigenvalues --    0.64019   0.68845   0.71689   0.72449   0.74460
 Alpha virt. eigenvalues --    0.76337   0.76719   0.79594   0.80705   0.84066
 Alpha virt. eigenvalues --    0.84359   0.85185   0.88611   0.90824   0.93141
 Alpha virt. eigenvalues --    0.94945   0.95405   1.01863   1.03199   1.06286
 Alpha virt. eigenvalues --    1.06639   1.09546   1.14425   1.15647   1.17062
 Alpha virt. eigenvalues --    1.22337   1.22759   1.24646   1.35285   1.36087
 Alpha virt. eigenvalues --    1.37282   1.46871   1.48569   1.50498   1.54170
 Alpha virt. eigenvalues --    1.59671   1.59810   1.60665   1.62966   1.69728
 Alpha virt. eigenvalues --    1.74093   1.80227   1.82981   1.89050   1.89685
 Alpha virt. eigenvalues --    1.92795   1.97990   1.99009   2.05027   2.12566
 Alpha virt. eigenvalues --    2.13075   2.16607   2.18716   2.24385   2.25929
 Alpha virt. eigenvalues --    2.29478   2.35262   2.36723   2.38737   2.40471
 Alpha virt. eigenvalues --    2.43480   2.46871   2.47985   2.52908   2.53924
 Alpha virt. eigenvalues --    2.55161   2.56096   2.61861   2.63022   2.67510
 Alpha virt. eigenvalues --    2.67763   2.75738   2.81133   2.81956   2.84116
 Alpha virt. eigenvalues --    2.91944   2.98787   3.05050   3.05224   3.11644
 Alpha virt. eigenvalues --    3.11737   3.17526   3.21373   3.31020   3.33223
 Alpha virt. eigenvalues --    3.36214   3.47888   3.68423   3.87010   3.93049
 Alpha virt. eigenvalues --    4.18496   4.22440   4.22770   4.28083   4.37038
 Alpha virt. eigenvalues --    4.50251   4.52896   4.56357   4.59972   4.69620
 Alpha virt. eigenvalues --    4.81340   4.89986   4.91396   4.94417   4.99767
 Alpha virt. eigenvalues --    5.00504   5.10891   5.13800   5.18016   5.25763
 Alpha virt. eigenvalues --    5.25961   5.32021   5.34923   5.35621   5.54212
 Alpha virt. eigenvalues --    5.65589   5.71039   5.88737   6.00401   6.26589
 Alpha virt. eigenvalues --    6.29741   6.36267   6.37823   6.59919   6.66057
 Alpha virt. eigenvalues --    6.66059   6.69136   6.72946   6.79508   6.80500
 Alpha virt. eigenvalues --    6.85663   6.97039   7.02089   7.06715   7.08165
 Alpha virt. eigenvalues --    7.14242   7.17811   7.18089   7.20526   7.24889
 Alpha virt. eigenvalues --    7.25039   7.28321   7.35224   7.39957   7.43113
 Alpha virt. eigenvalues --    7.44476   7.47154   7.57193   7.66455   7.67105
 Alpha virt. eigenvalues --    7.79811   7.88603   7.95641   8.07440   8.30748
 Alpha virt. eigenvalues --    8.50120   8.65552  13.63367  14.80747  15.13712
 Alpha virt. eigenvalues --   15.94583
          Condensed to atoms (all electrons):
               1          2          3          4          5
     1  H    0.579501   0.124155   0.024014   0.000192  -0.005165
     2  O    0.124155   8.390907  -0.231058  -0.001071  -0.008223
     3  O    0.024014  -0.231058   8.377104  -0.169914  -0.036404
     4  N    0.000192  -0.001071  -0.169914   7.138624  -0.121607
     5  O   -0.005165  -0.008223  -0.036404  -0.121607   8.364026
 Mulliken charges:
               1
     1  H    0.277304
     2  O   -0.274710
     3  O    0.036257
     4  N    0.153776
     5  O   -0.192627
 Sum of Mulliken charges =  -0.00000
 Mulliken charges with hydrogens summed into heavy atoms:
               1
     2  O    0.002594
     3  O    0.036257
     4  N    0.153776
     5  O   -0.192627
 APT charges:
               1
     1  H    0.271330
     2  O   -0.303353
     3  O   -0.311936
     4  N    0.651006
     5  O   -0.307047
 Sum of APT charges =  -0.00000
 APT charges with hydrogens summed into heavy atoms:
               1
     2  O   -0.032024
     3  O   -0.311936
     4  N    0.651006
     5  O   -0.307047
 Electronic spatial extent (au):  <R**2>=            206.8040
 Charge=             -0.0000 electrons
 Dipole moment (field-independent basis, Debye):
    X=              0.0346    Y=             -1.1267    Z=              0.0000  Tot=              1.1272
 Quadrupole moment (field-independent basis, Debye-Ang):
   XX=            -23.3653   YY=            -22.9321   ZZ=            -21.9189
   XY=             -1.9575   XZ=              0.0000   YZ=              0.0000
 Traceless Quadrupole moment (field-independent basis, Debye-Ang):
   XX=             -0.6265   YY=             -0.1933   ZZ=              0.8199
   XY=             -1.9575   XZ=              0.0000   YZ=              0.0000
 Octapole moment (field-independent basis, Debye-Ang**2):
  XXX=              2.4948  YYY=              0.2039  ZZZ=              0.0000  XYY=              2.3417
  XXY=             -2.8505  XXZ=              0.0000  XZZ=             -0.6099  YZZ=             -0.7293
  YYZ=              0.0000  XYZ=              0.0000
 Hexadecapole moment (field-independent basis, Debye-Ang**3):
 XXXX=           -127.0635 YYYY=            -94.3178 ZZZZ=            -18.0227 XXXY=            -21.5284
 XXXZ=              0.0000 YYYX=            -19.7757 YYYZ=              0.0000 ZZZX=              0.0000
 ZZZY=              0.0000 XXYY=            -35.5198 XXZZ=            -24.3373 YYZZ=            -18.4951
 XXYZ=              0.0000 YYXZ=              0.0000 ZZXY=             -5.9043
 N-N= 1.229585500615D+02 E-N=-9.074900995586D+02  KE= 2.802314036813D+02
 Symmetry A'   KE= 2.663758274581D+02
 Symmetry A"   KE= 1.385557622317D+01
  Exact polarizability:  30.865   4.095  29.701   0.000   0.000  17.599
 Approx polarizability:  24.516   0.533  27.471  -0.000  -0.000  15.482
 No NMR shielding tensors so no spin-rotation constants.
 Leave Link  601 at Sun Mar  6 19:20:53 2022, MaxMem= 16106127360 cpu:               4.5 elap:               0.2
 (Enter /sw/contrib/gaussian/g16/B01/g16/l701.exe)
 ... and contract with generalized density number  2.
 Compute integral second derivatives.
 Leave Link  701 at Sun Mar  6 19:20:53 2022, MaxMem= 16106127360 cpu:               5.8 elap:               0.2
 (Enter /sw/contrib/gaussian/g16/B01/g16/l702.exe)
 L702 exits ... SP integral derivatives will be done elsewhere.
 Leave Link  702 at Sun Mar  6 19:20:54 2022, MaxMem= 16106127360 cpu:               0.5 elap:               0.0
 (Enter /sw/contrib/gaussian/g16/B01/g16/l703.exe)
 Integral derivatives from FoFJK, PRISM(SPDF).
 Compute integral second derivatives, UseDBF=F ICtDFT=           0.
 Calling FoFJK, ICntrl=  10100127 FMM=F ISym2X=1 I1Cent= 0 IOpClX= 0 NMat=1 NMatS=1 NMatT=0.
 FoFJK:  IHMeth= 1 ICntrl=10100127 DoSepK=F KAlg= 0 I1Cent=           0 FoldK=F
 IRaf=         0 NMat=       1 IRICut=       1 DoRegI=T DoRafI=F ISym2E= 1 IDoP0=0 IntGTp=1.
 FoFCou: FMM=F IPFlag=           0 FMFlag=      100000 FMFlg1=         800
         NFxFlg=           0 DoJE=F BraDBF=F KetDBF=F FulRan=T
         wScrn=  0.000000 ICntrl=  10100127 IOpCl=  0 I1Cent=           0 NGrid=           0
         NMat0=    1 NMatS0=      1 NMatT0=    0 NMatD0=    1 NMtDS0=    0 NMtDT0=    0
 Petite list used in FoFCou.
 Leave Link  703 at Sun Mar  6 19:21:09 2022, MaxMem= 16106127360 cpu:             445.7 elap:              16.0
 (Enter /sw/contrib/gaussian/g16/B01/g16/l716.exe)
 Dipole        = 1.36151339D-02-4.43275436D-01 0.00000000D+00
 Polarizability= 3.08654540D+01 4.09479435D+00 2.97010930D+01
                 0.00000000D+00 0.00000000D+00 1.75990785D+01
 Full mass-weighted force constant matrix:
 Low frequencies ---  -86.6928  -50.8194  -22.5954   -0.0002    0.0004    0.0007
 Low frequencies ---  349.5676  396.2916  516.4013
 Diagonal vibrational polarizability:
        7.2722394      10.0285313      16.2151491
 Harmonic frequencies (cm**-1), IR intensities (KM/Mole), Raman scattering
 activities (A**4/AMU), depolarization ratios for plane and unpolarized
 incident light, reduced masses (AMU), force constants (mDyne/A),
 and normal coordinates:
                      1                      2                      3
                     A"                     A'                     A"
 Frequencies --    349.4858               396.2570               516.2452
 Red. masses --      1.5934                 7.0900                 2.7931
 Frc consts  --      0.1147                 0.6559                 0.4386
 IR Inten    --     61.1978                 7.4714                27.0500
  Atom  AN      X      Y      Z        X      Y      Z        X      Y      Z
     1   1     0.00   0.00   0.98    -0.73  -0.25   0.00     0.00   0.00   0.93
     2   8     0.00   0.00  -0.11    -0.32  -0.31  -0.00     0.00   0.00   0.05
     3   8     0.00  -0.00   0.12    -0.06   0.09   0.00     0.00  -0.00  -0.18
     4   7    -0.00  -0.00  -0.11     0.05   0.09  -0.00     0.00  -0.00   0.26
     5   8    -0.00  -0.00   0.03     0.39   0.17  -0.00    -0.00  -0.00  -0.16
                      4                      5                      6
                     A'                     A'                     A'
 Frequencies --    708.4940               836.7345               972.6032
 Red. masses --     13.4956                12.3084                 9.6930
 Frc consts  --      3.9913                 5.0773                 5.4023
 IR Inten    --    220.4977                27.8286                12.2176
  Atom  AN      X      Y      Z        X      Y      Z        X      Y      Z
     1   1    -0.34   0.00   0.00     0.44  -0.15  -0.00    -0.63  -0.01  -0.00
     2   8     0.00  -0.08  -0.00     0.53  -0.20  -0.00     0.20  -0.17  -0.00
     3   8     0.38   0.58   0.00    -0.39  -0.03   0.00    -0.36   0.41   0.00
     4   7    -0.43  -0.46   0.00    -0.43  -0.05  -0.00     0.38   0.04  -0.00
     5   8     0.02  -0.10  -0.00     0.20   0.28   0.00    -0.13  -0.27   0.00
                      7                      8                      9
                     A'                     A'                     A'
 Frequencies --   1437.5478              1609.6830              3488.4463
 Red. masses --      1.2519                 8.1034                 1.0637
 Frc consts  --      1.5242                12.3708                 7.6269
 IR Inten    --     81.2236               156.9361                42.5293
  Atom  AN      X      Y      Z        X      Y      Z        X      Y      Z
     1   1     0.97  -0.20  -0.00    -0.68   0.16   0.00     0.15   0.99   0.00
     2   8    -0.06  -0.05  -0.00     0.01   0.02   0.00    -0.01  -0.06  -0.00
     3   8    -0.03   0.06   0.00    -0.04  -0.06  -0.00     0.00  -0.00   0.00
     4   7     0.05  -0.04  -0.00     0.28  -0.46   0.00    -0.00   0.00   0.00
     5   8    -0.02   0.04   0.00    -0.17   0.43  -0.00     0.00  -0.00  -0.00

 -------------------
 - Thermochemistry -
 -------------------
 Temperature   298.150 Kelvin.  Pressure   1.00000 Atm.
 Atom     1 has atomic number  1 and mass   1.00783
 Atom     2 has atomic number  8 and mass  15.99491
 Atom     3 has atomic number  8 and mass  15.99491
 Atom     4 has atomic number  7 and mass  14.00307
 Atom     5 has atomic number  8 and mass  15.99491
 Molecular mass:    62.99564 amu.
 Principal axes and moments of inertia in atomic units:
                           1         2         3
     Eigenvalues --    84.05655 222.32010 306.37665
           X            0.79825  -0.60233   0.00000
           Y            0.60233   0.79825   0.00000
           Z            0.00000   0.00000   1.00000
 This molecule is an asymmetric top.
 Rotational symmetry number  1.
 Rotational temperatures (Kelvin)      1.03042     0.38959     0.28270
 Rotational constants (GHZ):          21.47056     8.11776     5.89060
 Zero-point vibrational energy      61700.4 (Joules/Mol)
                                   14.74674 (Kcal/Mol)
 Warning -- explicit consideration of   3 degrees of freedom as
           vibrations may cause significant error
 Vibrational temperatures:    502.83   570.13   742.76  1019.36  1203.87
          (Kelvin)           1399.36  2068.31  2315.97  5019.10
 
 Zero-point correction=                           0.023500 (Hartree/Particle)
 Thermal correction to Energy=                    0.027448
 Thermal correction to Enthalpy=                  0.028393
 Thermal correction to Gibbs Free Energy=        -0.002477
 Sum of electronic and zero-point Energies=           -280.431666
 Sum of electronic and thermal Energies=              -280.427718
 Sum of electronic and thermal Enthalpies=            -280.426774
 Sum of electronic and thermal Free Energies=         -280.457644
 
                     E (Thermal)             CV                S
                      KCal/Mol        Cal/Mol-Kelvin    Cal/Mol-Kelvin
 Total                   17.224             12.187             64.971
 Electronic               0.000              0.000              0.000
 Translational            0.889              2.981             38.341
 Rotational               0.889              2.981             23.264
 Vibrational             15.447              6.226              3.366
 Vibration     1          0.727              1.576              1.169
 Vibration     2          0.763              1.478              0.977
 Vibration     3          0.871              1.214              0.619
                       Q            Log10(Q)             Ln(Q)
 Total Bot       0.137855D+02          1.139422          2.623616
 Total V=0       0.888915D+12         11.948860         27.513267
 Vib (Bot)       0.258972D-10        -10.586746        -24.376885
 Vib (Bot)    1  0.528093D+00         -0.277290         -0.638484
 Vib (Bot)    2  0.451028D+00         -0.345796         -0.796225
 Vib (Bot)    3  0.313743D+00         -0.503425         -1.159180
 Vib (V=0)       0.166991D+01          0.222692          0.512767
 Vib (V=0)    1  0.122724D+01          0.088930          0.204770
 Vib (V=0)    2  0.117337D+01          0.069435          0.159879
 Vib (V=0)    3  0.109028D+01          0.037540          0.086438
 Electronic      0.100000D+01          0.000000          0.000000
 Translational   0.196526D+08          7.293420         16.793719
 Rotational      0.270862D+05          4.432749         10.206781
 
                                                                title
                                                             IR Spectrum
 
     3                                                                    1     1                                                    
     4                                                                    6     4                9    8    7      5   3 3            
     8                                                                    1     3                7    3    0      1   9 4            
     8                                                                    0     8                3    7    8      6   6 9            
 
     X                                                                    X     X                X    X    X      X   X X            
     X                                                                    X     X                     X    X      X     X            
     X                                                                    X     X                     X    X            X            
     X                                                                    X     X                          X            X            
                                                                          X     X                          X            X            
                                                                          X     X                          X            X            
                                                                          X     X                          X                         
                                                                          X                                X                         
                                                                          X                                X                         
                                                                          X                                X                         
                                                                          X                                X                         
                                                                          X                                X                         
                                                                          X                                X                         
                                                                          X                                X                         
                                                                                                           X                         
                                                                                                           X                         
                                                                                                           X                         
                                                                                                           X                         
                                                                                                           X                         
                                                                                                           X                         
 
 ***** Axes restored to original set *****
 -------------------------------------------------------------------
 Center     Atomic                   Forces (Hartrees/Bohr)
 Number     Number              X              Y              Z
 -------------------------------------------------------------------
      1        1          -0.000133389   -0.000000000    0.000143795
      2        8          -0.000310545   -0.000000000   -0.000173164
      3        8          -0.000232755   -0.000000000    0.001792668
      4        7           0.005664349   -0.000000000    0.007501574
      5        8          -0.004987660   -0.000000000   -0.009264873
 -------------------------------------------------------------------
 Cartesian Forces:  Max     0.009264873 RMS     0.003674287
 -----------------------------------------------------------------------------------------------
                       Internal Coordinate Forces (Hartree/Bohr or radian)
  Cent   Atom   N1       Length/X         N2         Alpha/Y        N3         Beta/Z          J
 -----------------------------------------------------------------------------------------------
      1  H 
      2  O        1  -0.000144(     1)
      3  O        2   0.000442(     2)      1   0.000248(     5)
      4  N        3   0.001842(     3)      2   0.000391(     6)      1   0.000000(     8)     0
      5  O        4   0.010501(     4)      3   0.001482(     7)      2   0.000000(     9)     0
 -----------------------------------------------------------------------------------------------
 Internal  Forces:  Max     0.010501369 RMS     0.003594702
 Force constants in Cartesian coordinates: 
                1             2             3             4             5 
      1  0.722145D-01
      2  0.000000D+00  0.603526D-02
      3  0.240506D-01  0.000000D+00  0.436916D+00
      4 -0.519036D-01  0.000000D+00 -0.480390D-02  0.281120D+00
      5  0.000000D+00 -0.240728D-02  0.000000D+00  0.000000D+00  0.121286D-01
      6  0.321452D-01  0.000000D+00 -0.420587D+00 -0.121475D-01  0.000000D+00
      7 -0.251501D-01  0.000000D+00 -0.159305D-01 -0.170816D+00  0.000000D+00
      8  0.000000D+00 -0.424204D-02  0.000000D+00  0.000000D+00 -0.189120D-01
      9 -0.439566D-01  0.000000D+00 -0.197648D-01  0.102600D-01  0.000000D+00
     10 -0.575129D-02  0.000000D+00  0.650275D-02 -0.843668D-01  0.000000D+00
     11  0.000000D+00  0.808375D-02  0.000000D+00  0.000000D+00  0.199329D-01
     12 -0.193606D-01  0.000000D+00  0.118360D-01  0.109213D-01  0.000000D+00
     13  0.105905D-01  0.000000D+00 -0.981899D-02  0.259666D-01  0.000000D+00
     14  0.000000D+00 -0.746969D-02  0.000000D+00  0.000000D+00 -0.107422D-01
     15  0.712144D-02  0.000000D+00 -0.840060D-02 -0.422989D-02  0.000000D+00
                6             7             8             9            10 
      6  0.522362D+00
      7 -0.913529D-01  0.303332D+00
      8  0.000000D+00  0.000000D+00  0.402635D-01
      9 -0.966994D-01  0.823198D-01  0.000000D+00  0.317683D+00
     10  0.404103D-01 -0.144689D+00  0.000000D+00 -0.357583D-01  0.565968D+00
     11  0.000000D+00  0.000000D+00 -0.477253D-01  0.000000D+00  0.000000D+00
     12 -0.103129D-01  0.143814D-01  0.000000D+00 -0.222532D-01  0.263051D+00
     13  0.309450D-01  0.373228D-01  0.000000D+00 -0.128649D-01 -0.331161D+00
     14  0.000000D+00  0.000000D+00  0.306159D-01  0.000000D+00  0.000000D+00
     15  0.523701D-02  0.105821D-01  0.000000D+00 -0.178966D+00 -0.274206D+00
               11            12            13            14            15 
     11  0.534307D-01
     12  0.000000D+00  0.471087D+00
     13  0.000000D+00 -0.268993D+00  0.257281D+00
     14 -0.337220D-01  0.000000D+00  0.000000D+00  0.213180D-01
     15  0.000000D+00 -0.450357D+00  0.260732D+00  0.000000D+00  0.632487D+00
 Force constants in internal coordinates: 
                1             2             3             4             5 
      1  0.436916D+00
      2  0.219298D-01  0.259287D+00
      3  0.469921D-02  0.174988D-01  0.207845D+00
      4 -0.123201D-01  0.229596D-01  0.152969D+00  0.761669D+00
      5  0.446509D-01  0.564838D-01 -0.239536D-01  0.216777D-01  0.250127D+00
      6  0.109583D-01  0.221031D-01  0.924066D-01  0.100515D-01 -0.833484D-02
      7  0.874822D-02 -0.732072D-01  0.123207D+00  0.118575D+00 -0.218519D-01
      8  0.000000D+00  0.000000D+00  0.000000D+00  0.000000D+00  0.000000D+00
      9  0.000000D+00  0.000000D+00  0.000000D+00  0.000000D+00  0.000000D+00
                6             7             8             9 
      6  0.521967D+00
      7  0.617925D-01  0.668647D+00
      8  0.000000D+00  0.000000D+00  0.199101D-01
      9  0.000000D+00  0.000000D+00  0.279519D-01  0.108134D+00
 Leave Link  716 at Sun Mar  6 19:21:10 2022, MaxMem= 16106127360 cpu:               1.3 elap:               0.1
 (Enter /sw/contrib/gaussian/g16/B01/g16/l103.exe)

 GradGradGradGradGradGradGradGradGradGradGradGradGradGradGradGradGradGrad
 Berny optimization.
 Search for a local minimum.
 Step number   1 out of a maximum of    2
 All quantities printed in internal units (Hartrees-Bohrs-Radians)
 Second derivative matrix not updated -- analytic derivatives used.
 The second derivative matrix:
                          r1        r2        r3        r4        a1
           r1           0.43692
           r2           0.02193   0.25929
           r3           0.00470   0.01750   0.20784
           r4          -0.01232   0.02296   0.15297   0.76167
           a1           0.04465   0.05648  -0.02395   0.02168   0.25013
           a2           0.01096   0.02210   0.09241   0.01005  -0.00833
           a3           0.00875  -0.07321   0.12321   0.11857  -0.02185
           d1           0.00000   0.00000   0.00000   0.00000   0.00000
           d2           0.00000   0.00000   0.00000   0.00000   0.00000
                          a2        a3        d1        d2
           a2           0.52197
           a3           0.06179   0.66865
           d1           0.00000   0.00000   0.01991
           d2           0.00000   0.00000   0.02795   0.10813
 ITU=  0
     Eigenvalues ---    0.01180   0.11624   0.12417   0.20383   0.27653
     Eigenvalues ---    0.44969   0.51684   0.62473   0.91066
 Angle between quadratic step and forces=  20.17 degrees.
 Linear search not attempted -- first point.
 Variable       Old X    -DE/DX   Delta X   Delta X   Delta X     New X
                                 (Linear)    (Quad)   (Total)
    r1        1.86209  -0.00014   0.00000   0.00010   0.00010   1.86219
    r2        2.69614   0.00044   0.00000   0.00065   0.00065   2.69680
    r3        2.60992   0.00184   0.00000  -0.00210  -0.00210   2.60782
    r4        2.24406   0.01050   0.00000   0.01419   0.01419   2.25824
    a1        1.75642   0.00025   0.00000  -0.00057  -0.00057   1.75585
    a2        1.97463   0.00039   0.00000   0.00080   0.00080   1.97543
    a3        1.99550   0.00148   0.00000   0.00006   0.00006   1.99557
    d1        0.00000   0.00000   0.00000   0.00000   0.00000   0.00000
    d2        0.00000   0.00000   0.00000   0.00000   0.00000   0.00000
         Item               Value     Threshold  Converged?
 Maximum Force            0.010501     0.000450     NO 
 RMS     Force            0.003595     0.000300     NO 
 Maximum Displacement     0.014186     0.001800     NO 
 RMS     Displacement     0.004796     0.001200     NO 
 Predicted change in Energy=-7.282573D-05
                       ----------------------------
                       ! Non-Optimized Parameters !
                       ! (Angstroms and Degrees)  !
 ----------------------                            ----------------------
 !      Name          Value   Derivative information (Atomic Units)     !
 ------------------------------------------------------------------------
 !       r1          0.9854   -DE/DX =   -0.0001                        !
 !       r2          1.4271   -DE/DX =    0.0004                        !
 !       r3          1.38     -DE/DX =    0.0018                        !
 !       r4          1.195    -DE/DX =    0.0105                        !
 !       a1        100.6028   -DE/DX =    0.0002                        !
 !       a2        113.1837   -DE/DX =    0.0004                        !
 !       a3        114.3376   -DE/DX =    0.0015                        !
 !       d1          0.0      -DE/DX =    0.0                           !
 !       d2          0.0      -DE/DX =    0.0                           !
 ------------------------------------------------------------------------
 GradGradGradGradGradGradGradGradGradGradGradGradGradGradGradGradGradGrad

 Leave Link  103 at Sun Mar  6 19:21:10 2022, MaxMem= 16106127360 cpu:               1.0 elap:               0.1
 (Enter /sw/contrib/gaussian/g16/B01/g16/l9999.exe)

 ----------------------------------------------------------------------

 Electric dipole moment (input orientation):
 (Debye = 10**-18 statcoulomb cm , SI units = C m)
                  (au)            (Debye)         (10**-30 SI)
   Tot        0.443484D+00      0.112723D+01      0.376002D+01
   x         -0.105979D+00     -0.269372D+00     -0.898527D+00
   y          0.000000D+00      0.000000D+00      0.000000D+00
   z         -0.430636D+00     -0.109457D+01     -0.365108D+01

 Dipole polarizability, Alpha (input orientation).
 (esu units = cm**3 , SI units = C**2 m**2 J**-1)
 Alpha(0;0):
               (au)            (10**-24 esu)      (10**-40 SI)
   iso        0.260552D+02      0.386098D+01      0.429592D+01
   aniso      0.145673D+02      0.215866D+01      0.240183D+01
   xx         0.291404D+02      0.431816D+01      0.480460D+01
   yx         0.000000D+00      0.000000D+00      0.000000D+00
   yy         0.175991D+02      0.260791D+01      0.290170D+01
   zx        -0.397494D+01     -0.589025D+00     -0.655379D+00
   zy         0.000000D+00      0.000000D+00      0.000000D+00
   zz         0.314261D+02      0.465687D+01      0.518147D+01

 ----------------------------------------------------------------------

 Dipole orientation:
     1          0.00000000         -0.00000000         -0.00000000
     8         -0.44498169         -0.00000000         -1.80814210
     8          2.00915956         -0.00000000         -2.92455149
     7          3.93643330         -0.00000000         -1.16464434
     8          3.24048102          0.00000000          0.96876898

 Electric dipole moment (dipole orientation):
 (Debye = 10**-18 statcoulomb cm , SI units = C m)
                  (au)            (Debye)         (10**-30 SI)
   Tot        0.443484D+00      0.112723D+01      0.376002D+01
   x          0.000000D+00      0.000000D+00      0.000000D+00
   y          0.000000D+00      0.000000D+00      0.000000D+00
   z          0.443484D+00      0.112723D+01      0.376002D+01

 Dipole polarizability, Alpha (dipole orientation).
 (esu units = cm**3 , SI units = C**2 m**2 J**-1)
 Alpha(0;0):
               (au)            (10**-24 esu)      (10**-40 SI)
   iso        0.260552D+02      0.386098D+01      0.429592D+01
   aniso      0.145673D+02      0.215866D+01      0.240183D+01
   xx         0.311157D+02      0.461087D+01      0.513028D+01
   yx         0.000000D+00      0.000000D+00      0.000000D+00
   yy         0.175991D+02      0.260791D+01      0.290170D+01
   zx         0.405135D+01      0.600348D+00      0.667977D+00
   zy         0.000000D+00      0.000000D+00      0.000000D+00
   zz         0.294509D+02      0.436417D+01      0.485580D+01

 ----------------------------------------------------------------------
 1\1\GINC-N2199\Freq\RMP2-FC\Aug-CC-pVTZ\H1N1O3\CGAVINH\06-Mar-2022\1\\
 #p freq mp2/aug-cc-pvtz density=current\\title\\0,1\H\O,1,r1\O,2,r2,1,
 a1\N,3,r3,2,a2,1,d1,0\O,4,r4,3,a3,2,d2,0\\r1=0.98537664\r2=1.42673666\
 r3=1.38110764\r4=1.18750502\a1=100.6355057\a2=113.13777052\a3=114.3339
 2022\d1=0.\d2=0.\\Version=ES64L-G16RevB.01\State=1-A'\HF=-279.5076021\
 MP2=-280.4551665\RMSD=3.729e-09\RMSF=3.674e-03\ZeroPoint=0.0235004\The
 rmal=0.0274484\Dipole=-0.1059789,0.,-0.4306355\DipoleDeriv=0.316711,0.
 ,0.0376874,0.,0.2980944,0.,-0.0248106,0.,0.1991837,-0.5277427,0.,0.279
 0328,0.,-0.2550121,0.,-0.1038036,0.,-0.1273056,-0.0007825,0.,0.3410122
 ,0.,-0.0135927,0.,0.4416651,0.,-0.9214328,0.2016558,0.,-0.1317551,0.,0
 .0134984,0.,-0.6669524,0.,1.7378649,0.0101584,0.,-0.5259773,0.,-0.0429
 88,0.,0.3539015,0.,-0.8883103\Polar=29.1404024,0.,17.5990785,-3.974936
 6,0.,31.4261445\Quadrupole=0.1432815,0.6095613,-0.7528428,0.,1.3940092
 ,0.\PG=CS [SG(H1N1O3)]\NImag=0\\0.07221452,0.,0.00603526,0.02405060,0.
 ,0.43691620,-0.05190365,0.,-0.00480390,0.28111963,0.,-0.00240728,0.,0.
 ,0.01212860,0.03214515,0.,-0.42058689,-0.01214753,0.,0.52236217,-0.025
 15011,0.,-0.01593047,-0.17081580,0.,-0.09135287,0.30333206,0.,-0.00424
 204,0.,0.,-0.01891200,0.,0.,0.04026352,-0.04395656,0.,-0.01976475,0.01
 025999,0.,-0.09669939,0.08231980,0.,0.31768316,-0.00575129,0.,0.006502
 75,-0.08436683,0.,0.04041027,-0.14468892,0.,-0.03575834,0.56596845,0.,
 0.00808375,0.,0.,0.01993287,0.,0.,-0.04772533,0.,0.,0.05343069,-0.0193
 6063,0.,0.01183604,0.01092133,0.,-0.01031291,0.01438142,0.,-0.02225319
 ,0.26305111,0.,0.47108744,0.01059052,0.,-0.00981899,0.02596664,0.,0.03
 094498,0.03732276,0.,-0.01286490,-0.33116141,0.,-0.26899324,0.25728149
 ,0.,-0.00746969,0.,0.,-0.01074219,0.,0.,0.03061585,0.,0.,-0.03372198,0
 .,0.,0.02131801,0.00712144,0.,-0.00840060,-0.00422989,0.,0.00523701,0.
 01058212,0.,-0.17896583,-0.27420580,0.,-0.45035739,0.26073214,0.,0.632
 48680\\0.00013339,0.,-0.00014380,0.00031054,0.,0.00017316,0.00023276,0
 .,-0.00179267,-0.00566435,0.,-0.00750157,0.00498766,0.,0.00926487\\\@


 MODELS ARE TO BE USED, NOT BELIEVED.

    -- PARAPHRASED BY H. THIEL IN "PRINCIPLES OF ECONOMETRICS"
 Job cpu time:       0 days  2 hours  1 minutes 21.5 seconds.
 Elapsed time:       0 days  0 hours  4 minutes 23.3 seconds.
 File lengths (MBytes):  RWF=   7239 Int=      0 D2E=      0 Chk=      8 Scr=      1
 Normal termination of Gaussian 16 at Sun Mar  6 19:21:11 2022.
