title                                                                   
Freq      RMP2-FC                                                     Aug-CC-pVTZ         
Number of atoms                            I                5
Info1-9                                    I   N=           9
          33          24           0           0           0         100
           6           2           1
Full Title                                 C   N=           1
title       
Route                                      C   N=           4
#p freq mp2/aug-cc-pvtz density=current         
Charge                                     I                0
Multiplicity                               I                1
Number of electrons                        I               32
Number of alpha electrons                  I               16
Number of beta electrons                   I               16
Number of basis functions                  I              207
Number of independent functions            I              207
Number of point charges in /Mol/           I                0
Number of translation vectors              I                0
Atomic numbers                             I   N=           5
           1           8           8           7           8
Nuclear charges                            R   N=           5
  1.00000000E+00  8.00000000E+00  8.00000000E+00  7.00000000E+00  8.00000000E+00
Current cartesian coordinates              R   N=          15
  2.15792359E+00 -1.14496410E+00  0.00000000E+00  2.48532967E+00  6.88118498E-01
 -1.97215226E-31  1.14907654E-16  1.73325755E+00  7.39557099E-32 -1.87569552E+00
 -8.15216646E-02  9.86076132E-32 -1.11383654E+00 -2.20692408E+00  4.93038066E-32
Number of symbols in /Mol/                 I                0
Force Field                                I                0
Atom Types                                 C   N=           5
                                                            
Int Atom Types                             I   N=           5
           0           0           0           0           0
MM charges                                 R   N=           5
  0.00000000E+00  0.00000000E+00  0.00000000E+00  0.00000000E+00  0.00000000E+00
Integer atomic weights                     I   N=           5
           1          16          16          14          16
Real atomic weights                        R   N=           5
  1.00782504E+00  1.59949146E+01  1.59949146E+01  1.40030740E+01  1.59949146E+01
Atom fragment info                         I   N=           5
           0           0           0           0           0
Atom residue num                           I   N=           5
           0           0           0           0           0
Nuclear spins                              I   N=           5
           1           0           0           2           0
Nuclear ZEff                               R   N=           5
 -1.00000000E+00 -5.60000000E+00 -5.60000000E+00 -4.55000000E+00 -5.60000000E+00
Nuclear ZNuc                               R   N=           5
  1.00000000E+00  8.00000000E+00  8.00000000E+00  7.00000000E+00  8.00000000E+00
Nuclear QMom                               R   N=           5
  0.00000000E+00  0.00000000E+00  0.00000000E+00  2.04400000E+00  0.00000000E+00
Nuclear GFac                               R   N=           5
  2.79284600E+00  0.00000000E+00  0.00000000E+00  4.03761000E-01  0.00000000E+00
MicOpt                                     I   N=           5
          -1          -1          -1          -1          -1
Number of residues                         I                0
Number of secondary structures             I                0
SymInf integers                            I   N=          26
           1           2           1           1           1           1
           1          -1           0           0           0           0
           0           0           0           0           0           0
           0           0           0           0           0           0
           0           0
RotTr to input orientation                 R   N=          12
 -9.84421078E-01 -4.30991347E-16  1.75827019E-01  1.75827019E-01  7.69791764E-17
  9.84421078E-01 -4.37811986E-16  1.00000000E+00  0.00000000E+00  2.32562109E+00
  0.00000000E+00  7.47705518E-01
Number of contracted shells                I               65
Number of primitive shells                 I              119
Pure/Cartesian d shells                    I                0
Pure/Cartesian f shells                    I                0
Highest angular momentum                   I                3
Largest degree of contraction              I                7
Shell types                                I   N=          65
           0           0           0           0           1           1
           1          -2          -2           0           0           0
           0           0           1           1           1           1
          -2          -2          -2          -3          -3           0
           0           0           0           0           1           1
           1           1          -2          -2          -2          -3
          -3           0           0           0           0           0
           1           1           1           1          -2          -2
          -2          -3          -3           0           0           0
           0           0           1           1           1           1
          -2          -2          -2          -3          -3
Number of primitives per shell             I   N=          65
           3           1           1           1           1           1
           1           1           1           7           6           1
           1           1           3           1           1           1
           1           1           1           1           1           7
           6           1           1           1           3           1
           1           1           1           1           1           1
           1           7           6           1           1           1
           3           1           1           1           1           1
           1           1           1           7           6           1
           1           1           3           1           1           1
           1           1           1           1           1
Shell to atom map                          I   N=          65
           1           1           1           1           1           1
           1           1           1           2           2           2
           2           2           2           2           2           2
           2           2           2           2           2           3
           3           3           3           3           3           3
           3           3           3           3           3           3
           3           4           4           4           4           4
           4           4           4           4           4           4
           4           4           4           5           5           5
           5           5           5           5           5           5
           5           5           5           5           5
Primitive exponents                        R   N=         119
  3.38700000E+01  5.09500000E+00  1.15900000E+00  3.25800000E-01  1.02700000E-01
  2.52600000E-02  1.40700000E+00  3.88000000E-01  1.02000000E-01  1.05700000E+00
  2.47000000E-01  1.53300000E+04  2.29900000E+03  5.22400000E+02  1.47300000E+02
  4.75500000E+01  1.67600000E+01  6.20700000E+00  5.22400000E+02  1.47300000E+02
  4.75500000E+01  1.67600000E+01  6.20700000E+00  6.88200000E-01  1.75200000E+00
  2.38400000E-01  7.37600000E-02  3.44600000E+01  7.74900000E+00  2.28000000E+00
  7.15600000E-01  2.14000000E-01  5.97400000E-02  2.31400000E+00  6.45000000E-01
  2.14000000E-01  1.42800000E+00  5.00000000E-01  1.53300000E+04  2.29900000E+03
  5.22400000E+02  1.47300000E+02  4.75500000E+01  1.67600000E+01  6.20700000E+00
  5.22400000E+02  1.47300000E+02  4.75500000E+01  1.67600000E+01  6.20700000E+00
  6.88200000E-01  1.75200000E+00  2.38400000E-01  7.37600000E-02  3.44600000E+01
  7.74900000E+00  2.28000000E+00  7.15600000E-01  2.14000000E-01  5.97400000E-02
  2.31400000E+00  6.45000000E-01  2.14000000E-01  1.42800000E+00  5.00000000E-01
  1.14200000E+04  1.71200000E+03  3.89300000E+02  1.10000000E+02  3.55700000E+01
  1.25400000E+01  4.64400000E+00  3.89300000E+02  1.10000000E+02  3.55700000E+01
  1.25400000E+01  4.64400000E+00  5.11800000E-01  1.29300000E+00  1.78700000E-01
  5.76000000E-02  2.66300000E+01  5.94800000E+00  1.74200000E+00  5.55000000E-01
  1.72500000E-01  4.91000000E-02  1.65400000E+00  4.69000000E-01  1.51000000E-01
  1.09300000E+00  3.64000000E-01  1.53300000E+04  2.29900000E+03  5.22400000E+02
  1.47300000E+02  4.75500000E+01  1.67600000E+01  6.20700000E+00  5.22400000E+02
  1.47300000E+02  4.75500000E+01  1.67600000E+01  6.20700000E+00  6.88200000E-01
  1.75200000E+00  2.38400000E-01  7.37600000E-02  3.44600000E+01  7.74900000E+00
  2.28000000E+00  7.15600000E-01  2.14000000E-01  5.97400000E-02  2.31400000E+00
  6.45000000E-01  2.14000000E-01  1.42800000E+00  5.00000000E-01
Contraction coefficients                   R   N=         119
  2.54948632E-02  1.90362766E-01  8.52162022E-01  1.00000000E+00  1.00000000E+00
  1.00000000E+00  1.00000000E+00  1.00000000E+00  1.00000000E+00  1.00000000E+00
  1.00000000E+00  5.19808943E-04  4.02025621E-03  2.07128267E-02  8.10105536E-02
  2.35962985E-01  4.42653446E-01  3.57064423E-01 -4.42115008E-05 -1.22591041E-03
 -1.05517725E-02 -6.74452633E-02 -1.71198607E-01  1.07329856E+00  1.00000000E+00
  1.00000000E+00  1.00000000E+00  4.11634896E-02  2.57762836E-01  8.02419274E-01
  1.00000000E+00  1.00000000E+00  1.00000000E+00  1.00000000E+00  1.00000000E+00
  1.00000000E+00  1.00000000E+00  1.00000000E+00  5.19808943E-04  4.02025621E-03
  2.07128267E-02  8.10105536E-02  2.35962985E-01  4.42653446E-01  3.57064423E-01
 -4.42115008E-05 -1.22591041E-03 -1.05517725E-02 -6.74452633E-02 -1.71198607E-01
  1.07329856E+00  1.00000000E+00  1.00000000E+00  1.00000000E+00  4.11634896E-02
  2.57762836E-01  8.02419274E-01  1.00000000E+00  1.00000000E+00  1.00000000E+00
  1.00000000E+00  1.00000000E+00  1.00000000E+00  1.00000000E+00  1.00000000E+00
  5.34563860E-04  4.13435660E-03  2.12335358E-02  8.25006224E-02  2.38138871E-01
  4.42551547E-01  3.53757422E-01 -4.89867350E-05 -1.19527323E-03 -1.03490714E-02
 -6.48680190E-02 -1.71552477E-01  1.07289568E+00  1.00000000E+00  1.00000000E+00
  1.00000000E+00  3.98072123E-02  2.49002660E-01  8.10479727E-01  1.00000000E+00
  1.00000000E+00  1.00000000E+00  1.00000000E+00  1.00000000E+00  1.00000000E+00
  1.00000000E+00  1.00000000E+00  5.19808943E-04  4.02025621E-03  2.07128267E-02
  8.10105536E-02  2.35962985E-01  4.42653446E-01  3.57064423E-01 -4.42115008E-05
 -1.22591041E-03 -1.05517725E-02 -6.74452633E-02 -1.71198607E-01  1.07329856E+00
  1.00000000E+00  1.00000000E+00  1.00000000E+00  4.11634896E-02  2.57762836E-01
  8.02419274E-01  1.00000000E+00  1.00000000E+00  1.00000000E+00  1.00000000E+00
  1.00000000E+00  1.00000000E+00  1.00000000E+00  1.00000000E+00
Coordinates of each shell                  R   N=         195
  2.15792359E+00 -1.14496410E+00 -6.38229560E-32  2.15792359E+00 -1.14496410E+00
 -6.38229560E-32  2.15792359E+00 -1.14496410E+00 -6.38229560E-32  2.15792359E+00
 -1.14496410E+00 -6.38229560E-32  2.15792359E+00 -1.14496410E+00 -6.38229560E-32
  2.15792359E+00 -1.14496410E+00 -6.38229560E-32  2.15792359E+00 -1.14496410E+00
 -6.38229560E-32  2.15792359E+00 -1.14496410E+00 -6.38229560E-32  2.15792359E+00
 -1.14496410E+00 -6.38229560E-32  2.48532967E+00  6.88118498E-01 -5.17070185E-32
  2.48532967E+00  6.88118498E-01 -5.17070185E-32  2.48532967E+00  6.88118498E-01
 -5.17070185E-32  2.48532967E+00  6.88118498E-01 -5.17070185E-32  2.48532967E+00
  6.88118498E-01 -5.17070185E-32  2.48532967E+00  6.88118498E-01 -5.17070185E-32
  2.48532967E+00  6.88118498E-01 -5.17070185E-32  2.48532967E+00  6.88118498E-01
 -5.17070185E-32  2.48532967E+00  6.88118498E-01 -5.17070185E-32  2.48532967E+00
  6.88118498E-01 -5.17070185E-32  2.48532967E+00  6.88118498E-01 -5.17070185E-32
  2.48532967E+00  6.88118498E-01 -5.17070185E-32  2.48532967E+00  6.88118498E-01
 -5.17070185E-32  2.48532967E+00  6.88118498E-01 -5.17070185E-32 -1.44904421E-17
  1.73325755E+00  1.88279159E-32 -1.44904421E-17  1.73325755E+00  1.88279159E-32
 -1.44904421E-17  1.73325755E+00  1.88279159E-32 -1.44904421E-17  1.73325755E+00
  1.88279159E-32 -1.44904421E-17  1.73325755E+00  1.88279159E-32 -1.44904421E-17
  1.73325755E+00  1.88279159E-32 -1.44904421E-17  1.73325755E+00  1.88279159E-32
 -1.44904421E-17  1.73325755E+00  1.88279159E-32 -1.44904421E-17  1.73325755E+00
  1.88279159E-32 -1.44904421E-17  1.73325755E+00  1.88279159E-32 -1.44904421E-17
  1.73325755E+00  1.88279159E-32 -1.44904421E-17  1.73325755E+00  1.88279159E-32
 -1.44904421E-17  1.73325755E+00  1.88279159E-32 -1.44904421E-17  1.73325755E+00
  1.88279159E-32 -1.87569552E+00 -8.15216646E-02  4.37794167E-32 -1.87569552E+00
 -8.15216646E-02  4.37794167E-32 -1.87569552E+00 -8.15216646E-02  4.37794167E-32
 -1.87569552E+00 -8.15216646E-02  4.37794167E-32 -1.87569552E+00 -8.15216646E-02
  4.37794167E-32 -1.87569552E+00 -8.15216646E-02  4.37794167E-32 -1.87569552E+00
 -8.15216646E-02  4.37794167E-32 -1.87569552E+00 -8.15216646E-02  4.37794167E-32
 -1.87569552E+00 -8.15216646E-02  4.37794167E-32 -1.87569552E+00 -8.15216646E-02
  4.37794167E-32 -1.87569552E+00 -8.15216646E-02  4.37794167E-32 -1.87569552E+00
 -8.15216646E-02  4.37794167E-32 -1.87569552E+00 -8.15216646E-02  4.37794167E-32
 -1.87569552E+00 -8.15216646E-02  4.37794167E-32 -1.11383654E+00 -2.20692408E+00
  2.54998243E-33 -1.11383654E+00 -2.20692408E+00  2.54998243E-33 -1.11383654E+00
 -2.20692408E+00  2.54998243E-33 -1.11383654E+00 -2.20692408E+00  2.54998243E-33
 -1.11383654E+00 -2.20692408E+00  2.54998243E-33 -1.11383654E+00 -2.20692408E+00
  2.54998243E-33 -1.11383654E+00 -2.20692408E+00  2.54998243E-33 -1.11383654E+00
 -2.20692408E+00  2.54998243E-33 -1.11383654E+00 -2.20692408E+00  2.54998243E-33
 -1.11383654E+00 -2.20692408E+00  2.54998243E-33 -1.11383654E+00 -2.20692408E+00
  2.54998243E-33 -1.11383654E+00 -2.20692408E+00  2.54998243E-33 -1.11383654E+00
 -2.20692408E+00  2.54998243E-33 -1.11383654E+00 -2.20692408E+00  2.54998243E-33
Num ILSW                                   I              100
ILSW                                       I   N=         100
           0           0           0           0           2           0
           0           0           0           0           0          -1
           5           0           0           0           2           0
           0           0           0           0           1           0
           1           0           0           0           0           0
           0           0      100000           0          -1           0
           0           0           0           0           0           0
           0           0           0           1           1           0
           0 -2000000000           1           0           0           0
           0           0           4          52           0           0
           0           0           0           0           0           0
           0           0           0           5           4           1
           0           0           0           0           0           0
           0           0           0           0           0           0
           0           0           0           0           0           0
           0           0           0           0           0           0
           0           0           0           0
Num RLSW                                   I               52
RLSW                                       R   N=          52
  1.00000000E+00  1.00000000E+00  1.00000000E+00  1.00000000E+00  1.00000000E+00
  0.00000000E+00  0.00000000E+00  1.00000000E+00  0.00000000E+00  0.00000000E+00
  0.00000000E+00  0.00000000E+00  1.00000000E+00  0.00000000E+00  0.00000000E+00
  0.00000000E+00  0.00000000E+00  1.00000000E+00  0.00000000E+00  0.00000000E+00
  0.00000000E+00  0.00000000E+00  1.00000000E+00  0.00000000E+00  0.00000000E+00
  0.00000000E+00  0.00000000E+00  1.00000000E+00  0.00000000E+00  0.00000000E+00
  0.00000000E+00  0.00000000E+00  1.00000000E+00  0.00000000E+00  0.00000000E+00
  0.00000000E+00  0.00000000E+00  0.00000000E+00  1.00000000E+00  1.00000000E+00
  0.00000000E+00  1.00000000E+00  0.00000000E+00  0.00000000E+00  0.00000000E+00
  0.00000000E+00  0.00000000E+00  0.00000000E+00  0.00000000E+00  0.00000000E+00
  0.00000000E+00  0.00000000E+00
MxBond                                     I                2
NBond                                      I   N=           5
           1           2           2           2           1
IBond                                      I   N=          10
           2           0           1           3           2           4
           3           5           4           0
RBond                                      R   N=          10
  1.00000000E+00  0.00000000E+00  1.00000000E+00  1.00000000E+00  1.00000000E+00
  1.00000000E+00  1.00000000E+00  2.00000000E+00  2.00000000E+00  0.00000000E+00
Virial Ratio                               R      2.002258817062719E+00
SCF Energy                                 R     -2.795066782674587E+02
MP2 Energy                                 R     -2.804550824405079E+02
Total Energy                               R     -2.804550824405079E+02
Post-SCF wavefunction norm                 R      1.583652216880022E+00
RMS Force                                  R      1.944869677876513E-03
RMS Density                                R      4.346766377135015E-09
NImag                                      I                0
Job Status                                 I                1
Nuclear derivative order                   I                2
External E-field                           R   N=          35
  0.00000000E+00  0.00000000E+00  0.00000000E+00  0.00000000E+00  0.00000000E+00
  0.00000000E+00  0.00000000E+00  0.00000000E+00  0.00000000E+00  0.00000000E+00
  0.00000000E+00  0.00000000E+00  0.00000000E+00  0.00000000E+00  0.00000000E+00
  0.00000000E+00  0.00000000E+00  0.00000000E+00  0.00000000E+00  0.00000000E+00
  0.00000000E+00  0.00000000E+00  0.00000000E+00  0.00000000E+00  0.00000000E+00
  0.00000000E+00  0.00000000E+00  0.00000000E+00  0.00000000E+00  0.00000000E+00
  0.00000000E+00  0.00000000E+00  0.00000000E+00  0.00000000E+00  0.00000000E+00
IOpCl                                      I                0
IROHF                                      I                0
Alpha Orbital Energies                     R   N=         207
 -2.07200839E+01 -2.06860616E+01 -2.06677414E+01 -1.58250354E+01 -1.64272868E+00
 -1.50401151E+00 -1.29361008E+00 -9.60418164E-01 -8.32952502E-01 -7.58186548E-01
 -7.39227009E-01 -6.36804994E-01 -6.18256449E-01 -6.17514829E-01 -5.03400011E-01
 -4.97290697E-01  3.46830088E-02  6.11002529E-02  9.52253004E-02  1.00442039E-01
  1.20104874E-01  1.22590806E-01  1.49196866E-01  1.51075284E-01  1.77721833E-01
  1.80975547E-01  1.89962016E-01  2.11281709E-01  2.16406804E-01  2.42745719E-01
  2.46399429E-01  2.69572365E-01  3.11825221E-01  3.15527422E-01  3.38414383E-01
  3.43302872E-01  3.45635434E-01  3.92350287E-01  4.47597460E-01  4.85449382E-01
  5.04439480E-01  5.19037033E-01  5.47399770E-01  5.61820599E-01  6.01133586E-01
  6.19896138E-01  6.38963131E-01  6.87793303E-01  7.18119689E-01  7.24422040E-01
  7.44474093E-01  7.62313392E-01  7.67391770E-01  7.96140872E-01  8.06505261E-01
  8.41712074E-01  8.43130263E-01  8.50242553E-01  8.86133318E-01  9.07034298E-01
  9.32375775E-01  9.46190356E-01  9.55177463E-01  1.01714091E+00  1.02845019E+00
  1.05689449E+00  1.06411820E+00  1.09327831E+00  1.14155344E+00  1.15616986E+00
  1.16920092E+00  1.22305488E+00  1.22637559E+00  1.24421680E+00  1.34640683E+00
  1.37116760E+00  1.37506060E+00  1.46884173E+00  1.48675184E+00  1.50765438E+00
  1.53866337E+00  1.59597019E+00  1.59730501E+00  1.60790760E+00  1.62890911E+00
  1.69747206E+00  1.73264980E+00  1.80169500E+00  1.83088572E+00  1.87976857E+00
  1.88897988E+00  1.92565289E+00  1.97964550E+00  1.99063361E+00  2.05119019E+00
  2.12264579E+00  2.12670596E+00  2.16163636E+00  2.18490920E+00  2.24491068E+00
  2.25813491E+00  2.29003027E+00  2.34778911E+00  2.36240009E+00  2.38521333E+00
  2.40044247E+00  2.43118904E+00  2.46927478E+00  2.47796669E+00  2.52758332E+00
  2.53496952E+00  2.55231950E+00  2.55713073E+00  2.61502670E+00  2.62852223E+00
  2.67212319E+00  2.67371249E+00  2.75840276E+00  2.81734641E+00  2.82207952E+00
  2.82785222E+00  2.91888891E+00  2.98427056E+00  3.04610038E+00  3.05145146E+00
  3.11191377E+00  3.11344193E+00  3.16896151E+00  3.20235087E+00  3.30495104E+00
  3.33305024E+00  3.36487288E+00  3.47413005E+00  3.67956516E+00  3.86791995E+00
  3.91576370E+00  4.17954780E+00  4.22021702E+00  4.22849710E+00  4.26736516E+00
  4.37178598E+00  4.50325128E+00  4.51552188E+00  4.55716922E+00  4.58984107E+00
  4.69859933E+00  4.80855377E+00  4.89951937E+00  4.91368394E+00  4.94408189E+00
  5.00393240E+00  5.00642173E+00  5.10590309E+00  5.13422401E+00  5.18258512E+00
  5.24787699E+00  5.26337353E+00  5.31875993E+00  5.32357105E+00  5.36149613E+00
  5.54817945E+00  5.64533646E+00  5.70259083E+00  5.88044876E+00  5.99890838E+00
  6.26502266E+00  6.29130833E+00  6.36355411E+00  6.38410546E+00  6.59263456E+00
  6.65367779E+00  6.66450600E+00  6.68872122E+00  6.72757126E+00  6.80000691E+00
  6.80037136E+00  6.85243333E+00  6.96688098E+00  7.00338195E+00  7.06648490E+00
  7.08614786E+00  7.15117054E+00  7.17228591E+00  7.17539447E+00  7.19961269E+00
  7.24499645E+00  7.24514275E+00  7.26891011E+00  7.34689857E+00  7.38545098E+00
  7.41953025E+00  7.44338516E+00  7.46195079E+00  7.56099041E+00  7.65836685E+00
  7.66416059E+00  7.79154105E+00  7.87577920E+00  7.95109569E+00  8.04933501E+00
  8.29159108E+00  8.50547331E+00  8.65230542E+00  1.36215286E+01  1.47391221E+01
  1.50893647E+01  1.57225539E+01
Alpha MO coefficients                      R   N=       42849
  5.44343537E-05 -3.16063813E-05 -1.12639671E-03  1.22641453E-05 -6.23264833E-05
  4.28636500E-05  0.00000000E+00 -1.25233426E-04 -3.17229474E-04  0.00000000E+00
 -1.50755778E-05 -3.74252631E-04  0.00000000E+00  4.08166661E-05  0.00000000E+00
  0.00000000E+00 -2.03368428E-05 -5.62696294E-06  2.31858342E-04  0.00000000E+00
  0.00000000E+00 -2.01953469E-05 -2.04725153E-04  3.02056351E-03 -9.07836069E-05
 -1.03957787E-04  3.64351958E-03  2.54666361E-03  1.01510093E-04 -5.25364490E-05
  0.00000000E+00 -7.27023155E-04  2.67752983E-04  0.00000000E+00 -2.00262434E-03
  1.12815429E-03  0.00000000E+00 -5.39409377E-04  3.80072747E-05  0.00000000E+00
  2.03092381E-05  0.00000000E+00  0.00000000E+00 -8.93139847E-06  4.71042253E-05
 -4.48356196E-04  0.00000000E+00  0.00000000E+00  4.20053466E-04 -6.79859770E-04
 -3.70208087E-04  0.00000000E+00  0.00000000E+00  5.64079277E-04 -7.64315223E-04
  0.00000000E+00  7.44500459E-05 -5.17968632E-05  0.00000000E+00  0.00000000E+00
 -2.81665930E-05  1.10594260E-04  0.00000000E+00  2.03502523E-04 -5.20855708E-05
  0.00000000E+00  0.00000000E+00 -1.79792521E-04  3.06322372E-04  9.76906767E-01
 -9.16995376E-03  4.34044973E-02  4.40334556E-04 -2.23047728E-03  4.46982134E-04
 -2.14706074E-03  0.00000000E+00 -3.19740220E-04  2.25621946E-03  0.00000000E+00
 -2.37510316E-03 -4.57955295E-04  0.00000000E+00 -2.36032540E-04  1.00067340E-04
  0.00000000E+00  8.17839236E-06  0.00000000E+00  0.00000000E+00 -3.98418069E-06
  4.00832418E-05  8.30795035E-04  0.00000000E+00  0.00000000E+00 -4.81227414E-04
 -1.66488507E-04 -1.35486048E-04  0.00000000E+00  0.00000000E+00 -5.48828366E-04
  3.69264121E-04  0.00000000E+00 -6.18849617E-06 -7.88635253E-05  0.00000000E+00
  0.00000000E+00 -9.64754215E-06  4.82578792E-05  0.00000000E+00  9.26623868E-05
 -4.95807545E-07  0.00000000E+00  0.00000000E+00 -3.36740963E-04  3.84843672E-04
  1.04746152E-04  4.59158517E-04 -3.24929242E-04 -8.15965870E-04  3.40485101E-04
 -4.45742155E-05 -9.96454934E-05  0.00000000E+00  7.01477196E-04  1.11074665E-03
  0.00000000E+00 -7.56715120E-04 -6.93088977E-04  0.00000000E+00  1.97264186E-04
  2.10817753E-04  0.00000000E+00 -5.24428137E-05  0.00000000E+00  0.00000000E+00
  1.95912180E-05  9.30381150E-05 -4.18453647E-04  0.00000000E+00  0.00000000E+00
  4.11937161E-05  1.08269195E-03  2.81015032E-05  0.00000000E+00  0.00000000E+00
 -3.12268166E-04  1.56694758E-05  0.00000000E+00 -7.91418878E-05 -1.13426786E-04
  0.00000000E+00  0.00000000E+00 -9.62919510E-05  1.05854596E-04  0.00000000E+00
 -1.23305154E-04  4.75103849E-05  0.00000000E+00  0.00000000E+00  1.72577592E-05
  5.24526122E-04 -6.73761419E-04  4.96264048E-05 -6.85519086E-05  1.54692590E-04
 -1.95952065E-04 -2.83776357E-05 -4.13362496E-05  0.00000000E+00  1.67918018E-04
  2.53184473E-04  0.00000000E+00  5.21125830E-04  3.02499861E-04  0.00000000E+00
 -2.29663684E-04 -6.44606327E-05  0.00000000E+00 -1.34882142E-05  0.00000000E+00
  0.00000000E+00  4.12263096E-06  1.53885018E-05  5.05020410E-07  0.00000000E+00
  0.00000000E+00 -1.68056146E-04  1.10512968E-05 -2.42241391E-05  0.00000000E+00
  0.00000000E+00 -1.64024185E-04 -4.64412475E-05  0.00000000E+00 -5.53418130E-06
 -9.18055276E-06  0.00000000E+00  0.00000000E+00 -2.26905799E-05  9.71953444E-06
  0.00000000E+00  3.99243604E-05  6.14641382E-05  0.00000000E+00  0.00000000E+00
  1.59517295E-04 -1.05840461E-04  4.44830888E-05  1.23236696E-04 -1.68879680E-04
 -2.96347375E-05  1.19775820E-05  1.08550174E-05  0.00000000E+00  2.26420249E-04
  7.41393236E-05  0.00000000E+00  1.23614529E-04  1.22731459E-05  0.00000000E+00
  1.55324085E-05  0.00000000E+00  0.00000000E+00 -1.78761916E-05  1.35596891E-05
  3.65464111E-05  0.00000000E+00  0.00000000E+00 -1.00160280E-04  4.53773911E-05
 -2.58472270E-04  2.81606738E-05 -1.55186115E-05 -5.32887723E-04  2.01347809E-04
  7.12908798E-06  1.39896685E-05  0.00000000E+00 -5.63211030E-07 -4.40561108E-05
  0.00000000E+00  1.78917691E-04  1.79720630E-04  0.00000000E+00 -5.24035177E-05
  4.37076635E-05  0.00000000E+00 -1.50833762E-06  0.00000000E+00  0.00000000E+00
 -8.24869955E-06 -1.08622940E-05  2.15317207E-05  0.00000000E+00  0.00000000E+00
  4.95702644E-05  1.04539513E-04  6.34360067E-05  0.00000000E+00  0.00000000E+00
 -1.27530463E-05 -1.03474834E-04  0.00000000E+00  8.08558829E-06  1.07356064E-05
  0.00000000E+00  0.00000000E+00 -8.17335937E-07 -2.43695036E-05  0.00000000E+00
 -1.58363047E-05 -3.72480090E-05  0.00000000E+00  0.00000000E+00 -5.56235828E-06
 -1.70153285E-05  7.02797054E-04  2.52322926E-05 -1.99492159E-05  2.64956484E-04
 -4.07317992E-04  1.64791390E-05  2.68626463E-05  0.00000000E+00 -6.52122359E-05
 -1.50976075E-04  0.00000000E+00  1.12601297E-04 -1.94595503E-04  0.00000000E+00
 -1.58922044E-04  1.45117028E-04  0.00000000E+00 -4.12973633E-06  0.00000000E+00
  0.00000000E+00 -2.93884928E-05 -9.79130819E-06 -5.03889689E-05  0.00000000E+00
  0.00000000E+00  7.92389453E-05  1.21325671E-04 -6.25484014E-05  0.00000000E+00
  0.00000000E+00  4.08293941E-05  3.06514091E-05  0.00000000E+00  2.97778947E-06
  3.48512457E-06  0.00000000E+00  0.00000000E+00 -7.82351498E-06 -1.99078292E-06
  0.00000000E+00  4.23541622E-06 -2.55627195E-05  0.00000000E+00  0.00000000E+00
  9.32135975E-05 -1.55128930E-04  2.37419470E-04  1.35904188E-03 -1.48376169E-04
 -6.60932180E-04  9.02606010E-04  6.30999095E-05 -7.07271957E-05  0.00000000E+00
  5.70510934E-04 -2.08509932E-03  0.00000000E+00  1.25642490E-04  4.65759259E-04
  0.00000000E+00  1.85918060E-04 -3.07952514E-04  0.00000000E+00 -1.27706168E-04
  0.00000000E+00  0.00000000E+00 -2.04204581E-04 -1.58495671E-04 -4.62543953E-04
  0.00000000E+00  0.00000000E+00 -6.05318463E-04 -9.14979727E-04 -4.16958608E-05
  0.00000000E+00  0.00000000E+00  6.40095075E-05  1.05871863E-04  0.00000000E+00
  8.21033864E-06  3.69144431E-05  0.00000000E+00  0.00000000E+00 -2.42811816E-05
 -3.93807256E-06  0.00000000E+00 -1.34474753E-04  1.59142145E-04  0.00000000E+00
  0.00000000E+00 -3.13249294E-04 -2.85466914E-05  9.76646737E-01 -9.88595417E-03
  4.35750375E-02  3.66103227E-03 -8.99463393E-04 -4.53084686E-04  2.12958015E-03
  0.00000000E+00  5.13304026E-04 -2.50422335E-03  0.00000000E+00 -5.21707763E-05
  7.93536370E-04  0.00000000E+00  1.02641230E-04 -6.55213873E-05  0.00000000E+00
 -1.94922979E-04  0.00000000E+00  0.00000000E+00 -7.36822570E-05 -4.33903279E-05
  4.09723457E-04  0.00000000E+00  0.00000000E+00  8.58459427E-04  4.82985450E-04
 -2.09197934E-04  0.00000000E+00  0.00000000E+00 -1.26984456E-04 -3.73612656E-05
  0.00000000E+00 -4.13897023E-06  7.03340235E-05  0.00000000E+00  0.00000000E+00
 -3.04966589E-05  1.04696344E-05  0.00000000E+00 -9.03350780E-05  9.26795677E-05
  0.00000000E+00  0.00000000E+00 -1.61769932E-04  2.03951313E-04  3.83454259E-04
  2.14384393E-03  1.19040339E-03 -1.89073036E-05  4.92694452E-05  2.70715018E-04
  0.00000000E+00  3.29907758E-04  1.07082242E-03  0.00000000E+00 -1.02445888E-04
  2.52104486E-04  0.00000000E+00 -2.30973022E-05  0.00000000E+00  0.00000000E+00
  3.61467948E-05 -2.20260054E-05 -1.77691448E-04  0.00000000E+00  0.00000000E+00
 -3.70766859E-04  3.31208922E-04  9.76833603E-01 -9.17419481E-03  4.34723919E-02
  1.11497042E-04 -1.86499824E-03 -2.03245581E-03 -8.67442868E-04  0.00000000E+00
  2.06660967E-03  7.95117233E-04  0.00000000E+00 -4.10268749E-04  7.58008929E-04
  0.00000000E+00  2.12221147E-04 -3.19565067E-04  0.00000000E+00  2.85831011E-05
  0.00000000E+00  0.00000000E+00 -7.94341771E-05  5.59072566E-05  7.74205372E-04
  0.00000000E+00  0.00000000E+00 -1.89269013E-04  3.76566153E-04 -2.33904991E-04
  0.00000000E+00  0.00000000E+00  3.64621274E-04 -4.15682614E-05  0.00000000E+00
 -7.99885891E-05  1.39603270E-06  0.00000000E+00  0.00000000E+00  1.72056989E-05