title                                                                   
Freq      RMP2-FC                                                     Aug-CC-pVTZ         
Number of atoms                            I                5
Info1-9                                    I   N=           9
          33          24           0           0           0         100
           6           2           1
Full Title                                 C   N=           1
title       
Route                                      C   N=           4
#p freq mp2/aug-cc-pvtz density=current         
Charge                                     I                0
Multiplicity                               I                1
Number of electrons                        I               32
Number of alpha electrons                  I               16
Number of beta electrons                   I               16
Number of basis functions                  I              207
Number of independent functions            I              207
Number of point charges in /Mol/           I                0
Number of translation vectors              I                0
Atomic numbers                             I   N=           5
           1           8           8           7           8
Nuclear charges                            R   N=           5
  1.00000000E+00  8.00000000E+00  8.00000000E+00  7.00000000E+00  8.00000000E+00
Current cartesian coordinates              R   N=          15
 -1.02060487E+00 -2.15156379E+00  3.81433414E-02 -2.41300952E+00 -9.15672251E-01
  3.96850049E-03 -1.02597005E+00  1.39624802E+00 -1.40689805E-02  1.55946948E+00
  1.04136928E+00  2.08714302E-02  2.20201939E+00 -1.12282841E+00 -1.29299391E-02
Number of symbols in /Mol/                 I                0
Force Field                                I                0
Atom Types                                 C   N=           5
                                                            
Int Atom Types                             I   N=           5
           0           0           0           0           0
MM charges                                 R   N=           5
  0.00000000E+00  0.00000000E+00  0.00000000E+00  0.00000000E+00  0.00000000E+00
Integer atomic weights                     I   N=           5
           1          16          16          14          16
Real atomic weights                        R   N=           5
  1.00782504E+00  1.59949146E+01  1.59949146E+01  1.40030740E+01  1.59949146E+01
Atom fragment info                         I   N=           5
           0           0           0           0           0
Atom residue num                           I   N=           5
           0           0           0           0           0
Nuclear spins                              I   N=           5
           1           0           0           2           0
Nuclear ZEff                               R   N=           5
 -1.00000000E+00 -5.60000000E+00 -5.60000000E+00 -4.55000000E+00 -5.60000000E+00
Nuclear ZNuc                               R   N=           5
  1.00000000E+00  8.00000000E+00  8.00000000E+00  7.00000000E+00  8.00000000E+00
Nuclear QMom                               R   N=           5
  0.00000000E+00  0.00000000E+00  0.00000000E+00  2.04400000E+00  0.00000000E+00
Nuclear GFac                               R   N=           5
  2.79284600E+00  0.00000000E+00  0.00000000E+00  4.03761000E-01  0.00000000E+00
MicOpt                                     I   N=           5
          -1          -1          -1          -1          -1
Number of residues                         I                0
Number of secondary structures             I                0
SymInf integers                            I   N=          26
           1           1           1           1           1           0
           0           0           0           0           0           0
           0           0           0           0           0           0
           0           0           0           0           0           0
           0           0
RotTr to input orientation                 R   N=          12
  6.63865522E-01  1.14946561E-02 -7.47763626E-01  7.47844419E-01 -1.46968230E-02
  6.63711330E-01 -3.36061612E-03 -9.99825923E-01 -1.83529285E-02  2.28670755E+00
  1.82470515E-02  6.65546107E-01
Number of contracted shells                I               65
Number of primitive shells                 I              119
Pure/Cartesian d shells                    I                0
Pure/Cartesian f shells                    I                0
Highest angular momentum                   I                3
Largest degree of contraction              I                7
Shell types                                I   N=          65
           0           0           0           0           1           1
           1          -2          -2           0           0           0
           0           0           1           1           1           1
          -2          -2          -2          -3          -3           0
           0           0           0           0           1           1
           1           1          -2          -2          -2          -3
          -3           0           0           0           0           0
           1           1           1           1          -2          -2
          -2          -3          -3           0           0           0
           0           0           1           1           1           1
          -2          -2          -2          -3          -3
Number of primitives per shell             I   N=          65
           3           1           1           1           1           1
           1           1           1           7           6           1
           1           1           3           1           1           1
           1           1           1           1           1           7
           6           1           1           1           3           1
           1           1           1           1           1           1
           1           7           6           1           1           1
           3           1           1           1           1           1
           1           1           1           7           6           1
           1           1           3           1           1           1
           1           1           1           1           1
Shell to atom map                          I   N=          65
           1           1           1           1           1           1
           1           1           1           2           2           2
           2           2           2           2           2           2
           2           2           2           2           2           3
           3           3           3           3           3           3
           3           3           3           3           3           3
           3           4           4           4           4           4
           4           4           4           4           4           4
           4           4           4           5           5           5
           5           5           5           5           5           5
           5           5           5           5           5
Primitive exponents                        R   N=         119
  3.38700000E+01  5.09500000E+00  1.15900000E+00  3.25800000E-01  1.02700000E-01
  2.52600000E-02  1.40700000E+00  3.88000000E-01  1.02000000E-01  1.05700000E+00
  2.47000000E-01  1.53300000E+04  2.29900000E+03  5.22400000E+02  1.47300000E+02
  4.75500000E+01  1.67600000E+01  6.20700000E+00  5.22400000E+02  1.47300000E+02
  4.75500000E+01  1.67600000E+01  6.20700000E+00  6.88200000E-01  1.75200000E+00
  2.38400000E-01  7.37600000E-02  3.44600000E+01  7.74900000E+00  2.28000000E+00
  7.15600000E-01  2.14000000E-01  5.97400000E-02  2.31400000E+00  6.45000000E-01
  2.14000000E-01  1.42800000E+00  5.00000000E-01  1.53300000E+04  2.29900000E+03
  5.22400000E+02  1.47300000E+02  4.75500000E+01  1.67600000E+01  6.20700000E+00
  5.22400000E+02  1.47300000E+02  4.75500000E+01  1.67600000E+01  6.20700000E+00
  6.88200000E-01  1.75200000E+00  2.38400000E-01  7.37600000E-02  3.44600000E+01
  7.74900000E+00  2.28000000E+00  7.15600000E-01  2.14000000E-01  5.97400000E-02
  2.31400000E+00  6.45000000E-01  2.14000000E-01  1.42800000E+00  5.00000000E-01
  1.14200000E+04  1.71200000E+03  3.89300000E+02  1.10000000E+02  3.55700000E+01
  1.25400000E+01  4.64400000E+00  3.89300000E+02  1.10000000E+02  3.55700000E+01
  1.25400000E+01  4.64400000E+00  5.11800000E-01  1.29300000E+00  1.78700000E-01
  5.76000000E-02  2.66300000E+01  5.94800000E+00  1.74200000E+00  5.55000000E-01
  1.72500000E-01  4.91000000E-02  1.65400000E+00  4.69000000E-01  1.51000000E-01
  1.09300000E+00  3.64000000E-01  1.53300000E+04  2.29900000E+03  5.22400000E+02
  1.47300000E+02  4.75500000E+01  1.67600000E+01  6.20700000E+00  5.22400000E+02
  1.47300000E+02  4.75500000E+01  1.67600000E+01  6.20700000E+00  6.88200000E-01
  1.75200000E+00  2.38400000E-01  7.37600000E-02  3.44600000E+01  7.74900000E+00
  2.28000000E+00  7.15600000E-01  2.14000000E-01  5.97400000E-02  2.31400000E+00
  6.45000000E-01  2.14000000E-01  1.42800000E+00  5.00000000E-01
Contraction coefficients                   R   N=         119
  2.54948632E-02  1.90362766E-01  8.52162022E-01  1.00000000E+00  1.00000000E+00
  1.00000000E+00  1.00000000E+00  1.00000000E+00  1.00000000E+00  1.00000000E+00
  1.00000000E+00  5.19808943E-04  4.02025621E-03  2.07128267E-02  8.10105536E-02
  2.35962985E-01  4.42653446E-01  3.57064423E-01 -4.42115008E-05 -1.22591041E-03
 -1.05517725E-02 -6.74452633E-02 -1.71198607E-01  1.07329856E+00  1.00000000E+00
  1.00000000E+00  1.00000000E+00  4.11634896E-02  2.57762836E-01  8.02419274E-01
  1.00000000E+00  1.00000000E+00  1.00000000E+00  1.00000000E+00  1.00000000E+00
  1.00000000E+00  1.00000000E+00  1.00000000E+00  5.19808943E-04  4.02025621E-03
  2.07128267E-02  8.10105536E-02  2.35962985E-01  4.42653446E-01  3.57064423E-01
 -4.42115008E-05 -1.22591041E-03 -1.05517725E-02 -6.74452633E-02 -1.71198607E-01
  1.07329856E+00  1.00000000E+00  1.00000000E+00  1.00000000E+00  4.11634896E-02
  2.57762836E-01  8.02419274E-01  1.00000000E+00  1.00000000E+00  1.00000000E+00
  1.00000000E+00  1.00000000E+00  1.00000000E+00  1.00000000E+00  1.00000000E+00
  5.34563860E-04  4.13435660E-03  2.12335358E-02  8.25006224E-02  2.38138871E-01
  4.42551547E-01  3.53757422E-01 -4.89867350E-05 -1.19527323E-03 -1.03490714E-02
 -6.48680190E-02 -1.71552477E-01  1.07289568E+00  1.00000000E+00  1.00000000E+00
  1.00000000E+00  3.98072123E-02  2.49002660E-01  8.10479727E-01  1.00000000E+00
  1.00000000E+00  1.00000000E+00  1.00000000E+00  1.00000000E+00  1.00000000E+00
  1.00000000E+00  1.00000000E+00  5.19808943E-04  4.02025621E-03  2.07128267E-02
  8.10105536E-02  2.35962985E-01  4.42653446E-01  3.57064423E-01 -4.42115008E-05
 -1.22591041E-03 -1.05517725E-02 -6.74452633E-02 -1.71198607E-01  1.07329856E+00
  1.00000000E+00  1.00000000E+00  1.00000000E+00  4.11634896E-02  2.57762836E-01
  8.02419274E-01  1.00000000E+00  1.00000000E+00  1.00000000E+00  1.00000000E+00
  1.00000000E+00  1.00000000E+00  1.00000000E+00  1.00000000E+00
Coordinates of each shell                  R   N=         195
 -1.02060487E+00 -2.15156379E+00  3.81433414E-02 -1.02060487E+00 -2.15156379E+00
  3.81433414E-02 -1.02060487E+00 -2.15156379E+00  3.81433414E-02 -1.02060487E+00
 -2.15156379E+00  3.81433414E-02 -1.02060487E+00 -2.15156379E+00  3.81433414E-02
 -1.02060487E+00 -2.15156379E+00  3.81433414E-02 -1.02060487E+00 -2.15156379E+00
  3.81433414E-02 -1.02060487E+00 -2.15156379E+00  3.81433414E-02 -1.02060487E+00
 -2.15156379E+00  3.81433414E-02 -2.41300952E+00 -9.15672251E-01  3.96850049E-03
 -2.41300952E+00 -9.15672251E-01  3.96850049E-03 -2.41300952E+00 -9.15672251E-01
  3.96850049E-03 -2.41300952E+00 -9.15672251E-01  3.96850049E-03 -2.41300952E+00
 -9.15672251E-01  3.96850049E-03 -2.41300952E+00 -9.15672251E-01  3.96850049E-03
 -2.41300952E+00 -9.15672251E-01  3.96850049E-03 -2.41300952E+00 -9.15672251E-01
  3.96850049E-03 -2.41300952E+00 -9.15672251E-01  3.96850049E-03 -2.41300952E+00
 -9.15672251E-01  3.96850049E-03 -2.41300952E+00 -9.15672251E-01  3.96850049E-03
 -2.41300952E+00 -9.15672251E-01  3.96850049E-03 -2.41300952E+00 -9.15672251E-01
  3.96850049E-03 -2.41300952E+00 -9.15672251E-01  3.96850049E-03 -1.02597005E+00
  1.39624802E+00 -1.40689805E-02 -1.02597005E+00  1.39624802E+00 -1.40689805E-02
 -1.02597005E+00  1.39624802E+00 -1.40689805E-02 -1.02597005E+00  1.39624802E+00
 -1.40689805E-02 -1.02597005E+00  1.39624802E+00 -1.40689805E-02 -1.02597005E+00
  1.39624802E+00 -1.40689805E-02 -1.02597005E+00  1.39624802E+00 -1.40689805E-02
 -1.02597005E+00  1.39624802E+00 -1.40689805E-02 -1.02597005E+00  1.39624802E+00
 -1.40689805E-02 -1.02597005E+00  1.39624802E+00 -1.40689805E-02 -1.02597005E+00
  1.39624802E+00 -1.40689805E-02 -1.02597005E+00  1.39624802E+00 -1.40689805E-02
 -1.02597005E+00  1.39624802E+00 -1.40689805E-02 -1.02597005E+00  1.39624802E+00
 -1.40689805E-02  1.55946948E+00  1.04136928E+00  2.08714302E-02  1.55946948E+00
  1.04136928E+00  2.08714302E-02  1.55946948E+00  1.04136928E+00  2.08714302E-02
  1.55946948E+00  1.04136928E+00  2.08714302E-02  1.55946948E+00  1.04136928E+00
  2.08714302E-02  1.55946948E+00  1.04136928E+00  2.08714302E-02  1.55946948E+00
  1.04136928E+00  2.08714302E-02  1.55946948E+00  1.04136928E+00  2.08714302E-02
  1.55946948E+00  1.04136928E+00  2.08714302E-02  1.55946948E+00  1.04136928E+00
  2.08714302E-02  1.55946948E+00  1.04136928E+00  2.08714302E-02  1.55946948E+00
  1.04136928E+00  2.08714302E-02  1.55946948E+00  1.04136928E+00  2.08714302E-02
  1.55946948E+00  1.04136928E+00  2.08714302E-02  2.20201939E+00 -1.12282841E+00
 -1.29299391E-02  2.20201939E+00 -1.12282841E+00 -1.29299391E-02  2.20201939E+00
 -1.12282841E+00 -1.29299391E-02  2.20201939E+00 -1.12282841E+00 -1.29299391E-02
  2.20201939E+00 -1.12282841E+00 -1.29299391E-02  2.20201939E+00 -1.12282841E+00
 -1.29299391E-02  2.20201939E+00 -1.12282841E+00 -1.29299391E-02  2.20201939E+00
 -1.12282841E+00 -1.29299391E-02  2.20201939E+00 -1.12282841E+00 -1.29299391E-02
  2.20201939E+00 -1.12282841E+00 -1.29299391E-02  2.20201939E+00 -1.12282841E+00
 -1.29299391E-02  2.20201939E+00 -1.12282841E+00 -1.29299391E-02  2.20201939E+00
 -1.12282841E+00 -1.29299391E-02  2.20201939E+00 -1.12282841E+00 -1.29299391E-02
Num ILSW                                   I              100
ILSW                                       I   N=         100
           0           0           0           0           2           0
           0           0           0           0           0          -1
           5           0           0           0           2           0
           0           0           0           0           1           0
           1           0           0           0           0           0
           0           0      100000           0          -1           0
           0           0           0           0           0           0
           0           0           0           1           1           0
           0 -2000000000           1           0           0           0
           0           0           4          52           0           0
           0           0           0           0           0           0
           0           0           0           5           4           1
           0           0           0           0           0           0
           0           0           0           0           0           0
           0           0           0           0           0           0
           0           0           0           0           0           0
           0           0           0           0
Num RLSW                                   I               52
RLSW                                       R   N=          52
  1.00000000E+00  1.00000000E+00  1.00000000E+00  1.00000000E+00  1.00000000E+00
  0.00000000E+00  0.00000000E+00  1.00000000E+00  0.00000000E+00  0.00000000E+00
  0.00000000E+00  0.00000000E+00  1.00000000E+00  0.00000000E+00  0.00000000E+00
  0.00000000E+00  0.00000000E+00  1.00000000E+00  0.00000000E+00  0.00000000E+00
  0.00000000E+00  0.00000000E+00  1.00000000E+00  0.00000000E+00  0.00000000E+00
  0.00000000E+00  0.00000000E+00  1.00000000E+00  0.00000000E+00  0.00000000E+00
  0.00000000E+00  0.00000000E+00  1.00000000E+00  0.00000000E+00  0.00000000E+00
  0.00000000E+00  0.00000000E+00  0.00000000E+00  1.00000000E+00  1.00000000E+00
  0.00000000E+00  1.00000000E+00  0.00000000E+00  0.00000000E+00  0.00000000E+00
  0.00000000E+00  0.00000000E+00  0.00000000E+00  0.00000000E+00  0.00000000E+00
  0.00000000E+00  0.00000000E+00
MxBond                                     I                2
NBond                                      I   N=           5
           1           2           2           2           1
IBond                                      I   N=          10
           2           0           1           3           2           4
           3           5           4           0
RBond                                      R   N=          10
  1.00000000E+00  0.00000000E+00  1.00000000E+00  1.00000000E+00  1.00000000E+00
  1.00000000E+00  1.00000000E+00  2.00000000E+00  2.00000000E+00  0.00000000E+00
Virial Ratio                               R      2.002227244645593E+00
SCF Energy                                 R     -2.795063819280883E+02
MP2 Energy                                 R     -2.804551719239722E+02
Total Energy                               R     -2.804551719239722E+02
Post-SCF wavefunction norm                 R      1.583725553193581E+00
RMS Force                                  R      1.075633197059033E-03
RMS Density                                R      7.933201973789092E-09
NImag                                      I                0
Job Status                                 I                1
Nuclear derivative order                   I                2
External E-field                           R   N=          35
  0.00000000E+00  0.00000000E+00  0.00000000E+00  0.00000000E+00  0.00000000E+00
  0.00000000E+00  0.00000000E+00  0.00000000E+00  0.00000000E+00  0.00000000E+00
  0.00000000E+00  0.00000000E+00  0.00000000E+00  0.00000000E+00  0.00000000E+00
  0.00000000E+00  0.00000000E+00  0.00000000E+00  0.00000000E+00  0.00000000E+00
  0.00000000E+00  0.00000000E+00  0.00000000E+00  0.00000000E+00  0.00000000E+00
  0.00000000E+00  0.00000000E+00  0.00000000E+00  0.00000000E+00  0.00000000E+00
  0.00000000E+00  0.00000000E+00  0.00000000E+00  0.00000000E+00  0.00000000E+00
IOpCl                                      I                0
IROHF                                      I                0
Alpha Orbital Energies                     R   N=         207
 -2.07197660E+01 -2.06872583E+01 -2.06683052E+01 -1.58260079E+01 -1.64427427E+00
 -1.50515958E+00 -1.29376271E+00 -9.60355243E-01 -8.34649829E-01 -7.58929880E-01
 -7.39944738E-01 -6.37417502E-01 -6.18974095E-01 -6.18159704E-01 -5.04749140E-01
 -4.97424958E-01  3.50614119E-02  6.02060910E-02  9.51179364E-02  1.00379118E-01
  1.19476496E-01  1.22789165E-01  1.49370561E-01  1.52043819E-01  1.77458981E-01
  1.80417336E-01  1.89726453E-01  2.11065155E-01  2.16736121E-01  2.42532999E-01
  2.46341104E-01  2.68974861E-01  3.12211481E-01  3.17212858E-01  3.38059715E-01
  3.43853232E-01  3.46796845E-01  3.92607894E-01  4.48755601E-01  4.88298909E-01
  5.05332868E-01  5.18541940E-01  5.44931575E-01  5.61200370E-01  5.99059644E-01
  6.20270389E-01  6.38547488E-01  6.89677709E-01  7.16963062E-01  7.24412381E-01
  7.43176314E-01  7.63727746E-01  7.67272081E-01  7.95385482E-01  8.06347439E-01
  8.40203647E-01  8.43170302E-01  8.51832382E-01  8.85430356E-01  9.07793971E-01
  9.30413481E-01  9.48199020E-01  9.54152151E-01  1.01814014E+00  1.03251137E+00
  1.06228711E+00  1.06583060E+00  1.09562243E+00  1.14402893E+00  1.15631296E+00
  1.16982866E+00  1.22225550E+00  1.22713024E+00  1.24604289E+00  1.35278934E+00
  1.36161669E+00  1.37147347E+00  1.46849859E+00  1.48557524E+00  1.50477336E+00
  1.54181723E+00  1.59456791E+00  1.59768270E+00  1.60770559E+00  1.62879415E+00
  1.69561354E+00  1.74058670E+00  1.80113815E+00  1.82987511E+00  1.88770162E+00
  1.89661879E+00  1.92941096E+00  1.97915187E+00  1.98959678E+00  2.05212786E+00
  2.12386999E+00  2.13052594E+00  2.16549291E+00  2.18795993E+00  2.24212698E+00
  2.26119146E+00  2.29439554E+00  2.35216551E+00  2.36623550E+00  2.38649921E+00
  2.40225064E+00  2.43368411E+00  2.46879894E+00  2.47977334E+00  2.52909607E+00
  2.53866291E+00  2.54918191E+00  2.55916047E+00  2.61609423E+00  2.63012632E+00
  2.67185761E+00  2.67437405E+00  2.75433976E+00  2.80917731E+00  2.81826906E+00
  2.84100940E+00  2.91872185E+00  2.98536731E+00  3.04698934E+00  3.05104782E+00
  3.11551085E+00  3.11817678E+00  3.17356725E+00  3.21327055E+00  3.30813698E+00
  3.33229356E+00  3.36107356E+00  3.47783502E+00  3.67813458E+00  3.86965125E+00
  3.93054847E+00  4.18379574E+00  4.22115977E+00  4.22739051E+00  4.26864463E+00
  4.36977416E+00  4.50017634E+00  4.52828905E+00  4.55612737E+00  4.59905186E+00
  4.69384029E+00  4.80997594E+00  4.89738710E+00  4.91582246E+00  4.94127399E+00
  4.99854474E+00  5.00585603E+00  5.10772613E+00  5.13312556E+00  5.17961940E+00
  5.25019836E+00  5.25881658E+00  5.31803210E+00  5.34708113E+00  5.35625286E+00
  5.54709389E+00  5.64492315E+00  5.70616425E+00  5.88936716E+00  5.99747789E+00
  6.26467953E+00  6.29600292E+00  6.36113684E+00  6.37678607E+00  6.59823636E+00
  6.65933601E+00  6.65976271E+00  6.68996388E+00  6.72620067E+00  6.79634344E+00
  6.80581886E+00  6.85097488E+00  6.96796175E+00  7.02069806E+00  7.06635174E+00
  7.08024592E+00  7.13874130E+00  7.17357200E+00  7.17733463E+00  7.20350279E+00
  7.24502475E+00  7.24846473E+00  7.27147021E+00  7.34944329E+00  7.39427924E+00
  7.42829086E+00  7.44262480E+00  7.46309042E+00  7.55966216E+00  7.66351097E+00
  7.66767660E+00  7.79454692E+00  7.88327385E+00  7.95285217E+00  8.06484345E+00
  8.30674613E+00  8.50015870E+00  8.65224991E+00  1.36190864E+01  1.47625218E+01
  1.51052192E+01  1.57644162E+01
Alpha MO coefficients                      R   N=       42849
  6.44324352E-05 -2.33807826E-05 -1.11307455E-03  1.28161375E-05  1.66019128E-05
  6.44281330E-05  5.06126550E-08  2.42748980E-04 -1.80103447E-04 -5.29987712E-06
  2.07564806E-04 -2.81667535E-04 -4.89116470E-06  4.23714104E-05 -4.78567249E-07
 -8.63131715E-07  4.25340027E-06 -2.77343792E-05  2.28572540E-04 -4.68329703E-06
 -2.47857592E-06 -2.11622247E-04  2.44283612E-05  3.07385169E-03 -9.55886228E-05
 -9.93066016E-05  3.54370459E-03  2.48135122E-03 -5.11802772E-05 -1.03721130E-04
  7.48036858E-07  4.18602761E-04  6.62168294E-04 -4.13291431E-06  9.37077145E-04
  2.06644033E-03 -9.53730980E-06  4.10562168E-04  3.50247613E-04  1.61465250E-06
  2.04700427E-05 -3.57815561E-08  1.27215317E-06  3.94468009E-05 -2.17109626E-05
 -4.43215277E-04 -3.44401744E-06 -1.44098022E-05 -5.03633633E-04  6.06863533E-04
 -3.64070938E-04 -6.63431901E-06 -1.33668409E-05 -5.45060834E-04  7.41084032E-04
  1.91762203E-06 -2.86287149E-05 -8.60936761E-05  1.30367361E-06 -1.08556235E-06
 -1.11262089E-04 -8.91087196E-06  2.36629105E-06 -1.37466531E-04 -1.63814605E-04
  2.01791206E-06 -7.61645545E-06 -3.39136180E-04  6.37583860E-05  9.76903793E-01
 -9.17363878E-03  4.34071602E-02  4.95075830E-04 -2.20937259E-03  9.09328537E-04
 -1.99697848E-03  2.85421692E-05 -1.07617872E-03  2.00553429E-03 -3.13973145E-05
  2.15361057E-03  9.81777747E-04  1.94043166E-05  1.22824602E-04  2.10938251E-04
 -3.59195294E-06  7.12943372E-06 -1.08892948E-06  1.33903774E-06  3.46578307E-05
 -1.60067917E-05  8.27052758E-04 -9.71649884E-06  1.23639104E-05 -3.05369329E-04
 -4.02135277E-04 -1.38739756E-04  1.70956896E-05 -8.21556948E-06  1.73812555E-04
 -6.31453005E-04  3.33272441E-06  5.20737717E-05 -6.01290365E-05 -5.88262274E-07
 -1.57710416E-07 -4.84407061E-05 -7.01592974E-06 -1.01412643E-06 -7.47235958E-05
 -5.40142197E-05 -4.14450847E-06 -2.37524073E-06 -4.68816839E-04  1.95108615E-04
  1.04416165E-04  4.57873234E-04 -3.23561375E-04 -8.28448782E-04  3.53140136E-04
  9.48401331E-05 -5.44130710E-05  1.55907388E-06 -1.22029346E-03  4.82098340E-04
 -1.41934977E-05  1.00716493E-03 -7.71460043E-05 -4.63694488E-06 -2.82601600E-04
  5.52203172E-05 -4.81950429E-06 -5.24881310E-05  2.05278489E-06 -7.99026521E-07
  9.46946340E-05 -9.56556120E-06 -4.15499002E-04  2.95586592E-05 -5.69341575E-06
  1.04322526E-03 -2.84233118E-04  2.70353655E-05  2.23000636E-06  1.95551682E-06
 -6.76777919E-05 -3.11005742E-04  3.87557115E-06  1.30483776E-04 -4.49453564E-05
 -5.98760792E-06  1.02661996E-06 -1.31675037E-04  5.69115602E-05  7.34095228E-06
  7.20851826E-05  1.11261947E-04 -1.54001744E-05 -4.49800298E-06 -4.87397660E-04
 -1.83171146E-04 -7.06825820E-04  4.58455202E-05 -7.03105574E-05  2.11489094E-04
 -1.78859180E-04  4.78299545E-05 -1.62747182E-05  1.17815471E-06 -2.85989346E-04
  1.04360468E-04 -6.74566683E-06 -6.20132682E-04 -5.31582977E-05  1.13225685E-05
  2.12710437E-04  7.86224106E-05  4.56675439E-06 -1.29448068E-05  1.23197572E-06
  3.45299690E-07  1.55327511E-05 -1.37951792E-06 -2.24097371E-06 -6.54873130E-06
 -2.88671729E-06 -3.92677566E-05 -1.59561594E-04 -2.20528706E-05 -1.90995225E-05
 -3.02703572E-07 -9.05389535E-05 -1.49856849E-04  1.19836198E-06  1.01446455E-05
 -3.79305250E-06 -1.15916643E-06  3.60112340E-07 -1.59075134E-05  1.72741369E-05
 -5.77211587E-06 -6.85038009E-05  2.51605874E-05  5.87142567E-06 -5.65574810E-06
  1.48965432E-04 -1.15037322E-04  4.00463547E-05  6.26440032E-05 -1.17093262E-04
 -2.98742838E-05 -2.16556200E-05 -2.17386154E-06  3.03060153E-07 -2.28104223E-04
 -9.33024440E-05  1.35233967E-06 -1.14450166E-04 -5.55251669E-05  4.30501824E-06
  1.33004338E-05  7.79652588E-07  8.72406792E-07  1.19839620E-05 -1.66066730E-05
  2.19277393E-05 -3.96740181E-06  4.02926702E-07  3.17629920E-05 -1.10560680E-04
 -2.59164303E-04  2.60884475E-05 -1.51996594E-05 -5.51349022E-04  1.59950596E-04
 -1.40311107E-05  6.64452991E-06  2.64550191E-07  2.52955985E-05 -3.36845483E-05
 -1.23169285E-06 -2.26147200E-04 -3.49433528E-06 -2.22016456E-06  8.12449014E-06
  6.67071667E-05 -4.21282996E-06 -1.43685369E-06 -5.95418937E-08 -3.68673873E-07
 -1.36356821E-05 -4.47198357E-06  2.12111379E-05 -2.66836841E-07  2.73429805E-06
  1.18654189E-04  1.50219230E-05  6.16377943E-05  6.14391044E-07  6.89221779E-06
 -8.32313985E-05 -4.46984865E-06  3.34978233E-07 -1.23225336E-05  3.67776835E-06
 -5.51379193E-07  3.36437566E-08  2.32144796E-05  9.02284216E-06 -6.31162172E-07
  3.25665790E-05 -2.06749212E-05  1.45023347E-06  1.87772259E-06  1.76280210E-05
  8.82494701E-06  7.34838847E-04  2.26937750E-05 -1.89264660E-05  2.98752229E-04
 -3.92264586E-04 -2.94221688E-05  1.21659438E-05 -2.64979702E-07  1.43933184E-04
 -8.45277214E-05  6.94947964E-07 -2.64747795E-06 -2.55408017E-04  9.25022079E-06
  4.23228710E-05  2.07477282E-04  4.14902434E-06 -4.05488325E-06 -4.41786045E-07
  3.29035171E-07 -1.82307879E-05 -2.52372357E-05 -5.14451696E-05  3.63539601E-06
 -1.64680816E-06  1.40251119E-04  3.98805269E-05 -6.48794588E-05  1.07374641E-05
 -2.44909823E-06  3.85077669E-05  3.17572110E-05  3.59477950E-07 -4.38245181E-06
  9.02263830E-07  4.15960416E-07  4.51547828E-07 -3.73291117E-07  8.18508080E-06
 -3.91843783E-06  1.18492438E-05 -2.24344739E-05  2.86789783E-06 -3.63625242E-06
  1.77426409E-04 -4.05239734E-05  2.37086808E-04  1.35763169E-03 -1.47104181E-04
 -6.93599913E-04  9.04099048E-04 -8.84509413E-06 -9.46529182E-05 -1.46278469E-06
  7.73385906E-04 -2.01697341E-03 -2.96183968E-05 -3.84749972E-04  3.35415954E-04
 -1.55340878E-05  3.22723458E-05 -3.57315191E-04 -5.39155855E-06 -1.27724734E-04
 -2.93166362E-06  6.36135857E-06 -2.12046342E-04 -1.47457184E-04 -4.59827385E-04
 -6.25070112E-06  3.17948849E-05 -1.05805242E-03 -3.00425616E-04 -4.18999860E-05
  7.84299828E-06  1.67373335E-06  1.29579748E-04  2.18942705E-05  7.21524749E-08
 -2.85954146E-05  2.46972504E-05  2.00908664E-06 -3.08024525E-07 -4.03287607E-06
  2.44760940E-05  1.15298220E-05  1.53342699E-05  2.07230772E-04  1.09514477E-05
  4.11021261E-06 -7.03352952E-05  3.09048279E-04  9.76646008E-01 -9.88634414E-03
  4.35754163E-02  3.68899431E-03 -8.94316523E-04 -9.01714097E-04  1.98255255E-03
  3.37348205E-05  1.07138900E-03 -2.32246053E-03 -3.75461568E-05 -4.26822688E-04
  6.99862923E-04  2.68433134E-05 -4.61967175E-05 -1.13986926E-04 -2.29445197E-06
 -1.93821189E-04  2.94146355E-06  6.34250031E-06 -6.36930952E-05 -5.80461047E-05
  4.08739056E-04  1.32144016E-05 -2.11108591E-05  7.17817387E-04  6.75610318E-04
 -2.05861486E-04 -9.33093907E-06  1.06782153E-05 -7.65380778E-05 -1.23179718E-04
  2.84084234E-06 -3.78091593E-05  5.94353244E-05  1.65057243E-06  7.49155498E-07
 -1.94024383E-05  2.39730411E-05  2.25791359E-06  1.76055134E-05  1.26533896E-04
  6.89890963E-06  5.61353851E-06 -2.48086685E-04  9.03195893E-05  3.75076489E-04
  1.99501948E-03  1.37448075E-03 -1.83917238E-05 -2.00086095E-04  1.86259103E-04
 -4.48206787E-06 -9.15214681E-04  6.02155776E-04 -2.36107983E-05 -4.01007281E-05
  2.65710482E-04 -1.29307438E-05 -2.36660334E-05 -9.75142642E-07 -1.31278237E-06
 -1.78291249E-05  3.97779287E-05 -2.16412323E-04  1.04944742E-05 -6.36502914E-06
  2.83114044E-04 -4.52874871E-04  9.76834443E-01 -9.18701942E-03  4.34653845E-02
  1.35242876E-04 -1.90998097E-03  2.14185687E-03  5.37169635E-04  1.66010490E-05
 -2.13477874E-03 -6.11124050E-04 -1.49060370E-05 -5.78694270E-05  7.59579800E-04
 -1.52277143E-05 -4.17503214E-06 -3.73269501E-04  8.52807492E-06  3.07395087E-05
  1.01846165E-06  1.66491190E-06  3.80708524E-05 -8.99915012E-05  7.65651269E-04
 -6.33027385E-06  2.08471289E-05  2.74080084E-04 -3.04829246E-04 -2.37907910E-04
 -1.06250346E-06 -3.12928255E-06  1.02656602E-04  3.19354256E-04 -3.07264710E-07
  6.40163068E-05  4.90211108E-05 -1.21664958E-06  1.36493324E-06  4.63427695E-05