title                                                                   
Freq      RMP2-FC                                                     Aug-CC-pVTZ         
Number of atoms                            I                5
Info1-9                                    I   N=           9
          33          24           0           0           0         100
           6           2           1
Full Title                                 C   N=           1
title       
Route                                      C   N=           4
#p freq mp2/aug-cc-pvtz density=current         
Charge                                     I                0
Multiplicity                               I                1
Number of electrons                        I               32
Number of alpha electrons                  I               16
Number of beta electrons                   I               16
Number of basis functions                  I              207
Number of independent functions            I              207
Number of point charges in /Mol/           I                0
Number of translation vectors              I                0
Atomic numbers                             I   N=           5
           1           8           8           7           8
Nuclear charges                            R   N=           5
  1.00000000E+00  8.00000000E+00  8.00000000E+00  7.00000000E+00  8.00000000E+00
Current cartesian coordinates              R   N=          15
  2.10738628E+00 -1.14367591E+00  0.00000000E+00  2.50412519E+00  6.75660442E-01
  0.00000000E+00 -1.70246952E-16  1.73536557E+00  0.00000000E+00 -1.87978946E+00
 -7.51727169E-02  0.00000000E+00 -1.12273269E+00 -2.20229039E+00  0.00000000E+00
Number of symbols in /Mol/                 I                0
Force Field                                I                0
Atom Types                                 C   N=           5
                                                            
Int Atom Types                             I   N=           5
           0           0           0           0           0
MM charges                                 R   N=           5
  0.00000000E+00  0.00000000E+00  0.00000000E+00  0.00000000E+00  0.00000000E+00
Integer atomic weights                     I   N=           5
           1          16          16          14          16
Real atomic weights                        R   N=           5
  1.00782504E+00  1.59949146E+01  1.59949146E+01  1.40030740E+01  1.59949146E+01
Atom fragment info                         I   N=           5
           0           0           0           0           0
Atom residue num                           I   N=           5
           0           0           0           0           0
Nuclear spins                              I   N=           5
           1           0           0           2           0
Nuclear ZEff                               R   N=           5
 -1.00000000E+00 -5.60000000E+00 -5.60000000E+00 -4.55000000E+00 -5.60000000E+00
Nuclear ZNuc                               R   N=           5
  1.00000000E+00  8.00000000E+00  8.00000000E+00  7.00000000E+00  8.00000000E+00
Nuclear QMom                               R   N=           5
  0.00000000E+00  0.00000000E+00  0.00000000E+00  2.04400000E+00  0.00000000E+00
Nuclear GFac                               R   N=           5
  2.79284600E+00  0.00000000E+00  0.00000000E+00  4.03761000E-01  0.00000000E+00
MicOpt                                     I   N=           5
          -1          -1          -1          -1          -1
Number of residues                         I                0
Number of secondary structures             I                0
SymInf integers                            I   N=          26
           1           2           1           1           1           1
           1          -1           0           0           0           0
           0           0           0           0           0           0
           0           0           0           0           0           0
           0           0
RotTr to input orientation                 R   N=          12
 -9.77038931E-01  0.00000000E+00  2.13060855E-01  2.13060855E-01  0.00000000E+00
  9.77038931E-01  0.00000000E+00  1.00000000E+00  0.00000000E+00  2.30267101E+00
  0.00000000E+00  6.68414371E-01
Number of contracted shells                I               65
Number of primitive shells                 I              119
Pure/Cartesian d shells                    I                0
Pure/Cartesian f shells                    I                0
Highest angular momentum                   I                3
Largest degree of contraction              I                7
Shell types                                I   N=          65
           0           0           0           0           1           1
           1          -2          -2           0           0           0
           0           0           1           1           1           1
          -2          -2          -2          -3          -3           0
           0           0           0           0           1           1
           1           1          -2          -2          -2          -3
          -3           0           0           0           0           0
           1           1           1           1          -2          -2
          -2          -3          -3           0           0           0
           0           0           1           1           1           1
          -2          -2          -2          -3          -3
Number of primitives per shell             I   N=          65
           3           1           1           1           1           1
           1           1           1           7           6           1
           1           1           3           1           1           1
           1           1           1           1           1           7
           6           1           1           1           3           1
           1           1           1           1           1           1
           1           7           6           1           1           1
           3           1           1           1           1           1
           1           1           1           7           6           1
           1           1           3           1           1           1
           1           1           1           1           1
Shell to atom map                          I   N=          65
           1           1           1           1           1           1
           1           1           1           2           2           2
           2           2           2           2           2           2
           2           2           2           2           2           3
           3           3           3           3           3           3
           3           3           3           3           3           3
           3           4           4           4           4           4
           4           4           4           4           4           4
           4           4           4           5           5           5
           5           5           5           5           5           5
           5           5           5           5           5
Primitive exponents                        R   N=         119
  3.38700000E+01  5.09500000E+00  1.15900000E+00  3.25800000E-01  1.02700000E-01
  2.52600000E-02  1.40700000E+00  3.88000000E-01  1.02000000E-01  1.05700000E+00
  2.47000000E-01  1.53300000E+04  2.29900000E+03  5.22400000E+02  1.47300000E+02
  4.75500000E+01  1.67600000E+01  6.20700000E+00  5.22400000E+02  1.47300000E+02
  4.75500000E+01  1.67600000E+01  6.20700000E+00  6.88200000E-01  1.75200000E+00
  2.38400000E-01  7.37600000E-02  3.44600000E+01  7.74900000E+00  2.28000000E+00
  7.15600000E-01  2.14000000E-01  5.97400000E-02  2.31400000E+00  6.45000000E-01
  2.14000000E-01  1.42800000E+00  5.00000000E-01  1.53300000E+04  2.29900000E+03
  5.22400000E+02  1.47300000E+02  4.75500000E+01  1.67600000E+01  6.20700000E+00
  5.22400000E+02  1.47300000E+02  4.75500000E+01  1.67600000E+01  6.20700000E+00
  6.88200000E-01  1.75200000E+00  2.38400000E-01  7.37600000E-02  3.44600000E+01
  7.74900000E+00  2.28000000E+00  7.15600000E-01  2.14000000E-01  5.97400000E-02
  2.31400000E+00  6.45000000E-01  2.14000000E-01  1.42800000E+00  5.00000000E-01
  1.14200000E+04  1.71200000E+03  3.89300000E+02  1.10000000E+02  3.55700000E+01
  1.25400000E+01  4.64400000E+00  3.89300000E+02  1.10000000E+02  3.55700000E+01
  1.25400000E+01  4.64400000E+00  5.11800000E-01  1.29300000E+00  1.78700000E-01
  5.76000000E-02  2.66300000E+01  5.94800000E+00  1.74200000E+00  5.55000000E-01
  1.72500000E-01  4.91000000E-02  1.65400000E+00  4.69000000E-01  1.51000000E-01
  1.09300000E+00  3.64000000E-01  1.53300000E+04  2.29900000E+03  5.22400000E+02
  1.47300000E+02  4.75500000E+01  1.67600000E+01  6.20700000E+00  5.22400000E+02
  1.47300000E+02  4.75500000E+01  1.67600000E+01  6.20700000E+00  6.88200000E-01
  1.75200000E+00  2.38400000E-01  7.37600000E-02  3.44600000E+01  7.74900000E+00
  2.28000000E+00  7.15600000E-01  2.14000000E-01  5.97400000E-02  2.31400000E+00
  6.45000000E-01  2.14000000E-01  1.42800000E+00  5.00000000E-01
Contraction coefficients                   R   N=         119
  2.54948632E-02  1.90362766E-01  8.52162022E-01  1.00000000E+00  1.00000000E+00
  1.00000000E+00  1.00000000E+00  1.00000000E+00  1.00000000E+00  1.00000000E+00
  1.00000000E+00  5.19808943E-04  4.02025621E-03  2.07128267E-02  8.10105536E-02
  2.35962985E-01  4.42653446E-01  3.57064423E-01 -4.42115008E-05 -1.22591041E-03
 -1.05517725E-02 -6.74452633E-02 -1.71198607E-01  1.07329856E+00  1.00000000E+00
  1.00000000E+00  1.00000000E+00  4.11634896E-02  2.57762836E-01  8.02419274E-01
  1.00000000E+00  1.00000000E+00  1.00000000E+00  1.00000000E+00  1.00000000E+00
  1.00000000E+00  1.00000000E+00  1.00000000E+00  5.19808943E-04  4.02025621E-03
  2.07128267E-02  8.10105536E-02  2.35962985E-01  4.42653446E-01  3.57064423E-01
 -4.42115008E-05 -1.22591041E-03 -1.05517725E-02 -6.74452633E-02 -1.71198607E-01
  1.07329856E+00  1.00000000E+00  1.00000000E+00  1.00000000E+00  4.11634896E-02
  2.57762836E-01  8.02419274E-01  1.00000000E+00  1.00000000E+00  1.00000000E+00
  1.00000000E+00  1.00000000E+00  1.00000000E+00  1.00000000E+00  1.00000000E+00
  5.34563860E-04  4.13435660E-03  2.12335358E-02  8.25006224E-02  2.38138871E-01
  4.42551547E-01  3.53757422E-01 -4.89867350E-05 -1.19527323E-03 -1.03490714E-02
 -6.48680190E-02 -1.71552477E-01  1.07289568E+00  1.00000000E+00  1.00000000E+00
  1.00000000E+00  3.98072123E-02  2.49002660E-01  8.10479727E-01  1.00000000E+00
  1.00000000E+00  1.00000000E+00  1.00000000E+00  1.00000000E+00  1.00000000E+00
  1.00000000E+00  1.00000000E+00  5.19808943E-04  4.02025621E-03  2.07128267E-02
  8.10105536E-02  2.35962985E-01  4.42653446E-01  3.57064423E-01 -4.42115008E-05
 -1.22591041E-03 -1.05517725E-02 -6.74452633E-02 -1.71198607E-01  1.07329856E+00
  1.00000000E+00  1.00000000E+00  1.00000000E+00  4.11634896E-02  2.57762836E-01
  8.02419274E-01  1.00000000E+00  1.00000000E+00  1.00000000E+00  1.00000000E+00
  1.00000000E+00  1.00000000E+00  1.00000000E+00  1.00000000E+00
Coordinates of each shell                  R   N=         195
  2.10738628E+00 -1.14367591E+00  0.00000000E+00  2.10738628E+00 -1.14367591E+00
  0.00000000E+00  2.10738628E+00 -1.14367591E+00  0.00000000E+00  2.10738628E+00
 -1.14367591E+00  0.00000000E+00  2.10738628E+00 -1.14367591E+00  0.00000000E+00
  2.10738628E+00 -1.14367591E+00  0.00000000E+00  2.10738628E+00 -1.14367591E+00
  0.00000000E+00  2.10738628E+00 -1.14367591E+00  0.00000000E+00  2.10738628E+00
 -1.14367591E+00  0.00000000E+00  2.50412519E+00  6.75660442E-01  0.00000000E+00
  2.50412519E+00  6.75660442E-01  0.00000000E+00  2.50412519E+00  6.75660442E-01
  0.00000000E+00  2.50412519E+00  6.75660442E-01  0.00000000E+00  2.50412519E+00
  6.75660442E-01  0.00000000E+00  2.50412519E+00  6.75660442E-01  0.00000000E+00
  2.50412519E+00  6.75660442E-01  0.00000000E+00  2.50412519E+00  6.75660442E-01
  0.00000000E+00  2.50412519E+00  6.75660442E-01  0.00000000E+00  2.50412519E+00
  6.75660442E-01  0.00000000E+00  2.50412519E+00  6.75660442E-01  0.00000000E+00
  2.50412519E+00  6.75660442E-01  0.00000000E+00  2.50412519E+00  6.75660442E-01
  0.00000000E+00  2.50412519E+00  6.75660442E-01  0.00000000E+00 -1.33437041E-17
  1.73536557E+00  0.00000000E+00 -1.33437041E-17  1.73536557E+00  0.00000000E+00
 -1.33437041E-17  1.73536557E+00  0.00000000E+00 -1.33437041E-17  1.73536557E+00
  0.00000000E+00 -1.33437041E-17  1.73536557E+00  0.00000000E+00 -1.33437041E-17
  1.73536557E+00  0.00000000E+00 -1.33437041E-17  1.73536557E+00  0.00000000E+00
 -1.33437041E-17  1.73536557E+00  0.00000000E+00 -1.33437041E-17  1.73536557E+00
  0.00000000E+00 -1.33437041E-17  1.73536557E+00  0.00000000E+00 -1.33437041E-17
  1.73536557E+00  0.00000000E+00 -1.33437041E-17  1.73536557E+00  0.00000000E+00
 -1.33437041E-17  1.73536557E+00  0.00000000E+00 -1.33437041E-17  1.73536557E+00
  0.00000000E+00 -1.87978946E+00 -7.51727169E-02  0.00000000E+00 -1.87978946E+00
 -7.51727169E-02  0.00000000E+00 -1.87978946E+00 -7.51727169E-02  0.00000000E+00
 -1.87978946E+00 -7.51727169E-02  0.00000000E+00 -1.87978946E+00 -7.51727169E-02
  0.00000000E+00 -1.87978946E+00 -7.51727169E-02  0.00000000E+00 -1.87978946E+00
 -7.51727169E-02  0.00000000E+00 -1.87978946E+00 -7.51727169E-02  0.00000000E+00
 -1.87978946E+00 -7.51727169E-02  0.00000000E+00 -1.87978946E+00 -7.51727169E-02
  0.00000000E+00 -1.87978946E+00 -7.51727169E-02  0.00000000E+00 -1.87978946E+00
 -7.51727169E-02  0.00000000E+00 -1.87978946E+00 -7.51727169E-02  0.00000000E+00
 -1.87978946E+00 -7.51727169E-02  0.00000000E+00 -1.12273269E+00 -2.20229039E+00
  0.00000000E+00 -1.12273269E+00 -2.20229039E+00  0.00000000E+00 -1.12273269E+00
 -2.20229039E+00  0.00000000E+00 -1.12273269E+00 -2.20229039E+00  0.00000000E+00
 -1.12273269E+00 -2.20229039E+00  0.00000000E+00 -1.12273269E+00 -2.20229039E+00
  0.00000000E+00 -1.12273269E+00 -2.20229039E+00  0.00000000E+00 -1.12273269E+00
 -2.20229039E+00  0.00000000E+00 -1.12273269E+00 -2.20229039E+00  0.00000000E+00
 -1.12273269E+00 -2.20229039E+00  0.00000000E+00 -1.12273269E+00 -2.20229039E+00
  0.00000000E+00 -1.12273269E+00 -2.20229039E+00  0.00000000E+00 -1.12273269E+00
 -2.20229039E+00  0.00000000E+00 -1.12273269E+00 -2.20229039E+00  0.00000000E+00
Num ILSW                                   I              100
ILSW                                       I   N=         100
           0           0           0           0           2           0
           0           0           0           0           0          -1
           5           0           0           0           2           0
           0           0           0           0           1           0
           1           0           0           0           0           0
           0           0      100000           0          -1           0
           0           0           0           0           0           0
           0           0           0           1           1           0
           0 -2000000000           1           0           0           0
           0           0           4          52           0           0
           0           0           0           0           0           0
           0           0           0           5           4           1
           0           0           0           0           0           0
           0           0           0           0           0           0
           0           0           0           0           0           0
           0           0           0           0           0           0
           0           0           0           0
Num RLSW                                   I               52
RLSW                                       R   N=          52
  1.00000000E+00  1.00000000E+00  1.00000000E+00  1.00000000E+00  1.00000000E+00
  0.00000000E+00  0.00000000E+00  1.00000000E+00  0.00000000E+00  0.00000000E+00
  0.00000000E+00  0.00000000E+00  1.00000000E+00  0.00000000E+00  0.00000000E+00
  0.00000000E+00  0.00000000E+00  1.00000000E+00  0.00000000E+00  0.00000000E+00
  0.00000000E+00  0.00000000E+00  1.00000000E+00  0.00000000E+00  0.00000000E+00
  0.00000000E+00  0.00000000E+00  1.00000000E+00  0.00000000E+00  0.00000000E+00
  0.00000000E+00  0.00000000E+00  1.00000000E+00  0.00000000E+00  0.00000000E+00
  0.00000000E+00  0.00000000E+00  0.00000000E+00  1.00000000E+00  1.00000000E+00
  0.00000000E+00  1.00000000E+00  0.00000000E+00  0.00000000E+00  0.00000000E+00
  0.00000000E+00  0.00000000E+00  0.00000000E+00  0.00000000E+00  0.00000000E+00
  0.00000000E+00  0.00000000E+00
MxBond                                     I                2
NBond                                      I   N=           5
           1           2           2           2           1
IBond                                      I   N=          10
           2           0           1           3           2           4
           3           5           4           0
RBond                                      R   N=          10
  1.00000000E+00  0.00000000E+00  1.00000000E+00  1.00000000E+00  1.00000000E+00
  1.00000000E+00  1.00000000E+00  2.00000000E+00  2.00000000E+00  0.00000000E+00
Virial Ratio                               R      2.002302452587760E+00
SCF Energy                                 R     -2.795056183408415E+02
MP2 Energy                                 R     -2.804551764810601E+02
Total Energy                               R     -2.804551764810601E+02
Post-SCF wavefunction norm                 R      1.584340353607098E+00
RMS Force                                  R      1.828003860441874E-03
RMS Density                                R      4.650844745766093E-09
NImag                                      I                0
Job Status                                 I                1
Nuclear derivative order                   I                2
External E-field                           R   N=          35
  0.00000000E+00  0.00000000E+00  0.00000000E+00  0.00000000E+00  0.00000000E+00
  0.00000000E+00  0.00000000E+00  0.00000000E+00  0.00000000E+00  0.00000000E+00
  0.00000000E+00  0.00000000E+00  0.00000000E+00  0.00000000E+00  0.00000000E+00
  0.00000000E+00  0.00000000E+00  0.00000000E+00  0.00000000E+00  0.00000000E+00
  0.00000000E+00  0.00000000E+00  0.00000000E+00  0.00000000E+00  0.00000000E+00
  0.00000000E+00  0.00000000E+00  0.00000000E+00  0.00000000E+00  0.00000000E+00
  0.00000000E+00  0.00000000E+00  0.00000000E+00  0.00000000E+00  0.00000000E+00
IOpCl                                      I                0
IROHF                                      I                0
Alpha Orbital Energies                     R   N=         207
 -2.07197335E+01 -2.06870716E+01 -2.06694411E+01 -1.58261810E+01 -1.64241006E+00
 -1.50105724E+00 -1.29532267E+00 -9.59704624E-01 -8.32514773E-01 -7.58074723E-01
 -7.38300526E-01 -6.39100897E-01 -6.17151071E-01 -6.15881814E-01 -5.04262151E-01
 -4.99539675E-01  3.49229445E-02  6.03159329E-02  9.50880753E-02  1.00223532E-01
  1.19810765E-01  1.22325399E-01  1.48641085E-01  1.51139360E-01  1.77561406E-01
  1.80515638E-01  1.89854418E-01  2.10940081E-01  2.16584485E-01  2.36854960E-01
  2.46337216E-01  2.69191496E-01  3.11905247E-01  3.16470698E-01  3.37772625E-01
  3.43463566E-01  3.45928361E-01  3.92791692E-01  4.48658612E-01  4.87858062E-01
  5.04867532E-01  5.18294624E-01  5.45463153E-01  5.61132866E-01  5.99051213E-01
  6.19879885E-01  6.38497744E-01  6.89215789E-01  7.17145331E-01  7.24552700E-01
  7.41961001E-01  7.63157865E-01  7.66040750E-01  7.96506618E-01  8.06330271E-01
  8.40488356E-01  8.42975874E-01  8.51844081E-01  8.84849291E-01  9.06652638E-01
  9.29156417E-01  9.47571207E-01  9.54722832E-01  1.01784365E+00  1.03109557E+00
  1.06091784E+00  1.06600463E+00  1.09381241E+00  1.14321293E+00  1.15554877E+00
  1.16961627E+00  1.22181214E+00  1.22721314E+00  1.24527675E+00  1.35136545E+00
  1.36213500E+00  1.37142179E+00  1.46906185E+00  1.48593435E+00  1.50519235E+00
  1.54149852E+00  1.59578574E+00  1.59707380E+00  1.60543600E+00  1.62782679E+00
  1.69514787E+00  1.73901782E+00  1.80090258E+00  1.82973928E+00  1.88811081E+00
  1.89210522E+00  1.92833396E+00  1.97726427E+00  1.98937836E+00  2.05168944E+00
  2.12297545E+00  2.12975692E+00  2.16398495E+00  2.18733191E+00  2.24365159E+00
  2.25436419E+00  2.29233016E+00  2.34954464E+00  2.36547944E+00  2.38604677E+00
  2.40268956E+00  2.42750617E+00  2.46829129E+00  2.47716092E+00  2.52909205E+00
  2.53757924E+00  2.54740640E+00  2.55794821E+00  2.61495624E+00  2.62635117E+00
  2.66935063E+00  2.67093687E+00  2.74890728E+00  2.80636529E+00  2.81601774E+00
  2.83732927E+00  2.91547298E+00  2.98433818E+00  3.04374081E+00  3.04805411E+00
  3.11444998E+00  3.11491538E+00  3.16909871E+00  3.20544081E+00  3.30419023E+00
  3.32861757E+00  3.36108690E+00  3.46613403E+00  3.67845749E+00  3.86802300E+00
  3.92613883E+00  4.18107222E+00  4.21980370E+00  4.22323009E+00  4.26549317E+00
  4.36829640E+00  4.48825276E+00  4.52190045E+00  4.55314329E+00  4.59587774E+00
  4.69552980E+00  4.80769557E+00  4.89726348E+00  4.91315997E+00  4.93929632E+00
  4.99943423E+00  5.00583938E+00  5.10660869E+00  5.13072542E+00  5.17999919E+00
  5.25001549E+00  5.25848518E+00  5.31640260E+00  5.33927322E+00  5.35392100E+00
  5.54885004E+00  5.64468504E+00  5.70297633E+00  5.86952543E+00  5.99332641E+00
  6.28557575E+00  6.29361839E+00  6.35283874E+00  6.38262606E+00  6.60168136E+00
  6.65777179E+00  6.66770002E+00  6.69021361E+00  6.72798297E+00  6.79782711E+00
  6.80083893E+00  6.85368170E+00  6.96644539E+00  7.01184518E+00  7.05802074E+00
  7.07364151E+00  7.13345562E+00  7.16834496E+00  7.17002260E+00  7.19378221E+00
  7.23802108E+00  7.24324651E+00  7.26933296E+00  7.34540247E+00  7.38689525E+00
  7.41928806E+00  7.44202801E+00  7.45637230E+00  7.55770597E+00  7.65486800E+00
  7.66035764E+00  7.78480132E+00  7.87016095E+00  7.94700409E+00  8.05545394E+00
  8.28626924E+00  8.49293076E+00  8.64012838E+00  1.35733400E+01  1.47425504E+01
  1.50918278E+01  1.57486867E+01
Alpha MO coefficients                      R   N=       42849
  6.39006761E-05 -2.39200406E-05 -1.10736061E-03  9.23059997E-06 -5.49843005E-05
  4.44817603E-05  0.00000000E+00 -1.08850258E-04 -2.95453379E-04  0.00000000E+00
 -2.06311943E-05 -3.61671154E-04  0.00000000E+00  4.27071622E-05  0.00000000E+00
  0.00000000E+00 -2.47116867E-05  6.10594559E-06  2.26441224E-04  0.00000000E+00
  0.00000000E+00 -3.57450569E-05 -2.04676171E-04  3.03332537E-03 -1.18336799E-04
 -8.95101802E-05  3.39611205E-03  2.41513581E-03  9.84001579E-05 -5.18378219E-05
  0.00000000E+00 -6.74387187E-04  2.57326911E-04  0.00000000E+00 -1.88352839E-03
  1.08277283E-03  0.00000000E+00 -5.19690263E-04  3.07420912E-05  0.00000000E+00
  2.39617582E-05  0.00000000E+00  0.00000000E+00 -1.23623213E-05  5.02899712E-05
 -4.30660077E-04  0.00000000E+00  0.00000000E+00  4.03317015E-04 -6.54571775E-04
 -3.54764565E-04  0.00000000E+00  0.00000000E+00  5.23195431E-04 -7.44320899E-04
  0.00000000E+00  7.17743881E-05 -5.12858563E-05  0.00000000E+00  0.00000000E+00
 -2.57203968E-05  1.05522755E-04  0.00000000E+00  2.06203656E-04 -5.48203892E-05
  0.00000000E+00  0.00000000E+00 -1.68413252E-04  3.10222063E-04  9.76912141E-01
 -9.17194269E-03  4.33868828E-02  6.55308338E-04 -2.14800779E-03  4.11707297E-04
 -2.13697459E-03  0.00000000E+00 -2.65936546E-04  2.23832274E-03  0.00000000E+00
 -2.23345560E-03 -5.10427471E-04  0.00000000E+00 -2.06424382E-04  9.51845540E-05
  0.00000000E+00  1.01797371E-05  0.00000000E+00  0.00000000E+00 -8.16634694E-06
  4.18675608E-05  8.12950247E-04  0.00000000E+00  0.00000000E+00 -4.55758874E-04
 -1.87928934E-04 -1.50051603E-04  0.00000000E+00  0.00000000E+00 -5.34012647E-04
  3.43466086E-04  0.00000000E+00 -9.00970893E-06 -7.86605861E-05  0.00000000E+00
  0.00000000E+00 -7.50664799E-06  4.60990763E-05  0.00000000E+00  8.68096867E-05
  3.19988435E-06  0.00000000E+00  0.00000000E+00 -3.32181685E-04  3.72808713E-04
  1.04456155E-04  4.57463146E-04 -3.25082393E-04 -8.26143138E-04  3.77050172E-04
 -4.54102028E-05 -1.00131826E-04  0.00000000E+00  7.03839930E-04  1.10795713E-03
  0.00000000E+00 -7.62950406E-04 -6.45637574E-04  0.00000000E+00  2.01267737E-04
  2.15748259E-04  0.00000000E+00 -5.26163508E-05  0.00000000E+00  0.00000000E+00
  1.97390967E-05  9.27300595E-05 -4.17278239E-04  0.00000000E+00  0.00000000E+00
  5.34703717E-05  1.08518906E-03  2.69021917E-05  0.00000000E+00  0.00000000E+00
 -3.15162799E-04  3.67257693E-05  0.00000000E+00 -7.98647023E-05 -1.13647049E-04
  0.00000000E+00  0.00000000E+00 -9.48519862E-05  1.08220642E-04  0.00000000E+00
 -1.24281499E-04  4.59062198E-05  0.00000000E+00  0.00000000E+00  2.31989440E-05
  5.23936008E-04 -7.04092165E-04  5.01987261E-05 -7.01712643E-05  2.07863127E-04
 -2.01514399E-04 -2.91280426E-05 -4.13911331E-05  0.00000000E+00  1.70234151E-04
  2.54972957E-04  0.00000000E+00  5.23006712E-04  3.21160034E-04  0.00000000E+00
 -2.24992727E-04 -6.69612718E-05  0.00000000E+00 -1.31558951E-05  0.00000000E+00
  0.00000000E+00  3.59285172E-06  1.53371496E-05 -1.37887468E-06  0.00000000E+00
  0.00000000E+00 -1.65852527E-04  1.11036743E-05 -1.97640845E-05  0.00000000E+00
  0.00000000E+00 -1.73462483E-04 -4.23271864E-05  0.00000000E+00 -6.03286446E-06
 -9.10543316E-06  0.00000000E+00  0.00000000E+00 -2.17324306E-05  9.65110267E-06
  0.00000000E+00  4.09888680E-05  6.14164007E-05  0.00000000E+00  0.00000000E+00
  1.56534012E-04 -1.06439759E-04  4.07090282E-05  5.91994234E-05 -1.21686817E-04
 -2.91520601E-05  1.66895279E-05  1.00924088E-05  0.00000000E+00  2.39010725E-04
  5.68439065E-05  0.00000000E+00  1.29753952E-04  2.33046356E-05  0.00000000E+00
  1.43394992E-05  0.00000000E+00  0.00000000E+00 -1.29827285E-05  1.58224764E-05
  2.34411016E-05  0.00000000E+00  0.00000000E+00 -9.57107183E-05  6.32701823E-05
 -2.76962017E-04  2.73301363E-05 -1.61020431E-05 -5.30669956E-04  1.61339754E-04
  7.35974863E-06  1.35579135E-05  0.00000000E+00 -1.75772952E-06 -4.05167726E-05
  0.00000000E+00  1.73326084E-04  1.22318576E-04  0.00000000E+00 -4.81777477E-05
  4.96031742E-05  0.00000000E+00 -1.33366975E-06  0.00000000E+00  0.00000000E+00
 -8.40122740E-06 -1.18064573E-05  2.01952688E-05  0.00000000E+00  0.00000000E+00
  4.93979378E-05  1.06884255E-04  6.03179563E-05  0.00000000E+00  0.00000000E+00
 -2.64737451E-05 -7.27078967E-05  0.00000000E+00  7.74274107E-06  1.01776962E-05
  0.00000000E+00  0.00000000E+00 -1.07540052E-06 -2.40815166E-05  0.00000000E+00
 -1.44027497E-05 -3.44490637E-05  0.00000000E+00  0.00000000E+00 -3.35444433E-06
 -2.00855149E-05  7.33067900E-04  2.38240586E-05 -1.84456640E-05  2.83202666E-04
 -3.91589654E-04  1.67462569E-05  2.71214185E-05  0.00000000E+00 -6.70779450E-05
 -1.52486131E-04  0.00000000E+00  1.44286984E-04 -1.90268989E-04  0.00000000E+00
 -1.57157410E-04  1.42598548E-04  0.00000000E+00 -4.14178365E-06  0.00000000E+00
  0.00000000E+00 -2.93272295E-05 -9.41744976E-06 -5.02854010E-05  0.00000000E+00
  0.00000000E+00  7.89453030E-05  1.20367347E-04 -6.35045310E-05  0.00000000E+00
  0.00000000E+00  4.69840099E-05  3.04427580E-05  0.00000000E+00  3.09972215E-06
  3.39037055E-06  0.00000000E+00  0.00000000E+00 -8.14644458E-06 -2.10689930E-06
  0.00000000E+00  3.96334773E-06 -2.54356913E-05  0.00000000E+00  0.00000000E+00
  9.25348055E-05 -1.55003094E-04  2.37337260E-04  1.35892258E-03 -1.47667047E-04
 -6.90556679E-04  9.00099891E-04  6.28562892E-05 -7.13760262E-05  0.00000000E+00
  5.66045231E-04 -2.08263685E-03  0.00000000E+00  1.16961185E-04  4.90832899E-04
  0.00000000E+00  1.83846189E-04 -3.07787150E-04  0.00000000E+00 -1.27860178E-04
  0.00000000E+00  0.00000000E+00 -2.04887137E-04 -1.57090743E-04 -4.60470546E-04
  0.00000000E+00  0.00000000E+00 -6.09037340E-04 -9.13362703E-04 -4.19824123E-05
  0.00000000E+00  0.00000000E+00  6.19707540E-05  1.14862771E-04  0.00000000E+00
  8.50110946E-06  3.66658759E-05  0.00000000E+00  0.00000000E+00 -2.43910335E-05
 -3.88619028E-06  0.00000000E+00 -1.34142003E-04  1.59162595E-04  0.00000000E+00
  0.00000000E+00 -3.15441026E-04 -2.79567145E-05  9.76646186E-01 -9.88623490E-03
  4.35751085E-02  3.68526865E-03 -8.91321927E-04 -4.44024147E-04  2.13140628E-03
  0.00000000E+00  5.06712716E-04 -2.50553322E-03  0.00000000E+00 -6.81177385E-05
  8.14232813E-04  0.00000000E+00  1.04891648E-04 -6.46102481E-05  0.00000000E+00
 -1.94224128E-04  0.00000000E+00  0.00000000E+00 -7.44138909E-05 -4.27822021E-05
  4.08572792E-04  0.00000000E+00  0.00000000E+00  8.60965615E-04  4.78539047E-04
 -2.06662097E-04  0.00000000E+00  0.00000000E+00 -1.39234528E-04 -3.80101516E-05
  0.00000000E+00 -4.50556182E-06  7.03226143E-05  0.00000000E+00  0.00000000E+00
 -2.93107731E-05  1.07491549E-05  0.00000000E+00 -8.88039341E-05  9.19841000E-05
  0.00000000E+00  0.00000000E+00 -1.62692085E-04  2.06115249E-04  3.78355919E-04
  2.01821841E-03  1.34347831E-03 -1.40523645E-05  5.21814209E-05  2.73482465E-04
  0.00000000E+00  3.82136124E-04  1.04417878E-03  0.00000000E+00 -1.09541303E-04
  2.44435371E-04  0.00000000E+00 -2.48108801E-05  0.00000000E+00  0.00000000E+00
  2.80106399E-05 -2.86285261E-05 -2.15509167E-04  0.00000000E+00  0.00000000E+00
 -3.49228030E-04  4.00278092E-04  9.76844352E-01 -9.18612361E-03  4.34425064E-02
  2.44280856E-04 -1.82180517E-03 -2.02041816E-03 -8.46133237E-04  0.00000000E+00
  2.04356368E-03  7.95477536E-04  0.00000000E+00 -4.72885705E-04  6.68596188E-04
  0.00000000E+00  2.07015491E-04 -2.86969045E-04  0.00000000E+00  3.44049369E-05
  0.00000000E+00  0.00000000E+00 -7.88847779E-05  6.68886684E-05  7.53213272E-04
  0.00000000E+00  0.00000000E+00 -1.78916495E-04  3.32222454E-04 -2.47663297E-04
  0.00000000E+00  0.00000000E+00  3.54578425E-04 -1.13773014E-05  0.00000000E+00
 -7.85860901E-05 -4.44155961E-07  0.00000000E+00  0.00000000E+00  1.36797915E-05