title                                                                   
Freq      RMP2-FC                                                     Aug-CC-pVTZ         
Number of atoms                            I                5
Info1-9                                    I   N=           9
          33          24           0           0           0         100
           6           2           1
Full Title                                 C   N=           1
title       
Route                                      C   N=           4
#p freq mp2/aug-cc-pvtz density=current         
Charge                                     I                0
Multiplicity                               I                1
Number of electrons                        I               32
Number of alpha electrons                  I               16
Number of beta electrons                   I               16
Number of basis functions                  I              207
Number of independent functions            I              207
Number of point charges in /Mol/           I                0
Number of translation vectors              I                0
Atomic numbers                             I   N=           5
           1           8           8           7           8
Nuclear charges                            R   N=           5
  1.00000000E+00  8.00000000E+00  8.00000000E+00  7.00000000E+00  8.00000000E+00
Current cartesian coordinates              R   N=          15
  2.09152884E+00 -1.15150126E+00  0.00000000E+00  2.48664724E+00  6.91554622E-01
  0.00000000E+00 -1.97910148E-16  1.73355496E+00  0.00000000E+00 -1.87340276E+00
 -8.35909855E-02  0.00000000E+00 -1.10886093E+00 -2.20802982E+00  0.00000000E+00
Number of symbols in /Mol/                 I                0
Force Field                                I                0
Atom Types                                 C   N=           5
                                                            
Int Atom Types                             I   N=           5
           0           0           0           0           0
MM charges                                 R   N=           5
  0.00000000E+00  0.00000000E+00  0.00000000E+00  0.00000000E+00  0.00000000E+00
Integer atomic weights                     I   N=           5
           1          16          16          14          16
Real atomic weights                        R   N=           5
  1.00782504E+00  1.59949146E+01  1.59949146E+01  1.40030740E+01  1.59949146E+01
Atom fragment info                         I   N=           5
           0           0           0           0           0
Atom residue num                           I   N=           5
           0           0           0           0           0
Nuclear spins                              I   N=           5
           1           0           0           2           0
Nuclear ZEff                               R   N=           5
 -1.00000000E+00 -5.60000000E+00 -5.60000000E+00 -4.55000000E+00 -5.60000000E+00
Nuclear ZNuc                               R   N=           5
  1.00000000E+00  8.00000000E+00  8.00000000E+00  7.00000000E+00  8.00000000E+00
Nuclear QMom                               R   N=           5
  0.00000000E+00  0.00000000E+00  0.00000000E+00  2.04400000E+00  0.00000000E+00
Nuclear GFac                               R   N=           5
  2.79284600E+00  0.00000000E+00  0.00000000E+00  4.03761000E-01  0.00000000E+00
MicOpt                                     I   N=           5
          -1          -1          -1          -1          -1
Number of residues                         I                0
Number of secondary structures             I                0
SymInf integers                            I   N=          26
           1           2           1           1           1           1
           1          -1           0           0           0           0
           0           0           0           0           0           0
           0           0           0           0           0           0
           0           0
RotTr to input orientation                 R   N=          12
 -9.77783079E-01  0.00000000E+00  2.09619301E-01  2.09619301E-01  0.00000000E+00
  9.77783079E-01  0.00000000E+00  1.00000000E+00  0.00000000E+00  2.28643840E+00
  0.00000000E+00  6.87493633E-01
Number of contracted shells                I               65
Number of primitive shells                 I              119
Pure/Cartesian d shells                    I                0
Pure/Cartesian f shells                    I                0
Highest angular momentum                   I                3
Largest degree of contraction              I                7
Shell types                                I   N=          65
           0           0           0           0           1           1
           1          -2          -2           0           0           0
           0           0           1           1           1           1
          -2          -2          -2          -3          -3           0
           0           0           0           0           1           1
           1           1          -2          -2          -2          -3
          -3           0           0           0           0           0
           1           1           1           1          -2          -2
          -2          -3          -3           0           0           0
           0           0           1           1           1           1
          -2          -2          -2          -3          -3
Number of primitives per shell             I   N=          65
           3           1           1           1           1           1
           1           1           1           7           6           1
           1           1           3           1           1           1
           1           1           1           1           1           7
           6           1           1           1           3           1
           1           1           1           1           1           1
           1           7           6           1           1           1
           3           1           1           1           1           1
           1           1           1           7           6           1
           1           1           3           1           1           1
           1           1           1           1           1
Shell to atom map                          I   N=          65
           1           1           1           1           1           1
           1           1           1           2           2           2
           2           2           2           2           2           2
           2           2           2           2           2           3
           3           3           3           3           3           3
           3           3           3           3           3           3
           3           4           4           4           4           4
           4           4           4           4           4           4
           4           4           4           5           5           5
           5           5           5           5           5           5
           5           5           5           5           5
Primitive exponents                        R   N=         119
  3.38700000E+01  5.09500000E+00  1.15900000E+00  3.25800000E-01  1.02700000E-01
  2.52600000E-02  1.40700000E+00  3.88000000E-01  1.02000000E-01  1.05700000E+00
  2.47000000E-01  1.53300000E+04  2.29900000E+03  5.22400000E+02  1.47300000E+02
  4.75500000E+01  1.67600000E+01  6.20700000E+00  5.22400000E+02  1.47300000E+02
  4.75500000E+01  1.67600000E+01  6.20700000E+00  6.88200000E-01  1.75200000E+00
  2.38400000E-01  7.37600000E-02  3.44600000E+01  7.74900000E+00  2.28000000E+00
  7.15600000E-01  2.14000000E-01  5.97400000E-02  2.31400000E+00  6.45000000E-01
  2.14000000E-01  1.42800000E+00  5.00000000E-01  1.53300000E+04  2.29900000E+03
  5.22400000E+02  1.47300000E+02  4.75500000E+01  1.67600000E+01  6.20700000E+00
  5.22400000E+02  1.47300000E+02  4.75500000E+01  1.67600000E+01  6.20700000E+00
  6.88200000E-01  1.75200000E+00  2.38400000E-01  7.37600000E-02  3.44600000E+01
  7.74900000E+00  2.28000000E+00  7.15600000E-01  2.14000000E-01  5.97400000E-02
  2.31400000E+00  6.45000000E-01  2.14000000E-01  1.42800000E+00  5.00000000E-01
  1.14200000E+04  1.71200000E+03  3.89300000E+02  1.10000000E+02  3.55700000E+01
  1.25400000E+01  4.64400000E+00  3.89300000E+02  1.10000000E+02  3.55700000E+01
  1.25400000E+01  4.64400000E+00  5.11800000E-01  1.29300000E+00  1.78700000E-01
  5.76000000E-02  2.66300000E+01  5.94800000E+00  1.74200000E+00  5.55000000E-01
  1.72500000E-01  4.91000000E-02  1.65400000E+00  4.69000000E-01  1.51000000E-01
  1.09300000E+00  3.64000000E-01  1.53300000E+04  2.29900000E+03  5.22400000E+02
  1.47300000E+02  4.75500000E+01  1.67600000E+01  6.20700000E+00  5.22400000E+02
  1.47300000E+02  4.75500000E+01  1.67600000E+01  6.20700000E+00  6.88200000E-01
  1.75200000E+00  2.38400000E-01  7.37600000E-02  3.44600000E+01  7.74900000E+00
  2.28000000E+00  7.15600000E-01  2.14000000E-01  5.97400000E-02  2.31400000E+00
  6.45000000E-01  2.14000000E-01  1.42800000E+00  5.00000000E-01
Contraction coefficients                   R   N=         119
  2.54948632E-02  1.90362766E-01  8.52162022E-01  1.00000000E+00  1.00000000E+00
  1.00000000E+00  1.00000000E+00  1.00000000E+00  1.00000000E+00  1.00000000E+00
  1.00000000E+00  5.19808943E-04  4.02025621E-03  2.07128267E-02  8.10105536E-02
  2.35962985E-01  4.42653446E-01  3.57064423E-01 -4.42115008E-05 -1.22591041E-03
 -1.05517725E-02 -6.74452633E-02 -1.71198607E-01  1.07329856E+00  1.00000000E+00
  1.00000000E+00  1.00000000E+00  4.11634896E-02  2.57762836E-01  8.02419274E-01
  1.00000000E+00  1.00000000E+00  1.00000000E+00  1.00000000E+00  1.00000000E+00
  1.00000000E+00  1.00000000E+00  1.00000000E+00  5.19808943E-04  4.02025621E-03
  2.07128267E-02  8.10105536E-02  2.35962985E-01  4.42653446E-01  3.57064423E-01
 -4.42115008E-05 -1.22591041E-03 -1.05517725E-02 -6.74452633E-02 -1.71198607E-01
  1.07329856E+00  1.00000000E+00  1.00000000E+00  1.00000000E+00  4.11634896E-02
  2.57762836E-01  8.02419274E-01  1.00000000E+00  1.00000000E+00  1.00000000E+00
  1.00000000E+00  1.00000000E+00  1.00000000E+00  1.00000000E+00  1.00000000E+00
  5.34563860E-04  4.13435660E-03  2.12335358E-02  8.25006224E-02  2.38138871E-01
  4.42551547E-01  3.53757422E-01 -4.89867350E-05 -1.19527323E-03 -1.03490714E-02
 -6.48680190E-02 -1.71552477E-01  1.07289568E+00  1.00000000E+00  1.00000000E+00
  1.00000000E+00  3.98072123E-02  2.49002660E-01  8.10479727E-01  1.00000000E+00
  1.00000000E+00  1.00000000E+00  1.00000000E+00  1.00000000E+00  1.00000000E+00
  1.00000000E+00  1.00000000E+00  5.19808943E-04  4.02025621E-03  2.07128267E-02
  8.10105536E-02  2.35962985E-01  4.42653446E-01  3.57064423E-01 -4.42115008E-05
 -1.22591041E-03 -1.05517725E-02 -6.74452633E-02 -1.71198607E-01  1.07329856E+00
  1.00000000E+00  1.00000000E+00  1.00000000E+00  4.11634896E-02  2.57762836E-01
  8.02419274E-01  1.00000000E+00  1.00000000E+00  1.00000000E+00  1.00000000E+00
  1.00000000E+00  1.00000000E+00  1.00000000E+00  1.00000000E+00
Coordinates of each shell                  R   N=         195
  2.09152884E+00 -1.15150126E+00  0.00000000E+00  2.09152884E+00 -1.15150126E+00
  0.00000000E+00  2.09152884E+00 -1.15150126E+00  0.00000000E+00  2.09152884E+00
 -1.15150126E+00  0.00000000E+00  2.09152884E+00 -1.15150126E+00  0.00000000E+00
  2.09152884E+00 -1.15150126E+00  0.00000000E+00  2.09152884E+00 -1.15150126E+00
  0.00000000E+00  2.09152884E+00 -1.15150126E+00  0.00000000E+00  2.09152884E+00
 -1.15150126E+00  0.00000000E+00  2.48664724E+00  6.91554622E-01  0.00000000E+00
  2.48664724E+00  6.91554622E-01  0.00000000E+00  2.48664724E+00  6.91554622E-01
  0.00000000E+00  2.48664724E+00  6.91554622E-01  0.00000000E+00  2.48664724E+00
  6.91554622E-01  0.00000000E+00  2.48664724E+00  6.91554622E-01  0.00000000E+00
  2.48664724E+00  6.91554622E-01  0.00000000E+00  2.48664724E+00  6.91554622E-01
  0.00000000E+00  2.48664724E+00  6.91554622E-01  0.00000000E+00  2.48664724E+00
  6.91554622E-01  0.00000000E+00  2.48664724E+00  6.91554622E-01  0.00000000E+00
  2.48664724E+00  6.91554622E-01  0.00000000E+00  2.48664724E+00  6.91554622E-01
  0.00000000E+00  2.48664724E+00  6.91554622E-01  0.00000000E+00 -9.89707979E-18
  1.73355496E+00  0.00000000E+00 -9.89707979E-18  1.73355496E+00  0.00000000E+00
 -9.89707979E-18  1.73355496E+00  0.00000000E+00 -9.89707979E-18  1.73355496E+00
  0.00000000E+00 -9.89707979E-18  1.73355496E+00  0.00000000E+00 -9.89707979E-18
  1.73355496E+00  0.00000000E+00 -9.89707979E-18  1.73355496E+00  0.00000000E+00
 -9.89707979E-18  1.73355496E+00  0.00000000E+00 -9.89707979E-18  1.73355496E+00
  0.00000000E+00 -9.89707979E-18  1.73355496E+00  0.00000000E+00 -9.89707979E-18
  1.73355496E+00  0.00000000E+00 -9.89707979E-18  1.73355496E+00  0.00000000E+00
 -9.89707979E-18  1.73355496E+00  0.00000000E+00 -9.89707979E-18  1.73355496E+00
  0.00000000E+00 -1.87340276E+00 -8.35909855E-02  0.00000000E+00 -1.87340276E+00
 -8.35909855E-02  0.00000000E+00 -1.87340276E+00 -8.35909855E-02  0.00000000E+00
 -1.87340276E+00 -8.35909855E-02  0.00000000E+00 -1.87340276E+00 -8.35909855E-02
  0.00000000E+00 -1.87340276E+00 -8.35909855E-02  0.00000000E+00 -1.87340276E+00
 -8.35909855E-02  0.00000000E+00 -1.87340276E+00 -8.35909855E-02  0.00000000E+00
 -1.87340276E+00 -8.35909855E-02  0.00000000E+00 -1.87340276E+00 -8.35909855E-02
  0.00000000E+00 -1.87340276E+00 -8.35909855E-02  0.00000000E+00 -1.87340276E+00
 -8.35909855E-02  0.00000000E+00 -1.87340276E+00 -8.35909855E-02  0.00000000E+00
 -1.87340276E+00 -8.35909855E-02  0.00000000E+00 -1.10886093E+00 -2.20802982E+00
  0.00000000E+00 -1.10886093E+00 -2.20802982E+00  0.00000000E+00 -1.10886093E+00
 -2.20802982E+00  0.00000000E+00 -1.10886093E+00 -2.20802982E+00  0.00000000E+00
 -1.10886093E+00 -2.20802982E+00  0.00000000E+00 -1.10886093E+00 -2.20802982E+00
  0.00000000E+00 -1.10886093E+00 -2.20802982E+00  0.00000000E+00 -1.10886093E+00
 -2.20802982E+00  0.00000000E+00 -1.10886093E+00 -2.20802982E+00  0.00000000E+00
 -1.10886093E+00 -2.20802982E+00  0.00000000E+00 -1.10886093E+00 -2.20802982E+00
  0.00000000E+00 -1.10886093E+00 -2.20802982E+00  0.00000000E+00 -1.10886093E+00
 -2.20802982E+00  0.00000000E+00 -1.10886093E+00 -2.20802982E+00  0.00000000E+00
Num ILSW                                   I              100
ILSW                                       I   N=         100
           0           0           0           0           2           0
           0           0           0           0           0          -1
           5           0           0           0           2           0
           0           0           0           0           1           0
           1           0           0           0           0           0
           0           0      100000           0          -1           0
           0           0           0           0           0           0
           0           0           0           1           1           0
           0 -2000000000           1           0           0           0
           0           0           4          52           0           0
           0           0           0           0           0           0
           0           0           0           5           4           1
           0           0           0           0           0           0
           0           0           0           0           0           0
           0           0           0           0           0           0
           0           0           0           0           0           0
           0           0           0           0
Num RLSW                                   I               52
RLSW                                       R   N=          52
  1.00000000E+00  1.00000000E+00  1.00000000E+00  1.00000000E+00  1.00000000E+00
  0.00000000E+00  0.00000000E+00  1.00000000E+00  0.00000000E+00  0.00000000E+00
  0.00000000E+00  0.00000000E+00  1.00000000E+00  0.00000000E+00  0.00000000E+00
  0.00000000E+00  0.00000000E+00  1.00000000E+00  0.00000000E+00  0.00000000E+00
  0.00000000E+00  0.00000000E+00  1.00000000E+00  0.00000000E+00  0.00000000E+00
  0.00000000E+00  0.00000000E+00  1.00000000E+00  0.00000000E+00  0.00000000E+00
  0.00000000E+00  0.00000000E+00  1.00000000E+00  0.00000000E+00  0.00000000E+00
  0.00000000E+00  0.00000000E+00  0.00000000E+00  1.00000000E+00  1.00000000E+00
  0.00000000E+00  1.00000000E+00  0.00000000E+00  0.00000000E+00  0.00000000E+00
  0.00000000E+00  0.00000000E+00  0.00000000E+00  0.00000000E+00  0.00000000E+00
  0.00000000E+00  0.00000000E+00
MxBond                                     I                2
NBond                                      I   N=           5
           1           2           2           2           1
IBond                                      I   N=          10
           2           0           1           3           2           4
           3           5           4           0
RBond                                      R   N=          10
  1.00000000E+00  0.00000000E+00  1.00000000E+00  1.00000000E+00  1.00000000E+00
  1.00000000E+00  1.00000000E+00  2.00000000E+00  2.00000000E+00  0.00000000E+00
Virial Ratio                               R      2.002298250332355E+00
SCF Energy                                 R     -2.795055913107726E+02
MP2 Energy                                 R     -2.804551301856458E+02
Total Energy                               R     -2.804551301856458E+02
Post-SCF wavefunction norm                 R      1.584072442260922E+00
RMS Force                                  R      3.414712481394502E-03
RMS Density                                R      4.593028914584213E-09
NImag                                      I                0
Job Status                                 I                1
Nuclear derivative order                   I                2
External E-field                           R   N=          35
  0.00000000E+00  0.00000000E+00  0.00000000E+00  0.00000000E+00  0.00000000E+00
  0.00000000E+00  0.00000000E+00  0.00000000E+00  0.00000000E+00  0.00000000E+00
  0.00000000E+00  0.00000000E+00  0.00000000E+00  0.00000000E+00  0.00000000E+00
  0.00000000E+00  0.00000000E+00  0.00000000E+00  0.00000000E+00  0.00000000E+00
  0.00000000E+00  0.00000000E+00  0.00000000E+00  0.00000000E+00  0.00000000E+00
  0.00000000E+00  0.00000000E+00  0.00000000E+00  0.00000000E+00  0.00000000E+00
  0.00000000E+00  0.00000000E+00  0.00000000E+00  0.00000000E+00  0.00000000E+00
IOpCl                                      I                0
IROHF                                      I                0
Alpha Orbital Energies                     R   N=         207
 -2.07196247E+01 -2.06874006E+01 -2.06686616E+01 -1.58260242E+01 -1.64409328E+00
 -1.50415047E+00 -1.29159679E+00 -9.59633259E-01 -8.34170516E-01 -7.58781991E-01
 -7.39777023E-01 -6.34623155E-01 -6.18391448E-01 -6.18120699E-01 -5.04835286E-01
 -4.97000058E-01  3.49739823E-02  6.01916625E-02  9.51876557E-02  1.00342912E-01
  1.19808668E-01  1.22632548E-01  1.49106056E-01  1.51944404E-01  1.77727284E-01
  1.80388633E-01  1.89815193E-01  2.10858046E-01  2.16580217E-01  2.42938949E-01
  2.46385793E-01  2.69035647E-01  3.11157749E-01  3.16449875E-01  3.38246840E-01
  3.43912015E-01  3.46989389E-01  3.92606450E-01  4.47156749E-01  4.87684815E-01
  5.04983726E-01  5.18433728E-01  5.44293925E-01  5.61210363E-01  5.98612198E-01
  6.19405904E-01  6.38584163E-01  6.89609999E-01  7.17678027E-01  7.23873511E-01
  7.43040872E-01  7.64018044E-01  7.67420498E-01  7.95588453E-01  8.06371600E-01
  8.38774286E-01  8.43283691E-01  8.51902331E-01  8.85538733E-01  9.08411288E-01
  9.31883582E-01  9.47657944E-01  9.53738325E-01  1.01814303E+00  1.03164477E+00
  1.06347788E+00  1.06527907E+00  1.09451113E+00  1.14391922E+00  1.15570263E+00
  1.16967712E+00  1.22318381E+00  1.22742843E+00  1.24628283E+00  1.35215714E+00
  1.35855066E+00  1.37176384E+00  1.46889554E+00  1.48086140E+00  1.50500194E+00
  1.54004461E+00  1.59498970E+00  1.59735810E+00  1.60581401E+00  1.62912065E+00
  1.69617670E+00  1.73979374E+00  1.80036165E+00  1.82962302E+00  1.88836878E+00
  1.89507194E+00  1.93056413E+00  1.97953673E+00  1.98412603E+00  2.05152035E+00
  2.12328806E+00  2.12845653E+00  2.16335874E+00  2.18766346E+00  2.24387711E+00
  2.26075594E+00  2.29404583E+00  2.35261876E+00  2.36817921E+00  2.38444400E+00
  2.40190399E+00  2.43436427E+00  2.47124774E+00  2.47817074E+00  2.52978354E+00
  2.53674968E+00  2.55028440E+00  2.55825426E+00  2.61571186E+00  2.63202964E+00
  2.67291691E+00  2.67466612E+00  2.75559042E+00  2.80959593E+00  2.82010332E+00
  2.83903543E+00  2.91884476E+00  2.98558076E+00  3.04851411E+00  3.05118349E+00
  3.11523963E+00  3.11802360E+00  3.17206974E+00  3.21432613E+00  3.30975735E+00
  3.33027406E+00  3.35960631E+00  3.47589853E+00  3.67823933E+00  3.86871578E+00
  3.91860651E+00  4.17541912E+00  4.21972829E+00  4.22415991E+00  4.26791262E+00
  4.36908367E+00  4.49941738E+00  4.52435110E+00  4.55507414E+00  4.59374926E+00
  4.69484861E+00  4.79718029E+00  4.89710174E+00  4.91393747E+00  4.93003343E+00
  4.99599671E+00  5.00485747E+00  5.10519840E+00  5.12380065E+00  5.16541967E+00
  5.23385711E+00  5.24584122E+00  5.31350296E+00  5.34421627E+00  5.34820832E+00
  5.54632028E+00  5.64492156E+00  5.70585227E+00  5.88879968E+00  5.99552758E+00
  6.26457735E+00  6.30006679E+00  6.36242574E+00  6.37556510E+00  6.59659110E+00
  6.65843829E+00  6.66093074E+00  6.68925289E+00  6.72669488E+00  6.79647990E+00
  6.80407041E+00  6.85055950E+00  6.96820675E+00  7.01069394E+00  7.06520773E+00
  7.07008314E+00  7.13618795E+00  7.17481953E+00  7.17602613E+00  7.19191155E+00
  7.24319330E+00  7.24401603E+00  7.27226318E+00  7.34931979E+00  7.39346181E+00
  7.42154324E+00  7.44215239E+00  7.45974541E+00  7.55874603E+00  7.66314832E+00
  7.66714059E+00  7.78565626E+00  7.87792647E+00  7.95233523E+00  8.06623229E+00
  8.29760707E+00  8.48919622E+00  8.64791217E+00  1.36148400E+01  1.46766542E+01
  1.50224010E+01  1.57696789E+01
Alpha MO coefficients                      R   N=       42849
  6.26951158E-05 -2.26517604E-05 -1.06186173E-03  1.33670267E-05 -5.18795968E-05
  4.22536817E-05  0.00000000E+00 -7.55315566E-05 -2.96091210E-04  0.00000000E+00
  1.56091816E-06 -3.51595718E-04  0.00000000E+00  4.19988497E-05  0.00000000E+00
  0.00000000E+00 -2.21465325E-05  1.07627212E-05  2.22755923E-04  0.00000000E+00
  0.00000000E+00 -2.58508895E-05 -1.92640240E-04  3.10848957E-03 -9.47021441E-05
 -9.83264923E-05  3.54121493E-03  2.45564983E-03  1.02608695E-04 -5.29181794E-05
  0.00000000E+00 -7.30757129E-04  2.81114361E-04  0.00000000E+00 -2.00770677E-03
  1.11466005E-03  0.00000000E+00 -5.35946002E-04  4.52090888E-05  0.00000000E+00
  1.99329494E-05  0.00000000E+00  0.00000000E+00 -8.88957627E-06  4.36494627E-05
 -4.42695998E-04  0.00000000E+00  0.00000000E+00  4.24238786E-04 -6.56697602E-04
 -3.61861331E-04  0.00000000E+00  0.00000000E+00  5.46828409E-04 -7.29898841E-04
  0.00000000E+00  7.38826743E-05 -5.15840606E-05  0.00000000E+00  0.00000000E+00
 -2.72895727E-05  1.08533685E-04  0.00000000E+00  2.08067659E-04 -5.29429071E-05
  0.00000000E+00  0.00000000E+00 -1.65016764E-04  2.99527319E-04  9.76904104E-01
 -9.17403154E-03  4.34057832E-02  4.95061725E-04 -2.20838915E-03  4.46380095E-04
 -2.14733809E-03  0.00000000E+00 -3.15079886E-04  2.25294142E-03  0.00000000E+00
 -2.32293366E-03 -4.88285991E-04  0.00000000E+00 -2.24760293E-04  9.51230777E-05
  0.00000000E+00  6.92272263E-06  0.00000000E+00  0.00000000E+00 -4.55831068E-06
  3.78907034E-05  8.26347414E-04  0.00000000E+00  0.00000000E+00 -4.73894229E-04
 -1.74869621E-04 -1.40901778E-04  0.00000000E+00  0.00000000E+00 -5.53235462E-04
  3.58782967E-04  0.00000000E+00 -6.85201904E-06 -7.94610820E-05  0.00000000E+00
  0.00000000E+00 -9.09786392E-06  4.79273698E-05  0.00000000E+00  9.30190473E-05
  1.70253325E-06  0.00000000E+00  0.00000000E+00 -3.37627529E-04  3.78669374E-04
  1.04241188E-04  4.56708367E-04 -3.23770358E-04 -8.60450052E-04  3.54184917E-04
 -4.43523000E-05 -1.00092721E-04  0.00000000E+00  6.97561102E-04  1.11102165E-03
  0.00000000E+00 -7.73487951E-04 -6.44870614E-04  0.00000000E+00  1.97771410E-04
  2.13596414E-04  0.00000000E+00 -5.25362756E-05  0.00000000E+00  0.00000000E+00
  1.90452318E-05  9.33657324E-05 -4.15634232E-04  0.00000000E+00  0.00000000E+00
  4.09986051E-05  1.08177165E-03  2.76392775E-05  0.00000000E+00  0.00000000E+00
 -3.18100441E-04  3.23421508E-05  0.00000000E+00 -7.87166019E-05 -1.13613357E-04
  0.00000000E+00  0.00000000E+00 -9.64378050E-05  1.06567094E-04  0.00000000E+00
 -1.24453406E-04  4.65041707E-05  0.00000000E+00  0.00000000E+00  1.38337925E-05
  5.21637655E-04 -7.12664817E-04  4.63425849E-05 -7.07448517E-05  2.19536556E-04
 -1.82108961E-04 -2.92748350E-05 -4.14331209E-05  0.00000000E+00  1.70785050E-04
  2.53192162E-04  0.00000000E+00  5.10928922E-04  3.31983437E-04  0.00000000E+00
 -2.22797161E-04 -6.23619557E-05  0.00000000E+00 -1.29491184E-05  0.00000000E+00
  0.00000000E+00  3.45952562E-06  1.51996929E-05 -2.20642029E-06  0.00000000E+00
  0.00000000E+00 -1.64759770E-04  1.03194425E-05 -2.00222261E-05  0.00000000E+00
  0.00000000E+00 -1.78107426E-04 -4.79472845E-05  0.00000000E+00 -6.07099488E-06
 -9.10317735E-06  0.00000000E+00  0.00000000E+00 -2.12278929E-05  9.54847305E-06
  0.00000000E+00  4.07476143E-05  6.07403978E-05  0.00000000E+00  0.00000000E+00
  1.55854575E-04 -1.04317965E-04  3.91753627E-05  6.00799662E-05 -9.68385101E-05
 -2.93776483E-05  1.95453116E-05  1.31203708E-05  0.00000000E+00  2.37323651E-04
  5.25899533E-05  0.00000000E+00  1.25387805E-04  2.40606223E-05  0.00000000E+00
  1.25241959E-05  0.00000000E+00  0.00000000E+00 -1.14549438E-05  1.77225946E-05
  1.97203368E-05  0.00000000E+00  0.00000000E+00 -8.97126258E-05  6.83677743E-05
 -2.66573223E-04  2.88983233E-05 -1.55056754E-05 -5.36982968E-04  1.49748447E-04
  7.36146958E-06  1.37222516E-05  0.00000000E+00 -2.21270789E-07 -4.39944814E-05
  0.00000000E+00  1.69566201E-04  1.37700558E-04  0.00000000E+00 -4.49263962E-05
  5.28714970E-05  0.00000000E+00 -1.57466548E-06  0.00000000E+00  0.00000000E+00
 -8.50629655E-06 -1.15372543E-05  2.17666575E-05  0.00000000E+00  0.00000000E+00
  5.03512972E-05  1.08016960E-04  6.25483273E-05  0.00000000E+00  0.00000000E+00
 -2.53888510E-05 -7.49748080E-05  0.00000000E+00  7.64945033E-06  1.02019822E-05
  0.00000000E+00  0.00000000E+00 -1.13743867E-06 -2.50543149E-05  0.00000000E+00
 -1.36743488E-05 -3.73960328E-05  0.00000000E+00  0.00000000E+00 -2.11855391E-06
 -1.96713531E-05  7.40946159E-04  2.33705235E-05 -1.87965540E-05  2.97517511E-04
 -3.91167535E-04  1.65233070E-05  2.73126960E-05  0.00000000E+00 -6.59218239E-05
 -1.53991221E-04  0.00000000E+00  1.38778473E-04 -2.03976323E-04  0.00000000E+00
 -1.58560300E-04  1.41299738E-04  0.00000000E+00 -4.10599088E-06  0.00000000E+00
  0.00000000E+00 -2.95449915E-05 -9.93855444E-06 -5.13591233E-05  0.00000000E+00
  0.00000000E+00  7.97528077E-05  1.22502912E-04 -6.45213852E-05  0.00000000E+00
  0.00000000E+00  4.11797062E-05  3.33590439E-05  0.00000000E+00  2.92765269E-06
  3.36180770E-06  0.00000000E+00  0.00000000E+00 -7.96651525E-06 -2.27903087E-06
  0.00000000E+00  4.43473250E-06 -2.51116058E-05  0.00000000E+00  0.00000000E+00
  9.62872111E-05 -1.55186063E-04  2.36928971E-04  1.35670375E-03 -1.46785853E-04
 -7.21721531E-04  9.01370964E-04  6.31270340E-05 -7.10929832E-05  0.00000000E+00
  5.71459907E-04 -2.08208340E-03  0.00000000E+00  1.01426658E-04  4.99361828E-04
  0.00000000E+00  1.85599087E-04 -3.07269656E-04  0.00000000E+00 -1.27842782E-04
  0.00000000E+00  0.00000000E+00 -2.03976336E-04 -1.58291422E-04 -4.58970080E-04
  0.00000000E+00  0.00000000E+00 -6.00321619E-04 -9.21802335E-04 -4.07034690E-05
  0.00000000E+00  0.00000000E+00  5.83327586E-05  1.17211920E-04  0.00000000E+00
  8.32887490E-06  3.68408478E-05  0.00000000E+00  0.00000000E+00 -2.42852682E-05
 -4.56907835E-06  0.00000000E+00 -1.35132900E-04  1.57856500E-04  0.00000000E+00
  0.00000000E+00 -3.15563761E-04 -3.45213158E-05  9.76645930E-01 -9.88494001E-03
  4.35755137E-02  3.69655190E-03 -8.92479595E-04 -4.44437865E-04  2.13158117E-03
  0.00000000E+00  5.10578293E-04 -2.50501803E-03  0.00000000E+00 -7.72749409E-05
  8.22680691E-04  0.00000000E+00  1.04579450E-04 -6.42503960E-05  0.00000000E+00
 -1.93503877E-04  0.00000000E+00  0.00000000E+00 -7.45968325E-05 -4.33982282E-05
  4.08946466E-04  0.00000000E+00  0.00000000E+00  8.58832620E-04  4.82427809E-04
 -2.05927609E-04  0.00000000E+00  0.00000000E+00 -1.43151139E-04 -3.82660626E-05
  0.00000000E+00 -4.91211444E-06  7.02801493E-05  0.00000000E+00  0.00000000E+00
 -2.86757784E-05  1.06402318E-05  0.00000000E+00 -8.86129473E-05  9.15658213E-05
  0.00000000E+00  0.00000000E+00 -1.66042774E-04  2.05218436E-04  3.45634162E-04
  2.22168035E-03  1.55931926E-03 -1.45787713E-05  5.76323053E-05  2.91875457E-04
  0.00000000E+00  4.07772269E-04  1.13666367E-03  0.00000000E+00 -1.18463948E-04
  2.93834658E-04  0.00000000E+00 -4.60271259E-05  0.00000000E+00  0.00000000E+00
 -1.57723794E-06 -9.44949862E-06 -2.21819681E-04  0.00000000E+00  0.00000000E+00
 -3.52553683E-04  4.12870777E-04  9.76840411E-01 -9.20904012E-03  4.34556125E-02
 -1.96769711E-05 -2.07615300E-03 -2.04465250E-03 -8.31612866E-04  0.00000000E+00
  2.09638941E-03  8.33320069E-04  0.00000000E+00 -4.20744081E-04  8.10395095E-04
  0.00000000E+00  2.43122485E-04 -2.82558826E-04  0.00000000E+00  3.54246007E-05
  0.00000000E+00  0.00000000E+00 -6.86839180E-05  5.96857810E-05  7.82624281E-04
  0.00000000E+00  0.00000000E+00 -1.77788012E-04  3.41995224E-04 -2.27745706E-04
  0.00000000E+00  0.00000000E+00  3.70800355E-04 -1.35699027E-05  0.00000000E+00
 -8.20454929E-05 -4.36410613E-06  0.00000000E+00  0.00000000E+00  1.04481285E-05