title                                                                   
Freq      RMP2-FC                                                     Aug-CC-pVTZ         
Number of atoms                            I                5
Info1-9                                    I   N=           9
          33          24           0           0           0         100
           6           2           1
Full Title                                 C   N=           1
title       
Route                                      C   N=           4
#p freq mp2/aug-cc-pvtz density=current         
Charge                                     I                0
Multiplicity                               I                1
Number of electrons                        I               32
Number of alpha electrons                  I               16
Number of beta electrons                   I               16
Number of basis functions                  I              207
Number of independent functions            I              207
Number of point charges in /Mol/           I                0
Number of translation vectors              I                0
Atomic numbers                             I   N=           5
           1           8           8           7           8
Nuclear charges                            R   N=           5
  1.00000000E+00  8.00000000E+00  8.00000000E+00  7.00000000E+00  8.00000000E+00
Current cartesian coordinates              R   N=          15
  2.08964905E+00 -1.16038846E+00  0.00000000E+00  2.48668448E+00  6.91932602E-01
  0.00000000E+00 -2.29855066E-16  1.73384406E+00  0.00000000E+00 -1.87333780E+00
 -8.33688550E-02  0.00000000E+00 -1.10872004E+00 -2.20778036E+00  0.00000000E+00
Number of symbols in /Mol/                 I                0
Force Field                                I                0
Atom Types                                 C   N=           5
                                                            
Int Atom Types                             I   N=           5
           0           0           0           0           0
MM charges                                 R   N=           5
  0.00000000E+00  0.00000000E+00  0.00000000E+00  0.00000000E+00  0.00000000E+00
Integer atomic weights                     I   N=           5
           1          16          16          14          16
Real atomic weights                        R   N=           5
  1.00782504E+00  1.59949146E+01  1.59949146E+01  1.40030740E+01  1.59949146E+01
Atom fragment info                         I   N=           5
           0           0           0           0           0
Atom residue num                           I   N=           5
           0           0           0           0           0
Nuclear spins                              I   N=           5
           1           0           0           2           0
Nuclear ZEff                               R   N=           5
 -1.00000000E+00 -5.60000000E+00 -5.60000000E+00 -4.55000000E+00 -5.60000000E+00
Nuclear ZNuc                               R   N=           5
  1.00000000E+00  8.00000000E+00  8.00000000E+00  7.00000000E+00  8.00000000E+00
Nuclear QMom                               R   N=           5
  0.00000000E+00  0.00000000E+00  0.00000000E+00  2.04400000E+00  0.00000000E+00
Nuclear GFac                               R   N=           5
  2.79284600E+00  0.00000000E+00  0.00000000E+00  4.03761000E-01  0.00000000E+00
MicOpt                                     I   N=           5
          -1          -1          -1          -1          -1
Number of residues                         I                0
Number of secondary structures             I                0
SymInf integers                            I   N=          26
           1           2           1           1           1           1
           1          -1           0           0           0           0
           0           0           0           0           0           0
           0           0           0           0           0           0
           0           0
RotTr to input orientation                 R   N=          12
 -9.77790571E-01  0.00000000E+00  2.09584350E-01  2.09584350E-01  0.00000000E+00
  9.77790571E-01  0.00000000E+00  1.00000000E+00  0.00000000E+00  2.28643840E+00
  0.00000000E+00  6.96659154E-01
Number of contracted shells                I               65
Number of primitive shells                 I              119
Pure/Cartesian d shells                    I                0
Pure/Cartesian f shells                    I                0
Highest angular momentum                   I                3
Largest degree of contraction              I                7
Shell types                                I   N=          65
           0           0           0           0           1           1
           1          -2          -2           0           0           0
           0           0           1           1           1           1
          -2          -2          -2          -3          -3           0
           0           0           0           0           1           1
           1           1          -2          -2          -2          -3
          -3           0           0           0           0           0
           1           1           1           1          -2          -2
          -2          -3          -3           0           0           0
           0           0           1           1           1           1
          -2          -2          -2          -3          -3
Number of primitives per shell             I   N=          65
           3           1           1           1           1           1
           1           1           1           7           6           1
           1           1           3           1           1           1
           1           1           1           1           1           7
           6           1           1           1           3           1
           1           1           1           1           1           1
           1           7           6           1           1           1
           3           1           1           1           1           1
           1           1           1           7           6           1
           1           1           3           1           1           1
           1           1           1           1           1
Shell to atom map                          I   N=          65
           1           1           1           1           1           1
           1           1           1           2           2           2
           2           2           2           2           2           2
           2           2           2           2           2           3
           3           3           3           3           3           3
           3           3           3           3           3           3
           3           4           4           4           4           4
           4           4           4           4           4           4
           4           4           4           5           5           5
           5           5           5           5           5           5
           5           5           5           5           5
Primitive exponents                        R   N=         119
  3.38700000E+01  5.09500000E+00  1.15900000E+00  3.25800000E-01  1.02700000E-01
  2.52600000E-02  1.40700000E+00  3.88000000E-01  1.02000000E-01  1.05700000E+00
  2.47000000E-01  1.53300000E+04  2.29900000E+03  5.22400000E+02  1.47300000E+02
  4.75500000E+01  1.67600000E+01  6.20700000E+00  5.22400000E+02  1.47300000E+02
  4.75500000E+01  1.67600000E+01  6.20700000E+00  6.88200000E-01  1.75200000E+00
  2.38400000E-01  7.37600000E-02  3.44600000E+01  7.74900000E+00  2.28000000E+00
  7.15600000E-01  2.14000000E-01  5.97400000E-02  2.31400000E+00  6.45000000E-01
  2.14000000E-01  1.42800000E+00  5.00000000E-01  1.53300000E+04  2.29900000E+03
  5.22400000E+02  1.47300000E+02  4.75500000E+01  1.67600000E+01  6.20700000E+00
  5.22400000E+02  1.47300000E+02  4.75500000E+01  1.67600000E+01  6.20700000E+00
  6.88200000E-01  1.75200000E+00  2.38400000E-01  7.37600000E-02  3.44600000E+01
  7.74900000E+00  2.28000000E+00  7.15600000E-01  2.14000000E-01  5.97400000E-02
  2.31400000E+00  6.45000000E-01  2.14000000E-01  1.42800000E+00  5.00000000E-01
  1.14200000E+04  1.71200000E+03  3.89300000E+02  1.10000000E+02  3.55700000E+01
  1.25400000E+01  4.64400000E+00  3.89300000E+02  1.10000000E+02  3.55700000E+01
  1.25400000E+01  4.64400000E+00  5.11800000E-01  1.29300000E+00  1.78700000E-01
  5.76000000E-02  2.66300000E+01  5.94800000E+00  1.74200000E+00  5.55000000E-01
  1.72500000E-01  4.91000000E-02  1.65400000E+00  4.69000000E-01  1.51000000E-01
  1.09300000E+00  3.64000000E-01  1.53300000E+04  2.29900000E+03  5.22400000E+02
  1.47300000E+02  4.75500000E+01  1.67600000E+01  6.20700000E+00  5.22400000E+02
  1.47300000E+02  4.75500000E+01  1.67600000E+01  6.20700000E+00  6.88200000E-01
  1.75200000E+00  2.38400000E-01  7.37600000E-02  3.44600000E+01  7.74900000E+00
  2.28000000E+00  7.15600000E-01  2.14000000E-01  5.97400000E-02  2.31400000E+00
  6.45000000E-01  2.14000000E-01  1.42800000E+00  5.00000000E-01
Contraction coefficients                   R   N=         119
  2.54948632E-02  1.90362766E-01  8.52162022E-01  1.00000000E+00  1.00000000E+00
  1.00000000E+00  1.00000000E+00  1.00000000E+00  1.00000000E+00  1.00000000E+00
  1.00000000E+00  5.19808943E-04  4.02025621E-03  2.07128267E-02  8.10105536E-02
  2.35962985E-01  4.42653446E-01  3.57064423E-01 -4.42115008E-05 -1.22591041E-03
 -1.05517725E-02 -6.74452633E-02 -1.71198607E-01  1.07329856E+00  1.00000000E+00
  1.00000000E+00  1.00000000E+00  4.11634896E-02  2.57762836E-01  8.02419274E-01
  1.00000000E+00  1.00000000E+00  1.00000000E+00  1.00000000E+00  1.00000000E+00
  1.00000000E+00  1.00000000E+00  1.00000000E+00  5.19808943E-04  4.02025621E-03
  2.07128267E-02  8.10105536E-02  2.35962985E-01  4.42653446E-01  3.57064423E-01
 -4.42115008E-05 -1.22591041E-03 -1.05517725E-02 -6.74452633E-02 -1.71198607E-01
  1.07329856E+00  1.00000000E+00  1.00000000E+00  1.00000000E+00  4.11634896E-02
  2.57762836E-01  8.02419274E-01  1.00000000E+00  1.00000000E+00  1.00000000E+00
  1.00000000E+00  1.00000000E+00  1.00000000E+00  1.00000000E+00  1.00000000E+00
  5.34563860E-04  4.13435660E-03  2.12335358E-02  8.25006224E-02  2.38138871E-01
  4.42551547E-01  3.53757422E-01 -4.89867350E-05 -1.19527323E-03 -1.03490714E-02
 -6.48680190E-02 -1.71552477E-01  1.07289568E+00  1.00000000E+00  1.00000000E+00
  1.00000000E+00  3.98072123E-02  2.49002660E-01  8.10479727E-01  1.00000000E+00
  1.00000000E+00  1.00000000E+00  1.00000000E+00  1.00000000E+00  1.00000000E+00
  1.00000000E+00  1.00000000E+00  5.19808943E-04  4.02025621E-03  2.07128267E-02
  8.10105536E-02  2.35962985E-01  4.42653446E-01  3.57064423E-01 -4.42115008E-05
 -1.22591041E-03 -1.05517725E-02 -6.74452633E-02 -1.71198607E-01  1.07329856E+00
  1.00000000E+00  1.00000000E+00  1.00000000E+00  4.11634896E-02  2.57762836E-01
  8.02419274E-01  1.00000000E+00  1.00000000E+00  1.00000000E+00  1.00000000E+00
  1.00000000E+00  1.00000000E+00  1.00000000E+00  1.00000000E+00
Coordinates of each shell                  R   N=         195
  2.08964905E+00 -1.16038846E+00  0.00000000E+00  2.08964905E+00 -1.16038846E+00
  0.00000000E+00  2.08964905E+00 -1.16038846E+00  0.00000000E+00  2.08964905E+00
 -1.16038846E+00  0.00000000E+00  2.08964905E+00 -1.16038846E+00  0.00000000E+00
  2.08964905E+00 -1.16038846E+00  0.00000000E+00  2.08964905E+00 -1.16038846E+00
  0.00000000E+00  2.08964905E+00 -1.16038846E+00  0.00000000E+00  2.08964905E+00
 -1.16038846E+00  0.00000000E+00  2.48668448E+00  6.91932602E-01  0.00000000E+00
  2.48668448E+00  6.91932602E-01  0.00000000E+00  2.48668448E+00  6.91932602E-01
  0.00000000E+00  2.48668448E+00  6.91932602E-01  0.00000000E+00  2.48668448E+00
  6.91932602E-01  0.00000000E+00  2.48668448E+00  6.91932602E-01  0.00000000E+00
  2.48668448E+00  6.91932602E-01  0.00000000E+00  2.48668448E+00  6.91932602E-01
  0.00000000E+00  2.48668448E+00  6.91932602E-01  0.00000000E+00  2.48668448E+00
  6.91932602E-01  0.00000000E+00  2.48668448E+00  6.91932602E-01  0.00000000E+00
  2.48668448E+00  6.91932602E-01  0.00000000E+00  2.48668448E+00  6.91932602E-01
  0.00000000E+00  2.48668448E+00  6.91932602E-01  0.00000000E+00 -2.55980439E-17
  1.73384406E+00  0.00000000E+00 -2.55980439E-17  1.73384406E+00  0.00000000E+00
 -2.55980439E-17  1.73384406E+00  0.00000000E+00 -2.55980439E-17  1.73384406E+00
  0.00000000E+00 -2.55980439E-17  1.73384406E+00  0.00000000E+00 -2.55980439E-17
  1.73384406E+00  0.00000000E+00 -2.55980439E-17  1.73384406E+00  0.00000000E+00
 -2.55980439E-17  1.73384406E+00  0.00000000E+00 -2.55980439E-17  1.73384406E+00
  0.00000000E+00 -2.55980439E-17  1.73384406E+00  0.00000000E+00 -2.55980439E-17
  1.73384406E+00  0.00000000E+00 -2.55980439E-17  1.73384406E+00  0.00000000E+00
 -2.55980439E-17  1.73384406E+00  0.00000000E+00 -2.55980439E-17  1.73384406E+00
  0.00000000E+00 -1.87333780E+00 -8.33688550E-02  0.00000000E+00 -1.87333780E+00
 -8.33688550E-02  0.00000000E+00 -1.87333780E+00 -8.33688550E-02  0.00000000E+00
 -1.87333780E+00 -8.33688550E-02  0.00000000E+00 -1.87333780E+00 -8.33688550E-02
  0.00000000E+00 -1.87333780E+00 -8.33688550E-02  0.00000000E+00 -1.87333780E+00
 -8.33688550E-02  0.00000000E+00 -1.87333780E+00 -8.33688550E-02  0.00000000E+00
 -1.87333780E+00 -8.33688550E-02  0.00000000E+00 -1.87333780E+00 -8.33688550E-02
  0.00000000E+00 -1.87333780E+00 -8.33688550E-02  0.00000000E+00 -1.87333780E+00
 -8.33688550E-02  0.00000000E+00 -1.87333780E+00 -8.33688550E-02  0.00000000E+00
 -1.87333780E+00 -8.33688550E-02  0.00000000E+00 -1.10872004E+00 -2.20778036E+00
  0.00000000E+00 -1.10872004E+00 -2.20778036E+00  0.00000000E+00 -1.10872004E+00
 -2.20778036E+00  0.00000000E+00 -1.10872004E+00 -2.20778036E+00  0.00000000E+00
 -1.10872004E+00 -2.20778036E+00  0.00000000E+00 -1.10872004E+00 -2.20778036E+00
  0.00000000E+00 -1.10872004E+00 -2.20778036E+00  0.00000000E+00 -1.10872004E+00
 -2.20778036E+00  0.00000000E+00 -1.10872004E+00 -2.20778036E+00  0.00000000E+00
 -1.10872004E+00 -2.20778036E+00  0.00000000E+00 -1.10872004E+00 -2.20778036E+00
  0.00000000E+00 -1.10872004E+00 -2.20778036E+00  0.00000000E+00 -1.10872004E+00
 -2.20778036E+00  0.00000000E+00 -1.10872004E+00 -2.20778036E+00  0.00000000E+00
Num ILSW                                   I              100
ILSW                                       I   N=         100
           0           0           0           0           2           0
           0           0           0           0           0          -1
           5           0           0           0           2           0
           0           0           0           0           1           0
           1           0           0           0           0           0
           0           0      100000           0          -1           0
           0           0           0           0           0           0
           0           0           0           1           1           0
           0 -2000000000           1           0           0           0
           0           0           4          52           0           0
           0           0           0           0           0           0
           0           0           0           5           4           1
           0           0           0           0           0           0
           0           0           0           0           0           0
           0           0           0           0           0           0
           0           0           0           0           0           0
           0           0           0           0
Num RLSW                                   I               52
RLSW                                       R   N=          52
  1.00000000E+00  1.00000000E+00  1.00000000E+00  1.00000000E+00  1.00000000E+00
  0.00000000E+00  0.00000000E+00  1.00000000E+00  0.00000000E+00  0.00000000E+00
  0.00000000E+00  0.00000000E+00  1.00000000E+00  0.00000000E+00  0.00000000E+00
  0.00000000E+00  0.00000000E+00  1.00000000E+00  0.00000000E+00  0.00000000E+00
  0.00000000E+00  0.00000000E+00  1.00000000E+00  0.00000000E+00  0.00000000E+00
  0.00000000E+00  0.00000000E+00  1.00000000E+00  0.00000000E+00  0.00000000E+00
  0.00000000E+00  0.00000000E+00  1.00000000E+00  0.00000000E+00  0.00000000E+00
  0.00000000E+00  0.00000000E+00  0.00000000E+00  1.00000000E+00  1.00000000E+00
  0.00000000E+00  1.00000000E+00  0.00000000E+00  0.00000000E+00  0.00000000E+00
  0.00000000E+00  0.00000000E+00  0.00000000E+00  0.00000000E+00  0.00000000E+00
  0.00000000E+00  0.00000000E+00
MxBond                                     I                2
NBond                                      I   N=           5
           1           2           2           2           1
IBond                                      I   N=          10
           2           0           1           3           2           4
           3           5           4           0
RBond                                      R   N=          10
  1.00000000E+00  0.00000000E+00  1.00000000E+00  1.00000000E+00  1.00000000E+00
  1.00000000E+00  1.00000000E+00  2.00000000E+00  2.00000000E+00  0.00000000E+00
Virial Ratio                               R      2.002326293635696E+00
SCF Energy                                 R     -2.795051810651664E+02
MP2 Energy                                 R     -2.804550224634249E+02
Total Energy                               R     -2.804550224634249E+02
Post-SCF wavefunction norm                 R      1.584214666956098E+00
RMS Force                                  R      4.743849086267560E-03
RMS Density                                R      4.663347218814469E-09
NImag                                      I                0
Job Status                                 I                1
Nuclear derivative order                   I                2
External E-field                           R   N=          35
  0.00000000E+00  0.00000000E+00  0.00000000E+00  0.00000000E+00  0.00000000E+00
  0.00000000E+00  0.00000000E+00  0.00000000E+00  0.00000000E+00  0.00000000E+00
  0.00000000E+00  0.00000000E+00  0.00000000E+00  0.00000000E+00  0.00000000E+00
  0.00000000E+00  0.00000000E+00  0.00000000E+00  0.00000000E+00  0.00000000E+00
  0.00000000E+00  0.00000000E+00  0.00000000E+00  0.00000000E+00  0.00000000E+00
  0.00000000E+00  0.00000000E+00  0.00000000E+00  0.00000000E+00  0.00000000E+00
  0.00000000E+00  0.00000000E+00  0.00000000E+00  0.00000000E+00  0.00000000E+00
IOpCl                                      I                0
IROHF                                      I                0
Alpha Orbital Energies                     R   N=         207
 -2.07195510E+01 -2.06874622E+01 -2.06688029E+01 -1.58260256E+01 -1.64401451E+00
 -1.50374684E+00 -1.29071066E+00 -9.59344283E-01 -8.33949940E-01 -7.58724065E-01
 -7.39696520E-01 -6.33478147E-01 -6.18244087E-01 -6.18012803E-01 -5.04890298E-01
 -4.96786192E-01  3.49337818E-02  6.01652079E-02  9.52160344E-02  1.00325979E-01
  1.19845550E-01  1.22644561E-01  1.49013855E-01  1.51899063E-01  1.77807743E-01
  1.80406312E-01  1.89830480E-01  2.10794752E-01  2.16527298E-01  2.43105873E-01
  2.46399880E-01  2.69035878E-01  3.10502096E-01  3.16318933E-01  3.38318663E-01
  3.43938797E-01  3.47085857E-01  3.92606211E-01  4.46389482E-01  4.87265724E-01
  5.04940918E-01  5.18431590E-01  5.44007327E-01  5.61240868E-01  5.98418634E-01
  6.19086372E-01  6.38527824E-01  6.89619926E-01  7.17946861E-01  7.23731640E-01
  7.42974643E-01  7.64138947E-01  7.67494105E-01  7.95539393E-01  8.06318971E-01
  8.38376427E-01  8.43341212E-01  8.51994275E-01  8.85649792E-01  9.08625659E-01
  9.32360242E-01  9.47578259E-01  9.53590942E-01  1.01804430E+00  1.03138659E+00
  1.06361684E+00  1.06501939E+00  1.09420614E+00  1.14371917E+00  1.15549449E+00
  1.16974346E+00  1.22343232E+00  1.22747415E+00  1.24647955E+00  1.35151291E+00
  1.35760330E+00  1.37177724E+00  1.46904511E+00  1.47907172E+00  1.50506432E+00
  1.53926334E+00  1.59425273E+00  1.59736541E+00  1.60590746E+00  1.62921256E+00
  1.69635747E+00  1.73941135E+00  1.80007766E+00  1.82954416E+00  1.88840627E+00
  1.89461199E+00  1.93106403E+00  1.97966957E+00  1.98173137E+00  2.05134268E+00
  2.12300163E+00  2.12767676E+00  2.16225170E+00  2.18775501E+00  2.24398479E+00
  2.26122188E+00  2.29395428E+00  2.35278578E+00  2.36882355E+00  2.38357940E+00
  2.40176413E+00  2.43468845E+00  2.47200189E+00  2.47765455E+00  2.52990206E+00
  2.53612477E+00  2.55052177E+00  2.55806976E+00  2.61558044E+00  2.63295934E+00
  2.67292417E+00  2.67491154E+00  2.75594048E+00  2.80946720E+00  2.82124935E+00
  2.83845927E+00  2.91889836E+00  2.98560658E+00  3.04905800E+00  3.05123549E+00
  3.11514219E+00  3.11795122E+00  3.17129994E+00  3.21469713E+00  3.31023487E+00
  3.32948338E+00  3.35904402E+00  3.47512541E+00  3.67821886E+00  3.86837549E+00
  3.91345138E+00  4.17172428E+00  4.21820232E+00  4.22385663E+00  4.26773966E+00
  4.36877852E+00  4.49920150E+00  4.52241074E+00  4.55469403E+00  4.59172259E+00
  4.69525500E+00  4.79107681E+00  4.89618946E+00  4.91381490E+00  4.92557799E+00
  4.99467813E+00  5.00449046E+00  5.10412016E+00  5.11942717E+00  5.16039850E+00
  5.22323141E+00  5.24442414E+00  5.31234281E+00  5.33984969E+00  5.34823313E+00
  5.54598885E+00  5.64493773E+00  5.70579225E+00  5.88871723E+00  5.99473426E+00
  6.26448102E+00  6.30159857E+00  6.36302035E+00  6.37511036E+00  6.59592698E+00
  6.65797835E+00  6.66144544E+00  6.68898918E+00  6.72679534E+00  6.79602586E+00
  6.80390916E+00  6.85035547E+00  6.96827365E+00  7.00667931E+00  7.06167895E+00
  7.06839803E+00  7.13521583E+00  7.17438805E+00  7.17593456E+00  7.18804063E+00
  7.24143595E+00  7.24354895E+00  7.27261838E+00  7.34936363E+00  7.39310197E+00
  7.41881134E+00  7.44208984E+00  7.45855217E+00  7.55852433E+00  7.66297535E+00
  7.66678903E+00  7.78272262E+00  7.87545838E+00  7.95219131E+00  8.06653296E+00
  8.29339867E+00  8.48486221E+00  8.64610793E+00  1.36128553E+01  1.46316784E+01
  1.50004782E+01  1.57714716E+01
Alpha MO coefficients                      R   N=       42849
  6.20113089E-05 -2.28204423E-05 -1.03976825E-03  1.35820615E-05 -5.20186358E-05
  4.23360169E-05  0.00000000E+00 -6.99176386E-05 -2.98956043E-04  0.00000000E+00
  2.44931928E-06 -3.51814930E-04  0.00000000E+00  4.18924849E-05  0.00000000E+00
  0.00000000E+00 -2.09629564E-05  1.01157334E-05  2.20311598E-04  0.00000000E+00
  0.00000000E+00 -2.01274743E-05 -1.85551067E-04  3.12340124E-03 -9.44998150E-05
 -9.79177541E-05  3.53939785E-03  2.44410262E-03  1.02582097E-04 -5.27475299E-05
  0.00000000E+00 -7.31205254E-04  2.79263926E-04  0.00000000E+00 -2.01961190E-03
  1.11576848E-03  0.00000000E+00 -5.34843053E-04  4.78057329E-05  0.00000000E+00
  1.97196319E-05  0.00000000E+00  0.00000000E+00 -8.86821867E-06  4.34396690E-05
 -4.42449710E-04  0.00000000E+00  0.00000000E+00  4.22541244E-04 -6.54470750E-04
 -3.60971494E-04  0.00000000E+00  0.00000000E+00  5.47973477E-04 -7.24569139E-04
  0.00000000E+00  7.38090345E-05 -5.12176656E-05  0.00000000E+00  0.00000000E+00
 -2.71853311E-05  1.08695924E-04  0.00000000E+00  2.08181061E-04 -5.38590724E-05
  0.00000000E+00  0.00000000E+00 -1.62911491E-04  2.99208446E-04  9.76904195E-01
 -9.17416984E-03  4.34052999E-02  4.94503579E-04 -2.20759129E-03  4.45132996E-04
 -2.14708603E-03  0.00000000E+00 -3.13081908E-04  2.25265072E-03  0.00000000E+00
 -2.32465129E-03 -4.89549080E-04  0.00000000E+00 -2.25128836E-04  9.41896565E-05
  0.00000000E+00  6.83230300E-06  0.00000000E+00  0.00000000E+00 -4.41530305E-06
  3.79041336E-05  8.26042262E-04  0.00000000E+00  0.00000000E+00 -4.73502386E-04
 -1.76371171E-04 -1.41735310E-04  0.00000000E+00  0.00000000E+00 -5.53996149E-04
  3.60367648E-04  0.00000000E+00 -7.03227893E-06 -7.95055507E-05  0.00000000E+00
  0.00000000E+00 -9.12914997E-06  4.78571620E-05  0.00000000E+00  9.33129320E-05
  2.06459703E-06  0.00000000E+00  0.00000000E+00 -3.37995080E-04  3.77986222E-04
  1.04150835E-04  4.56138972E-04 -3.23857357E-04 -8.72245452E-04  3.55033296E-04
 -4.44110755E-05 -1.00128783E-04  0.00000000E+00  6.97438036E-04  1.11095044E-03
  0.00000000E+00 -7.75736876E-04 -6.39225430E-04  0.00000000E+00  1.98921254E-04
  2.14176403E-04  0.00000000E+00 -5.25491971E-05  0.00000000E+00  0.00000000E+00
  1.89925579E-05  9.34131131E-05 -4.15584820E-04  0.00000000E+00  0.00000000E+00
  4.11833954E-05  1.08212723E-03  2.77919448E-05  0.00000000E+00  0.00000000E+00
 -3.18301550E-04  3.40012912E-05  0.00000000E+00 -7.87519425E-05 -1.13621556E-04
  0.00000000E+00  0.00000000E+00 -9.64170453E-05  1.06739600E-04  0.00000000E+00
 -1.24524544E-04  4.63471220E-05  0.00000000E+00  0.00000000E+00  1.32438893E-05
  5.21966107E-04 -7.15449529E-04  4.66317417E-05 -7.09239443E-05  2.21819878E-04
 -1.83690455E-04 -2.94007719E-05 -4.14149811E-05  0.00000000E+00  1.71527884E-04
  2.52989056E-04  0.00000000E+00  5.02258373E-04  3.34745050E-04  0.00000000E+00
 -2.24573003E-04 -6.22812167E-05  0.00000000E+00 -1.29420754E-05  0.00000000E+00
  0.00000000E+00  3.50942222E-06  1.51885072E-05 -2.23056840E-06  0.00000000E+00
  0.00000000E+00 -1.64986387E-04  1.03520756E-05 -1.91788523E-05  0.00000000E+00
  0.00000000E+00 -1.81296973E-04 -5.04004981E-05  0.00000000E+00 -6.14424205E-06
 -9.11058136E-06  0.00000000E+00  0.00000000E+00 -2.11145195E-05  9.58170344E-06
  0.00000000E+00  4.10131997E-05  6.06682692E-05  0.00000000E+00  0.00000000E+00
  1.55282703E-04 -1.04508035E-04  3.88340562E-05  5.85795274E-05 -9.05816091E-05
 -2.91739108E-05  1.97851342E-05  1.38517682E-05  0.00000000E+00  2.36501162E-04
  4.96318536E-05  0.00000000E+00  1.25480170E-04  2.41027514E-05  0.00000000E+00
  1.22498300E-05  0.00000000E+00  0.00000000E+00 -1.11667591E-05  1.81721901E-05
  1.90668777E-05  0.00000000E+00  0.00000000E+00 -8.72697138E-05  6.99662536E-05
 -2.69432369E-04  2.99621054E-05 -1.56593227E-05 -5.29893870E-04  1.46832062E-04
  7.34777512E-06  1.37758711E-05  0.00000000E+00 -7.38909959E-08 -4.49310249E-05
  0.00000000E+00  1.63719303E-04  1.39983360E-04  0.00000000E+00 -4.46144355E-05
  5.42946350E-05  0.00000000E+00 -1.61777287E-06  0.00000000E+00  0.00000000E+00
 -8.56907890E-06 -1.14673289E-05  2.18551222E-05  0.00000000E+00  0.00000000E+00
  5.03983542E-05  1.07616112E-04  6.27751464E-05  0.00000000E+00  0.00000000E+00
 -2.37789459E-05 -7.39016417E-05  0.00000000E+00  7.61092112E-06  1.01987841E-05
  0.00000000E+00  0.00000000E+00 -1.18170843E-06 -2.50752871E-05  0.00000000E+00
 -1.35432064E-05 -3.79228587E-05  0.00000000E+00  0.00000000E+00 -1.94824239E-06
 -1.96994542E-05  7.43857361E-04  2.36739909E-05 -1.87057607E-05  2.96377580E-04
 -3.90545233E-04  1.65265849E-05  2.73336388E-05  0.00000000E+00 -6.58890407E-05
 -1.54179024E-04  0.00000000E+00  1.32614433E-04 -2.03332450E-04  0.00000000E+00
 -1.59314003E-04  1.40893912E-04  0.00000000E+00 -4.13139364E-06  0.00000000E+00
  0.00000000E+00 -2.95466342E-05 -9.96387813E-06 -5.12711140E-05  0.00000000E+00
  0.00000000E+00  7.96561808E-05  1.22685460E-04 -6.42957416E-05  0.00000000E+00
  0.00000000E+00  4.11579779E-05  3.57949641E-05  0.00000000E+00  2.89996504E-06
  3.37883956E-06  0.00000000E+00  0.00000000E+00 -8.00632269E-06 -2.25864175E-06
  0.00000000E+00  4.68984733E-06 -2.51567985E-05  0.00000000E+00  0.00000000E+00
  9.63686310E-05 -1.55386435E-04  2.36851200E-04  1.35624286E-03 -1.46669540E-04
 -7.31781068E-04  8.99746911E-04  6.30955032E-05 -7.11176402E-05  0.00000000E+00
  5.71387108E-04 -2.08155753E-03  0.00000000E+00  9.80790610E-05  4.99147596E-04
  0.00000000E+00  1.85522038E-04 -3.07344935E-04  0.00000000E+00 -1.27855835E-04
  0.00000000E+00  0.00000000E+00 -2.03951632E-04 -1.58237820E-04 -4.58487148E-04
  0.00000000E+00  0.00000000E+00 -5.99407278E-04 -9.22217850E-04 -4.01938198E-05
  0.00000000E+00  0.00000000E+00  5.80513168E-05  1.17010993E-04  0.00000000E+00
  8.29547352E-06  3.68242008E-05  0.00000000E+00  0.00000000E+00 -2.42167753E-05
 -4.71677562E-06  0.00000000E+00 -1.35056831E-04  1.57752905E-04  0.00000000E+00
  0.00000000E+00 -3.15620934E-04 -3.46792514E-05  9.76645916E-01 -9.88437081E-03
  4.35755331E-02  3.69883771E-03 -8.91447480E-04 -4.43023333E-04  2.13151684E-03
  0.00000000E+00  5.09740072E-04 -2.50457510E-03  0.00000000E+00 -7.94504423E-05
  8.24582402E-04  0.00000000E+00  1.04447768E-04 -6.40791622E-05  0.00000000E+00
 -1.93341165E-04  0.00000000E+00  0.00000000E+00 -7.46858187E-05 -4.33560857E-05
  4.08960862E-04  0.00000000E+00  0.00000000E+00  8.58637306E-04  4.81923591E-04
 -2.05946881E-04  0.00000000E+00  0.00000000E+00 -1.43967627E-04 -3.89366456E-05
  0.00000000E+00 -4.95768326E-06  7.02485776E-05  0.00000000E+00  0.00000000E+00
 -2.85589212E-05  1.06690658E-05  0.00000000E+00 -8.84123585E-05  9.15449636E-05
  0.00000000E+00  0.00000000E+00 -1.65980860E-04  2.05170887E-04  3.33181187E-04
  2.30616168E-03  1.62726909E-03 -1.29481085E-05  6.00383532E-05  3.00274679E-04
  0.00000000E+00  4.18128124E-04  1.17829136E-03  0.00000000E+00 -1.15163950E-04
  3.15272384E-04  0.00000000E+00 -5.48771469E-05  0.00000000E+00  0.00000000E+00
 -1.52030502E-05 -1.65988021E-06 -2.23528548E-04  0.00000000E+00  0.00000000E+00
 -3.54253449E-04  4.15233978E-04  9.76843085E-01 -9.21610219E-03  4.34517663E-02
 -7.35783575E-05 -2.13776048E-03 -2.04486170E-03 -8.30127726E-04  0.00000000E+00
  2.10177010E-03  8.56031147E-04  0.00000000E+00 -4.29512197E-04  8.73996987E-04
  0.00000000E+00  2.49820734E-04 -2.75998998E-04  0.00000000E+00  3.71822895E-05
  0.00000000E+00  0.00000000E+00 -6.66141872E-05  5.83666565E-05  7.89097481E-04
  0.00000000E+00  0.00000000E+00 -1.65461587E-04  3.37641491E-04 -2.23822793E-04
  0.00000000E+00  0.00000000E+00  3.85484104E-04 -1.99056318E-05  0.00000000E+00
 -8.25995665E-05 -6.66728442E-06  0.00000000E+00  0.00000000E+00  8.32128712E-06