 Entering Gaussian System, Link 0=g16
 Input=hoono_r1_0p969160.gjf
 Output=hoono_r1_0p969160.log
 Initial command:
 /sw/contrib/gaussian/g16/B01/g16/l1.exe "/scr/Gau-15988.inp" -scrdir="/scr/"
 Entering Link 1 = /sw/contrib/gaussian/g16/B01/g16/l1.exe PID=     15989.
  
 Copyright (c) 1988-2017, Gaussian, Inc.  All Rights Reserved.
  
 This is part of the Gaussian(R) 16 program.  It is based on
 the Gaussian(R) 09 system (copyright 2009, Gaussian, Inc.),
 the Gaussian(R) 03 system (copyright 2003, Gaussian, Inc.),
 the Gaussian(R) 98 system (copyright 1998, Gaussian, Inc.),
 the Gaussian(R) 94 system (copyright 1995, Gaussian, Inc.),
 the Gaussian 92(TM) system (copyright 1992, Gaussian, Inc.),
 the Gaussian 90(TM) system (copyright 1990, Gaussian, Inc.),
 the Gaussian 88(TM) system (copyright 1988, Gaussian, Inc.),
 the Gaussian 86(TM) system (copyright 1986, Carnegie Mellon
 University), and the Gaussian 82(TM) system (copyright 1983,
 Carnegie Mellon University). Gaussian is a federally registered
 trademark of Gaussian, Inc.
  
 This software contains proprietary and confidential information,
 including trade secrets, belonging to Gaussian, Inc.
  
 This software is provided under written license and may be
 used, copied, transmitted, or stored only in accord with that
 written license.
  
 The following legend is applicable only to US Government
 contracts under FAR:
  
                    RESTRICTED RIGHTS LEGEND
  
 Use, reproduction and disclosure by the US Government is
 subject to restrictions as set forth in subparagraphs (a)
 and (c) of the Commercial Computer Software - Restricted
 Rights clause in FAR 52.227-19.
  
 Gaussian, Inc.
 340 Quinnipiac St., Bldg. 40, Wallingford CT 06492
  
  
 ---------------------------------------------------------------
 Warning -- This program may not be used in any manner that
 competes with the business of Gaussian, Inc. or will provide
 assistance to any competitor of Gaussian, Inc.  The licensee
 of this program is prohibited from giving any competitor of
 Gaussian, Inc. access to this program.  By using this program,
 the user acknowledges that Gaussian, Inc. is engaged in the
 business of creating and licensing software in the field of
 computational chemistry and represents and warrants to the
 licensee that it is not a competitor of Gaussian, Inc. and that
 it will not use this program in any manner prohibited above.
 ---------------------------------------------------------------
  

 Cite this work as:
 Gaussian 16, Revision B.01,
 M. J. Frisch, G. W. Trucks, H. B. Schlegel, G. E. Scuseria, 
 M. A. Robb, J. R. Cheeseman, G. Scalmani, V. Barone, 
 G. A. Petersson, H. Nakatsuji, X. Li, M. Caricato, A. V. Marenich, 
 J. Bloino, B. G. Janesko, R. Gomperts, B. Mennucci, H. P. Hratchian, 
 J. V. Ortiz, A. F. Izmaylov, J. L. Sonnenberg, D. Williams-Young, 
 F. Ding, F. Lipparini, F. Egidi, J. Goings, B. Peng, A. Petrone, 
 T. Henderson, D. Ranasinghe, V. G. Zakrzewski, J. Gao, N. Rega, 
 G. Zheng, W. Liang, M. Hada, M. Ehara, K. Toyota, R. Fukuda, 
 J. Hasegawa, M. Ishida, T. Nakajima, Y. Honda, O. Kitao, H. Nakai, 
 T. Vreven, K. Throssell, J. A. Montgomery, Jr., J. E. Peralta, 
 F. Ogliaro, M. J. Bearpark, J. J. Heyd, E. N. Brothers, K. N. Kudin, 
 V. N. Staroverov, T. A. Keith, R. Kobayashi, J. Normand, 
 K. Raghavachari, A. P. Rendell, J. C. Burant, S. S. Iyengar, 
 J. Tomasi, M. Cossi, J. M. Millam, M. Klene, C. Adamo, R. Cammi, 
 J. W. Ochterski, R. L. Martin, K. Morokuma, O. Farkas, 
 J. B. Foresman, and D. J. Fox, Gaussian, Inc., Wallingford CT, 2016.
 
 ******************************************
 Gaussian 16:  ES64L-G16RevB.01 20-Dec-2017
                 6-Mar-2022 
 ******************************************
 %nproc=28
 Will use up to   28 processors via shared memory.
 %mem=120GB
 %chk=hoono_r1_0p969160.chk
 ---------------------------------------
 #p freq mp2/aug-cc-pvtz density=current
 ---------------------------------------
 1/10=4,30=1,38=1/1,3;
 2/12=2,17=6,18=5,40=1/2;
 3/5=16,6=1,7=10,11=9,25=1,30=1,71=2,140=1/1,2,3;
 4//1;
 5/5=2,38=5,98=1/2;
 8/6=3,8=1,10=1,19=11,30=-1/1;
 9/15=3,16=-3/6;
 11/6=1,8=1,15=11,17=12,24=-1,27=1,28=-2,29=300,32=6,42=3/1,2,10;
 10/6=2,21=1/2;
 8/6=4,8=1,10=1,19=11,30=-1/11,4;
 10/5=1,20=4/2;
 11/12=2,14=11,16=1,17=2,28=-2,42=3,76=2/2,10,12;
 6/7=2,8=2,9=2,10=2,22=-1/1;
 7/8=1,10=1,12=2,25=1,44=2/1,2,3,16;
 1/10=4,30=1/3;
 99//99;
 Leave Link    1 at Sun Mar  6 18:51:09 2022, MaxMem= 16106127360 cpu:               2.4 elap:               0.1
 (Enter /sw/contrib/gaussian/g16/B01/g16/l101.exe)
 -----
 title
 -----
 Symbolic Z-matrix:
 Charge =  0 Multiplicity = 1
 H
 O                    1    r1
 O                    2    r2       1    a1
 N                    3    r3       2    a2       1    d1       0
 O                    4    r4       3    a3       2    d2       0
       Variables:
  r1                    0.96916                  
  r2                    1.42674                  
  r3                    1.38111                  
  r4                    1.19479                  
  a1                  100.63551                  
  a2                  113.13777                  
  a3                  114.33392                  
  d1                    0.                       
  d2                    0.                       
 
 ITRead=  0  0  0  0  0
 MicOpt= -1 -1 -1 -1 -1
 NAtoms=      5 NQM=        5 NQMF=       0 NMMI=      0 NMMIF=      0
                NMic=       0 NMicF=      0.
                    Isotopes and Nuclear Properties:
 (Nuclear quadrupole moments (NQMom) in fm**2, nuclear magnetic moments (NMagM)
  in nuclear magnetons)

  Atom         1           2           3           4           5
 IAtWgt=           1          16          16          14          16
 AtmWgt=   1.0078250  15.9949146  15.9949146  14.0030740  15.9949146
 NucSpn=           1           0           0           2           0
 AtZEff=  -0.0000000  -0.0000000  -0.0000000  -0.0000000  -0.0000000
 NQMom=    0.0000000   0.0000000   0.0000000   2.0440000   0.0000000
 NMagM=    2.7928460   0.0000000   0.0000000   0.4037610   0.0000000
 AtZNuc=   1.0000000   8.0000000   8.0000000   7.0000000   8.0000000
 Leave Link  101 at Sun Mar  6 18:51:10 2022, MaxMem= 16106127360 cpu:               2.7 elap:               0.1
 (Enter /sw/contrib/gaussian/g16/B01/g16/l103.exe)

 GradGradGradGradGradGradGradGradGradGradGradGradGradGradGradGradGradGrad
 Berny optimization.
 Initialization pass.
                       ----------------------------
                       !    Initial Parameters    !
                       ! (Angstroms and Degrees)  !
 ----------------------                            ----------------------
 !      Name          Value   Derivative information (Atomic Units)     !
 ------------------------------------------------------------------------
 !       r1          0.9692   calculate D2E/DX2 analytically            !
 !       r2          1.4267   calculate D2E/DX2 analytically            !
 !       r3          1.3811   calculate D2E/DX2 analytically            !
 !       r4          1.1948   calculate D2E/DX2 analytically            !
 !       a1        100.6355   calculate D2E/DX2 analytically            !
 !       a2        113.1378   calculate D2E/DX2 analytically            !
 !       a3        114.3339   calculate D2E/DX2 analytically            !
 !       d1          0.0      calculate D2E/DX2 analytically            !
 !       d2          0.0      calculate D2E/DX2 analytically            !
 ------------------------------------------------------------------------
 Trust Radius=3.00D-01 FncErr=1.00D-07 GrdErr=1.00D-07 EigMax=2.50D+02 EigMin=1.00D-04
 Number of steps in this run=      2 maximum allowed number of steps=      2.
 GradGradGradGradGradGradGradGradGradGradGradGradGradGradGradGradGradGrad

 Leave Link  103 at Sun Mar  6 18:51:10 2022, MaxMem= 16106127360 cpu:               1.8 elap:               0.1
 (Enter /sw/contrib/gaussian/g16/B01/g16/l202.exe)
                          Input orientation:                          
 ---------------------------------------------------------------------
 Center     Atomic      Atomic             Coordinates (Angstroms)
 Number     Number       Type             X           Y           Z
 ---------------------------------------------------------------------
      1          1           0        0.000000    0.000000    0.000000
      2          8           0        0.000000    0.000000    0.969160
      3          8           0        1.402227    0.000000    1.232479
      4          7           0        2.169996    0.000000    0.084442
      5          8           0        1.538751    0.000000   -0.929979
 ---------------------------------------------------------------------
                    Distance matrix (angstroms):
                    1          2          3          4          5
     1  H    0.000000
     2  O    0.969160   0.000000
     3  O    1.866881   1.426737   0.000000
     4  N    2.171638   2.343418   1.381108   0.000000
     5  O    1.797948   2.444276   2.166763   1.194788   0.000000
 Stoichiometry    HNO3
 Framework group  CS[SG(HNO3)]
 Deg. of freedom     7
 Full point group                 CS      NOp   2
 Largest Abelian subgroup         CS      NOp   2
 Largest concise Abelian subgroup C1      NOp   1
                         Standard orientation:                         
 ---------------------------------------------------------------------
 Center     Atomic      Atomic             Coordinates (Angstroms)
 Number     Number       Type             X           Y           Z
 ---------------------------------------------------------------------
      1          1           0        1.112419   -0.582763   -0.000000
      2          8           0        1.315765    0.364824   -0.000000
      3          8           0        0.000000    0.916493    0.000000
      4          7           0       -0.991557   -0.044899    0.000000
      5          8           0       -0.587206   -1.169185    0.000000
 ---------------------------------------------------------------------
 Rotational constants (GHZ):          21.3731441           8.1055162           5.8768060
 Leave Link  202 at Sun Mar  6 18:51:10 2022, MaxMem= 16106127360 cpu:               2.3 elap:               0.1
 (Enter /sw/contrib/gaussian/g16/B01/g16/l301.exe)
 Standard basis: Aug-CC-pVTZ (5D, 7F)
 Ernie: Thresh=  0.10000D-02 Tol=  0.10000D-05 Strict=F.
 Ernie:  12 primitive shells out of 131 were deleted.
 There are   166 symmetry adapted cartesian basis functions of A'  symmetry.
 There are    79 symmetry adapted cartesian basis functions of A"  symmetry.
 There are   136 symmetry adapted basis functions of A'  symmetry.
 There are    71 symmetry adapted basis functions of A"  symmetry.
   207 basis functions,   315 primitive gaussians,   245 cartesian basis functions
    16 alpha electrons       16 beta electrons
       nuclear repulsion energy       122.8247660702 Hartrees.
 IExCor=    0 DFT=F Ex=HF Corr=None ExCW=0 ScaHFX=  1.000000
 ScaDFX=  1.000000  1.000000  1.000000  1.000000 ScalE2=  1.000000  1.000000
 IRadAn=      5 IRanWt=     -1 IRanGd=            0 ICorTp=0 IEmpDi=  4
 NAtoms=    5 NActive=    5 NUniq=    5 SFac= 1.00D+00 NAtFMM=   60 NAOKFM=F Big=F
 Integral buffers will be    131072 words long.
 Raffenetti 1 integral format.
 Two-electron integral symmetry is turned on.
 Leave Link  301 at Sun Mar  6 18:51:10 2022, MaxMem= 16106127360 cpu:               2.3 elap:               0.1
 (Enter /sw/contrib/gaussian/g16/B01/g16/l302.exe)
 NPDir=0 NMtPBC=     1 NCelOv=     1 NCel=       1 NClECP=     1 NCelD=      1
         NCelK=      1 NCelE2=     1 NClLst=     1 CellRange=     0.0.
 One-electron integrals computed using PRISM.
 One-electron integral symmetry used in STVInt
 NBasis=   207 RedAO= T EigKep=  1.31D-04  NBF=   136    71
 NBsUse=   207 1.00D-06 EigRej= -1.00D+00 NBFU=   136    71
 Leave Link  302 at Sun Mar  6 18:51:10 2022, MaxMem= 16106127360 cpu:               4.6 elap:               0.2
 (Enter /sw/contrib/gaussian/g16/B01/g16/l303.exe)
 DipDrv:  MaxL=1.
 Leave Link  303 at Sun Mar  6 18:51:10 2022, MaxMem= 16106127360 cpu:               1.0 elap:               0.1
 (Enter /sw/contrib/gaussian/g16/B01/g16/l401.exe)
 ExpMin= 2.53D-02 ExpMax= 1.53D+04 ExpMxC= 5.22D+02 IAcc=3 IRadAn=         5 AccDes= 0.00D+00
 Harris functional with IExCor=  205 and IRadAn=       5 diagonalized for initial guess.
 HarFok:  IExCor=  205 AccDes= 0.00D+00 IRadAn=         5 IDoV= 1 UseB2=F ITyADJ=14
 ICtDFT=  3500011 ScaDFX=  1.000000  1.000000  1.000000  1.000000
 FoFCou: FMM=F IPFlag=           0 FMFlag=      100000 FMFlg1=           0
         NFxFlg=           0 DoJE=T BraDBF=F KetDBF=T FulRan=T
         wScrn=  0.000000 ICntrl=       500 IOpCl=  0 I1Cent=   200000004 NGrid=           0
         NMat0=    1 NMatS0=      1 NMatT0=    0 NMatD0=    1 NMtDS0=    0 NMtDT0=    0
 Petite list used in FoFCou.
 Harris En= -279.644900132604    
 JPrj=0 DoOrth=F DoCkMO=F.
 Initial guess orbital symmetries:
       Occupied  (A') (A') (A') (A') (A') (A') (A') (A') (A') (A')
                 (A") (A') (A") (A') (A") (A')
       Virtual   (A") (A') (A') (A') (A') (A") (A') (A') (A') (A')
                 (A") (A') (A") (A') (A') (A") (A') (A') (A") (A')
                 (A') (A') (A') (A') (A") (A') (A') (A') (A") (A')
                 (A') (A") (A") (A') (A') (A") (A') (A") (A') (A")
                 (A') (A") (A') (A") (A') (A') (A') (A') (A") (A')
                 (A') (A") (A') (A") (A') (A") (A') (A') (A') (A")
                 (A') (A') (A") (A') (A') (A') (A") (A") (A') (A')
                 (A") (A') (A") (A") (A') (A') (A") (A') (A') (A')
                 (A") (A') (A') (A") (A') (A") (A') (A") (A') (A')
                 (A') (A') (A") (A") (A') (A') (A") (A') (A") (A')
                 (A") (A') (A') (A") (A") (A') (A') (A') (A") (A')
                 (A") (A') (A') (A') (A") (A') (A') (A') (A") (A')
                 (A") (A') (A') (A") (A") (A") (A") (A') (A') (A')
                 (A') (A') (A') (A") (A') (A") (A') (A") (A') (A')
                 (A") (A") (A') (A') (A') (A") (A') (A') (A') (A")
                 (A') (A') (A') (A") (A') (A") (A") (A') (A') (A")
                 (A') (A") (A") (A') (A") (A') (A') (A") (A") (A')
                 (A") (A") (A") (A') (A") (A') (A') (A') (A') (A")
                 (A') (A') (A') (A') (A') (A') (A') (A') (A') (A')
                 (A')
 The electronic state of the initial guess is 1-A'.
 Leave Link  401 at Sun Mar  6 18:51:10 2022, MaxMem= 16106127360 cpu:               7.8 elap:               0.3
 (Enter /sw/contrib/gaussian/g16/B01/g16/l502.exe)
 Keep R1 ints in memory in symmetry-blocked form, NReq=348887737.
 FoFCou: FMM=F IPFlag=           0 FMFlag=           0 FMFlg1=           0
         NFxFlg=           0 DoJE=F BraDBF=F KetDBF=F FulRan=T
         wScrn=  0.000000 ICntrl=       600 IOpCl=  0 I1Cent=           0 NGrid=           0
         NMat0=    1 NMatS0=  21528 NMatT0=    0 NMatD0=    1 NMtDS0=    0 NMtDT0=    0
 Petite list used in FoFCou.
 Closed shell SCF:
 Using DIIS extrapolation, IDIIS=  1040.
 NGot= 16106127360 LenX= 15988850015 LenY= 15988789549
 Requested convergence on RMS density matrix=1.00D-08 within 128 cycles.
 Requested convergence on MAX density matrix=1.00D-06.
 Requested convergence on             energy=1.00D-06.
 No special actions if energy rises.

 Cycle   1  Pass 1  IDiag  1:
 E= -279.363713683935    
 DIIS: error= 2.81D-02 at cycle   1 NSaved=   1.
 NSaved= 1 IEnMin= 1 EnMin= -279.363713683935     IErMin= 1 ErrMin= 2.81D-02
 ErrMax= 2.81D-02  0.00D+00 EMaxC= 1.00D-01 BMatC= 4.53D-01 BMatP= 4.53D-01
 IDIUse=3 WtCom= 7.19D-01 WtEn= 2.81D-01
 Coeff-Com:  0.100D+01
 Coeff-En:   0.100D+01
 Coeff:      0.100D+01
 Gap=     0.499 Goal=   None    Shift=    0.000
 GapD=    0.499 DampG=2.000 DampE=0.500 DampFc=1.0000 IDamp=-1.
 RMSDP=1.69D-03 MaxDP=8.78D-02              OVMax= 1.24D-01

 Cycle   2  Pass 1  IDiag  1:
 E= -279.445776029954     Delta-E=       -0.082062346019 Rises=F Damp=F
 DIIS: error= 1.97D-02 at cycle   2 NSaved=   2.
 NSaved= 2 IEnMin= 2 EnMin= -279.445776029954     IErMin= 2 ErrMin= 1.97D-02
 ErrMax= 1.97D-02  0.00D+00 EMaxC= 1.00D-01 BMatC= 8.79D-02 BMatP= 4.53D-01
 IDIUse=3 WtCom= 8.03D-01 WtEn= 1.97D-01
 Coeff-Com:  0.222D+00 0.778D+00
 Coeff-En:   0.874D-01 0.913D+00
 Coeff:      0.195D+00 0.805D+00
 Gap=     0.563 Goal=   None    Shift=    0.000
 RMSDP=9.74D-04 MaxDP=3.72D-02 DE=-8.21D-02 OVMax= 9.18D-02

 Cycle   3  Pass 1  IDiag  1:
 E= -279.484813567346     Delta-E=       -0.039037537392 Rises=F Damp=F
 DIIS: error= 1.12D-02 at cycle   3 NSaved=   3.
 NSaved= 3 IEnMin= 3 EnMin= -279.484813567346     IErMin= 3 ErrMin= 1.12D-02
 ErrMax= 1.12D-02  0.00D+00 EMaxC= 1.00D-01 BMatC= 3.09D-02 BMatP= 8.79D-02
 IDIUse=3 WtCom= 8.88D-01 WtEn= 1.12D-01
 Coeff-Com: -0.347D-01 0.361D+00 0.673D+00
 Coeff-En:   0.000D+00 0.212D+00 0.788D+00
 Coeff:     -0.308D-01 0.345D+00 0.686D+00
 Gap=     0.542 Goal=   None    Shift=    0.000
 RMSDP=4.11D-04 MaxDP=1.58D-02 DE=-3.90D-02 OVMax= 3.93D-02

 Cycle   4  Pass 1  IDiag  1:
 E= -279.505909441143     Delta-E=       -0.021095873797 Rises=F Damp=F
 DIIS: error= 1.62D-03 at cycle   4 NSaved=   4.
 NSaved= 4 IEnMin= 4 EnMin= -279.505909441143     IErMin= 4 ErrMin= 1.62D-03
 ErrMax= 1.62D-03  0.00D+00 EMaxC= 1.00D-01 BMatC= 6.12D-04 BMatP= 3.09D-02
 IDIUse=3 WtCom= 9.84D-01 WtEn= 1.62D-02
 Coeff-Com: -0.121D-01 0.476D-01 0.158D+00 0.807D+00
 Coeff-En:   0.000D+00 0.000D+00 0.000D+00 0.100D+01
 Coeff:     -0.119D-01 0.469D-01 0.155D+00 0.810D+00
 Gap=     0.529 Goal=   None    Shift=    0.000
 RMSDP=9.87D-05 MaxDP=2.30D-03 DE=-2.11D-02 OVMax= 1.18D-02

 Cycle   5  Pass 1  IDiag  1:
 E= -279.506724076589     Delta-E=       -0.000814635445 Rises=F Damp=F
 DIIS: error= 1.10D-03 at cycle   5 NSaved=   5.
 NSaved= 5 IEnMin= 5 EnMin= -279.506724076589     IErMin= 5 ErrMin= 1.10D-03
 ErrMax= 1.10D-03  0.00D+00 EMaxC= 1.00D-01 BMatC= 1.02D-04 BMatP= 6.12D-04
 IDIUse=3 WtCom= 9.89D-01 WtEn= 1.10D-02
 Coeff-Com:  0.539D-02-0.653D-01-0.111D+00 0.542D-01 0.112D+01
 Coeff-En:   0.000D+00 0.000D+00 0.000D+00 0.000D+00 0.100D+01
 Coeff:      0.533D-02-0.646D-01-0.110D+00 0.536D-01 0.112D+01
 Gap=     0.533 Goal=   None    Shift=    0.000
 RMSDP=8.00D-05 MaxDP=2.11D-03 DE=-8.15D-04 OVMax= 1.29D-02

 Cycle   6  Pass 1  IDiag  1:
 E= -279.507086138531     Delta-E=       -0.000362061943 Rises=F Damp=F
 DIIS: error= 3.32D-04 at cycle   6 NSaved=   6.
 NSaved= 6 IEnMin= 6 EnMin= -279.507086138531     IErMin= 6 ErrMin= 3.32D-04
 ErrMax= 3.32D-04  0.00D+00 EMaxC= 1.00D-01 BMatC= 2.37D-05 BMatP= 1.02D-04
 IDIUse=3 WtCom= 9.97D-01 WtEn= 3.32D-03
 Coeff-Com:  0.185D-02-0.675D-02-0.175D-01-0.180D+00 0.503D-02 0.120D+01
 Coeff-En:   0.000D+00 0.000D+00 0.000D+00 0.000D+00 0.000D+00 0.100D+01
 Coeff:      0.185D-02-0.673D-02-0.174D-01-0.179D+00 0.502D-02 0.120D+01
 Gap=     0.533 Goal=   None    Shift=    0.000
 RMSDP=4.65D-05 MaxDP=1.07D-03 DE=-3.62D-04 OVMax= 6.05D-03

 Cycle   7  Pass 1  IDiag  1:
 E= -279.507171116636     Delta-E=       -0.000084978104 Rises=F Damp=F
 DIIS: error= 1.31D-04 at cycle   7 NSaved=   7.
 NSaved= 7 IEnMin= 7 EnMin= -279.507171116636     IErMin= 7 ErrMin= 1.31D-04
 ErrMax= 1.31D-04  0.00D+00 EMaxC= 1.00D-01 BMatC= 3.56D-06 BMatP= 2.37D-05
 IDIUse=3 WtCom= 9.99D-01 WtEn= 1.31D-03
 Coeff-Com: -0.107D-02 0.112D-01 0.248D-01 0.152D-01-0.180D+00-0.140D+00
 Coeff-Com:  0.127D+01
 Coeff-En:   0.000D+00 0.000D+00 0.000D+00 0.000D+00 0.000D+00 0.000D+00
 Coeff-En:   0.100D+01
 Coeff:     -0.107D-02 0.112D-01 0.247D-01 0.152D-01-0.180D+00-0.140D+00
 Coeff:      0.127D+01
 Gap=     0.533 Goal=   None    Shift=    0.000
 RMSDP=1.73D-05 MaxDP=5.04D-04 DE=-8.50D-05 OVMax= 2.30D-03

 Cycle   8  Pass 1  IDiag  1:
 E= -279.507182931357     Delta-E=       -0.000011814722 Rises=F Damp=F
 DIIS: error= 4.78D-05 at cycle   8 NSaved=   8.
 NSaved= 8 IEnMin= 8 EnMin= -279.507182931357     IErMin= 8 ErrMin= 4.78D-05
 ErrMax= 4.78D-05  0.00D+00 EMaxC= 1.00D-01 BMatC= 6.09D-07 BMatP= 3.56D-06
 IDIUse=1 WtCom= 1.00D+00 WtEn= 0.00D+00
 Coeff-Com: -0.560D-03 0.406D-02 0.976D-02 0.248D-01-0.567D-01-0.195D+00
 Coeff-Com:  0.357D+00 0.857D+00
 Coeff:     -0.560D-03 0.406D-02 0.976D-02 0.248D-01-0.567D-01-0.195D+00
 Coeff:      0.357D+00 0.857D+00
 Gap=     0.533 Goal=   None    Shift=    0.000
 RMSDP=5.50D-06 MaxDP=1.56D-04 DE=-1.18D-05 OVMax= 6.55D-04

 Cycle   9  Pass 1  IDiag  1:
 E= -279.507184325049     Delta-E=       -0.000001393692 Rises=F Damp=F
 DIIS: error= 2.44D-05 at cycle   9 NSaved=   9.
 NSaved= 9 IEnMin= 9 EnMin= -279.507184325049     IErMin= 9 ErrMin= 2.44D-05
 ErrMax= 2.44D-05  0.00D+00 EMaxC= 1.00D-01 BMatC= 1.14D-07 BMatP= 6.09D-07
 IDIUse=1 WtCom= 1.00D+00 WtEn= 0.00D+00
 Coeff-Com:  0.237D-03-0.249D-02-0.526D-02-0.560D-02 0.463D-01 0.485D-01
 Coeff-Com: -0.335D+00 0.205D-01 0.123D+01
 Coeff:      0.237D-03-0.249D-02-0.526D-02-0.560D-02 0.463D-01 0.485D-01
 Coeff:     -0.335D+00 0.205D-01 0.123D+01
 Gap=     0.533 Goal=   None    Shift=    0.000
 RMSDP=2.44D-06 MaxDP=6.56D-05 DE=-1.39D-06 OVMax= 2.55D-04

 Cycle  10  Pass 1  IDiag  1:
 E= -279.507184583491     Delta-E=       -0.000000258441 Rises=F Damp=F
 DIIS: error= 5.76D-06 at cycle  10 NSaved=  10.
 NSaved=10 IEnMin=10 EnMin= -279.507184583491     IErMin=10 ErrMin= 5.76D-06
 ErrMax= 5.76D-06  0.00D+00 EMaxC= 1.00D-01 BMatC= 8.16D-09 BMatP= 1.14D-07
 IDIUse=1 WtCom= 1.00D+00 WtEn= 0.00D+00
 Coeff-Com: -0.384D-04 0.491D-03 0.120D-02-0.177D-02-0.111D-01 0.513D-02
 Coeff-Com:  0.731D-01-0.495D-01-0.446D+00 0.143D+01
 Coeff:     -0.384D-04 0.491D-03 0.120D-02-0.177D-02-0.111D-01 0.513D-02
 Coeff:      0.731D-01-0.495D-01-0.446D+00 0.143D+01
 Gap=     0.533 Goal=   None    Shift=    0.000
 RMSDP=7.01D-07 MaxDP=2.55D-05 DE=-2.58D-07 OVMax= 7.51D-05

 Cycle  11  Pass 1  IDiag  1:
 E= -279.507184608084     Delta-E=       -0.000000024594 Rises=F Damp=F
 DIIS: error= 2.23D-06 at cycle  11 NSaved=  11.
 NSaved=11 IEnMin=11 EnMin= -279.507184608084     IErMin=11 ErrMin= 2.23D-06
 ErrMax= 2.23D-06  0.00D+00 EMaxC= 1.00D-01 BMatC= 8.16D-10 BMatP= 8.16D-09
 IDIUse=1 WtCom= 1.00D+00 WtEn= 0.00D+00
 Coeff-Com: -0.155D-04 0.153D-03 0.320D-03 0.894D-03-0.192D-02-0.721D-02
 Coeff-Com:  0.174D-01 0.202D-01-0.419D-01-0.343D+00 0.136D+01
 Coeff:     -0.155D-04 0.153D-03 0.320D-03 0.894D-03-0.192D-02-0.721D-02
 Coeff:      0.174D-01 0.202D-01-0.419D-01-0.343D+00 0.136D+01
 Gap=     0.533 Goal=   None    Shift=    0.000
 RMSDP=2.42D-07 MaxDP=8.98D-06 DE=-2.46D-08 OVMax= 2.85D-05

 Cycle  12  Pass 1  IDiag  1:
 E= -279.507184611024     Delta-E=       -0.000000002940 Rises=F Damp=F
 DIIS: error= 6.93D-07 at cycle  12 NSaved=  12.
 NSaved=12 IEnMin=12 EnMin= -279.507184611024     IErMin=12 ErrMin= 6.93D-07
 ErrMax= 6.93D-07  0.00D+00 EMaxC= 1.00D-01 BMatC= 8.31D-11 BMatP= 8.16D-10
 IDIUse=1 WtCom= 1.00D+00 WtEn= 0.00D+00
 Coeff-Com:  0.261D-05-0.444D-04-0.968D-04 0.112D-03 0.112D-02-0.657D-03
 Coeff-Com: -0.723D-02 0.572D-02 0.408D-01-0.108D+00-0.186D+00 0.125D+01
 Coeff:      0.261D-05-0.444D-04-0.968D-04 0.112D-03 0.112D-02-0.657D-03
 Coeff:     -0.723D-02 0.572D-02 0.408D-01-0.108D+00-0.186D+00 0.125D+01
 Gap=     0.533 Goal=   None    Shift=    0.000
 RMSDP=8.24D-08 MaxDP=2.69D-06 DE=-2.94D-09 OVMax= 9.59D-06

 Cycle  13  Pass 1  IDiag  1:
 E= -279.507184611313     Delta-E=       -0.000000000289 Rises=F Damp=F
 DIIS: error= 1.52D-07 at cycle  13 NSaved=  13.
 NSaved=13 IEnMin=13 EnMin= -279.507184611313     IErMin=13 ErrMin= 1.52D-07
 ErrMax= 1.52D-07  0.00D+00 EMaxC= 1.00D-01 BMatC= 6.75D-12 BMatP= 8.31D-11
 IDIUse=1 WtCom= 1.00D+00 WtEn= 0.00D+00
 Coeff-Com:  0.124D-05-0.114D-04-0.164D-04-0.117D-03 0.331D-04 0.911D-03
 Coeff-Com: -0.971D-03-0.243D-02-0.237D-02 0.542D-01-0.127D+00-0.145D+00
 Coeff-Com:  0.122D+01
 Coeff:      0.124D-05-0.114D-04-0.164D-04-0.117D-03 0.331D-04 0.911D-03
 Coeff:     -0.971D-03-0.243D-02-0.237D-02 0.542D-01-0.127D+00-0.145D+00
 Coeff:      0.122D+01
 Gap=     0.533 Goal=   None    Shift=    0.000
 RMSDP=2.14D-08 MaxDP=6.36D-07 DE=-2.89D-10 OVMax= 1.92D-06

 Cycle  14  Pass 1  IDiag  1:
 E= -279.507184611332     Delta-E=       -0.000000000019 Rises=F Damp=F
 DIIS: error= 3.96D-08 at cycle  14 NSaved=  14.
 NSaved=14 IEnMin=14 EnMin= -279.507184611332     IErMin=14 ErrMin= 3.96D-08
 ErrMax= 3.96D-08  0.00D+00 EMaxC= 1.00D-01 BMatC= 4.58D-13 BMatP= 6.75D-12
 IDIUse=1 WtCom= 1.00D+00 WtEn= 0.00D+00
 Coeff-Com: -0.294D-06 0.430D-05 0.868D-05-0.311D-05-0.110D-03 0.566D-04
 Coeff-Com:  0.621D-03-0.270D-03-0.352D-02 0.780D-02 0.161D-01-0.884D-01
 Coeff-Com: -0.181D-01 0.109D+01
 Coeff:     -0.294D-06 0.430D-05 0.868D-05-0.311D-05-0.110D-03 0.566D-04
 Coeff:      0.621D-03-0.270D-03-0.352D-02 0.780D-02 0.161D-01-0.884D-01
 Coeff:     -0.181D-01 0.109D+01
 Gap=     0.533 Goal=   None    Shift=    0.000
 RMSDP=4.19D-09 MaxDP=1.03D-07 DE=-1.89D-11 OVMax= 4.36D-07

 SCF Done:  E(RHF) =  -279.507184611     A.U. after   14 cycles
            NFock= 14  Conv=0.42D-08     -V/T= 2.0021
 KE= 2.789140762922D+02 PE=-9.065244949823D+02 EE= 2.252784680085D+02
 Leave Link  502 at Sun Mar  6 18:51:14 2022, MaxMem= 16106127360 cpu:              59.1 elap:               3.8
 (Enter /sw/contrib/gaussian/g16/B01/g16/l801.exe)
 ExpMin= 2.53D-02 ExpMax= 1.53D+04 ExpMxC= 5.22D+02 IAcc=3 IRadAn=         5 AccDes= 0.00D+00
 HarFok:  IExCor=  205 AccDes= 0.00D+00 IRadAn=         5 IDoV=-2 UseB2=F ITyADJ=14
 ICtDFT= 12500011 ScaDFX=  1.000000  1.000000  1.000000  1.000000
 Largest valence mixing into a core orbital is  2.07D-04
 Largest core mixing into a valence orbital is  3.08D-05
 Range of M.O.s used for correlation:     5   207
 NBasis=   207 NAE=    16 NBE=    16 NFC=     4 NFV=     0
 NROrb=    203 NOA=    12 NOB=    12 NVA=   191 NVB=   191

 **** Warning!!: The largest alpha MO coefficient is  0.16118717D+02

 Leave Link  801 at Sun Mar  6 18:51:14 2022, MaxMem= 16106127360 cpu:               2.1 elap:               0.1
 (Enter /sw/contrib/gaussian/g16/B01/g16/l906.exe)
 Frozen-core derivative calculation, NFC=   4 NFV=   0.
 FulOut=F Deriv=T AODrv=T NAtomX=     5
   MMem=           0  MDisk=          12 MDiskD=          12
  W3Min=      811440 MinDsk=     2425030 NBas6D=         245
 NBas2D=       30762    NTT=       30135    LW2=     7400000
    MDV= 16105571560 MDiskM=      328644 NBas2p=       30759
 Disk-based method using ON**2 memory for 12 occupieds at a time.
 Permanent disk used for amplitudes=    11516536 words.
 Estimated scratch disk usage=   321863743 words.
 IMap=   1   2   3   4   5   6   7   8   9  10  11  12  13  14  15  16
 Actual    scratch disk usage=   310892607 words.
 JobTyp=1 Pass  1:  I=   5 to  16 NPSUse= 28 ParTrn=T ParDer=T DoDerP=T.
 (rs|ai) integrals will be sorted in core.
 Spin components of T(2) and E(2):
     alpha-alpha T2 =       0.3468817334D-01 E2=     -0.1243861301D+00
     alpha-beta  T2 =       0.1840136998D+00 E2=     -0.6990692242D+00
     beta-beta   T2 =       0.3468817334D-01 E2=     -0.1243861301D+00
 The integrals were generated   1 times.
 ANorm=    0.1119549037D+01
 E2 =    -0.9478414843D+00 EUMP2 =    -0.28045502609567D+03
 Leave Link  906 at Sun Mar  6 18:52:52 2022, MaxMem= 16106127360 cpu:            2716.7 elap:              97.2
 (Enter /sw/contrib/gaussian/g16/B01/g16/l1101.exe)
 Using compressed Sx but separate Hx and Fx, NAtomX=     5.
 Will process      6 centers per pass.
 Leave Link 1101 at Sun Mar  6 18:52:52 2022, MaxMem= 16106127360 cpu:               5.2 elap:               0.2
 (Enter /sw/contrib/gaussian/g16/B01/g16/l1102.exe)
 Leave Link 1102 at Sun Mar  6 18:52:52 2022, MaxMem= 16106127360 cpu:               0.5 elap:               0.0
 (Enter /sw/contrib/gaussian/g16/B01/g16/l1110.exe)
 Forming Gx(P) for the SCF density, NAtomX=     5.
 Integral derivatives from FoFJK, PRISM(SPDF).
 Do as many integral derivatives as possible in FoFJK.
 G2DrvN: MDV=   16106126844.
 G2DrvN: will do     6 centers at a time, making    1 passes.
 Calling FoFCou, ICntrl=  3107 FMM=F I1Cent=   0 AccDes= 0.00D+00.
 FoFJK:  IHMeth= 1 ICntrl=    3107 DoSepK=F KAlg= 0 I1Cent=           0 FoldK=F
 IRaf=         0 NMat=       1 IRICut=       1 DoRegI=T DoRafI=F ISym2E= 1 IDoP0=0 IntGTp=1.
 FoFCou: FMM=F IPFlag=           0 FMFlag=      100000 FMFlg1=           0
         NFxFlg=           0 DoJE=F BraDBF=F KetDBF=F FulRan=T
         wScrn=  0.000000 ICntrl=      3107 IOpCl=  0 I1Cent=           0 NGrid=           0
         NMat0=    1 NMatS0=      1 NMatT0=    0 NMatD0=    1 NMtDS0=    0 NMtDT0=    0
 Petite list used in FoFCou.
 End of G2Drv F.D. properties file   721 does not exist.
 End of G2Drv F.D. properties file   722 does not exist.
 End of G2Drv F.D. properties file   788 does not exist.
 Leave Link 1110 at Sun Mar  6 18:52:55 2022, MaxMem= 16106127360 cpu:              86.9 elap:               3.1
 (Enter /sw/contrib/gaussian/g16/B01/g16/l1002.exe)
 Minotr:  Closed shell wavefunction.
          IDoAtm=11111
          Frozen-core window.
          Direct CPHF calculation.
          Differentiating once with respect to electric field.
                with respect to dipole field.
          Differentiating once with respect to nuclear coordinates.
          Requested convergence is 1.0D-08 RMS, and 1.0D-07 maximum.
          Secondary convergence is 1.0D-12 RMS, and 1.0D-12 maximum.
          NewPWx=T KeepS1=T KeepF1=T KeepIn=T MapXYZ=F SortEE=F KeepMc=T.
 Keep R1 ints in memory in symmetry-blocked form, NReq=348888983.
 FoFCou: FMM=F IPFlag=           0 FMFlag=           0 FMFlg1=           0
         NFxFlg=           0 DoJE=F BraDBF=F KetDBF=F FulRan=T
         wScrn=  0.000000 ICntrl=       600 IOpCl=  0 I1Cent=           0 NGrid=           0
         NMat0=    1 NMatS0=  21528 NMatT0=    0 NMatD0=    1 NMtDS0=    0 NMtDT0=    0
 Petite list used in FoFCou.
          MDV=   16106127360 using IRadAn=       1.
          Solving linear equations simultaneously, MaxMat=       0.
          There are    18 degrees of freedom in the 1st order CPHF.  IDoFFX=6 NUNeed=    18.
     15 vectors produced by pass  0 Test12= 1.70D-14 5.56D-09 XBig12= 7.87D+00 1.23D+00.
 AX will form    15 AO Fock derivatives at one time.
     15 vectors produced by pass  1 Test12= 1.70D-14 5.56D-09 XBig12= 1.34D+00 2.23D-01.
     15 vectors produced by pass  2 Test12= 1.70D-14 5.56D-09 XBig12= 6.63D-02 5.89D-02.
     15 vectors produced by pass  3 Test12= 1.70D-14 5.56D-09 XBig12= 1.93D-03 1.05D-02.
     15 vectors produced by pass  4 Test12= 1.70D-14 5.56D-09 XBig12= 3.99D-05 1.18D-03.
     15 vectors produced by pass  5 Test12= 1.70D-14 5.56D-09 XBig12= 5.54D-07 1.17D-04.
     15 vectors produced by pass  6 Test12= 1.70D-14 5.56D-09 XBig12= 4.28D-09 1.19D-05.
     14 vectors produced by pass  7 Test12= 1.70D-14 5.56D-09 XBig12= 3.22D-11 7.66D-07.
      3 vectors produced by pass  8 Test12= 1.70D-14 5.56D-09 XBig12= 2.21D-13 5.88D-08.
      1 vectors produced by pass  9 Test12= 1.70D-14 5.56D-09 XBig12= 1.51D-15 6.60D-09.
 InvSVY:  IOpt=1 It=  1 EMax= 1.11D-15
 Solved reduced A of dimension   123 with    15 vectors.
 FullF1:  Do perturbations      1 to      18.
 Saving first derivative matrices.
 End of Minotr F.D. properties file   721 does not exist.
 End of Minotr F.D. properties file   722 does not exist.
 End of Minotr F.D. properties file   788 does not exist.
 Leave Link 1002 at Sun Mar  6 18:52:58 2022, MaxMem= 16106127360 cpu:              78.1 elap:               2.9
 (Enter /sw/contrib/gaussian/g16/B01/g16/l811.exe)
 MDV= 16106127360.
 Form MO integral derivatives with frozen-active canonical formalism.
 MOERI=1 MOERIx=1 NAtoms=     5 NAtomX=     5.
 Discarding MO integrals.
 MO basis two electron integral derivatives will not be stored on disk.
 IAlg= 3 DoFC=T DoPWx=T Debug=F.
 Frozen-core window:  NFC=   4 NFV=   0.
 Reordered first order wavefunction length =     18678272
 In DefCFB: NBatch=  1 ICI= 16 ICA=191 LFMax= 96
            Large arrays: LIAPS=   619940160 LIARS=   288257200 words.
 In StABat: MaxSiz= 55 MinSiz= 25 NAtomB=  5
 DoIAMN: NPSUse= 28.
 Leave Link  811 at Sun Mar  6 18:54:20 2022, MaxMem= 16106127360 cpu:            2288.6 elap:              81.9
 (Enter /sw/contrib/gaussian/g16/B01/g16/l804.exe)
 Frozen-core window:  NFC=   4 NFV=   0.
 Closed-shell transformation, MDV= 16106127360 ITran=4 ISComp=1.
 Semi-Direct transformation.
 ModeAB=           2 MOrb=            16 LenV=   16104919925
 LASXX=     67341636 LTotXX=    67341636 LenRXX=    67341636
 LTotAB=    68301760 MaxLAS=    99807120 LenRXY=    99807120
 NonZer=   134683272 LenScr=   202817536 LnRSAI=           0
 LnScr1=           0 LExtra=           0 Total=    369966292
 MaxDsk=          -1 SrtSym=           F ITran=            4
 DoSDTr:  NPSUse= 28
 JobTyp=0 Pass  1:  I=   1 to  16.
 (rs|ai) integrals will be sorted in core.
 Complete sort for first half transformation.
 First half transformation complete.
 Begin second half transformation for I=  10.
 Begin second half transformation for I=  10.
 Complete sort for second half transformation.
 Second half transformation complete.
 Spin components of T(2) and E(2):
     alpha-alpha T2 =       0.3468817334D-01 E2=     -0.1243861301D+00
     alpha-beta  T2 =       0.1840136998D+00 E2=     -0.6990692242D+00
     beta-beta   T2 =       0.3468817334D-01 E2=     -0.1243861301D+00
 ANorm=    0.1583281432D+01
 E2 =    -0.9478414843D+00 EUMP2 =    -0.28045502609567D+03
 Leave Link  804 at Sun Mar  6 18:54:36 2022, MaxMem= 16106127360 cpu:             436.7 elap:              15.7
 (Enter /sw/contrib/gaussian/g16/B01/g16/l1002.exe)
 Minotr:  Closed shell wavefunction.
          Computing MP2/KS-MP2 derivatives.
          Using Z-Vector for PSCF gradient.
          Skipping F1 and S1 gradient terms here.
          IDoAtm=11111
          Frozen-core window.
          Using MO integrals in the linear equations.
          Forming densities via direct SCF.
          Differentiating once with respect to electric field.
                with respect to dipole field.
          Differentiating once with respect to nuclear coordinates.
          Using symmetry in CPHF.
          Requested convergence is 1.0D-10 RMS, and 1.0D-09 maximum.
          NewPWx=F KeepS1=T KeepF1=T KeepIn=T MapXYZ=F SortEE=F KeepMc=T.
          MDV=   16106127360 using IRadAn=       5.
          Solving linear equations separately, MaxMat=       0.
          There are     1 degrees of freedom in the 1st order CPHF.  IDoFFX=0 NUNeed=     1.
 FoFJK:  IHMeth= 1 ICntrl=       0 DoSepK=F KAlg= 0 I1Cent=           0 FoldK=F
 IRaf=         0 NMat=       1 IRICut=       1 DoRegI=T DoRafI=F ISym2E= 0 IDoP0=0 IntGTp=1.
 FoFCou: FMM=F IPFlag=           0 FMFlag=      100000 FMFlg1=           0
         NFxFlg=           0 DoJE=F BraDBF=F KetDBF=F FulRan=T
         wScrn=  0.000000 ICntrl=         0 IOpCl=  0 I1Cent=           0 NGrid=           0
         NMat0=    1 NMatS0=      1 NMatT0=    0 NMatD0=    1 NMtDS0=    0 NMtDT0=    0
 Symmetry not used in FoFCou.
 LinEq1:  Iter=  0 NonCon=     1 RMS=6.57D-03 Max=1.69D-01 NDo=     1
 LinEq1:  Iter=  1 NonCon=     1 RMS=1.99D-03 Max=3.09D-02 NDo=     1
 LinEq1:  Iter=  2 NonCon=     1 RMS=8.84D-04 Max=1.43D-02 NDo=     1
 LinEq1:  Iter=  3 NonCon=     1 RMS=3.80D-04 Max=8.17D-03 NDo=     1
 LinEq1:  Iter=  4 NonCon=     1 RMS=1.37D-04 Max=1.68D-03 NDo=     1
 LinEq1:  Iter=  5 NonCon=     1 RMS=7.63D-05 Max=1.37D-03 NDo=     1
 LinEq1:  Iter=  6 NonCon=     1 RMS=2.42D-05 Max=3.16D-04 NDo=     1
 LinEq1:  Iter=  7 NonCon=     1 RMS=8.17D-06 Max=1.10D-04 NDo=     1
 LinEq1:  Iter=  8 NonCon=     1 RMS=3.95D-06 Max=6.12D-05 NDo=     1
 LinEq1:  Iter=  9 NonCon=     1 RMS=1.02D-06 Max=1.16D-05 NDo=     1
 LinEq1:  Iter= 10 NonCon=     1 RMS=2.28D-07 Max=2.84D-06 NDo=     1
 LinEq1:  Iter= 11 NonCon=     1 RMS=4.89D-08 Max=7.78D-07 NDo=     1
 LinEq1:  Iter= 12 NonCon=     1 RMS=1.15D-08 Max=1.67D-07 NDo=     1
 LinEq1:  Iter= 13 NonCon=     1 RMS=2.00D-09 Max=2.05D-08 NDo=     1
 LinEq1:  Iter= 14 NonCon=     1 RMS=4.17D-10 Max=5.53D-09 NDo=     1
 LinEq1:  Iter= 15 NonCon=     0 RMS=8.53D-11 Max=9.14D-10 NDo=     1
 Linear equations converged to 1.000D-10 1.000D-09 after    15 iterations.
 End of Minotr F.D. properties file   721 does not exist.
 End of Minotr F.D. properties file   722 does not exist.
 End of Minotr F.D. properties file   788 does not exist.
 Leave Link 1002 at Sun Mar  6 18:54:38 2022, MaxMem= 16106127360 cpu:              64.9 elap:               2.4
 (Enter /sw/contrib/gaussian/g16/B01/g16/l1102.exe)
 Use density number 2.
 Symmetrizing basis deriv contribution to polar:
 IMax=3 JMax=2 DiffMx= 0.00D+00
 Leave Link 1102 at Sun Mar  6 18:54:38 2022, MaxMem= 16106127360 cpu:               0.7 elap:               0.1
 (Enter /sw/contrib/gaussian/g16/B01/g16/l1110.exe)
 Forming Gx(P) for generalized density number  2 NAtomX=     5.
 Integral derivatives from FoFJK, PRISM(SPDF).
 Do as many integral derivatives as possible in FoFJK.
 G2DrvN: MDV=   16106126844.
 G2DrvN: will do     6 centers at a time, making    1 passes.
 Calling FoFCou, ICntrl=  3107 FMM=F I1Cent=   0 AccDes= 0.00D+00.
 FoFJK:  IHMeth= 1 ICntrl=    3107 DoSepK=F KAlg= 0 I1Cent=           0 FoldK=F
 IRaf=         0 NMat=       1 IRICut=       1 DoRegI=T DoRafI=F ISym2E= 1 IDoP0=0 IntGTp=1.
 FoFCou: FMM=F IPFlag=           0 FMFlag=      100000 FMFlg1=           0
         NFxFlg=           0 DoJE=F BraDBF=F KetDBF=F FulRan=T
         wScrn=  0.000000 ICntrl=      3107 IOpCl=  0 I1Cent=           0 NGrid=           0
         NMat0=    1 NMatS0=      1 NMatT0=    0 NMatD0=    1 NMtDS0=    0 NMtDT0=    0
 Petite list used in FoFCou.
 End of G2Drv F.D. properties file   721 does not exist.
 End of G2Drv F.D. properties file   722 does not exist.
 End of G2Drv F.D. properties file   788 does not exist.
 Leave Link 1110 at Sun Mar  6 18:54:41 2022, MaxMem= 16106127360 cpu:              87.8 elap:               3.2
 (Enter /sw/contrib/gaussian/g16/B01/g16/l1112.exe)
 MP22nd: MDV=   16106127360
 This link is doing NAtomX=     5 total of    18 degrees of freedom.
 Using ON3 I/O method in MakUI.
 Frozen-core window:  NFC=   4 NFV=   0.
 Using Ix for Sx.
 Use MO integrals over full window.
 Using OV2 memory method for fx*t*t/D, MaxI=    16 DoOO2=F NP=  28.
 R2 and R3 integrals will be kept in memory, NReq=   915591705.
 FoFCou: FMM=F IPFlag=           0 FMFlag=           0 FMFlg1=           0
         NFxFlg=           0 DoJE=F BraDBF=F KetDBF=F FulRan=T
         wScrn=  0.000000 ICntrl=       600 IOpCl=  0 I1Cent=           0 NGrid=           0
         NMat0=    1 NMatS0=      1 NMatT0=    0 NMatD0=    1 NMtDS0=    0 NMtDT0=    0
 Symmetry not used in FoFCou.
 DD1Dir will call FoFMem   1 times, MxPair=       272
 NAB=   136 NAA=     0 NBB=     0.
 Symmetry is being used.
 FoFJK:  IHMeth= 1 ICntrl=       0 DoSepK=F KAlg= 0 I1Cent=           0 FoldK=F
 IRaf=         0 NMat=      18 IRICut=      45 DoRegI=T DoRafI=T ISym2E= 2 IDoP0=3 IntGTp=3.
 Discarding MO integrals.
 Leave Link 1112 at Sun Mar  6 18:55:16 2022, MaxMem= 16106127360 cpu:             949.3 elap:              34.2
 (Enter /sw/contrib/gaussian/g16/B01/g16/l601.exe)
 Copying SCF densities to generalized density rwf, IOpCl= 0 IROHF=0.

 **********************************************************************

            Population analysis using the MP2 Density.

 **********************************************************************

 Orbital symmetries:
       Occupied  (A') (A') (A') (A') (A') (A') (A') (A') (A') (A')
                 (A") (A') (A') (A") (A') (A")
       Virtual   (A') (A") (A') (A') (A") (A') (A') (A') (A") (A')
                 (A") (A') (A') (A') (A") (A') (A') (A") (A') (A')
                 (A') (A') (A') (A') (A") (A') (A') (A") (A') (A')
                 (A') (A") (A") (A') (A') (A') (A") (A') (A") (A')
                 (A") (A") (A') (A') (A") (A') (A') (A") (A') (A')
                 (A') (A") (A') (A') (A") (A') (A") (A') (A") (A')
                 (A') (A') (A") (A') (A') (A") (A') (A") (A') (A')
                 (A") (A') (A") (A") (A') (A') (A") (A') (A') (A')
                 (A") (A') (A') (A") (A') (A") (A") (A') (A') (A')
                 (A') (A') (A") (A") (A') (A') (A") (A") (A') (A")
                 (A') (A') (A") (A') (A") (A') (A') (A') (A") (A")
                 (A') (A') (A') (A') (A") (A') (A') (A') (A") (A')
                 (A") (A') (A") (A') (A") (A") (A') (A") (A') (A')
                 (A') (A') (A") (A') (A') (A") (A") (A') (A') (A')
                 (A") (A") (A') (A') (A') (A") (A') (A') (A') (A")
                 (A') (A') (A') (A") (A") (A') (A") (A') (A') (A")
                 (A') (A") (A') (A") (A") (A') (A") (A') (A") (A')
                 (A") (A") (A") (A') (A') (A") (A') (A') (A") (A')
                 (A') (A') (A') (A') (A') (A') (A') (A') (A') (A')
                 (A')
 The electronic state is 1-A'.
 Alpha  occ. eigenvalues --  -20.72005 -20.68709 -20.66771 -15.82603  -1.64459
 Alpha  occ. eigenvalues --   -1.50658  -1.29679  -0.96137  -0.83545  -0.75913
 Alpha  occ. eigenvalues --   -0.74024  -0.64101  -0.61923  -0.61874  -0.50454
 Alpha  occ. eigenvalues --   -0.49820
 Alpha virt. eigenvalues --    0.03519   0.06032   0.09502   0.10042   0.11959
 Alpha virt. eigenvalues --    0.12256   0.14960   0.15216   0.17725   0.18026
 Alpha virt. eigenvalues --    0.18974   0.21121   0.21687   0.24200   0.24631
 Alpha virt. eigenvalues --    0.26900   0.31466   0.31722   0.33778   0.34376
 Alpha virt. eigenvalues --    0.34654   0.39258   0.45140   0.48996   0.50523
 Alpha virt. eigenvalues --    0.51846   0.54600   0.56102   0.59981   0.62143
 Alpha virt. eigenvalues --    0.63891   0.68955   0.71627   0.72469   0.74346
 Alpha virt. eigenvalues --    0.76328   0.76705   0.79593   0.80663   0.84117
 Alpha virt. eigenvalues --    0.84300   0.85135   0.88500   0.90684   0.92922
 Alpha virt. eigenvalues --    0.94812   0.95471   1.01862   1.03282   1.06274
 Alpha virt. eigenvalues --    1.06729   1.09628   1.14472   1.15730   1.16931
 Alpha virt. eigenvalues --    1.22154   1.22712   1.24573   1.35514   1.36426
 Alpha virt. eigenvalues --    1.37169   1.46789   1.49139   1.50450   1.54541
 Alpha virt. eigenvalues --    1.59731   1.59921   1.60562   1.62865   1.69518
 Alpha virt. eigenvalues --    1.74196   1.80187   1.83003   1.88814   1.89719
 Alpha virt. eigenvalues --    1.92729   1.97881   1.99685   2.05271   2.12499
 Alpha virt. eigenvalues --    2.13305   2.16738   2.18939   2.24329   2.25784
 Alpha virt. eigenvalues --    2.29451   2.35174   2.36390   2.38909   2.40291
 Alpha virt. eigenvalues --    2.43312   2.46690   2.48096   2.52898   2.54051
 Alpha virt. eigenvalues --    2.54879   2.55923   2.61646   2.62786   2.67294
 Alpha virt. eigenvalues --    2.67347   2.75420   2.80967   2.81404   2.84185
 Alpha virt. eigenvalues --    2.91892   2.98548   3.04595   3.05089   3.11608
 Alpha virt. eigenvalues --    3.11815   3.17627   3.21216   3.30722   3.33491
 Alpha virt. eigenvalues --    3.36317   3.48082   3.67850   3.87054   3.94633
 Alpha virt. eigenvalues --    4.19740   4.22627   4.22940   4.26863   4.37050
 Alpha virt. eigenvalues --    4.50134   4.53378   4.55742   4.60625   4.69345
 Alpha virt. eigenvalues --    4.82441   4.89980   4.91445   4.95519   5.00291
 Alpha virt. eigenvalues --    5.00627   5.10896   5.14323   5.20142   5.26249
 Alpha virt. eigenvalues --    5.28336   5.33443   5.34622   5.37346   5.54871
 Alpha virt. eigenvalues --    5.64485   5.70614   5.89010   6.00065   6.26525
 Alpha virt. eigenvalues --    6.29030   6.36016   6.37925   6.60040   6.65806
 Alpha virt. eigenvalues --    6.66042   6.69070   6.72606   6.79844   6.80520
 Alpha virt. eigenvalues --    6.85226   6.96773   7.03428   7.06586   7.09162
 Alpha virt. eigenvalues --    7.14268   7.17481   7.17672   7.21973   7.25344
 Alpha virt. eigenvalues --    7.25401   7.26995   7.34889   7.39501   7.43781
 Alpha virt. eigenvalues --    7.44247   7.47053   7.56152   7.66402   7.66859
 Alpha virt. eigenvalues --    7.81134   7.89071   7.95415   8.06546   8.31770
 Alpha virt. eigenvalues --    8.51735   8.65816  13.62437  14.82167  15.28813
 Alpha virt. eigenvalues --   15.76396
          Condensed to atoms (all electrons):
               1          2          3          4          5
     1  H    0.594503   0.118732   0.025148   0.000253  -0.006388
     2  O    0.118732   8.385723  -0.233273  -0.000304  -0.008111
     3  O    0.025148  -0.233273   8.373483  -0.168937  -0.034288
     4  N    0.000253  -0.000304  -0.168937   7.135003  -0.119157
     5  O   -0.006388  -0.008111  -0.034288  -0.119157   8.363939
 Mulliken charges:
               1
     1  H    0.267751
     2  O   -0.262767
     3  O    0.037869
     4  N    0.153142
     5  O   -0.195995
 Sum of Mulliken charges =  -0.00000
 Mulliken charges with hydrogens summed into heavy atoms:
               1
     2  O    0.004984
     3  O    0.037869
     4  N    0.153142
     5  O   -0.195995
 APT charges:
               1
     1  H    0.269148
     2  O   -0.302842
     3  O   -0.308738
     4  N    0.644909
     5  O   -0.302476
 Sum of APT charges =  -0.00000
 APT charges with hydrogens summed into heavy atoms:
               1
     2  O   -0.033694
     3  O   -0.308738
     4  N    0.644909
     5  O   -0.302476
 Electronic spatial extent (au):  <R**2>=            207.1504
 Charge=             -0.0000 electrons
 Dipole moment (field-independent basis, Debye):
    X=              0.0564    Y=             -1.0793    Z=             -0.0000  Tot=              1.0807
 Quadrupole moment (field-independent basis, Debye-Ang):
   XX=            -23.3553   YY=            -22.9647   ZZ=            -21.9130
   XY=             -1.9594   XZ=              0.0000   YZ=             -0.0000
 Traceless Quadrupole moment (field-independent basis, Debye-Ang):
   XX=             -0.6110   YY=             -0.2204   ZZ=              0.8313
   XY=             -1.9594   XZ=              0.0000   YZ=             -0.0000
 Octapole moment (field-independent basis, Debye-Ang**2):
  XXX=              2.6184  YYY=              0.3025  ZZZ=              0.0000  XYY=              2.3456
  XXY=             -2.8059  XXZ=             -0.0000  XZZ=             -0.5632  YZZ=             -0.7097
  YYZ=             -0.0000  XYZ=              0.0000
 Hexadecapole moment (field-independent basis, Debye-Ang**3):
 XXXX=           -126.9495 YYYY=            -94.7250 ZZZZ=            -18.0075 XXXY=            -21.6356
 XXXZ=              0.0000 YYYX=            -19.8204 YYYZ=             -0.0000 ZZZX=              0.0000
 ZZZY=              0.0000 XXYY=            -35.6435 XXZZ=            -24.3094 YYZZ=            -18.5561
 XXYZ=              0.0000 YYXZ=              0.0000 ZZXY=             -5.9331
 N-N= 1.228247660702D+02 E-N=-9.072138050818D+02  KE= 2.802295982282D+02
 Symmetry A'   KE= 2.663760039990D+02
 Symmetry A"   KE= 1.385359422924D+01
  Exact polarizability:  30.822   4.143  29.745  -0.000   0.000  17.581
 Approx polarizability:  24.478   0.492  27.522  -0.000   0.000  15.490
 No NMR shielding tensors so no spin-rotation constants.
 Leave Link  601 at Sun Mar  6 18:55:16 2022, MaxMem= 16106127360 cpu:               5.1 elap:               0.2
 (Enter /sw/contrib/gaussian/g16/B01/g16/l701.exe)
 ... and contract with generalized density number  2.
 Compute integral second derivatives.
 Leave Link  701 at Sun Mar  6 18:55:16 2022, MaxMem= 16106127360 cpu:               5.7 elap:               0.2
 (Enter /sw/contrib/gaussian/g16/B01/g16/l702.exe)
 L702 exits ... SP integral derivatives will be done elsewhere.
 Leave Link  702 at Sun Mar  6 18:55:16 2022, MaxMem= 16106127360 cpu:               1.3 elap:               0.1
 (Enter /sw/contrib/gaussian/g16/B01/g16/l703.exe)
 Integral derivatives from FoFJK, PRISM(SPDF).
 Compute integral second derivatives, UseDBF=F ICtDFT=           0.
 Calling FoFJK, ICntrl=  10100127 FMM=F ISym2X=1 I1Cent= 0 IOpClX= 0 NMat=1 NMatS=1 NMatT=0.
 FoFJK:  IHMeth= 1 ICntrl=10100127 DoSepK=F KAlg= 0 I1Cent=           0 FoldK=F
 IRaf=         0 NMat=       1 IRICut=       1 DoRegI=T DoRafI=F ISym2E= 1 IDoP0=0 IntGTp=1.
 FoFCou: FMM=F IPFlag=           0 FMFlag=      100000 FMFlg1=         800
         NFxFlg=           0 DoJE=F BraDBF=F KetDBF=F FulRan=T
         wScrn=  0.000000 ICntrl=  10100127 IOpCl=  0 I1Cent=           0 NGrid=           0
         NMat0=    1 NMatS0=      1 NMatT0=    0 NMatD0=    1 NMtDS0=    0 NMtDT0=    0
 Petite list used in FoFCou.
 Leave Link  703 at Sun Mar  6 18:55:32 2022, MaxMem= 16106127360 cpu:             447.3 elap:              16.0
 (Enter /sw/contrib/gaussian/g16/B01/g16/l716.exe)
 Dipole        = 2.22064631D-02-4.24611372D-01-2.40965530D-32
 Polarizability= 3.08223530D+01 4.14326289D+00 2.97446471D+01
                -1.87478723D-30 5.56849978D-31 1.75809579D+01
 Full mass-weighted force constant matrix:
 Low frequencies --- -285.1420  -52.4533  -18.2784   -0.0011   -0.0006   -0.0006
 Low frequencies ---   93.6565  391.9950  497.8236
 ******    1 imaginary frequencies (negative Signs) ****** 
 Diagonal vibrational polarizability:
        7.4895137      10.0093075      34.6392189
 Harmonic frequencies (cm**-1), IR intensities (KM/Mole), Raman scattering
 activities (A**4/AMU), depolarization ratios for plane and unpolarized
 incident light, reduced masses (AMU), force constants (mDyne/A),
 and normal coordinates:
                      1                      2                      3
                     A"                     A'                     A"
 Frequencies --   -258.3787               391.8765               497.6039
 Red. masses --      1.1744                 6.8363                 7.3979
 Frc consts  --      0.0462                 0.6185                 1.0793
 IR Inten    --     84.4683                 8.0845                 5.4240
  Atom  AN      X      Y      Z        X      Y      Z        X      Y      Z
     1   1     0.00   0.00   0.99    -0.74  -0.24   0.00     0.00   0.00   0.74
     2   8     0.00   0.00  -0.08    -0.31  -0.31   0.00     0.00   0.00   0.16
     3   8    -0.00  -0.00   0.06    -0.07   0.09  -0.00     0.00  -0.00  -0.36
     4   7    -0.00   0.00  -0.04     0.05   0.09   0.00    -0.00  -0.00   0.48
     5   8    -0.00  -0.00  -0.01     0.38   0.16  -0.00    -0.00  -0.00  -0.27
                      4                      5                      6
                     A'                     A'                     A'
 Frequencies --    709.5479               837.7514               963.8782
 Red. masses --     12.8753                12.6346                 8.6040
 Frc consts  --      3.8192                 5.2245                 4.7097
 IR Inten    --    219.1612                30.7568                15.7807
  Atom  AN      X      Y      Z        X      Y      Z        X      Y      Z
     1   1    -0.40   0.02   0.00     0.42  -0.15  -0.00    -0.69   0.02  -0.00
     2   8     0.01  -0.07  -0.00     0.54  -0.20  -0.00     0.19  -0.15  -0.00
     3   8     0.36   0.57   0.00    -0.39  -0.02   0.00    -0.34   0.37   0.00
     4   7    -0.40  -0.45   0.00    -0.44  -0.05  -0.00     0.36   0.05  -0.00
     5   8     0.01  -0.11  -0.00     0.20   0.28   0.00    -0.13  -0.26   0.00
                      7                      8                      9
                     A'                     A'                     A'
 Frequencies --   1402.0561              1566.3168              3697.8084
 Red. masses --      1.2783                 8.2740                 1.0643
 Frc consts  --      1.4805                11.9598                 8.5743
 IR Inten    --     75.3552               147.5889                40.8211
  Atom  AN      X      Y      Z        X      Y      Z        X      Y      Z
     1   1     0.97  -0.22  -0.00    -0.67   0.16   0.00     0.16   0.98   0.00
     2   8    -0.06  -0.05   0.00     0.01   0.02  -0.00    -0.01  -0.06  -0.00
     3   8    -0.03   0.07  -0.00    -0.04  -0.06   0.00     0.00  -0.00   0.00
     4   7     0.06  -0.04  -0.00     0.29  -0.46   0.00    -0.00   0.00   0.00
     5   8    -0.02   0.03   0.00    -0.18   0.44  -0.00     0.00  -0.00  -0.00

 -------------------
 - Thermochemistry -
 -------------------
 Temperature   298.150 Kelvin.  Pressure   1.00000 Atm.
 Atom     1 has atomic number  1 and mass   1.00783
 Atom     2 has atomic number  8 and mass  15.99491
 Atom     3 has atomic number  8 and mass  15.99491
 Atom     4 has atomic number  7 and mass  14.00307
 Atom     5 has atomic number  8 and mass  15.99491
 Molecular mass:    62.99564 amu.
 Principal axes and moments of inertia in atomic units:
                           1         2         3
     Eigenvalues --    84.43967 222.65592 307.09559
           X            0.79652  -0.60461   0.00000
           Y            0.60461   0.79652   0.00000
           Z           -0.00000   0.00000   1.00000
 This molecule is an asymmetric top.
 Rotational symmetry number  1.
 Rotational temperatures (Kelvin)      1.02575     0.38900     0.28204
 Rotational constants (GHZ):          21.37314     8.10552     5.87681
    1 imaginary frequencies ignored.
 Zero-point vibrational energy      60213.1 (Joules/Mol)
                                   14.39127 (Kcal/Mol)
 Warning -- explicit consideration of   2 degrees of freedom as
           vibrations may cause significant error
 Vibrational temperatures:    563.82   715.94  1020.88  1205.34  1386.81
          (Kelvin)           2017.25  2253.58  5320.32
 
 Zero-point correction=                           0.022934 (Hartree/Particle)
 Thermal correction to Energy=                    0.026540
 Thermal correction to Enthalpy=                  0.027484
 Thermal correction to Gibbs Free Energy=        -0.002866
 Sum of electronic and zero-point Energies=           -280.432092
 Sum of electronic and thermal Energies=              -280.428486
 Sum of electronic and thermal Enthalpies=            -280.427542
 Sum of electronic and thermal Free Energies=         -280.457892
 
                     E (Thermal)             CV                S
                      KCal/Mol        Cal/Mol-Kelvin    Cal/Mol-Kelvin
 Total                   16.654             10.689             63.878
 Electronic               0.000              0.000              0.000
 Translational            0.889              2.981             38.341
 Rotational               0.889              2.981             23.272
 Vibrational             14.877              4.727              2.266
 Vibration     1          0.759              1.488              0.993
 Vibration     2          0.853              1.255              0.664
                       Q            Log10(Q)             Ln(Q)
 Total Bot       0.208151D+02          1.318379          3.035681
 Total V=0       0.736637D+12         11.867253         27.325361
 Vib (Bot)       0.389392D-10        -10.409613        -23.969020
 Vib (Bot)    1  0.457515D+00         -0.339595         -0.781945
 Vib (Bot)    2  0.330990D+00         -0.480185         -1.105666
 Vib (V=0)       0.137804D+01          0.139261          0.320660
 Vib (V=0)    1  0.117773D+01          0.071046          0.163590
 Vib (V=0)    2  0.109963D+01          0.041246          0.094973
 Electronic      0.100000D+01          0.000000          0.000000
 Translational   0.196526D+08          7.293420         16.793719
 Rotational      0.272002D+05          4.434573         10.210981
 
                                                                title
                                                             IR Spectrum
 
     3                                                                         1    1                                                
     6                                                                         5    4              9    8   7      4   3             
     9                                                                         6    0              6    3   1      9   9             
     8                                                                         6    2              4    8   0      8   2             
 
     X                                                                         X    X              X    X   X      X   X             
     X                                                                         X    X                   X   X                        
     X                                                                         X    X                   X   X                        
     X                                                                         X    X                       X                        
                                                                               X    X                       X                        
                                                                               X    X                       X                        
                                                                               X    X                       X                        
                                                                               X                            X                        
                                                                               X                            X                        
                                                                               X                            X                        
                                                                               X                            X                        
                                                                               X                            X                        
                                                                               X                            X                        
                                                                                                            X                        
                                                                                                            X                        
                                                                                                            X                        
                                                                                                            X                        
                                                                                                            X                        
                                                                                                            X                        
                                                                                                            X                        
 
 ***** Axes restored to original set *****
 -------------------------------------------------------------------
 Center     Atomic                   Forces (Hartrees/Bohr)
 Number     Number              X              Y              Z
 -------------------------------------------------------------------
      1        1          -0.000704774   -0.000000000   -0.014226963
      2        8          -0.000011482   -0.000000000    0.013819549
      3        8           0.000625983    0.000000000    0.000240878
      4        7           0.000003619    0.000000000    0.000136222
      5        8           0.000086654    0.000000000    0.000030314
 -------------------------------------------------------------------
 Cartesian Forces:  Max     0.014226963 RMS     0.005127443
 -----------------------------------------------------------------------------------------------
                       Internal Coordinate Forces (Hartree/Bohr or radian)
  Cent   Atom   N1       Length/X         N2         Alpha/Y        N3         Beta/Z          J
 -----------------------------------------------------------------------------------------------
      1  H 
      2  O        1   0.014227(     1)
      3  O        2   0.000779(     2)      1   0.001291(     5)
      4  N        3  -0.000088(     3)      2   0.000567(     6)      1   0.000000(     8)     0
      5  O        4  -0.000072(     4)      3   0.000130(     7)      2   0.000000(     9)     0
 -----------------------------------------------------------------------------------------------
 Internal  Forces:  Max     0.014226963 RMS     0.004772967
 Force constants in Cartesian coordinates: 
                1             2             3             4             5 
      1  0.674082D-01
      2  0.000000D+00 -0.187076D-02
      3  0.234213D-01  0.000000D+00  0.491095D+00
      4 -0.456637D-01  0.000000D+00 -0.573350D-02  0.275009D+00
      5  0.000000D+00  0.531390D-02  0.000000D+00  0.000000D+00  0.439299D-02
      6  0.339794D-01  0.000000D+00 -0.475099D+00 -0.117079D-01  0.000000D+00
      7 -0.261534D-01  0.000000D+00 -0.150958D-01 -0.171182D+00  0.000000D+00
      8  0.000000D+00 -0.417201D-02  0.000000D+00  0.000000D+00 -0.187294D-01
      9 -0.459915D-01  0.000000D+00 -0.197288D-01  0.114825D-01  0.000000D+00
     10 -0.540813D-02  0.000000D+00  0.676497D-02 -0.839263D-01  0.000000D+00
     11  0.000000D+00  0.808179D-02  0.000000D+00  0.000000D+00  0.196210D-01
     12 -0.183087D-01  0.000000D+00  0.117289D-01  0.103721D-01  0.000000D+00
     13  0.981700D-02  0.000000D+00 -0.935700D-02  0.257624D-01  0.000000D+00
     14  0.000000D+00 -0.735292D-02  0.000000D+00  0.000000D+00 -0.105985D-01
     15  0.689949D-02  0.000000D+00 -0.799568D-02 -0.441315D-02  0.000000D+00
                6             7             8             9            10 
      6  0.576907D+00
      7 -0.924876D-01  0.305293D+00
      8  0.000000D+00  0.000000D+00  0.405085D-01
      9 -0.971034D-01  0.822167D-01  0.000000D+00  0.317228D+00
     10  0.403310D-01 -0.144281D+00  0.000000D+00 -0.357133D-01  0.554199D+00
     11  0.000000D+00  0.000000D+00 -0.475898D-01  0.000000D+00  0.000000D+00
     12 -0.100063D-01  0.161733D-01  0.000000D+00 -0.256635D-01  0.243071D+00
     13  0.298850D-01  0.363235D-01  0.000000D+00 -0.119945D-01 -0.320584D+00
     14  0.000000D+00  0.000000D+00  0.299826D-01  0.000000D+00  0.000000D+00
     15  0.530175D-02  0.919337D-02  0.000000D+00 -0.174732D+00 -0.254454D+00
               11            12            13            14            15 
     11  0.572348D-01
     12  0.000000D+00  0.448902D+00
     13  0.000000D+00 -0.251308D+00  0.248681D+00
     14 -0.373478D-01  0.000000D+00  0.000000D+00  0.253165D-01
     15  0.000000D+00 -0.424961D+00  0.242774D+00  0.000000D+00  0.602387D+00
 Force constants in internal coordinates: 
                1             2             3             4             5 
      1  0.491095D+00
      2  0.203361D-01  0.261046D+00
      3  0.454416D-02  0.178296D-01  0.207519D+00
      4 -0.117322D-01  0.221291D-01  0.148103D+00  0.721460D+00
      5  0.421901D-01  0.585420D-01 -0.218578D-01  0.202275D-01  0.252155D+00
      6  0.860621D-02  0.235980D-01  0.925112D-01  0.795356D-02 -0.659434D-02
      7  0.839928D-02 -0.719742D-01  0.120650D+00  0.116045D+00 -0.193933D-01
      8  0.000000D+00  0.000000D+00  0.000000D+00  0.000000D+00  0.000000D+00
      9  0.000000D+00  0.000000D+00  0.000000D+00  0.000000D+00  0.000000D+00
                6             7             8             9 
      6  0.520717D+00
      7  0.609343D-01  0.660549D+00
      8  0.000000D+00  0.000000D+00  0.188732D-01
      9  0.000000D+00  0.000000D+00  0.272282D-01  0.106962D+00
 Leave Link  716 at Sun Mar  6 18:55:32 2022, MaxMem= 16106127360 cpu:               0.7 elap:               0.0
 (Enter /sw/contrib/gaussian/g16/B01/g16/l103.exe)

 GradGradGradGradGradGradGradGradGradGradGradGradGradGradGradGradGradGrad
 Berny optimization.
 Search for a local minimum.
 Step number   1 out of a maximum of    2
 All quantities printed in internal units (Hartrees-Bohrs-Radians)
 Second derivative matrix not updated -- analytic derivatives used.
 The second derivative matrix:
                          r1        r2        r3        r4        a1
           r1           0.49109
           r2           0.02034   0.26105
           r3           0.00454   0.01783   0.20752
           r4          -0.01173   0.02213   0.14810   0.72146
           a1           0.04219   0.05854  -0.02186   0.02023   0.25216
           a2           0.00861   0.02360   0.09251   0.00795  -0.00659
           a3           0.00840  -0.07197   0.12065   0.11605  -0.01939
           d1           0.00000   0.00000   0.00000  -0.00000  -0.00000
           d2           0.00000  -0.00000  -0.00000  -0.00000  -0.00000
                          a2        a3        d1        d2
           a2           0.52072
           a3           0.06093   0.66055
           d1           0.00000  -0.00000   0.01887
           d2          -0.00000   0.00000   0.02723   0.10696
 ITU=  0
     Eigenvalues ---    0.01114   0.11470   0.12513   0.20273   0.28494
     Eigenvalues ---    0.49526   0.51939   0.60686   0.88022
 Angle between quadratic step and forces=   7.11 degrees.
 Linear search not attempted -- first point.
 Variable       Old X    -DE/DX   Delta X   Delta X   Delta X     New X
                                 (Linear)    (Quad)   (Total)
    r1        1.83145   0.01423   0.00000   0.02897   0.02897   1.86042
    r2        2.69614   0.00078   0.00000   0.00078   0.00078   2.69692
    r3        2.60992  -0.00009   0.00000  -0.00215  -0.00215   2.60776
    r4        2.25782  -0.00007   0.00000   0.00077   0.00077   2.25859
    a1        1.75642   0.00129   0.00000  -0.00013  -0.00013   1.75629
    a2        1.97463   0.00057   0.00000   0.00094   0.00094   1.97556
    a3        1.99550   0.00013   0.00000   0.00008   0.00008   1.99558
    d1        0.00000   0.00000   0.00000   0.00000   0.00000   0.00000
    d2        0.00000   0.00000   0.00000   0.00000   0.00000   0.00000
         Item               Value     Threshold  Converged?
 Maximum Force            0.014227     0.000450     NO 
 RMS     Force            0.004773     0.000300     NO 
 Maximum Displacement     0.028969     0.001800     NO 
 RMS     Displacement     0.009695     0.001200     NO 
 Predicted change in Energy=-2.066306D-04
                       ----------------------------
                       ! Non-Optimized Parameters !
                       ! (Angstroms and Degrees)  !
 ----------------------                            ----------------------
 !      Name          Value   Derivative information (Atomic Units)     !
 ------------------------------------------------------------------------
 !       r1          0.9845   -DE/DX =    0.0142                        !
 !       r2          1.4271   -DE/DX =    0.0008                        !
 !       r3          1.38     -DE/DX =   -0.0001                        !
 !       r4          1.1952   -DE/DX =   -0.0001                        !
 !       a1        100.6282   -DE/DX =    0.0013                        !
 !       a2        113.1914   -DE/DX =    0.0006                        !
 !       a3        114.3386   -DE/DX =    0.0001                        !
 !       d1          0.0      -DE/DX =    0.0                           !
 !       d2          0.0      -DE/DX =    0.0                           !
 ------------------------------------------------------------------------
 GradGradGradGradGradGradGradGradGradGradGradGradGradGradGradGradGradGrad

 Leave Link  103 at Sun Mar  6 18:55:32 2022, MaxMem= 16106127360 cpu:               1.1 elap:               0.1
 (Enter /sw/contrib/gaussian/g16/B01/g16/l9999.exe)

 ----------------------------------------------------------------------

 Electric dipole moment (input orientation):
 (Debye = 10**-18 statcoulomb cm , SI units = C m)
                  (au)            (Debye)         (10**-30 SI)
   Tot        0.425192D+00      0.108073D+01      0.360493D+01
   x         -0.110803D+00     -0.281633D+00     -0.939426D+00
   y          0.000000D+00      0.000000D+00      0.000000D+00
   z         -0.410501D+00     -0.104339D+01     -0.348037D+01

 Dipole polarizability, Alpha (input orientation).
 (esu units = cm**3 , SI units = C**2 m**2 J**-1)
 Alpha(0;0):
               (au)            (10**-24 esu)      (10**-40 SI)
   iso        0.260493D+02      0.386011D+01      0.429495D+01
   aniso      0.146194D+02      0.216636D+01      0.241041D+01
   xx         0.290750D+02      0.430846D+01      0.479381D+01
   yx         0.000000D+00      0.000000D+00      0.000000D+00
   yy         0.175810D+02      0.260523D+01      0.289871D+01
   zx        -0.399955D+01     -0.592672D+00     -0.659437D+00
   zy         0.000000D+00      0.000000D+00      0.000000D+00
   zz         0.314920D+02      0.466664D+01      0.519234D+01

 ----------------------------------------------------------------------

 Dipole orientation:
     1          0.00000000          0.00000000         -0.00000000
     8         -0.47726627          0.00000000         -1.76816728
     8          1.95132997          0.00000000         -2.93910687
     7          3.91742725         -0.00000000         -1.22268070
     8          3.26531907         -0.00000000          0.93892044

 Electric dipole moment (dipole orientation):
 (Debye = 10**-18 statcoulomb cm , SI units = C m)
                  (au)            (Debye)         (10**-30 SI)
   Tot        0.425192D+00      0.108073D+01      0.360493D+01
   x          0.000000D+00      0.000000D+00      0.000000D+00
   y          0.000000D+00      0.000000D+00      0.000000D+00
   z          0.425192D+00      0.108073D+01      0.360493D+01

 Dipole polarizability, Alpha (dipole orientation).
 (esu units = cm**3 , SI units = C**2 m**2 J**-1)
 Alpha(0;0):
               (au)            (10**-24 esu)      (10**-40 SI)
   iso        0.260493D+02      0.386011D+01      0.429495D+01
   aniso      0.146194D+02      0.216636D+01      0.241041D+01
   xx         0.312516D+02      0.463101D+01      0.515269D+01
   yx         0.000000D+00      0.000000D+00      0.000000D+00
   yy         0.175810D+02      0.260523D+01      0.289871D+01
   zx         0.406445D+01      0.602290D+00      0.670138D+00
   zy         0.000000D+00      0.000000D+00      0.000000D+00
   zz         0.293154D+02      0.434409D+01      0.483346D+01

 ----------------------------------------------------------------------
 1\1\GINC-N2110\Freq\RMP2-FC\Aug-CC-pVTZ\H1N1O3\CGAVINH\06-Mar-2022\1\\
 #p freq mp2/aug-cc-pvtz density=current\\title\\0,1\H\O,1,r1\O,2,r2,1,
 a1\N,3,r3,2,a2,1,d1,0\O,4,r4,3,a3,2,d2,0\\r1=0.96916009\r2=1.42673666\
 r3=1.38110764\r4=1.19478846\a1=100.6355057\a2=113.13777052\a3=114.3339
 2022\d1=0.\d2=0.\\Version=ES64L-G16RevB.01\State=1-A'\HF=-279.5071846\
 MP2=-280.4550261\RMSD=4.195e-09\RMSF=5.127e-03\ZeroPoint=0.0229339\The
 rmal=0.0265402\Dipole=-0.1108029,0.,-0.4105005\DipoleDeriv=0.3106889,0
 .,0.0401477,0.,0.3006088,0.,-0.0164186,0.,0.1961458,-0.5269107,0.,0.28
 16574,0.,-0.2565516,0.,-0.1151105,0.,-0.1250638,0.0059447,0.,0.3390797
 ,0.,-0.0101929,0.,0.4441959,0.,-0.9219672,0.2011423,0.,-0.1417675,0.,0
 .0123042,0.,-0.6643442,0.,1.7212808,0.0091348,0.,-0.5191174,0.,-0.0461
 684,0.,0.3516774,0.,-0.8703956\Polar=29.0749554,0.,17.5809579,-3.99955
 12,0.,31.4920447\Quadrupole=0.1562471,0.6180602,-0.7743072,0.,1.388066
 7,0.\PG=CS [SG(H1N1O3)]\NImag=1\\0.06740816,0.,-0.00187076,0.02342131,
 0.,0.49109464,-0.04566365,0.,-0.00573350,0.27500925,0.,0.00531390,0.,0
 .,0.00439299,0.03397939,0.,-0.47509910,-0.01170789,0.,0.57690702,-0.02
 615337,0.,-0.01509578,-0.17118170,0.,-0.09248758,0.30529294,0.,-0.0041
 7201,0.,0.,-0.01872941,0.,0.,0.04050855,-0.04599148,0.,-0.01972877,0.0
 1148247,0.,-0.09710337,0.08221674,0.,0.31722795,-0.00540813,0.,0.00676
 497,-0.08392632,0.,0.04033105,-0.14428136,0.,-0.03571325,0.55419940,0.
 ,0.00808179,0.,0.,0.01962097,0.,0.,-0.04758976,0.,0.,0.05723480,-0.018
 30871,0.,0.01172891,0.01037207,0.,-0.01000629,0.01617325,0.,-0.0256634
 7,0.24307126,0.,0.44890169,0.00981700,0.,-0.00935700,0.02576242,0.,0.0
 2988503,0.03632349,0.,-0.01199448,-0.32058359,0.,-0.25130786,0.2486806
 9,0.,-0.00735292,0.,0.,-0.01059845,0.,0.,0.02998263,0.,0.,-0.03734780,
 0.,0.,0.02531655,0.00689949,0.,-0.00799568,-0.00441315,0.,0.00530175,0
 .00919337,0.,-0.17473235,-0.25445401,0.,-0.42496084,0.24277431,0.,0.60
 238713\\0.00070477,0.,0.01422696,0.00001148,0.,-0.01381955,-0.00062598
 ,0.,-0.00024088,-0.00000362,0.,-0.00013622,-0.00008665,0.,-0.00003031\
 \\@


 In the race for quality, there is no finish line.
                               -- David T. Kearns
 Job cpu time:       0 days  2 hours  1 minutes  4.2 seconds.
 Elapsed time:       0 days  0 hours  4 minutes 22.7 seconds.
 File lengths (MBytes):  RWF=   7239 Int=      0 D2E=      0 Chk=      8 Scr=      1
 Normal termination of Gaussian 16 at Sun Mar  6 18:55:33 2022.
