title                                                                   
Freq      RMP2-FC                                                     Aug-CC-pVTZ         
Number of atoms                            I                5
Info1-9                                    I   N=           9
          33          24           0           0           0         100
           6           2           1
Full Title                                 C   N=           1
title       
Route                                      C   N=           4
#p freq mp2/aug-cc-pvtz density=current         
Charge                                     I                0
Multiplicity                               I                1
Number of electrons                        I               32
Number of alpha electrons                  I               16
Number of beta electrons                   I               16
Number of basis functions                  I              207
Number of independent functions            I              207
Number of point charges in /Mol/           I                0
Number of translation vectors              I                0
Atomic numbers                             I   N=           5
           1           8           8           7           8
Nuclear charges                            R   N=           5
  1.00000000E+00  8.00000000E+00  8.00000000E+00  7.00000000E+00  8.00000000E+00
Current cartesian coordinates              R   N=          15
  2.95295148E+00  3.15865240E+00  2.07367715E-32  2.74880232E+00  1.33896985E+00
  8.27148500E-34 -8.79532301E-17  1.28169137E+00  3.22922409E-32 -4.96522547E-01
 -1.42992681E+00  6.23422999E-33 -2.68346403E+00 -1.76430682E+00 -6.75075944E-32
Number of symbols in /Mol/                 I                0
Force Field                                I                0
Atom Types                                 C   N=           5
                                                            
Int Atom Types                             I   N=           5
           0           0           0           0           0
MM charges                                 R   N=           5
  0.00000000E+00  0.00000000E+00  0.00000000E+00  0.00000000E+00  0.00000000E+00
Integer atomic weights                     I   N=           5
           1          16          16          14          16
Real atomic weights                        R   N=           5
  1.00782504E+00  1.59949146E+01  1.59949146E+01  1.40030740E+01  1.59949146E+01
Atom fragment info                         I   N=           5
           0           0           0           0           0
Atom residue num                           I   N=           5
           0           0           0           0           0
Nuclear spins                              I   N=           5
           1           0           0           2           0
Nuclear ZEff                               R   N=           5
 -1.00000000E+00 -5.60000000E+00 -5.60000000E+00 -4.55000000E+00 -5.60000000E+00
Nuclear ZNuc                               R   N=           5
  1.00000000E+00  8.00000000E+00  8.00000000E+00  7.00000000E+00  8.00000000E+00
Nuclear QMom                               R   N=           5
  0.00000000E+00  0.00000000E+00  0.00000000E+00  2.04400000E+00  0.00000000E+00
Nuclear GFac                               R   N=           5
  2.79284600E+00  0.00000000E+00  0.00000000E+00  4.03761000E-01  0.00000000E+00
MicOpt                                     I   N=           5
          -1          -1          -1          -1          -1
Number of residues                         I                0
Number of secondary structures             I                0
SymInf integers                            I   N=          26
           1           2           1           1           1           1
           1          -1           0           0           0           0
           0           0           0           0           0           0
           0           0           0           0           0           0
           0           0
RotTr to input orientation                 R   N=          12
 -9.93765556E-01 -9.88327777E-17 -1.11489997E-01  1.11489997E-01 -7.23165256E-17
 -9.93765556E-01  9.01540411E-17 -1.00000000E+00  8.28845383E-17  2.58238332E+00
  0.00000000E+00  3.46818451E+00
Number of contracted shells                I               65
Number of primitive shells                 I              119
Pure/Cartesian d shells                    I                0
Pure/Cartesian f shells                    I                0
Highest angular momentum                   I                3
Largest degree of contraction              I                7
Shell types                                I   N=          65
           0           0           0           0           1           1
           1          -2          -2           0           0           0
           0           0           1           1           1           1
          -2          -2          -2          -3          -3           0
           0           0           0           0           1           1
           1           1          -2          -2          -2          -3
          -3           0           0           0           0           0
           1           1           1           1          -2          -2
          -2          -3          -3           0           0           0
           0           0           1           1           1           1
          -2          -2          -2          -3          -3
Number of primitives per shell             I   N=          65
           3           1           1           1           1           1
           1           1           1           7           6           1
           1           1           3           1           1           1
           1           1           1           1           1           7
           6           1           1           1           3           1
           1           1           1           1           1           1
           1           7           6           1           1           1
           3           1           1           1           1           1
           1           1           1           7           6           1
           1           1           3           1           1           1
           1           1           1           1           1
Shell to atom map                          I   N=          65
           1           1           1           1           1           1
           1           1           1           2           2           2
           2           2           2           2           2           2
           2           2           2           2           2           3
           3           3           3           3           3           3
           3           3           3           3           3           3
           3           4           4           4           4           4
           4           4           4           4           4           4
           4           4           4           5           5           5
           5           5           5           5           5           5
           5           5           5           5           5
Primitive exponents                        R   N=         119
  3.38700000E+01  5.09500000E+00  1.15900000E+00  3.25800000E-01  1.02700000E-01
  2.52600000E-02  1.40700000E+00  3.88000000E-01  1.02000000E-01  1.05700000E+00
  2.47000000E-01  1.53300000E+04  2.29900000E+03  5.22400000E+02  1.47300000E+02
  4.75500000E+01  1.67600000E+01  6.20700000E+00  5.22400000E+02  1.47300000E+02
  4.75500000E+01  1.67600000E+01  6.20700000E+00  6.88200000E-01  1.75200000E+00
  2.38400000E-01  7.37600000E-02  3.44600000E+01  7.74900000E+00  2.28000000E+00
  7.15600000E-01  2.14000000E-01  5.97400000E-02  2.31400000E+00  6.45000000E-01
  2.14000000E-01  1.42800000E+00  5.00000000E-01  1.53300000E+04  2.29900000E+03
  5.22400000E+02  1.47300000E+02  4.75500000E+01  1.67600000E+01  6.20700000E+00
  5.22400000E+02  1.47300000E+02  4.75500000E+01  1.67600000E+01  6.20700000E+00
  6.88200000E-01  1.75200000E+00  2.38400000E-01  7.37600000E-02  3.44600000E+01
  7.74900000E+00  2.28000000E+00  7.15600000E-01  2.14000000E-01  5.97400000E-02
  2.31400000E+00  6.45000000E-01  2.14000000E-01  1.42800000E+00  5.00000000E-01
  1.14200000E+04  1.71200000E+03  3.89300000E+02  1.10000000E+02  3.55700000E+01
  1.25400000E+01  4.64400000E+00  3.89300000E+02  1.10000000E+02  3.55700000E+01
  1.25400000E+01  4.64400000E+00  5.11800000E-01  1.29300000E+00  1.78700000E-01
  5.76000000E-02  2.66300000E+01  5.94800000E+00  1.74200000E+00  5.55000000E-01
  1.72500000E-01  4.91000000E-02  1.65400000E+00  4.69000000E-01  1.51000000E-01
  1.09300000E+00  3.64000000E-01  1.53300000E+04  2.29900000E+03  5.22400000E+02
  1.47300000E+02  4.75500000E+01  1.67600000E+01  6.20700000E+00  5.22400000E+02
  1.47300000E+02  4.75500000E+01  1.67600000E+01  6.20700000E+00  6.88200000E-01
  1.75200000E+00  2.38400000E-01  7.37600000E-02  3.44600000E+01  7.74900000E+00
  2.28000000E+00  7.15600000E-01  2.14000000E-01  5.97400000E-02  2.31400000E+00
  6.45000000E-01  2.14000000E-01  1.42800000E+00  5.00000000E-01
Contraction coefficients                   R   N=         119
  2.54948632E-02  1.90362766E-01  8.52162022E-01  1.00000000E+00  1.00000000E+00
  1.00000000E+00  1.00000000E+00  1.00000000E+00  1.00000000E+00  1.00000000E+00
  1.00000000E+00  5.19808943E-04  4.02025621E-03  2.07128267E-02  8.10105536E-02
  2.35962985E-01  4.42653446E-01  3.57064423E-01 -4.42115008E-05 -1.22591041E-03
 -1.05517725E-02 -6.74452633E-02 -1.71198607E-01  1.07329856E+00  1.00000000E+00
  1.00000000E+00  1.00000000E+00  4.11634896E-02  2.57762836E-01  8.02419274E-01
  1.00000000E+00  1.00000000E+00  1.00000000E+00  1.00000000E+00  1.00000000E+00
  1.00000000E+00  1.00000000E+00  1.00000000E+00  5.19808943E-04  4.02025621E-03
  2.07128267E-02  8.10105536E-02  2.35962985E-01  4.42653446E-01  3.57064423E-01
 -4.42115008E-05 -1.22591041E-03 -1.05517725E-02 -6.74452633E-02 -1.71198607E-01
  1.07329856E+00  1.00000000E+00  1.00000000E+00  1.00000000E+00  4.11634896E-02
  2.57762836E-01  8.02419274E-01  1.00000000E+00  1.00000000E+00  1.00000000E+00
  1.00000000E+00  1.00000000E+00  1.00000000E+00  1.00000000E+00  1.00000000E+00
  5.34563860E-04  4.13435660E-03  2.12335358E-02  8.25006224E-02  2.38138871E-01
  4.42551547E-01  3.53757422E-01 -4.89867350E-05 -1.19527323E-03 -1.03490714E-02
 -6.48680190E-02 -1.71552477E-01  1.07289568E+00  1.00000000E+00  1.00000000E+00
  1.00000000E+00  3.98072123E-02  2.49002660E-01  8.10479727E-01  1.00000000E+00
  1.00000000E+00  1.00000000E+00  1.00000000E+00  1.00000000E+00  1.00000000E+00
  1.00000000E+00  1.00000000E+00  5.19808943E-04  4.02025621E-03  2.07128267E-02
  8.10105536E-02  2.35962985E-01  4.42653446E-01  3.57064423E-01 -4.42115008E-05
 -1.22591041E-03 -1.05517725E-02 -6.74452633E-02 -1.71198607E-01  1.07329856E+00
  1.00000000E+00  1.00000000E+00  1.00000000E+00  4.11634896E-02  2.57762836E-01
  8.02419274E-01  1.00000000E+00  1.00000000E+00  1.00000000E+00  1.00000000E+00
  1.00000000E+00  1.00000000E+00  1.00000000E+00  1.00000000E+00
Coordinates of each shell                  R   N=         195
  2.95295148E+00  3.15865240E+00  3.95733059E-32  2.95295148E+00  3.15865240E+00
  3.95733059E-32  2.95295148E+00  3.15865240E+00  3.95733059E-32  2.95295148E+00
  3.15865240E+00  3.95733059E-32  2.95295148E+00  3.15865240E+00  3.95733059E-32
  2.95295148E+00  3.15865240E+00  3.95733059E-32  2.95295148E+00  3.15865240E+00
  3.95733059E-32  2.95295148E+00  3.15865240E+00  3.95733059E-32  2.95295148E+00
  3.15865240E+00  3.95733059E-32  2.74880232E+00  1.33896985E+00  2.70301242E-32
  2.74880232E+00  1.33896985E+00  2.70301242E-32  2.74880232E+00  1.33896985E+00
  2.70301242E-32  2.74880232E+00  1.33896985E+00  2.70301242E-32  2.74880232E+00
  1.33896985E+00  2.70301242E-32  2.74880232E+00  1.33896985E+00  2.70301242E-32
  2.74880232E+00  1.33896985E+00  2.70301242E-32  2.74880232E+00  1.33896985E+00
  2.70301242E-32  2.74880232E+00  1.33896985E+00  2.70301242E-32  2.74880232E+00
  1.33896985E+00  2.70301242E-32  2.74880232E+00  1.33896985E+00  2.70301242E-32
  2.74880232E+00  1.33896985E+00  2.70301242E-32  2.74880232E+00  1.33896985E+00
  2.70301242E-32  2.74880232E+00  1.33896985E+00  2.70301242E-32  1.86510580E-17
  1.28169137E+00  7.84978688E-33  1.86510580E-17  1.28169137E+00  7.84978688E-33
  1.86510580E-17  1.28169137E+00  7.84978688E-33  1.86510580E-17  1.28169137E+00
  7.84978688E-33  1.86510580E-17  1.28169137E+00  7.84978688E-33  1.86510580E-17
  1.28169137E+00  7.84978688E-33  1.86510580E-17  1.28169137E+00  7.84978688E-33
  1.86510580E-17  1.28169137E+00  7.84978688E-33  1.86510580E-17  1.28169137E+00
  7.84978688E-33  1.86510580E-17  1.28169137E+00  7.84978688E-33  1.86510580E-17
  1.28169137E+00  7.84978688E-33  1.86510580E-17  1.28169137E+00  7.84978688E-33
  1.86510580E-17  1.28169137E+00  7.84978688E-33  1.86510580E-17  1.28169137E+00
  7.84978688E-33 -4.96522547E-01 -1.42992681E+00 -1.21588848E-32 -4.96522547E-01
 -1.42992681E+00 -1.21588848E-32 -4.96522547E-01 -1.42992681E+00 -1.21588848E-32
 -4.96522547E-01 -1.42992681E+00 -1.21588848E-32 -4.96522547E-01 -1.42992681E+00
 -1.21588848E-32 -4.96522547E-01 -1.42992681E+00 -1.21588848E-32 -4.96522547E-01
 -1.42992681E+00 -1.21588848E-32 -4.96522547E-01 -1.42992681E+00 -1.21588848E-32
 -4.96522547E-01 -1.42992681E+00 -1.21588848E-32 -4.96522547E-01 -1.42992681E+00
 -1.21588848E-32 -4.96522547E-01 -1.42992681E+00 -1.21588848E-32 -4.96522547E-01
 -1.42992681E+00 -1.21588848E-32 -4.96522547E-01 -1.42992681E+00 -1.21588848E-32
 -4.96522547E-01 -1.42992681E+00 -1.21588848E-32 -2.68346403E+00 -1.76430682E+00
 -2.91875501E-32 -2.68346403E+00 -1.76430682E+00 -2.91875501E-32 -2.68346403E+00
 -1.76430682E+00 -2.91875501E-32 -2.68346403E+00 -1.76430682E+00 -2.91875501E-32
 -2.68346403E+00 -1.76430682E+00 -2.91875501E-32 -2.68346403E+00 -1.76430682E+00
 -2.91875501E-32 -2.68346403E+00 -1.76430682E+00 -2.91875501E-32 -2.68346403E+00
 -1.76430682E+00 -2.91875501E-32 -2.68346403E+00 -1.76430682E+00 -2.91875501E-32
 -2.68346403E+00 -1.76430682E+00 -2.91875501E-32 -2.68346403E+00 -1.76430682E+00
 -2.91875501E-32 -2.68346403E+00 -1.76430682E+00 -2.91875501E-32 -2.68346403E+00
 -1.76430682E+00 -2.91875501E-32 -2.68346403E+00 -1.76430682E+00 -2.91875501E-32
Num ILSW                                   I              100
ILSW                                       I   N=         100
           0           0           0           0           2           0
           0           0           0           0           0          -1
           5           0           0           0           2           0
           0           0           0           0           1           0
           1           0           0           0           0           0
           0           0      100000           0          -1           0
           0           0           0           0           0           0
           0           0           0           1           1           0
           0 -2000000000           1           0           0           0
           0           0           4          52           0           0
           0           0           0           0           0           0
           0           0           0           5           4           1
           0           0           0           0           0           0
           0           0           0           0           0           0
           0           0           0           0           0           0
           0           0           0           0           0           0
           0           0           0           0
Num RLSW                                   I               52
RLSW                                       R   N=          52
  1.00000000E+00  1.00000000E+00  1.00000000E+00  1.00000000E+00  1.00000000E+00
  0.00000000E+00  0.00000000E+00  1.00000000E+00  0.00000000E+00  0.00000000E+00
  0.00000000E+00  0.00000000E+00  1.00000000E+00  0.00000000E+00  0.00000000E+00
  0.00000000E+00  0.00000000E+00  1.00000000E+00  0.00000000E+00  0.00000000E+00
  0.00000000E+00  0.00000000E+00  1.00000000E+00  0.00000000E+00  0.00000000E+00
  0.00000000E+00  0.00000000E+00  1.00000000E+00  0.00000000E+00  0.00000000E+00
  0.00000000E+00  0.00000000E+00  1.00000000E+00  0.00000000E+00  0.00000000E+00
  0.00000000E+00  0.00000000E+00  0.00000000E+00  1.00000000E+00  1.00000000E+00
  0.00000000E+00  1.00000000E+00  0.00000000E+00  0.00000000E+00  0.00000000E+00
  0.00000000E+00  0.00000000E+00  0.00000000E+00  0.00000000E+00  0.00000000E+00
  0.00000000E+00  0.00000000E+00
MxBond                                     I                2
NBond                                      I   N=           5
           1           2           2           2           1
IBond                                      I   N=          10
           2           0           1           3           2           4
           3           5           4           0
RBond                                      R   N=          10
  1.00000000E+00  0.00000000E+00  1.00000000E+00  1.00000000E+00  1.00000000E+00
  1.00000000E+00  1.00000000E+00  2.00000000E+00  2.00000000E+00  0.00000000E+00
Virial Ratio                               R      2.002337864120841E+00
SCF Energy                                 R     -2.795016004962206E+02
MP2 Energy                                 R     -2.804467124153153E+02
Total Energy                               R     -2.804467124153153E+02
Post-SCF wavefunction norm                 R      1.584234869337746E+00
RMS Force                                  R      7.182815169577309E-04
RMS Density                                R      3.784458656716142E-09
NImag                                      I                1
Job Status                                 I                1
Nuclear derivative order                   I                2
External E-field                           R   N=          35
  0.00000000E+00  0.00000000E+00  0.00000000E+00  0.00000000E+00  0.00000000E+00
  0.00000000E+00  0.00000000E+00  0.00000000E+00  0.00000000E+00  0.00000000E+00
  0.00000000E+00  0.00000000E+00  0.00000000E+00  0.00000000E+00  0.00000000E+00
  0.00000000E+00  0.00000000E+00  0.00000000E+00  0.00000000E+00  0.00000000E+00
  0.00000000E+00  0.00000000E+00  0.00000000E+00  0.00000000E+00  0.00000000E+00
  0.00000000E+00  0.00000000E+00  0.00000000E+00  0.00000000E+00  0.00000000E+00
  0.00000000E+00  0.00000000E+00  0.00000000E+00  0.00000000E+00  0.00000000E+00
IOpCl                                      I                0
IROHF                                      I                0
Alpha Orbital Energies                     R   N=         207
 -2.06910724E+01 -2.06841334E+01 -2.06597355E+01 -1.58126112E+01 -1.62405876E+00
 -1.49595487E+00 -1.25405529E+00 -9.48214748E-01 -7.73354271E-01 -7.58880135E-01
 -7.11902022E-01 -6.78242134E-01 -6.20257337E-01 -5.89968224E-01 -4.85282960E-01
 -4.72650415E-01  2.96240755E-02  7.17607581E-02  8.59309830E-02  1.01522925E-01
  1.34019235E-01  1.34039725E-01  1.44167956E-01  1.54764742E-01  1.78226606E-01
  1.94088808E-01  1.99735143E-01  2.06408133E-01  2.20917248E-01  2.35487230E-01
  2.37442039E-01  2.65534443E-01  2.93312770E-01  3.04290405E-01  3.10312568E-01
  3.43268023E-01  3.49973958E-01  3.87550803E-01  4.21743466E-01  4.31149967E-01
  5.27227933E-01  5.29819878E-01  5.59449618E-01  5.82766466E-01  6.26098702E-01
  6.37686518E-01  6.74323147E-01  6.84406095E-01  7.05965050E-01  7.11641738E-01
  7.23925425E-01  7.29813353E-01  7.44691184E-01  7.90752763E-01  7.91988793E-01
  8.09935145E-01  8.12796173E-01  8.31298153E-01  8.68242425E-01  9.07957872E-01
  9.22275730E-01  9.26100101E-01  9.57765078E-01  9.80100355E-01  9.85263401E-01
  1.01650205E+00  1.05253504E+00  1.05427223E+00  1.08440059E+00  1.11943876E+00
  1.14248749E+00  1.18866876E+00  1.22146115E+00  1.23188968E+00  1.33823143E+00
  1.34991566E+00  1.38710350E+00  1.45296875E+00  1.48764947E+00  1.50897107E+00
  1.53892556E+00  1.56761981E+00  1.58023123E+00  1.61434141E+00  1.66585003E+00
  1.66850563E+00  1.70327163E+00  1.79316263E+00  1.82949247E+00  1.83378346E+00
  1.87892332E+00  1.91139263E+00  1.95744439E+00  1.99278931E+00  2.00580123E+00
  2.07726594E+00  2.11930778E+00  2.13151898E+00  2.15012973E+00  2.22480281E+00
  2.26421388E+00  2.26498937E+00  2.28884859E+00  2.31563174E+00  2.34815651E+00
  2.38704722E+00  2.42571504E+00  2.42867201E+00  2.45375891E+00  2.46356474E+00
  2.47684209E+00  2.50388258E+00  2.58990235E+00  2.59584543E+00  2.62022776E+00
  2.62532401E+00  2.63292650E+00  2.66890663E+00  2.75950258E+00  2.82791477E+00
  2.86212744E+00  2.88799496E+00  2.89446069E+00  2.92299093E+00  2.95673481E+00
  3.02956832E+00  3.07007558E+00  3.12354712E+00  3.20565033E+00  3.22888713E+00
  3.31588883E+00  3.33790915E+00  3.51171900E+00  3.64781363E+00  3.83923708E+00
  3.84468324E+00  4.14962001E+00  4.16266364E+00  4.18460386E+00  4.25937454E+00
  4.34953757E+00  4.39477045E+00  4.46357491E+00  4.51851334E+00  4.66630226E+00
  4.71111483E+00  4.80749094E+00  4.82459361E+00  4.82874888E+00  4.89640890E+00
  5.02251160E+00  5.07733016E+00  5.10270489E+00  5.14172758E+00  5.18175049E+00
  5.24448009E+00  5.27169048E+00  5.30834242E+00  5.33167269E+00  5.35919242E+00
  5.61244945E+00  5.67378644E+00  5.77117936E+00  5.82860241E+00  5.95739156E+00
  6.17117711E+00  6.30870146E+00  6.33748548E+00  6.39371429E+00  6.49330136E+00
  6.50478406E+00  6.61515534E+00  6.66663201E+00  6.69868975E+00  6.76018288E+00
  6.76350755E+00  6.83336095E+00  6.89729336E+00  7.01166657E+00  7.05414705E+00
  7.05740813E+00  7.09022711E+00  7.12523708E+00  7.15103020E+00  7.18209422E+00
  7.22397258E+00  7.24276740E+00  7.30842269E+00  7.32490546E+00  7.35165857E+00
  7.40107187E+00  7.43034872E+00  7.48579630E+00  7.60559980E+00  7.61794841E+00
  7.63073922E+00  7.66785619E+00  7.79145093E+00  7.89056036E+00  8.09067423E+00
  8.31520428E+00  8.40920084E+00  8.54386615E+00  1.33973954E+01  1.43788153E+01
  1.51705029E+01  1.61538758E+01
Alpha MO coefficients                      R   N=       42849
  9.15004276E-05 -6.27399325E-04 -7.20144891E-04 -3.71900894E-06 -2.08461945E-05
 -2.68415151E-05  0.00000000E+00 -4.51298110E-05  5.69193050E-05  0.00000000E+00
  8.46627019E-05  3.37717128E-05  0.00000000E+00  3.15651419E-05  0.00000000E+00
  0.00000000E+00 -4.92630797E-05  2.23772553E-05 -5.45512044E-06  0.00000000E+00
  0.00000000E+00 -1.34216327E-04  1.21116916E-04  4.52081444E-03 -2.82454311E-04
  1.28418321E-05  1.52413471E-03  1.81618199E-03  1.05658401E-04  6.08503156E-06
  0.00000000E+00 -6.12621078E-04 -2.77920753E-05  0.00000000E+00 -1.07805930E-03
  7.96777853E-04  0.00000000E+00 -4.00220444E-04  6.82647390E-05  0.00000000E+00
  2.88796483E-05  0.00000000E+00  0.00000000E+00 -5.38944011E-05  7.22297130E-06
 -3.76931509E-04  0.00000000E+00  0.00000000E+00  7.37500709E-04 -5.25607546E-05
 -4.45195261E-04  0.00000000E+00  0.00000000E+00  2.38264758E-04 -1.97090696E-05
  0.00000000E+00  7.99463461E-05  1.15768733E-05  0.00000000E+00  0.00000000E+00
 -1.09908523E-04  9.28358043E-07  0.00000000E+00  2.55285674E-04 -3.03088027E-05
  0.00000000E+00  0.00000000E+00 -3.48354303E-04  6.44083625E-05  9.76911992E-01
 -9.22082402E-03  4.33161866E-02  2.06713067E-03 -9.16248802E-04  1.48387037E-03
 -1.36647849E-03  0.00000000E+00 -1.42954013E-03  1.39908776E-03  0.00000000E+00
  8.98016568E-05 -1.16011472E-03  0.00000000E+00 -1.32366394E-04 -1.13974112E-05
  0.00000000E+00  4.73323896E-05  0.00000000E+00  0.00000000E+00 -3.54216428E-05
  2.00193033E-05  7.44438645E-04  0.00000000E+00  0.00000000E+00 -2.35434800E-04
 -3.70664422E-04 -3.60367567E-04  0.00000000E+00  0.00000000E+00 -3.15148689E-04
 -3.74408461E-04  0.00000000E+00  4.74580302E-05 -4.95842454E-05  0.00000000E+00
  0.00000000E+00 -3.91441068E-05 -1.45249039E-05  0.00000000E+00  2.27322701E-05
  2.15990218E-05  0.00000000E+00  0.00000000E+00 -3.04119584E-04 -1.29850576E-04
  3.85733871E-05  4.34049999E-05 -2.63196292E-04 -7.15143065E-04 -1.45147581E-04
 -2.68033335E-05 -9.69333928E-05  0.00000000E+00  2.64309656E-04  7.01530540E-04
  0.00000000E+00 -8.25273213E-04 -4.77834801E-04  0.00000000E+00 -1.27260794E-04
 -2.79447318E-05  0.00000000E+00 -1.78837727E-05  0.00000000E+00  0.00000000E+00
 -2.90606207E-05  1.50840891E-05 -3.28036382E-04  0.00000000E+00  0.00000000E+00
 -8.25883885E-04  1.27420074E-04 -3.64916580E-05  0.00000000E+00  0.00000000E+00
  9.46685691E-05 -1.14461776E-04  0.00000000E+00 -2.04001727E-05 -1.19838222E-04
  0.00000000E+00  0.00000000E+00 -6.37958322E-05 -1.37822478E-04  0.00000000E+00
  2.37103365E-07 -1.55007871E-04  0.00000000E+00  0.00000000E+00  4.39645636E-05
 -4.13529206E-04 -2.45685837E-03  1.20772727E-04 -1.17462526E-04 -2.35511927E-04
  1.38161995E-04 -7.68343511E-06 -2.72266542E-05  0.00000000E+00  6.86624204E-05
  1.60212734E-04  0.00000000E+00  2.33075986E-04  2.04029825E-04  0.00000000E+00
  1.27385640E-04  2.61337738E-05  0.00000000E+00 -3.25280383E-06  0.00000000E+00
  0.00000000E+00 -1.78339430E-05  1.25460804E-06  9.75217711E-07  0.00000000E+00
  0.00000000E+00  7.94041905E-05  8.62343418E-05 -9.97515790E-05  0.00000000E+00
  0.00000000E+00  1.63442334E-04  1.63245825E-04  0.00000000E+00  1.59353164E-05
 -3.43312122E-06  0.00000000E+00  0.00000000E+00 -4.21130310E-06 -1.20762238E-05
  0.00000000E+00 -3.34124883E-05  4.51266218E-05  0.00000000E+00  0.00000000E+00
  8.21120674E-05  8.97673490E-05  4.03255281E-05 -9.94079452E-04 -4.80036725E-04
 -1.15789479E-05 -2.20138552E-05  1.57558973E-05  0.00000000E+00  2.96240262E-06
  2.73249251E-04  0.00000000E+00 -4.48667805E-05  1.31354625E-04  0.00000000E+00
  2.62989177E-05  0.00000000E+00  0.00000000E+00  1.19396956E-05  1.04729322E-05
 -2.96773043E-05  0.00000000E+00  0.00000000E+00  1.31217354E-05  3.65315004E-05
  1.12069869E-04  8.92132551E-05 -2.82328129E-05  7.36458398E-04  6.24919723E-04
  1.02930466E-05  2.37741870E-06  0.00000000E+00 -7.50555100E-05  1.49528146E-05
  0.00000000E+00  3.62807346E-04  9.22738260E-04  0.00000000E+00  1.28652292E-05
  8.57679298E-05  0.00000000E+00 -2.55945732E-06  0.00000000E+00  0.00000000E+00
 -1.89289317E-07 -5.17857499E-06 -3.46789698E-05  0.00000000E+00  0.00000000E+00
 -1.67429622E-05  7.93363328E-05 -2.06358611E-05  0.00000000E+00  0.00000000E+00
 -2.74347308E-04 -1.68827455E-04  0.00000000E+00  9.18343027E-06  6.03393846E-06
  0.00000000E+00  0.00000000E+00  2.52720822E-06 -1.85113858E-05  0.00000000E+00
 -4.13608747E-05 -3.89707787E-05  0.00000000E+00  0.00000000E+00 -7.86290549E-05
  2.71374593E-05  2.49560416E-03  3.98059003E-05  8.61683923E-05 -6.96655603E-05
 -4.60441466E-04  7.24121444E-06  1.57443468E-05  0.00000000E+00 -6.23066244E-05
 -5.39918309E-05  0.00000000E+00  2.36044332E-04 -2.03191416E-04  0.00000000E+00
 -1.80623077E-04 -6.20152811E-05  0.00000000E+00 -8.73073312E-06  0.00000000E+00
  0.00000000E+00  2.23432251E-05  2.00935118E-05  4.63583415E-06  0.00000000E+00
  0.00000000E+00 -1.17191174E-04 -4.78579607E-05 -5.29031528E-06  0.00000000E+00
  0.00000000E+00 -2.22804499E-04 -2.15682843E-04  0.00000000E+00  3.22898801E-06
 -9.01145349E-07  0.00000000E+00  0.00000000E+00  1.67586639E-06 -1.31445496E-05
  0.00000000E+00 -4.62058464E-05  5.04103196E-06  0.00000000E+00  0.00000000E+00
 -7.54442877E-05  1.84298920E-04  2.58660836E-04  1.46479021E-03 -7.79461791E-05
 -1.53095306E-03  4.12200859E-04 -1.44368770E-04  3.50145223E-07  0.00000000E+00
 -2.09417113E-03 -4.04400836E-04  0.00000000E+00  1.06107253E-03  7.75077346E-04
  0.00000000E+00 -1.71171406E-04  5.79822775E-05  0.00000000E+00 -1.23260992E-04
  0.00000000E+00  0.00000000E+00  2.43283512E-04  9.33614845E-05 -4.43190676E-04
  0.00000000E+00  0.00000000E+00  8.99039891E-04 -6.49465735E-05  1.03549723E-05
  0.00000000E+00  0.00000000E+00 -3.41768841E-04 -1.18525531E-04  0.00000000E+00
 -8.37092481E-07  1.55315140E-05  0.00000000E+00  0.00000000E+00  1.83350278E-05
  1.25069422E-05  0.00000000E+00  1.61605890E-04 -7.31117615E-05  0.00000000E+00
  0.00000000E+00 -2.39859484E-04  4.58261455E-05  9.76649430E-01 -9.84692520E-03
  4.35691517E-02  4.51075479E-03 -4.49516223E-04  2.14788547E-03  4.77763604E-04
  0.00000000E+00 -2.38424104E-03 -6.01351942E-04  0.00000000E+00  1.13572108E-03
 -5.58175331E-06  0.00000000E+00  3.42058556E-06 -4.10972909E-05  0.00000000E+00
 -2.32629480E-04  0.00000000E+00  0.00000000E+00  1.02641913E-04  3.19847858E-05
  3.90721134E-04  0.00000000E+00  0.00000000E+00 -8.36054150E-04 -4.17849896E-04
 -1.51500486E-04  0.00000000E+00  0.00000000E+00  2.53438401E-04  1.45915863E-05
  0.00000000E+00  5.22758245E-05  1.75412835E-05  0.00000000E+00  0.00000000E+00
 -2.23458390E-05 -1.31047768E-05  0.00000000E+00  1.38859171E-04  9.48955916E-06
  0.00000000E+00  0.00000000E+00 -1.90525934E-04 -1.40389924E-04  4.76633917E-04
  2.10442538E-03  1.30046322E-04  1.50433781E-05 -4.37635803E-05 -2.47859099E-04
  0.00000000E+00  9.14349703E-05 -1.28955826E-03  0.00000000E+00  2.92929583E-04
 -3.48607219E-04  0.00000000E+00 -3.22787585E-06  0.00000000E+00  0.00000000E+00
  7.55885749E-05  1.26234177E-05 -1.59407415E-04  0.00000000E+00  0.00000000E+00
 -5.38180321E-04 -7.94852591E-06  9.76829596E-01 -9.16487925E-03  4.34514744E-02
  1.30170651E-04 -1.10760911E-03 -1.53888701E-03  1.46584108E-03  0.00000000E+00
  1.55268219E-03 -1.30967053E-03  0.00000000E+00 -5.85782279E-04 -9.13292095E-04
  0.00000000E+00  5.42956407E-05 -1.93566218E-05  0.00000000E+00  2.90661693E-05
  0.00000000E+00  0.00000000E+00 -1.18699754E-04  1.33847073E-06  7.59896800E-04
  0.00000000E+00  0.00000000E+00 -2.02830587E-04 -2.31303869E-04 -2.65588089E-04
  0.00000000E+00  0.00000000E+00  1.74123267E-04  1.38655887E-04  0.00000000E+00
 -6.38469912E-05  1.57770658E-06  0.00000000E+00  0.00000000E+00  1.84223443E-05