title                                                                   
Freq      RMP2-FC                                                     Aug-CC-pVTZ         
Number of atoms                            I                5
Info1-9                                    I   N=           9
          33          24           0           0           0         100
           6           2           1
Full Title                                 C   N=           1
title       
Route                                      C   N=           4
#p freq mp2/aug-cc-pvtz density=current         
Charge                                     I                0
Multiplicity                               I                1
Number of electrons                        I               32
Number of alpha electrons                  I               16
Number of beta electrons                   I               16
Number of basis functions                  I              207
Number of independent functions            I              207
Number of point charges in /Mol/           I                0
Number of translation vectors              I                0
Atomic numbers                             I   N=           5
           1           8           8           7           8
Nuclear charges                            R   N=           5
  1.00000000E+00  8.00000000E+00  8.00000000E+00  7.00000000E+00  8.00000000E+00
Current cartesian coordinates              R   N=          15
  2.07548166E+00 -1.14958685E+00  0.00000000E+00  2.47901805E+00  6.68253883E-01
  0.00000000E+00  4.04342315E-17  1.72827685E+00  0.00000000E+00 -1.88654370E+00
 -7.52225689E-02  0.00000000E+00 -1.08772752E+00 -2.18701263E+00  0.00000000E+00
Number of symbols in /Mol/                 I                0
Force Field                                I                0
Atom Types                                 C   N=           5
                                                            
Int Atom Types                             I   N=           5
           0           0           0           0           0
MM charges                                 R   N=           5
  0.00000000E+00  0.00000000E+00  0.00000000E+00  0.00000000E+00  0.00000000E+00
Integer atomic weights                     I   N=           5
           1          16          16          14          16
Real atomic weights                        R   N=           5
  1.00782504E+00  1.59949146E+01  1.59949146E+01  1.40030740E+01  1.59949146E+01
Atom fragment info                         I   N=           5
           0           0           0           0           0
Atom residue num                           I   N=           5
           0           0           0           0           0
Nuclear spins                              I   N=           5
           1           0           0           2           0
Nuclear ZEff                               R   N=           5
 -1.00000000E+00 -5.60000000E+00 -5.60000000E+00 -4.55000000E+00 -5.60000000E+00
Nuclear ZNuc                               R   N=           5
  1.00000000E+00  8.00000000E+00  8.00000000E+00  7.00000000E+00  8.00000000E+00
Nuclear QMom                               R   N=           5
  0.00000000E+00  0.00000000E+00  0.00000000E+00  2.04400000E+00  0.00000000E+00
Nuclear GFac                               R   N=           5
  2.79284600E+00  0.00000000E+00  0.00000000E+00  4.03761000E-01  0.00000000E+00
MicOpt                                     I   N=           5
          -1          -1          -1          -1          -1
Number of residues                         I                0
Number of secondary structures             I                0
SymInf integers                            I   N=          26
           1           2           1           1           1           1
           1          -1           0           0           0           0
           0           0           0           0           0           0
           0           0           0           0           0           0
           0           0
RotTr to input orientation                 R   N=          12
 -9.76235734E-01  0.00000000E+00  2.16711311E-01  2.16711311E-01  0.00000000E+00
  9.76235734E-01  0.00000000E+00  1.00000000E+00  0.00000000E+00  2.27528783E+00
  0.00000000E+00  6.72487407E-01
Number of contracted shells                I               65
Number of primitive shells                 I              119
Pure/Cartesian d shells                    I                0
Pure/Cartesian f shells                    I                0
Highest angular momentum                   I                3
Largest degree of contraction              I                7
Shell types                                I   N=          65
           0           0           0           0           1           1
           1          -2          -2           0           0           0
           0           0           1           1           1           1
          -2          -2          -2          -3          -3           0
           0           0           0           0           1           1
           1           1          -2          -2          -2          -3
          -3           0           0           0           0           0
           1           1           1           1          -2          -2
          -2          -3          -3           0           0           0
           0           0           1           1           1           1
          -2          -2          -2          -3          -3
Number of primitives per shell             I   N=          65
           3           1           1           1           1           1
           1           1           1           7           6           1
           1           1           3           1           1           1
           1           1           1           1           1           7
           6           1           1           1           3           1
           1           1           1           1           1           1
           1           7           6           1           1           1
           3           1           1           1           1           1
           1           1           1           7           6           1
           1           1           3           1           1           1
           1           1           1           1           1
Shell to atom map                          I   N=          65
           1           1           1           1           1           1
           1           1           1           2           2           2
           2           2           2           2           2           2
           2           2           2           2           2           3
           3           3           3           3           3           3
           3           3           3           3           3           3
           3           4           4           4           4           4
           4           4           4           4           4           4
           4           4           4           5           5           5
           5           5           5           5           5           5
           5           5           5           5           5
Primitive exponents                        R   N=         119
  3.38700000E+01  5.09500000E+00  1.15900000E+00  3.25800000E-01  1.02700000E-01
  2.52600000E-02  1.40700000E+00  3.88000000E-01  1.02000000E-01  1.05700000E+00
  2.47000000E-01  1.53300000E+04  2.29900000E+03  5.22400000E+02  1.47300000E+02
  4.75500000E+01  1.67600000E+01  6.20700000E+00  5.22400000E+02  1.47300000E+02
  4.75500000E+01  1.67600000E+01  6.20700000E+00  6.88200000E-01  1.75200000E+00
  2.38400000E-01  7.37600000E-02  3.44600000E+01  7.74900000E+00  2.28000000E+00
  7.15600000E-01  2.14000000E-01  5.97400000E-02  2.31400000E+00  6.45000000E-01
  2.14000000E-01  1.42800000E+00  5.00000000E-01  1.53300000E+04  2.29900000E+03
  5.22400000E+02  1.47300000E+02  4.75500000E+01  1.67600000E+01  6.20700000E+00
  5.22400000E+02  1.47300000E+02  4.75500000E+01  1.67600000E+01  6.20700000E+00
  6.88200000E-01  1.75200000E+00  2.38400000E-01  7.37600000E-02  3.44600000E+01
  7.74900000E+00  2.28000000E+00  7.15600000E-01  2.14000000E-01  5.97400000E-02
  2.31400000E+00  6.45000000E-01  2.14000000E-01  1.42800000E+00  5.00000000E-01
  1.14200000E+04  1.71200000E+03  3.89300000E+02  1.10000000E+02  3.55700000E+01
  1.25400000E+01  4.64400000E+00  3.89300000E+02  1.10000000E+02  3.55700000E+01
  1.25400000E+01  4.64400000E+00  5.11800000E-01  1.29300000E+00  1.78700000E-01
  5.76000000E-02  2.66300000E+01  5.94800000E+00  1.74200000E+00  5.55000000E-01
  1.72500000E-01  4.91000000E-02  1.65400000E+00  4.69000000E-01  1.51000000E-01
  1.09300000E+00  3.64000000E-01  1.53300000E+04  2.29900000E+03  5.22400000E+02
  1.47300000E+02  4.75500000E+01  1.67600000E+01  6.20700000E+00  5.22400000E+02
  1.47300000E+02  4.75500000E+01  1.67600000E+01  6.20700000E+00  6.88200000E-01
  1.75200000E+00  2.38400000E-01  7.37600000E-02  3.44600000E+01  7.74900000E+00
  2.28000000E+00  7.15600000E-01  2.14000000E-01  5.97400000E-02  2.31400000E+00
  6.45000000E-01  2.14000000E-01  1.42800000E+00  5.00000000E-01
Contraction coefficients                   R   N=         119
  2.54948632E-02  1.90362766E-01  8.52162022E-01  1.00000000E+00  1.00000000E+00
  1.00000000E+00  1.00000000E+00  1.00000000E+00  1.00000000E+00  1.00000000E+00
  1.00000000E+00  5.19808943E-04  4.02025621E-03  2.07128267E-02  8.10105536E-02
  2.35962985E-01  4.42653446E-01  3.57064423E-01 -4.42115008E-05 -1.22591041E-03
 -1.05517725E-02 -6.74452633E-02 -1.71198607E-01  1.07329856E+00  1.00000000E+00
  1.00000000E+00  1.00000000E+00  4.11634896E-02  2.57762836E-01  8.02419274E-01
  1.00000000E+00  1.00000000E+00  1.00000000E+00  1.00000000E+00  1.00000000E+00
  1.00000000E+00  1.00000000E+00  1.00000000E+00  5.19808943E-04  4.02025621E-03
  2.07128267E-02  8.10105536E-02  2.35962985E-01  4.42653446E-01  3.57064423E-01
 -4.42115008E-05 -1.22591041E-03 -1.05517725E-02 -6.74452633E-02 -1.71198607E-01
  1.07329856E+00  1.00000000E+00  1.00000000E+00  1.00000000E+00  4.11634896E-02
  2.57762836E-01  8.02419274E-01  1.00000000E+00  1.00000000E+00  1.00000000E+00
  1.00000000E+00  1.00000000E+00  1.00000000E+00  1.00000000E+00  1.00000000E+00
  5.34563860E-04  4.13435660E-03  2.12335358E-02  8.25006224E-02  2.38138871E-01
  4.42551547E-01  3.53757422E-01 -4.89867350E-05 -1.19527323E-03 -1.03490714E-02
 -6.48680190E-02 -1.71552477E-01  1.07289568E+00  1.00000000E+00  1.00000000E+00
  1.00000000E+00  3.98072123E-02  2.49002660E-01  8.10479727E-01  1.00000000E+00
  1.00000000E+00  1.00000000E+00  1.00000000E+00  1.00000000E+00  1.00000000E+00
  1.00000000E+00  1.00000000E+00  5.19808943E-04  4.02025621E-03  2.07128267E-02
  8.10105536E-02  2.35962985E-01  4.42653446E-01  3.57064423E-01 -4.42115008E-05
 -1.22591041E-03 -1.05517725E-02 -6.74452633E-02 -1.71198607E-01  1.07329856E+00
  1.00000000E+00  1.00000000E+00  1.00000000E+00  4.11634896E-02  2.57762836E-01
  8.02419274E-01  1.00000000E+00  1.00000000E+00  1.00000000E+00  1.00000000E+00
  1.00000000E+00  1.00000000E+00  1.00000000E+00  1.00000000E+00
Coordinates of each shell                  R   N=         195
  2.07548166E+00 -1.14958685E+00  0.00000000E+00  2.07548166E+00 -1.14958685E+00
  0.00000000E+00  2.07548166E+00 -1.14958685E+00  0.00000000E+00  2.07548166E+00
 -1.14958685E+00  0.00000000E+00  2.07548166E+00 -1.14958685E+00  0.00000000E+00
  2.07548166E+00 -1.14958685E+00  0.00000000E+00  2.07548166E+00 -1.14958685E+00
  0.00000000E+00  2.07548166E+00 -1.14958685E+00  0.00000000E+00  2.07548166E+00
 -1.14958685E+00  0.00000000E+00  2.47901805E+00  6.68253883E-01  0.00000000E+00
  2.47901805E+00  6.68253883E-01  0.00000000E+00  2.47901805E+00  6.68253883E-01
  0.00000000E+00  2.47901805E+00  6.68253883E-01  0.00000000E+00  2.47901805E+00
  6.68253883E-01  0.00000000E+00  2.47901805E+00  6.68253883E-01  0.00000000E+00
  2.47901805E+00  6.68253883E-01  0.00000000E+00  2.47901805E+00  6.68253883E-01
  0.00000000E+00  2.47901805E+00  6.68253883E-01  0.00000000E+00  2.47901805E+00
  6.68253883E-01  0.00000000E+00  2.47901805E+00  6.68253883E-01  0.00000000E+00
  2.47901805E+00  6.68253883E-01  0.00000000E+00  2.47901805E+00  6.68253883E-01
  0.00000000E+00  2.47901805E+00  6.68253883E-01  0.00000000E+00 -1.68642633E-17
  1.72827685E+00  0.00000000E+00 -1.68642633E-17  1.72827685E+00  0.00000000E+00
 -1.68642633E-17  1.72827685E+00  0.00000000E+00 -1.68642633E-17  1.72827685E+00
  0.00000000E+00 -1.68642633E-17  1.72827685E+00  0.00000000E+00 -1.68642633E-17
  1.72827685E+00  0.00000000E+00 -1.68642633E-17  1.72827685E+00  0.00000000E+00
 -1.68642633E-17  1.72827685E+00  0.00000000E+00 -1.68642633E-17  1.72827685E+00
  0.00000000E+00 -1.68642633E-17  1.72827685E+00  0.00000000E+00 -1.68642633E-17
  1.72827685E+00  0.00000000E+00 -1.68642633E-17  1.72827685E+00  0.00000000E+00
 -1.68642633E-17  1.72827685E+00  0.00000000E+00 -1.68642633E-17  1.72827685E+00
  0.00000000E+00 -1.88654370E+00 -7.52225689E-02  0.00000000E+00 -1.88654370E+00
 -7.52225689E-02  0.00000000E+00 -1.88654370E+00 -7.52225689E-02  0.00000000E+00
 -1.88654370E+00 -7.52225689E-02  0.00000000E+00 -1.88654370E+00 -7.52225689E-02
  0.00000000E+00 -1.88654370E+00 -7.52225689E-02  0.00000000E+00 -1.88654370E+00
 -7.52225689E-02  0.00000000E+00 -1.88654370E+00 -7.52225689E-02  0.00000000E+00
 -1.88654370E+00 -7.52225689E-02  0.00000000E+00 -1.88654370E+00 -7.52225689E-02
  0.00000000E+00 -1.88654370E+00 -7.52225689E-02  0.00000000E+00 -1.88654370E+00
 -7.52225689E-02  0.00000000E+00 -1.88654370E+00 -7.52225689E-02  0.00000000E+00
 -1.88654370E+00 -7.52225689E-02  0.00000000E+00 -1.08772752E+00 -2.18701263E+00
  0.00000000E+00 -1.08772752E+00 -2.18701263E+00  0.00000000E+00 -1.08772752E+00
 -2.18701263E+00  0.00000000E+00 -1.08772752E+00 -2.18701263E+00  0.00000000E+00
 -1.08772752E+00 -2.18701263E+00  0.00000000E+00 -1.08772752E+00 -2.18701263E+00
  0.00000000E+00 -1.08772752E+00 -2.18701263E+00  0.00000000E+00 -1.08772752E+00
 -2.18701263E+00  0.00000000E+00 -1.08772752E+00 -2.18701263E+00  0.00000000E+00
 -1.08772752E+00 -2.18701263E+00  0.00000000E+00 -1.08772752E+00 -2.18701263E+00
  0.00000000E+00 -1.08772752E+00 -2.18701263E+00  0.00000000E+00 -1.08772752E+00
 -2.18701263E+00  0.00000000E+00 -1.08772752E+00 -2.18701263E+00  0.00000000E+00
Num ILSW                                   I              100
ILSW                                       I   N=         100
           0           0           0           0           2           0
           0           0           0           0           0          -1
           5           0           0           0           2           0
           0           0           0           0           1           0
           1           0           0           0           0           0
           0           0      100000           0          -1           0
           0           0           0           0           0           0
           0           0           0           1           1           0
           0 -2000000000           1           0           0           0
           0           0           4          52           0           0
           0           0           0           0           0           0
           0           0           0           5           4           1
           0           0           0           0           0           0
           0           0           0           0           0           0
           0           0           0           0           0           0
           0           0           0           0           0           0
           0           0           0           0
Num RLSW                                   I               52
RLSW                                       R   N=          52
  1.00000000E+00  1.00000000E+00  1.00000000E+00  1.00000000E+00  1.00000000E+00
  0.00000000E+00  0.00000000E+00  1.00000000E+00  0.00000000E+00  0.00000000E+00
  0.00000000E+00  0.00000000E+00  1.00000000E+00  0.00000000E+00  0.00000000E+00
  0.00000000E+00  0.00000000E+00  1.00000000E+00  0.00000000E+00  0.00000000E+00
  0.00000000E+00  0.00000000E+00  1.00000000E+00  0.00000000E+00  0.00000000E+00
  0.00000000E+00  0.00000000E+00  1.00000000E+00  0.00000000E+00  0.00000000E+00
  0.00000000E+00  0.00000000E+00  1.00000000E+00  0.00000000E+00  0.00000000E+00
  0.00000000E+00  0.00000000E+00  0.00000000E+00  1.00000000E+00  1.00000000E+00
  0.00000000E+00  1.00000000E+00  0.00000000E+00  0.00000000E+00  0.00000000E+00
  0.00000000E+00  0.00000000E+00  0.00000000E+00  0.00000000E+00  0.00000000E+00
  0.00000000E+00  0.00000000E+00
MxBond                                     I                2
NBond                                      I   N=           5
           1           2           2           2           1
IBond                                      I   N=          10
           2           0           1           3           2           4
           3           5           4           0
RBond                                      R   N=          10
  1.00000000E+00  0.00000000E+00  1.00000000E+00  1.00000000E+00  1.00000000E+00
  1.00000000E+00  1.00000000E+00  2.00000000E+00  2.00000000E+00  0.00000000E+00
Virial Ratio                               R      2.002185404451975E+00
SCF Energy                                 R     -2.795061635617272E+02
MP2 Energy                                 R     -2.804550569754804E+02
Total Energy                               R     -2.804550569754804E+02
Post-SCF wavefunction norm                 R      1.583660729035826E+00
RMS Force                                  R      2.979886323164870E-03
RMS Density                                R      4.552017023919177E-09
NImag                                      I                0
Job Status                                 I                1
Nuclear derivative order                   I                2
External E-field                           R   N=          35
  0.00000000E+00  0.00000000E+00  0.00000000E+00  0.00000000E+00  0.00000000E+00
  0.00000000E+00  0.00000000E+00  0.00000000E+00  0.00000000E+00  0.00000000E+00
  0.00000000E+00  0.00000000E+00  0.00000000E+00  0.00000000E+00  0.00000000E+00
  0.00000000E+00  0.00000000E+00  0.00000000E+00  0.00000000E+00  0.00000000E+00
  0.00000000E+00  0.00000000E+00  0.00000000E+00  0.00000000E+00  0.00000000E+00
  0.00000000E+00  0.00000000E+00  0.00000000E+00  0.00000000E+00  0.00000000E+00
  0.00000000E+00  0.00000000E+00  0.00000000E+00  0.00000000E+00  0.00000000E+00
IOpCl                                      I                0
IROHF                                      I                0
Alpha Orbital Energies                     R   N=         207
 -2.07184253E+01 -2.06865697E+01 -2.06673726E+01 -1.58268855E+01 -1.64602119E+00
 -1.50324065E+00 -1.29319711E+00 -9.59922023E-01 -8.36529628E-01 -7.59208417E-01
 -7.40222467E-01 -6.35425049E-01 -6.17513222E-01 -6.17460767E-01 -5.06963802E-01
 -4.96757119E-01  3.51819174E-02  5.94687357E-02  9.51194189E-02  1.00163583E-01
  1.19681787E-01  1.22528370E-01  1.49724108E-01  1.52285653E-01  1.77322784E-01
  1.80304725E-01  1.90044662E-01  2.10896790E-01  2.16659569E-01  2.42409502E-01
  2.46359854E-01  2.69948073E-01  3.14355026E-01  3.18284381E-01  3.37848876E-01
  3.44470219E-01  3.47989942E-01  3.92493982E-01  4.51316548E-01  4.88696192E-01
  5.05785253E-01  5.17755333E-01  5.46368305E-01  5.59835145E-01  5.99070280E-01
  6.19324307E-01  6.37729497E-01  6.89981716E-01  7.16651444E-01  7.24671618E-01
  7.48001030E-01  7.62151641E-01  7.66931590E-01  7.95877581E-01  8.08526875E-01
  8.39307798E-01  8.43177648E-01  8.52603229E-01  8.85861340E-01  9.09097089E-01
  9.34821350E-01  9.46350978E-01  9.53648560E-01  1.01890385E+00  1.03298889E+00
  1.06684585E+00  1.07246015E+00  1.09782604E+00  1.14741994E+00  1.15723382E+00
  1.16693021E+00  1.22444273E+00  1.22799680E+00  1.24580343E+00  1.35613232E+00
  1.35664093E+00  1.37393897E+00  1.46704535E+00  1.48731314E+00  1.50264219E+00
  1.54366311E+00  1.59796378E+00  1.60423986E+00  1.60674298E+00  1.62963939E+00
  1.69610328E+00  1.74132487E+00  1.80060254E+00  1.83148577E+00  1.88935846E+00
  1.89411661E+00  1.93072348E+00  1.97806901E+00  1.99048199E+00  2.05485231E+00
  2.12788247E+00  2.13078147E+00  2.16743212E+00  2.18971257E+00  2.24570201E+00
  2.25940962E+00  2.29377102E+00  2.35265997E+00  2.37220535E+00  2.38530503E+00
  2.40350959E+00  2.43317965E+00  2.46908411E+00  2.47908342E+00  2.53287799E+00
  2.53934209E+00  2.55470548E+00  2.56093913E+00  2.62135241E+00  2.63194544E+00
  2.67701370E+00  2.68028757E+00  2.75333962E+00  2.81085118E+00  2.82540012E+00
  2.83804005E+00  2.91954721E+00  2.99786492E+00  3.04509349E+00  3.04739753E+00
  3.11246158E+00  3.12032420E+00  3.17844734E+00  3.21385115E+00  3.31224573E+00
  3.32969023E+00  3.36320392E+00  3.47328882E+00  3.67929841E+00  3.87036017E+00
  3.93800737E+00  4.18923119E+00  4.23127115E+00  4.23394011E+00  4.27165035E+00
  4.37530949E+00  4.49865425E+00  4.54969443E+00  4.55240074E+00  4.59881897E+00
  4.69626257E+00  4.81188370E+00  4.89215852E+00  4.91636491E+00  4.93792654E+00
  5.00321992E+00  5.00666240E+00  5.10569341E+00  5.13245612E+00  5.18408456E+00
  5.25374495E+00  5.26275644E+00  5.32126986E+00  5.34956367E+00  5.36923237E+00
  5.55279504E+00  5.64693568E+00  5.71279471E+00  5.89476051E+00  5.99153349E+00
  6.26583189E+00  6.29540728E+00  6.36358384E+00  6.37772873E+00  6.59783926E+00
  6.66116867E+00  6.67213090E+00  6.69764398E+00  6.73009057E+00  6.78308298E+00
  6.80155448E+00  6.87039939E+00  6.96590413E+00  7.02172709E+00  7.06634544E+00
  7.08000590E+00  7.13532735E+00  7.17437432E+00  7.19281153E+00  7.20464617E+00
  7.24792539E+00  7.25120274E+00  7.27360910E+00  7.35051925E+00  7.39130470E+00
  7.43463784E+00  7.44238134E+00  7.46486310E+00  7.56139294E+00  7.66351395E+00
  7.68796006E+00  7.79600970E+00  7.88432515E+00  7.95398198E+00  8.07919431E+00
  8.31111044E+00  8.49759727E+00  8.65273472E+00  1.36252875E+01  1.47638025E+01
  1.51124973E+01  1.58117517E+01
Alpha MO coefficients                      R   N=       42849
  6.27908985E-05  1.50955126E-05 -1.11451740E-03  1.68430454E-05 -5.08141360E-05
  4.17043266E-05  0.00000000E+00 -9.77829809E-05 -2.70833189E-04  0.00000000E+00
 -4.16424351E-06 -3.53788386E-04  0.00000000E+00  4.10044905E-05  0.00000000E+00
  0.00000000E+00 -2.50989845E-05  1.13255331E-05  2.32696565E-04  0.00000000E+00
  0.00000000E+00 -4.45322509E-05 -2.16114454E-04  3.10347965E-03 -9.58818638E-05
 -9.66695977E-05  3.49105874E-03  2.47983433E-03  1.00980646E-04 -5.45362175E-05
  0.00000000E+00 -7.20048781E-04  2.95047108E-04  0.00000000E+00 -1.93845382E-03
  1.13798261E-03  0.00000000E+00 -5.38930639E-04  3.90406640E-05  0.00000000E+00
  2.03807874E-05  0.00000000E+00  0.00000000E+00 -8.39816274E-06  4.41313275E-05
 -4.40674350E-04  0.00000000E+00  0.00000000E+00  4.18903451E-04 -6.68630609E-04
 -3.61560485E-04  0.00000000E+00  0.00000000E+00  5.30514829E-04 -7.53973683E-04
  0.00000000E+00  7.29253832E-05 -5.33577926E-05  0.00000000E+00  0.00000000E+00
 -2.57747262E-05  1.09220408E-04  0.00000000E+00  2.08213245E-04 -5.02901298E-05
  0.00000000E+00  0.00000000E+00 -1.63337935E-04  3.01976119E-04  9.76900215E-01
 -9.17722130E-03  4.34118009E-02  4.77859454E-04 -2.20423591E-03  4.26426166E-04
 -2.15143646E-03  0.00000000E+00 -2.97757454E-04  2.25667405E-03  0.00000000E+00
 -2.28668074E-03 -4.81023587E-04  0.00000000E+00 -2.21519784E-04  9.68736075E-05
  0.00000000E+00  6.35438410E-06  0.00000000E+00  0.00000000E+00 -5.55251676E-06
  3.81660064E-05  8.25763680E-04  0.00000000E+00  0.00000000E+00 -4.77276018E-04
 -1.63346437E-04 -1.46815047E-04  0.00000000E+00  0.00000000E+00 -5.55634732E-04
  3.53635335E-04  0.00000000E+00 -6.70696516E-06 -8.01118374E-05  0.00000000E+00
  0.00000000E+00 -8.44637412E-06  4.73958600E-05  0.00000000E+00  9.04335246E-05
  3.16787146E-06  0.00000000E+00  0.00000000E+00 -3.25539469E-04  3.86911288E-04
  1.04536275E-04  4.57084209E-04 -3.24585693E-04 -8.41779091E-04  3.40058107E-04
 -4.64953425E-05 -9.91091071E-05  0.00000000E+00  7.04263602E-04  1.10326921E-03
  0.00000000E+00 -7.12446912E-04 -5.60014382E-04  0.00000000E+00  2.00869912E-04
  2.16261858E-04  0.00000000E+00 -5.26659123E-05  0.00000000E+00  0.00000000E+00
  1.82542214E-05  9.42318842E-05 -4.16717440E-04  0.00000000E+00  0.00000000E+00
  6.39128499E-05  1.07059148E-03  2.62068875E-05  0.00000000E+00  0.00000000E+00
 -2.88301799E-04  3.58768444E-05  0.00000000E+00 -7.98931750E-05 -1.11947082E-04
  0.00000000E+00  0.00000000E+00 -9.50101534E-05  1.07197763E-04  0.00000000E+00
 -1.29794875E-04  4.22364061E-05  0.00000000E+00  0.00000000E+00  1.93261904E-05
  5.10146845E-04 -7.33346354E-04  6.81478168E-05 -6.75664449E-05  2.75050172E-04
 -1.80351770E-04 -2.70929192E-05 -3.90719320E-05  0.00000000E+00  1.58656451E-04
  2.55696230E-04  0.00000000E+00  4.65214814E-04  3.03802146E-04  0.00000000E+00
 -2.34319625E-04 -6.12274401E-05  0.00000000E+00 -1.42278031E-05  0.00000000E+00
  0.00000000E+00  1.57844676E-06  1.83569975E-05  6.37765143E-06  0.00000000E+00
  0.00000000E+00 -1.52841600E-04 -1.40694867E-05 -8.12799152E-06  0.00000000E+00
  0.00000000E+00 -1.64482975E-04 -7.90741241E-05  0.00000000E+00 -4.97977498E-06
 -6.51286271E-06  0.00000000E+00  0.00000000E+00 -1.93662379E-05  1.12268200E-05
  0.00000000E+00  3.91909420E-05  6.36498853E-05  0.00000000E+00  0.00000000E+00
  1.69600094E-04 -1.01078808E-04  3.62643440E-05  7.33542521E-05 -7.99102083E-05
 -2.93316348E-05  2.62299049E-05  1.75486365E-05  0.00000000E+00  2.18220810E-04
  3.17815480E-05  0.00000000E+00  1.08423068E-04  1.12543340E-05  0.00000000E+00
  8.70143754E-06  0.00000000E+00  0.00000000E+00 -5.18611954E-06  2.21528912E-05
  1.55617562E-05  0.00000000E+00  0.00000000E+00 -7.49964640E-05  7.63904818E-05
 -2.70817295E-04  3.86488202E-05 -1.46042768E-05 -5.33816104E-04  1.52740690E-04
  7.03665818E-06  1.32722353E-05  0.00000000E+00 -3.24186987E-06 -4.60193810E-05
  0.00000000E+00  1.78929151E-04  1.52727031E-04  0.00000000E+00 -4.08445593E-05
  5.32430372E-05  0.00000000E+00 -2.78531471E-06  0.00000000E+00  0.00000000E+00
 -7.74974648E-06 -9.88323534E-06  2.79991087E-05  0.00000000E+00  0.00000000E+00
  4.98183375E-05  1.06271096E-04  6.83223042E-05  0.00000000E+00  0.00000000E+00
 -3.10523591E-05 -8.39715952E-05  0.00000000E+00  7.35513964E-06  9.47084190E-06
  0.00000000E+00  0.00000000E+00 -5.07654660E-07 -2.76456901E-05  0.00000000E+00
 -1.64221304E-05 -4.12833160E-05  0.00000000E+00  0.00000000E+00 -1.01497092E-06
 -1.61525448E-05  7.65017801E-04  2.50143814E-05 -1.33858028E-05  2.79374463E-04
 -4.11129905E-04  1.51148801E-05  2.34520625E-05  0.00000000E+00 -6.04752309E-05
 -1.40092136E-04  0.00000000E+00  1.19855641E-04 -1.82195729E-04  0.00000000E+00
 -1.59658384E-04  1.41229125E-04  0.00000000E+00 -4.27661189E-06  0.00000000E+00
  0.00000000E+00 -3.18924396E-05 -8.50081491E-06 -4.59891505E-05  0.00000000E+00
  0.00000000E+00  9.79503976E-05  1.10087785E-04 -6.13487598E-05  0.00000000E+00
  0.00000000E+00  4.80365186E-05  3.33832384E-05  0.00000000E+00  1.74482047E-06
  3.42673520E-07  0.00000000E+00  0.00000000E+00 -1.02343873E-05 -4.42029750E-06
  0.00000000E+00  5.09640583E-06 -2.32480756E-05  0.00000000E+00  0.00000000E+00
  8.56585460E-05 -1.61806995E-04  2.36343440E-04  1.34971955E-03 -1.49724739E-04
 -7.21368808E-04  9.10439441E-04  6.24096242E-05 -7.24241234E-05  0.00000000E+00
  6.01677907E-04 -2.05528258E-03  0.00000000E+00  1.05618825E-04  4.81552838E-04
  0.00000000E+00  1.95383142E-04 -2.98526184E-04  0.00000000E+00 -1.27047894E-04
  0.00000000E+00  0.00000000E+00 -2.00547763E-04 -1.64286754E-04 -4.63538700E-04
  0.00000000E+00  0.00000000E+00 -5.65075489E-04 -9.23533252E-04 -4.33969442E-05
  0.00000000E+00  0.00000000E+00  6.62983343E-05  1.18499903E-04  0.00000000E+00
  7.11353724E-06  3.49348815E-05  0.00000000E+00  0.00000000E+00 -2.37799242E-05
 -4.76169499E-06  0.00000000E+00 -1.40073233E-04  1.60661379E-04  0.00000000E+00
  0.00000000E+00 -3.04924259E-04 -3.65936246E-05  9.76642172E-01 -9.88058545E-03
  4.35822374E-02  3.69276279E-03 -8.98161190E-04 -4.89671901E-04  2.11706120E-03
  0.00000000E+00  5.64521687E-04 -2.48526338E-03  0.00000000E+00 -1.03597279E-04
  8.36954103E-04  0.00000000E+00  9.92937080E-05 -6.42689468E-05  0.00000000E+00
 -1.94985606E-04  0.00000000E+00  0.00000000E+00 -7.26027549E-05 -4.32849673E-05
  4.07934606E-04  0.00000000E+00  0.00000000E+00  8.32110346E-04  5.12006886E-04
 -2.05485098E-04  0.00000000E+00  0.00000000E+00 -1.57175705E-04 -4.19600575E-05
  0.00000000E+00 -6.29363233E-06  7.00031384E-05  0.00000000E+00  0.00000000E+00
 -2.77373946E-05  9.42153230E-06  0.00000000E+00 -8.92107058E-05  8.97041567E-05
  0.00000000E+00  0.00000000E+00 -1.77505810E-04  1.91146483E-04  3.69518392E-04
  2.01996326E-03  1.43003150E-03 -1.47582330E-05  5.44898848E-05  2.67741754E-04
  0.00000000E+00  3.56635643E-04  1.01971194E-03  0.00000000E+00 -1.43052894E-04
  2.33577100E-04  0.00000000E+00 -2.49857634E-05  0.00000000E+00  0.00000000E+00
  3.43502768E-05 -3.09470999E-05 -2.19344862E-04  0.00000000E+00  0.00000000E+00
 -3.45799732E-04  4.13147974E-04  9.76833414E-01 -9.18809812E-03  4.34674717E-02
  1.06655386E-04 -1.90985580E-03 -2.04898695E-03 -8.15228189E-04  0.00000000E+00
  2.09147144E-03  7.53200993E-04  0.00000000E+00 -3.74510513E-04  6.36191355E-04
  0.00000000E+00  2.22712887E-04 -3.02220991E-04  0.00000000E+00  3.00264522E-05
  0.00000000E+00  0.00000000E+00 -7.50356923E-05  6.52773096E-05  7.66320826E-04
  0.00000000E+00  0.00000000E+00 -2.08198808E-04  3.53961637E-04 -2.41190177E-04
  0.00000000E+00  0.00000000E+00  3.25195785E-04 -8.03840670E-07  0.00000000E+00
 -8.11769024E-05  1.58068875E-06  0.00000000E+00  0.00000000E+00  1.48218502E-05