 Entering Gaussian System, Link 0=g16
 Input=hoono_a3_107p3091.gjf
 Output=hoono_a3_107p3091.log
 Initial command:
 /sw/contrib/gaussian/g16/B01/g16/l1.exe "/scr/Gau-4309.inp" -scrdir="/scr/"
 Entering Link 1 = /sw/contrib/gaussian/g16/B01/g16/l1.exe PID=      4310.
  
 Copyright (c) 1988-2017, Gaussian, Inc.  All Rights Reserved.
  
 This is part of the Gaussian(R) 16 program.  It is based on
 the Gaussian(R) 09 system (copyright 2009, Gaussian, Inc.),
 the Gaussian(R) 03 system (copyright 2003, Gaussian, Inc.),
 the Gaussian(R) 98 system (copyright 1998, Gaussian, Inc.),
 the Gaussian(R) 94 system (copyright 1995, Gaussian, Inc.),
 the Gaussian 92(TM) system (copyright 1992, Gaussian, Inc.),
 the Gaussian 90(TM) system (copyright 1990, Gaussian, Inc.),
 the Gaussian 88(TM) system (copyright 1988, Gaussian, Inc.),
 the Gaussian 86(TM) system (copyright 1986, Carnegie Mellon
 University), and the Gaussian 82(TM) system (copyright 1983,
 Carnegie Mellon University). Gaussian is a federally registered
 trademark of Gaussian, Inc.
  
 This software contains proprietary and confidential information,
 including trade secrets, belonging to Gaussian, Inc.
  
 This software is provided under written license and may be
 used, copied, transmitted, or stored only in accord with that
 written license.
  
 The following legend is applicable only to US Government
 contracts under FAR:
  
                    RESTRICTED RIGHTS LEGEND
  
 Use, reproduction and disclosure by the US Government is
 subject to restrictions as set forth in subparagraphs (a)
 and (c) of the Commercial Computer Software - Restricted
 Rights clause in FAR 52.227-19.
  
 Gaussian, Inc.
 340 Quinnipiac St., Bldg. 40, Wallingford CT 06492
  
  
 ---------------------------------------------------------------
 Warning -- This program may not be used in any manner that
 competes with the business of Gaussian, Inc. or will provide
 assistance to any competitor of Gaussian, Inc.  The licensee
 of this program is prohibited from giving any competitor of
 Gaussian, Inc. access to this program.  By using this program,
 the user acknowledges that Gaussian, Inc. is engaged in the
 business of creating and licensing software in the field of
 computational chemistry and represents and warrants to the
 licensee that it is not a competitor of Gaussian, Inc. and that
 it will not use this program in any manner prohibited above.
 ---------------------------------------------------------------
  

 Cite this work as:
 Gaussian 16, Revision B.01,
 M. J. Frisch, G. W. Trucks, H. B. Schlegel, G. E. Scuseria, 
 M. A. Robb, J. R. Cheeseman, G. Scalmani, V. Barone, 
 G. A. Petersson, H. Nakatsuji, X. Li, M. Caricato, A. V. Marenich, 
 J. Bloino, B. G. Janesko, R. Gomperts, B. Mennucci, H. P. Hratchian, 
 J. V. Ortiz, A. F. Izmaylov, J. L. Sonnenberg, D. Williams-Young, 
 F. Ding, F. Lipparini, F. Egidi, J. Goings, B. Peng, A. Petrone, 
 T. Henderson, D. Ranasinghe, V. G. Zakrzewski, J. Gao, N. Rega, 
 G. Zheng, W. Liang, M. Hada, M. Ehara, K. Toyota, R. Fukuda, 
 J. Hasegawa, M. Ishida, T. Nakajima, Y. Honda, O. Kitao, H. Nakai, 
 T. Vreven, K. Throssell, J. A. Montgomery, Jr., J. E. Peralta, 
 F. Ogliaro, M. J. Bearpark, J. J. Heyd, E. N. Brothers, K. N. Kudin, 
 V. N. Staroverov, T. A. Keith, R. Kobayashi, J. Normand, 
 K. Raghavachari, A. P. Rendell, J. C. Burant, S. S. Iyengar, 
 J. Tomasi, M. Cossi, J. M. Millam, M. Klene, C. Adamo, R. Cammi, 
 J. W. Ochterski, R. L. Martin, K. Morokuma, O. Farkas, 
 J. B. Foresman, and D. J. Fox, Gaussian, Inc., Wallingford CT, 2016.
 
 ******************************************
 Gaussian 16:  ES64L-G16RevB.01 20-Dec-2017
                21-Feb-2022 
 ******************************************
 %nproc=28
 Will use up to   28 processors via shared memory.
 %mem=120GB
 %chk=hoono_a3_107p3091.chk
 ---------------------------------------
 #p freq mp2/aug-cc-pvtz density=current
 ---------------------------------------
 1/10=4,30=1,38=1/1,3;
 2/12=2,17=6,18=5,40=1/2;
 3/5=16,6=1,7=10,11=9,25=1,30=1,71=2,140=1/1,2,3;
 4//1;
 5/5=2,38=5,98=1/2;
 8/6=3,8=1,10=1,19=11,30=-1/1;
 9/15=3,16=-3/6;
 11/6=1,8=1,15=11,17=12,24=-1,27=1,28=-2,29=300,32=6,42=3/1,2,10;
 10/6=2,21=1/2;
 8/6=4,8=1,10=1,19=11,30=-1/11,4;
 10/5=1,20=4/2;
 11/12=2,14=11,16=1,17=2,28=-2,42=3,76=2/2,10,12;
 6/7=2,8=2,9=2,10=2,22=-1/1;
 7/8=1,10=1,12=2,25=1,44=2/1,2,3,16;
 1/10=4,30=1/3;
 99//99;
 Leave Link    1 at Mon Feb 21 20:56:04 2022, MaxMem= 16106127360 cpu:               3.6 elap:               0.1
 (Enter /sw/contrib/gaussian/g16/B01/g16/l101.exe)
 -----
 title
 -----
 Symbolic Z-matrix:
 Charge =  0 Multiplicity = 1
 H
 O                    1    r1
 O                    2    r2       1    a1
 N                    3    r3       2    a2       1    d1       0
 O                    4    r4       3    a3       2    d2       0
       Variables:
  r1                    0.96898                  
  r2                    1.45492                  
  r3                    1.45878                  
  r4                    1.17073                  
  a1                   97.59495                  
  a2                  102.29752                  
  a3                  107.30919                  
  d1                  180.                       
  d2                  180.                       
 
 ITRead=  0  0  0  0  0
 MicOpt= -1 -1 -1 -1 -1
 NAtoms=      5 NQM=        5 NQMF=       0 NMMI=      0 NMMIF=      0
                NMic=       0 NMicF=      0.
                    Isotopes and Nuclear Properties:
 (Nuclear quadrupole moments (NQMom) in fm**2, nuclear magnetic moments (NMagM)
  in nuclear magnetons)

  Atom         1           2           3           4           5
 IAtWgt=           1          16          16          14          16
 AtmWgt=   1.0078250  15.9949146  15.9949146  14.0030740  15.9949146
 NucSpn=           1           0           0           2           0
 AtZEff=  -0.0000000  -0.0000000  -0.0000000  -0.0000000  -0.0000000
 NQMom=    0.0000000   0.0000000   0.0000000   2.0440000   0.0000000
 NMagM=    2.7928460   0.0000000   0.0000000   0.4037610   0.0000000
 AtZNuc=   1.0000000   8.0000000   8.0000000   7.0000000   8.0000000
 Leave Link  101 at Mon Feb 21 20:56:04 2022, MaxMem= 16106127360 cpu:               4.2 elap:               0.2
 (Enter /sw/contrib/gaussian/g16/B01/g16/l103.exe)

 GradGradGradGradGradGradGradGradGradGradGradGradGradGradGradGradGradGrad
 Berny optimization.
 Initialization pass.
                       ----------------------------
                       !    Initial Parameters    !
                       ! (Angstroms and Degrees)  !
 ----------------------                            ----------------------
 !      Name          Value   Derivative information (Atomic Units)     !
 ------------------------------------------------------------------------
 !       r1          0.969    calculate D2E/DX2 analytically            !
 !       r2          1.4549   calculate D2E/DX2 analytically            !
 !       r3          1.4588   calculate D2E/DX2 analytically            !
 !       r4          1.1707   calculate D2E/DX2 analytically            !
 !       a1         97.5949   calculate D2E/DX2 analytically            !
 !       a2        102.2975   calculate D2E/DX2 analytically            !
 !       a3        107.3092   calculate D2E/DX2 analytically            !
 !       d1        180.0      calculate D2E/DX2 analytically            !
 !       d2        180.0      calculate D2E/DX2 analytically            !
 ------------------------------------------------------------------------
 Trust Radius=3.00D-01 FncErr=1.00D-07 GrdErr=1.00D-07 EigMax=2.50D+02 EigMin=1.00D-04
 Number of steps in this run=      2 maximum allowed number of steps=      2.
 GradGradGradGradGradGradGradGradGradGradGradGradGradGradGradGradGradGrad

 Leave Link  103 at Mon Feb 21 20:56:04 2022, MaxMem= 16106127360 cpu:               1.6 elap:               0.1
 (Enter /sw/contrib/gaussian/g16/B01/g16/l202.exe)
                          Input orientation:                          
 ---------------------------------------------------------------------
 Center     Atomic      Atomic             Coordinates (Angstroms)
 Number     Number       Type             X           Y           Z
 ---------------------------------------------------------------------
      1          1           0        0.000000    0.000000    0.000000
      2          8           0        0.000000    0.000000    0.968976
      3          8           0        1.442156    0.000000    1.161271
      4          7           0        1.561752    0.000000    2.615144
      5          8           0        2.704256    0.000000    2.870663
 ---------------------------------------------------------------------
                    Distance matrix (angstroms):
                    1          2          3          4          5
     1  H    0.000000
     2  O    0.968976   0.000000
     3  O    1.851584   1.454919   0.000000
     4  N    3.045989   2.269127   1.458784   0.000000
     5  O    3.943818   3.305966   2.124834   1.170729   0.000000
 Stoichiometry    HNO3
 Framework group  CS[SG(HNO3)]
 Deg. of freedom     7
 Full point group                 CS      NOp   2
 Largest Abelian subgroup         CS      NOp   2
 Largest concise Abelian subgroup C1      NOp   1
                         Standard orientation:                         
 ---------------------------------------------------------------------
 Center     Atomic      Atomic             Coordinates (Angstroms)
 Number     Number       Type             X           Y           Z
 ---------------------------------------------------------------------
      1          1           0        1.547232    1.681175    0.000000
      2          8           0        1.453968    0.716698    0.000000
      3          8           0        0.000000    0.664102    0.000000
      4          7           0       -0.258975   -0.771510    0.000000
      5          8           0       -1.420769   -0.915876    0.000000
 ---------------------------------------------------------------------
 Rotational constants (GHZ):          54.4615603           5.0557237           4.6262629
 Leave Link  202 at Mon Feb 21 20:56:04 2022, MaxMem= 16106127360 cpu:               0.7 elap:               0.1
 (Enter /sw/contrib/gaussian/g16/B01/g16/l301.exe)
 Standard basis: Aug-CC-pVTZ (5D, 7F)
 Ernie: Thresh=  0.10000D-02 Tol=  0.10000D-05 Strict=F.
 Ernie:  12 primitive shells out of 131 were deleted.
 There are   166 symmetry adapted cartesian basis functions of A'  symmetry.
 There are    79 symmetry adapted cartesian basis functions of A"  symmetry.
 There are   136 symmetry adapted basis functions of A'  symmetry.
 There are    71 symmetry adapted basis functions of A"  symmetry.
   207 basis functions,   315 primitive gaussians,   245 cartesian basis functions
    16 alpha electrons       16 beta electrons
       nuclear repulsion energy       117.0919291384 Hartrees.
 IExCor=    0 DFT=F Ex=HF Corr=None ExCW=0 ScaHFX=  1.000000
 ScaDFX=  1.000000  1.000000  1.000000  1.000000 ScalE2=  1.000000  1.000000
 IRadAn=      5 IRanWt=     -1 IRanGd=            0 ICorTp=0 IEmpDi=  4
 NAtoms=    5 NActive=    5 NUniq=    5 SFac= 1.00D+00 NAtFMM=   60 NAOKFM=F Big=F
 Integral buffers will be    131072 words long.
 Raffenetti 1 integral format.
 Two-electron integral symmetry is turned on.
 Leave Link  301 at Mon Feb 21 20:56:04 2022, MaxMem= 16106127360 cpu:               1.8 elap:               0.1
 (Enter /sw/contrib/gaussian/g16/B01/g16/l302.exe)
 NPDir=0 NMtPBC=     1 NCelOv=     1 NCel=       1 NClECP=     1 NCelD=      1
         NCelK=      1 NCelE2=     1 NClLst=     1 CellRange=     0.0.
 One-electron integrals computed using PRISM.
 One-electron integral symmetry used in STVInt
 NBasis=   207 RedAO= T EigKep=  1.81D-04  NBF=   136    71
 NBsUse=   207 1.00D-06 EigRej= -1.00D+00 NBFU=   136    71
 Leave Link  302 at Mon Feb 21 20:56:05 2022, MaxMem= 16106127360 cpu:               5.8 elap:               0.2
 (Enter /sw/contrib/gaussian/g16/B01/g16/l303.exe)
 DipDrv:  MaxL=1.
 Leave Link  303 at Mon Feb 21 20:56:05 2022, MaxMem= 16106127360 cpu:               1.9 elap:               0.1
 (Enter /sw/contrib/gaussian/g16/B01/g16/l401.exe)
 ExpMin= 2.53D-02 ExpMax= 1.53D+04 ExpMxC= 5.22D+02 IAcc=3 IRadAn=         5 AccDes= 0.00D+00
 Harris functional with IExCor=  205 and IRadAn=       5 diagonalized for initial guess.
 HarFok:  IExCor=  205 AccDes= 0.00D+00 IRadAn=         5 IDoV= 1 UseB2=F ITyADJ=14
 ICtDFT=  3500011 ScaDFX=  1.000000  1.000000  1.000000  1.000000
 FoFCou: FMM=F IPFlag=           0 FMFlag=      100000 FMFlg1=           0
         NFxFlg=           0 DoJE=T BraDBF=F KetDBF=T FulRan=T
         wScrn=  0.000000 ICntrl=       500 IOpCl=  0 I1Cent=   200000004 NGrid=           0
         NMat0=    1 NMatS0=      1 NMatT0=    0 NMatD0=    1 NMtDS0=    0 NMtDT0=    0
 Petite list used in FoFCou.
 Harris En= -279.628532618178    
 JPrj=0 DoOrth=F DoCkMO=F.
 Initial guess orbital symmetries:
       Occupied  (A') (A') (A') (A') (A') (A') (A') (A') (A') (A')
                 (A") (A') (A') (A") (A") (A')
       Virtual   (A") (A') (A') (A') (A') (A') (A") (A') (A') (A')
                 (A") (A') (A") (A') (A') (A") (A') (A") (A') (A')
                 (A') (A') (A') (A') (A') (A") (A') (A") (A') (A')
                 (A") (A') (A") (A') (A') (A") (A') (A") (A') (A')
                 (A") (A') (A") (A') (A") (A') (A') (A') (A") (A")
                 (A') (A') (A') (A') (A") (A') (A") (A') (A") (A')
                 (A') (A') (A") (A') (A') (A") (A') (A") (A') (A')
                 (A") (A') (A') (A") (A") (A') (A') (A") (A') (A')
                 (A') (A") (A') (A") (A") (A') (A') (A") (A') (A')
                 (A') (A") (A') (A") (A') (A") (A") (A') (A') (A')
                 (A") (A') (A") (A') (A') (A') (A") (A') (A") (A')
                 (A") (A') (A') (A') (A') (A") (A') (A') (A") (A')
                 (A") (A') (A') (A") (A") (A') (A') (A") (A") (A')
                 (A') (A') (A') (A") (A") (A') (A") (A') (A') (A')
                 (A') (A") (A") (A') (A') (A") (A') (A') (A') (A')
                 (A") (A') (A') (A") (A') (A") (A') (A") (A') (A")
                 (A') (A") (A') (A") (A') (A") (A") (A") (A') (A')
                 (A") (A') (A") (A') (A") (A') (A") (A") (A') (A')
                 (A') (A') (A') (A') (A') (A') (A') (A') (A') (A')
                 (A')
 The electronic state of the initial guess is 1-A'.
 Leave Link  401 at Mon Feb 21 20:56:05 2022, MaxMem= 16106127360 cpu:               7.3 elap:               0.3
 (Enter /sw/contrib/gaussian/g16/B01/g16/l502.exe)
 Keep R1 ints in memory in symmetry-blocked form, NReq=348887737.
 FoFCou: FMM=F IPFlag=           0 FMFlag=           0 FMFlg1=           0
         NFxFlg=           0 DoJE=F BraDBF=F KetDBF=F FulRan=T
         wScrn=  0.000000 ICntrl=       600 IOpCl=  0 I1Cent=           0 NGrid=           0
         NMat0=    1 NMatS0=  21528 NMatT0=    0 NMatD0=    1 NMtDS0=    0 NMtDT0=    0
 Petite list used in FoFCou.
 Closed shell SCF:
 Using DIIS extrapolation, IDIIS=  1040.
 NGot= 16106127360 LenX= 15988850015 LenY= 15988789549
 Requested convergence on RMS density matrix=1.00D-08 within 128 cycles.
 Requested convergence on MAX density matrix=1.00D-06.
 Requested convergence on             energy=1.00D-06.
 No special actions if energy rises.

 Cycle   1  Pass 1  IDiag  1:
 E= -279.369695093557    
 DIIS: error= 2.54D-02 at cycle   1 NSaved=   1.
 NSaved= 1 IEnMin= 1 EnMin= -279.369695093557     IErMin= 1 ErrMin= 2.54D-02
 ErrMax= 2.54D-02  0.00D+00 EMaxC= 1.00D-01 BMatC= 4.39D-01 BMatP= 4.39D-01
 IDIUse=3 WtCom= 7.46D-01 WtEn= 2.54D-01
 Coeff-Com:  0.100D+01
 Coeff-En:   0.100D+01
 Coeff:      0.100D+01
 Gap=     0.510 Goal=   None    Shift=    0.000
 GapD=    0.510 DampG=2.000 DampE=0.500 DampFc=1.0000 IDamp=-1.
 RMSDP=1.63D-03 MaxDP=1.01D-01              OVMax= 1.14D-01

 Cycle   2  Pass 1  IDiag  1:
 E= -279.452083600845     Delta-E=       -0.082388507288 Rises=F Damp=F
 DIIS: error= 1.82D-02 at cycle   2 NSaved=   2.
 NSaved= 2 IEnMin= 2 EnMin= -279.452083600845     IErMin= 2 ErrMin= 1.82D-02
 ErrMax= 1.82D-02  0.00D+00 EMaxC= 1.00D-01 BMatC= 7.22D-02 BMatP= 4.39D-01
 IDIUse=3 WtCom= 8.18D-01 WtEn= 1.82D-01
 Coeff-Com:  0.196D+00 0.804D+00
 Coeff-En:   0.000D+00 0.100D+01
 Coeff:      0.160D+00 0.840D+00
 Gap=     0.533 Goal=   None    Shift=    0.000
 RMSDP=9.01D-04 MaxDP=3.77D-02 DE=-8.24D-02 OVMax= 6.98D-02

 Cycle   3  Pass 1  IDiag  1:
 E= -279.481583264020     Delta-E=       -0.029499663175 Rises=F Damp=F
 DIIS: error= 1.06D-02 at cycle   3 NSaved=   3.
 NSaved= 3 IEnMin= 3 EnMin= -279.481583264020     IErMin= 3 ErrMin= 1.06D-02
 ErrMax= 1.06D-02  0.00D+00 EMaxC= 1.00D-01 BMatC= 2.85D-02 BMatP= 7.22D-02
 IDIUse=3 WtCom= 8.94D-01 WtEn= 1.06D-01
 Coeff-Com: -0.330D-01 0.376D+00 0.657D+00
 Coeff-En:   0.000D+00 0.236D+00 0.764D+00
 Coeff:     -0.295D-01 0.361D+00 0.668D+00
 Gap=     0.512 Goal=   None    Shift=    0.000
 RMSDP=3.76D-04 MaxDP=1.57D-02 DE=-2.95D-02 OVMax= 3.80D-02

 Cycle   4  Pass 1  IDiag  1:
 E= -279.500473253541     Delta-E=       -0.018889989521 Rises=F Damp=F
 DIIS: error= 1.27D-03 at cycle   4 NSaved=   4.
 NSaved= 4 IEnMin= 4 EnMin= -279.500473253541     IErMin= 4 ErrMin= 1.27D-03
 ErrMax= 1.27D-03  0.00D+00 EMaxC= 1.00D-01 BMatC= 4.99D-04 BMatP= 2.85D-02
 IDIUse=3 WtCom= 9.87D-01 WtEn= 1.27D-02
 Coeff-Com: -0.117D-01 0.571D-01 0.160D+00 0.794D+00
 Coeff-En:   0.000D+00 0.000D+00 0.000D+00 0.100D+01
 Coeff:     -0.115D-01 0.564D-01 0.158D+00 0.797D+00
 Gap=     0.504 Goal=   None    Shift=    0.000
 RMSDP=8.98D-05 MaxDP=2.74D-03 DE=-1.89D-02 OVMax= 1.12D-02

 Cycle   5  Pass 1  IDiag  1:
 E= -279.501152284156     Delta-E=       -0.000679030616 Rises=F Damp=F
 DIIS: error= 7.30D-04 at cycle   5 NSaved=   5.
 NSaved= 5 IEnMin= 5 EnMin= -279.501152284156     IErMin= 5 ErrMin= 7.30D-04
 ErrMax= 7.30D-04  0.00D+00 EMaxC= 1.00D-01 BMatC= 8.69D-05 BMatP= 4.99D-04
 IDIUse=3 WtCom= 9.93D-01 WtEn= 7.30D-03
 Coeff-Com:  0.619D-02-0.727D-01-0.119D+00 0.156D-01 0.117D+01
 Coeff-En:   0.000D+00 0.000D+00 0.000D+00 0.000D+00 0.100D+01
 Coeff:      0.615D-02-0.722D-01-0.118D+00 0.155D-01 0.117D+01
 Gap=     0.504 Goal=   None    Shift=    0.000
 RMSDP=7.67D-05 MaxDP=2.13D-03 DE=-6.79D-04 OVMax= 1.12D-02

 Cycle   6  Pass 1  IDiag  1:
 E= -279.501468811251     Delta-E=       -0.000316527095 Rises=F Damp=F
 DIIS: error= 2.73D-04 at cycle   6 NSaved=   6.
 NSaved= 6 IEnMin= 6 EnMin= -279.501468811251     IErMin= 6 ErrMin= 2.73D-04
 ErrMax= 2.73D-04  0.00D+00 EMaxC= 1.00D-01 BMatC= 1.66D-05 BMatP= 8.69D-05
 IDIUse=3 WtCom= 9.97D-01 WtEn= 2.73D-03
 Coeff-Com:  0.537D-03 0.226D-02 0.571D-02-0.129D+00-0.238D+00 0.136D+01
 Coeff-En:   0.000D+00 0.000D+00 0.000D+00 0.000D+00 0.000D+00 0.100D+01
 Coeff:      0.536D-03 0.225D-02 0.569D-02-0.129D+00-0.238D+00 0.136D+01
 Gap=     0.504 Goal=   None    Shift=    0.000
 RMSDP=4.51D-05 MaxDP=1.23D-03 DE=-3.17D-04 OVMax= 5.57D-03

 Cycle   7  Pass 1  IDiag  1:
 E= -279.501540987627     Delta-E=       -0.000072176375 Rises=F Damp=F
 DIIS: error= 1.22D-04 at cycle   7 NSaved=   7.
 NSaved= 7 IEnMin= 7 EnMin= -279.501540987627     IErMin= 7 ErrMin= 1.22D-04
 ErrMax= 1.22D-04  0.00D+00 EMaxC= 1.00D-01 BMatC= 4.35D-06 BMatP= 1.66D-05
 IDIUse=3 WtCom= 9.99D-01 WtEn= 1.22D-03
 Coeff-Com: -0.941D-03 0.134D-01 0.265D-01-0.226D-01-0.282D+00 0.377D+00
 Coeff-Com:  0.889D+00
 Coeff-En:   0.000D+00 0.000D+00 0.000D+00 0.000D+00 0.000D+00 0.000D+00
 Coeff-En:   0.100D+01
 Coeff:     -0.939D-03 0.134D-01 0.264D-01-0.225D-01-0.282D+00 0.377D+00
 Coeff:      0.889D+00
 Gap=     0.504 Goal=   None    Shift=    0.000
 RMSDP=1.31D-05 MaxDP=3.69D-04 DE=-7.22D-05 OVMax= 1.54D-03

 Cycle   8  Pass 1  IDiag  1:
 E= -279.501549620847     Delta-E=       -0.000008633220 Rises=F Damp=F
 DIIS: error= 5.57D-05 at cycle   8 NSaved=   8.
 NSaved= 8 IEnMin= 8 EnMin= -279.501549620847     IErMin= 8 ErrMin= 5.57D-05
 ErrMax= 5.57D-05  0.00D+00 EMaxC= 1.00D-01 BMatC= 6.06D-07 BMatP= 4.35D-06
 IDIUse=1 WtCom= 1.00D+00 WtEn= 0.00D+00
 Coeff-Com: -0.446D-03 0.340D-02 0.760D-02 0.271D-01-0.400D-01-0.200D+00
 Coeff-Com:  0.187D+00 0.102D+01
 Coeff:     -0.446D-03 0.340D-02 0.760D-02 0.271D-01-0.400D-01-0.200D+00
 Coeff:      0.187D+00 0.102D+01
 Gap=     0.504 Goal=   None    Shift=    0.000
 RMSDP=6.76D-06 MaxDP=2.02D-04 DE=-8.63D-06 OVMax= 7.24D-04

 Cycle   9  Pass 1  IDiag  1:
 E= -279.501551353821     Delta-E=       -0.000001732975 Rises=F Damp=F
 DIIS: error= 1.63D-05 at cycle   9 NSaved=   9.
 NSaved= 9 IEnMin= 9 EnMin= -279.501551353821     IErMin= 9 ErrMin= 1.63D-05
 ErrMax= 1.63D-05  0.00D+00 EMaxC= 1.00D-01 BMatC= 7.01D-08 BMatP= 6.06D-07
 IDIUse=1 WtCom= 1.00D+00 WtEn= 0.00D+00
 Coeff-Com:  0.125D-03-0.173D-02-0.312D-02-0.216D-02 0.344D-01 0.282D-03
 Coeff-Com: -0.173D+00-0.972D-01 0.124D+01
 Coeff:      0.125D-03-0.173D-02-0.312D-02-0.216D-02 0.344D-01 0.282D-03
 Coeff:     -0.173D+00-0.972D-01 0.124D+01
 Gap=     0.504 Goal=   None    Shift=    0.000
 RMSDP=1.93D-06 MaxDP=6.68D-05 DE=-1.73D-06 OVMax= 1.75D-04

 Cycle  10  Pass 1  IDiag  1:
 E= -279.501551513721     Delta-E=       -0.000000159900 Rises=F Damp=F
 DIIS: error= 4.18D-06 at cycle  10 NSaved=  10.
 NSaved=10 IEnMin=10 EnMin= -279.501551513721     IErMin=10 ErrMin= 4.18D-06
 ErrMax= 4.18D-06  0.00D+00 EMaxC= 1.00D-01 BMatC= 5.45D-09 BMatP= 7.01D-08
 IDIUse=1 WtCom= 1.00D+00 WtEn= 0.00D+00
 Coeff-Com:  0.301D-04-0.232D-03-0.311D-03-0.265D-02 0.150D-02 0.196D-01
 Coeff-Com: -0.135D-01-0.725D-01-0.813D-01 0.115D+01
 Coeff:      0.301D-04-0.232D-03-0.311D-03-0.265D-02 0.150D-02 0.196D-01
 Coeff:     -0.135D-01-0.725D-01-0.813D-01 0.115D+01
 Gap=     0.504 Goal=   None    Shift=    0.000
 RMSDP=4.93D-07 MaxDP=2.09D-05 DE=-1.60D-07 OVMax= 4.09D-05

 Cycle  11  Pass 1  IDiag  1:
 E= -279.501551525969     Delta-E=       -0.000000012248 Rises=F Damp=F
 DIIS: error= 2.00D-06 at cycle  11 NSaved=  11.
 NSaved=11 IEnMin=11 EnMin= -279.501551525969     IErMin=11 ErrMin= 2.00D-06
 ErrMax= 2.00D-06  0.00D+00 EMaxC= 1.00D-01 BMatC= 6.49D-10 BMatP= 5.45D-09
 IDIUse=1 WtCom= 1.00D+00 WtEn= 0.00D+00
 Coeff-Com: -0.212D-04 0.243D-03 0.489D-03 0.520D-03-0.427D-02-0.353D-02
 Coeff-Com:  0.219D-01 0.295D-01-0.138D+00-0.174D+00 0.127D+01
 Coeff:     -0.212D-04 0.243D-03 0.489D-03 0.520D-03-0.427D-02-0.353D-02
 Coeff:      0.219D-01 0.295D-01-0.138D+00-0.174D+00 0.127D+01
 Gap=     0.504 Goal=   None    Shift=    0.000
 RMSDP=1.74D-07 MaxDP=6.21D-06 DE=-1.22D-08 OVMax= 1.74D-05

 Cycle  12  Pass 1  IDiag  1:
 E= -279.501551527738     Delta-E=       -0.000000001770 Rises=F Damp=F
 DIIS: error= 5.71D-07 at cycle  12 NSaved=  12.
 NSaved=12 IEnMin=12 EnMin= -279.501551527738     IErMin=12 ErrMin= 5.71D-07
 ErrMax= 5.71D-07  0.00D+00 EMaxC= 1.00D-01 BMatC= 7.12D-11 BMatP= 6.49D-10
 IDIUse=1 WtCom= 1.00D+00 WtEn= 0.00D+00
 Coeff-Com:  0.126D-05-0.291D-04-0.635D-04 0.180D-03 0.108D-02-0.235D-02
 Coeff-Com: -0.407D-02 0.565D-02 0.412D-01-0.116D+00-0.275D+00 0.135D+01
 Coeff:      0.126D-05-0.291D-04-0.635D-04 0.180D-03 0.108D-02-0.235D-02
 Coeff:     -0.407D-02 0.565D-02 0.412D-01-0.116D+00-0.275D+00 0.135D+01
 Gap=     0.504 Goal=   None    Shift=    0.000
 RMSDP=7.10D-08 MaxDP=2.69D-06 DE=-1.77D-09 OVMax= 6.76D-06

 Cycle  13  Pass 1  IDiag  1:
 E= -279.501551527966     Delta-E=       -0.000000000228 Rises=F Damp=F
 DIIS: error= 1.64D-07 at cycle  13 NSaved=  13.
 NSaved=13 IEnMin=13 EnMin= -279.501551527966     IErMin=13 ErrMin= 1.64D-07
 ErrMax= 1.64D-07  0.00D+00 EMaxC= 1.00D-01 BMatC= 3.93D-12 BMatP= 7.12D-11
 IDIUse=1 WtCom= 1.00D+00 WtEn= 0.00D+00
 Coeff-Com:  0.128D-05-0.140D-04-0.229D-04-0.870D-04 0.127D-03 0.753D-03
 Coeff-Com: -0.918D-03-0.318D-02 0.806D-03 0.409D-01-0.377D-01-0.320D+00
 Coeff-Com:  0.132D+01
 Coeff:      0.128D-05-0.140D-04-0.229D-04-0.870D-04 0.127D-03 0.753D-03
 Coeff:     -0.918D-03-0.318D-02 0.806D-03 0.409D-01-0.377D-01-0.320D+00
 Coeff:      0.132D+01
 Gap=     0.504 Goal=   None    Shift=    0.000
 RMSDP=1.88D-08 MaxDP=5.58D-07 DE=-2.28D-10 OVMax= 1.56D-06

 Cycle  14  Pass 1  IDiag  1:
 E= -279.501551527979     Delta-E=       -0.000000000013 Rises=F Damp=F
 DIIS: error= 2.50D-08 at cycle  14 NSaved=  14.
 NSaved=14 IEnMin=14 EnMin= -279.501551527979     IErMin=14 ErrMin= 2.50D-08
 ErrMax= 2.50D-08  0.00D+00 EMaxC= 1.00D-01 BMatC= 1.90D-13 BMatP= 3.93D-12
 IDIUse=1 WtCom= 1.00D+00 WtEn= 0.00D+00
 Coeff-Com: -0.186D-06 0.305D-05 0.556D-05 0.425D-05-0.816D-04 0.481D-04
 Coeff-Com:  0.285D-03 0.204D-03-0.244D-02 0.164D-02 0.169D-01-0.265D-01
 Coeff-Com: -0.197D+00 0.121D+01
 Coeff:     -0.186D-06 0.305D-05 0.556D-05 0.425D-05-0.816D-04 0.481D-04
 Coeff:      0.285D-03 0.204D-03-0.244D-02 0.164D-02 0.169D-01-0.265D-01
 Coeff:     -0.197D+00 0.121D+01
 Gap=     0.504 Goal=   None    Shift=    0.000
 RMSDP=3.72D-09 MaxDP=8.85D-08 DE=-1.31D-11 OVMax= 3.35D-07

 SCF Done:  E(RHF) =  -279.501551528     A.U. after   14 cycles
            NFock= 14  Conv=0.37D-08     -V/T= 2.0023
 KE= 2.788580613977D+02 PE=-8.955316640786D+02 EE= 2.200801220145D+02
 Leave Link  502 at Mon Feb 21 20:56:09 2022, MaxMem= 16106127360 cpu:              56.2 elap:               3.6
 (Enter /sw/contrib/gaussian/g16/B01/g16/l801.exe)
 ExpMin= 2.53D-02 ExpMax= 1.53D+04 ExpMxC= 5.22D+02 IAcc=3 IRadAn=         5 AccDes= 0.00D+00
 HarFok:  IExCor=  205 AccDes= 0.00D+00 IRadAn=         5 IDoV=-2 UseB2=F ITyADJ=14
 ICtDFT= 12500011 ScaDFX=  1.000000  1.000000  1.000000  1.000000
 Largest valence mixing into a core orbital is  2.08D-04
 Largest core mixing into a valence orbital is  3.65D-05
 Range of M.O.s used for correlation:     5   207
 NBasis=   207 NAE=    16 NBE=    16 NFC=     4 NFV=     0
 NROrb=    203 NOA=    12 NOB=    12 NVA=   191 NVB=   191

 **** Warning!!: The largest alpha MO coefficient is  0.17514892D+02

 Leave Link  801 at Mon Feb 21 20:56:09 2022, MaxMem= 16106127360 cpu:               2.1 elap:               0.1
 (Enter /sw/contrib/gaussian/g16/B01/g16/l906.exe)
 Frozen-core derivative calculation, NFC=   4 NFV=   0.
 FulOut=F Deriv=T AODrv=T NAtomX=     5
   MMem=           0  MDisk=          12 MDiskD=          12
  W3Min=      811440 MinDsk=     2425030 NBas6D=         245
 NBas2D=       30762    NTT=       30135    LW2=     7400000
    MDV= 16105574283 MDiskM=      328644 NBas2p=       30702
 Disk-based method using ON**2 memory for 12 occupieds at a time.
 Permanent disk used for amplitudes=    11516536 words.
 Estimated scratch disk usage=   321251614 words.
 IMap=   1   2   3   4   5   6   7   8   9  10  11  12  13  14  15  16
 Actual    scratch disk usage=   310331678 words.
 JobTyp=1 Pass  1:  I=   5 to  16 NPSUse= 28 ParTrn=T ParDer=T DoDerP=T.
 (rs|ai) integrals will be sorted in core.
 Spin components of T(2) and E(2):
     alpha-alpha T2 =       0.3398464600D-01 E2=     -0.1223764933D+00
     alpha-beta  T2 =       0.1867696962D+00 E2=     -0.7002000575D+00
     beta-beta   T2 =       0.3398464600D-01 E2=     -0.1223764933D+00
 The integrals were generated   1 times.
 ANorm=    0.1120151324D+01
 E2 =    -0.9449530442D+00 EUMP2 =    -0.28044650457218D+03
 Leave Link  906 at Mon Feb 21 20:57:45 2022, MaxMem= 16106127360 cpu:            2705.1 elap:              96.8
 (Enter /sw/contrib/gaussian/g16/B01/g16/l1101.exe)
 Using compressed Sx but separate Hx and Fx, NAtomX=     5.
 Will process      6 centers per pass.
 Leave Link 1101 at Mon Feb 21 20:57:46 2022, MaxMem= 16106127360 cpu:               5.5 elap:               0.2
 (Enter /sw/contrib/gaussian/g16/B01/g16/l1102.exe)
 Leave Link 1102 at Mon Feb 21 20:57:46 2022, MaxMem= 16106127360 cpu:               1.0 elap:               0.1
 (Enter /sw/contrib/gaussian/g16/B01/g16/l1110.exe)
 Forming Gx(P) for the SCF density, NAtomX=     5.
 Integral derivatives from FoFJK, PRISM(SPDF).
 Do as many integral derivatives as possible in FoFJK.
 G2DrvN: MDV=   16106126844.
 G2DrvN: will do     6 centers at a time, making    1 passes.
 Calling FoFCou, ICntrl=  3107 FMM=F I1Cent=   0 AccDes= 0.00D+00.
 FoFJK:  IHMeth= 1 ICntrl=    3107 DoSepK=F KAlg= 0 I1Cent=           0 FoldK=F
 IRaf=         0 NMat=       1 IRICut=       1 DoRegI=T DoRafI=F ISym2E= 1 IDoP0=0 IntGTp=1.
 FoFCou: FMM=F IPFlag=           0 FMFlag=      100000 FMFlg1=           0
         NFxFlg=           0 DoJE=F BraDBF=F KetDBF=F FulRan=T
         wScrn=  0.000000 ICntrl=      3107 IOpCl=  0 I1Cent=           0 NGrid=           0
         NMat0=    1 NMatS0=      1 NMatT0=    0 NMatD0=    1 NMtDS0=    0 NMtDT0=    0
 Petite list used in FoFCou.
 End of G2Drv F.D. properties file   721 does not exist.
 End of G2Drv F.D. properties file   722 does not exist.
 End of G2Drv F.D. properties file   788 does not exist.
 Leave Link 1110 at Mon Feb 21 20:57:49 2022, MaxMem= 16106127360 cpu:              83.7 elap:               3.0
 (Enter /sw/contrib/gaussian/g16/B01/g16/l1002.exe)
 Minotr:  Closed shell wavefunction.
          IDoAtm=11111
          Frozen-core window.
          Direct CPHF calculation.
          Differentiating once with respect to electric field.
                with respect to dipole field.
          Differentiating once with respect to nuclear coordinates.
          Requested convergence is 1.0D-08 RMS, and 1.0D-07 maximum.
          Secondary convergence is 1.0D-12 RMS, and 1.0D-12 maximum.
          NewPWx=T KeepS1=T KeepF1=T KeepIn=T MapXYZ=F SortEE=F KeepMc=T.
 Keep R1 ints in memory in symmetry-blocked form, NReq=348888983.
 FoFCou: FMM=F IPFlag=           0 FMFlag=           0 FMFlg1=           0
         NFxFlg=           0 DoJE=F BraDBF=F KetDBF=F FulRan=T
         wScrn=  0.000000 ICntrl=       600 IOpCl=  0 I1Cent=           0 NGrid=           0
         NMat0=    1 NMatS0=  21528 NMatT0=    0 NMatD0=    1 NMtDS0=    0 NMtDT0=    0
 Petite list used in FoFCou.
          MDV=   16106127360 using IRadAn=       1.
          Solving linear equations simultaneously, MaxMat=       0.
          There are    18 degrees of freedom in the 1st order CPHF.  IDoFFX=6 NUNeed=    18.
     15 vectors produced by pass  0 Test12= 1.70D-14 5.56D-09 XBig12= 8.30D+00 1.09D+00.
 AX will form    15 AO Fock derivatives at one time.
     15 vectors produced by pass  1 Test12= 1.70D-14 5.56D-09 XBig12= 1.35D+00 2.63D-01.
     15 vectors produced by pass  2 Test12= 1.70D-14 5.56D-09 XBig12= 1.42D-01 9.86D-02.
     15 vectors produced by pass  3 Test12= 1.70D-14 5.56D-09 XBig12= 4.93D-03 1.09D-02.
     15 vectors produced by pass  4 Test12= 1.70D-14 5.56D-09 XBig12= 9.81D-05 1.93D-03.
     15 vectors produced by pass  5 Test12= 1.70D-14 5.56D-09 XBig12= 1.41D-06 1.83D-04.
     15 vectors produced by pass  6 Test12= 1.70D-14 5.56D-09 XBig12= 1.14D-08 1.53D-05.
     12 vectors produced by pass  7 Test12= 1.70D-14 5.56D-09 XBig12= 8.43D-11 1.31D-06.
      3 vectors produced by pass  8 Test12= 1.70D-14 5.56D-09 XBig12= 5.93D-13 1.22D-07.
      2 vectors produced by pass  9 Test12= 1.70D-14 5.56D-09 XBig12= 3.83D-15 1.02D-08.
 InvSVY:  IOpt=1 It=  1 EMax= 1.11D-15
 Solved reduced A of dimension   122 with    15 vectors.
 FullF1:  Do perturbations      1 to      18.
 Saving first derivative matrices.
 End of Minotr F.D. properties file   721 does not exist.
 End of Minotr F.D. properties file   722 does not exist.
 End of Minotr F.D. properties file   788 does not exist.
 Leave Link 1002 at Mon Feb 21 20:57:52 2022, MaxMem= 16106127360 cpu:              78.8 elap:               2.8
 (Enter /sw/contrib/gaussian/g16/B01/g16/l811.exe)
 MDV= 16106127360.
 Form MO integral derivatives with frozen-active canonical formalism.
 MOERI=1 MOERIx=1 NAtoms=     5 NAtomX=     5.
 Discarding MO integrals.
 MO basis two electron integral derivatives will not be stored on disk.
 IAlg= 3 DoFC=T DoPWx=T Debug=F.
 Frozen-core window:  NFC=   4 NFV=   0.
 Reordered first order wavefunction length =     18678272
 In DefCFB: NBatch=  1 ICI= 16 ICA=191 LFMax= 96
            Large arrays: LIAPS=   619940160 LIARS=   288257200 words.
 In StABat: MaxSiz= 55 MinSiz= 25 NAtomB=  5
 DoIAMN: NPSUse= 28.
 Leave Link  811 at Mon Feb 21 20:59:13 2022, MaxMem= 16106127360 cpu:            2273.8 elap:              81.4
 (Enter /sw/contrib/gaussian/g16/B01/g16/l804.exe)
 Frozen-core window:  NFC=   4 NFV=   0.
 Closed-shell transformation, MDV= 16106127360 ITran=4 ISComp=1.
 Semi-Direct transformation.
 ModeAB=           2 MOrb=            16 LenV=   16104923009
 LASXX=     67341636 LTotXX=    67341636 LenRXX=    67341636
 LTotAB=    68301760 MaxLAS=    99807120 LenRXY=    99807120
 NonZer=   134683272 LenScr=   202817536 LnRSAI=           0
 LnScr1=           0 LExtra=           0 Total=    369966292
 MaxDsk=          -1 SrtSym=           F ITran=            4
 DoSDTr:  NPSUse= 28
 JobTyp=0 Pass  1:  I=   1 to  16.
 (rs|ai) integrals will be sorted in core.
 Complete sort for first half transformation.
 First half transformation complete.
 Begin second half transformation for I=  10.
 Begin second half transformation for I=  10.
 Complete sort for second half transformation.
 Second half transformation complete.
 Spin components of T(2) and E(2):
     alpha-alpha T2 =       0.3398464600D-01 E2=     -0.1223764933D+00
     alpha-beta  T2 =       0.1867696962D+00 E2=     -0.7002000575D+00
     beta-beta   T2 =       0.3398464600D-01 E2=     -0.1223764933D+00
 ANorm=    0.1584133194D+01
 E2 =    -0.9449530442D+00 EUMP2 =    -0.28044650457218D+03
 Leave Link  804 at Mon Feb 21 20:59:28 2022, MaxMem= 16106127360 cpu:             425.2 elap:              15.2
 (Enter /sw/contrib/gaussian/g16/B01/g16/l1002.exe)
 Minotr:  Closed shell wavefunction.
          Computing MP2/KS-MP2 derivatives.
          Using Z-Vector for PSCF gradient.
          Skipping F1 and S1 gradient terms here.
          IDoAtm=11111
          Frozen-core window.
          Using MO integrals in the linear equations.
          Forming densities via direct SCF.
          Differentiating once with respect to electric field.
                with respect to dipole field.
          Differentiating once with respect to nuclear coordinates.
          Using symmetry in CPHF.
          Requested convergence is 1.0D-10 RMS, and 1.0D-09 maximum.
          NewPWx=F KeepS1=T KeepF1=T KeepIn=T MapXYZ=F SortEE=F KeepMc=T.
          MDV=   16106127360 using IRadAn=       5.
          Solving linear equations separately, MaxMat=       0.
          There are     1 degrees of freedom in the 1st order CPHF.  IDoFFX=0 NUNeed=     1.
 FoFJK:  IHMeth= 1 ICntrl=       0 DoSepK=F KAlg= 0 I1Cent=           0 FoldK=F
 IRaf=         0 NMat=       1 IRICut=       1 DoRegI=T DoRafI=F ISym2E= 0 IDoP0=0 IntGTp=1.
 FoFCou: FMM=F IPFlag=           0 FMFlag=      100000 FMFlg1=           0
         NFxFlg=           0 DoJE=F BraDBF=F KetDBF=F FulRan=T
         wScrn=  0.000000 ICntrl=         0 IOpCl=  0 I1Cent=           0 NGrid=           0
         NMat0=    1 NMatS0=      1 NMatT0=    0 NMatD0=    1 NMtDS0=    0 NMtDT0=    0
 Symmetry not used in FoFCou.
 LinEq1:  Iter=  0 NonCon=     1 RMS=5.93D-03 Max=1.31D-01 NDo=     1
 LinEq1:  Iter=  1 NonCon=     1 RMS=1.89D-03 Max=3.81D-02 NDo=     1
 LinEq1:  Iter=  2 NonCon=     1 RMS=8.62D-04 Max=1.40D-02 NDo=     1
 LinEq1:  Iter=  3 NonCon=     1 RMS=3.84D-04 Max=7.78D-03 NDo=     1
 LinEq1:  Iter=  4 NonCon=     1 RMS=1.18D-04 Max=1.83D-03 NDo=     1
 LinEq1:  Iter=  5 NonCon=     1 RMS=4.31D-05 Max=6.83D-04 NDo=     1
 LinEq1:  Iter=  6 NonCon=     1 RMS=1.93D-05 Max=2.29D-04 NDo=     1
 LinEq1:  Iter=  7 NonCon=     1 RMS=7.83D-06 Max=1.59D-04 NDo=     1
 LinEq1:  Iter=  8 NonCon=     1 RMS=3.39D-06 Max=3.38D-05 NDo=     1
 LinEq1:  Iter=  9 NonCon=     1 RMS=9.41D-07 Max=1.31D-05 NDo=     1
 LinEq1:  Iter= 10 NonCon=     1 RMS=1.85D-07 Max=2.02D-06 NDo=     1
 LinEq1:  Iter= 11 NonCon=     1 RMS=3.48D-08 Max=3.66D-07 NDo=     1
 LinEq1:  Iter= 12 NonCon=     1 RMS=8.35D-09 Max=1.35D-07 NDo=     1
 LinEq1:  Iter= 13 NonCon=     1 RMS=1.50D-09 Max=2.60D-08 NDo=     1
 LinEq1:  Iter= 14 NonCon=     1 RMS=2.71D-10 Max=3.81D-09 NDo=     1
 LinEq1:  Iter= 15 NonCon=     0 RMS=4.99D-11 Max=5.46D-10 NDo=     1
 Linear equations converged to 1.000D-10 1.000D-09 after    15 iterations.
 End of Minotr F.D. properties file   721 does not exist.
 End of Minotr F.D. properties file   722 does not exist.
 End of Minotr F.D. properties file   788 does not exist.
 Leave Link 1002 at Mon Feb 21 20:59:31 2022, MaxMem= 16106127360 cpu:              64.3 elap:               2.4
 (Enter /sw/contrib/gaussian/g16/B01/g16/l1102.exe)
 Use density number 2.
 Symmetrizing basis deriv contribution to polar:
 IMax=3 JMax=2 DiffMx= 0.00D+00
 Leave Link 1102 at Mon Feb 21 20:59:31 2022, MaxMem= 16106127360 cpu:               0.6 elap:               0.0
 (Enter /sw/contrib/gaussian/g16/B01/g16/l1110.exe)
 Forming Gx(P) for generalized density number  2 NAtomX=     5.
 Integral derivatives from FoFJK, PRISM(SPDF).
 Do as many integral derivatives as possible in FoFJK.
 G2DrvN: MDV=   16106126844.
 G2DrvN: will do     6 centers at a time, making    1 passes.
 Calling FoFCou, ICntrl=  3107 FMM=F I1Cent=   0 AccDes= 0.00D+00.
 FoFJK:  IHMeth= 1 ICntrl=    3107 DoSepK=F KAlg= 0 I1Cent=           0 FoldK=F
 IRaf=         0 NMat=       1 IRICut=       1 DoRegI=T DoRafI=F ISym2E= 1 IDoP0=0 IntGTp=1.
 FoFCou: FMM=F IPFlag=           0 FMFlag=      100000 FMFlg1=           0
         NFxFlg=           0 DoJE=F BraDBF=F KetDBF=F FulRan=T
         wScrn=  0.000000 ICntrl=      3107 IOpCl=  0 I1Cent=           0 NGrid=           0
         NMat0=    1 NMatS0=      1 NMatT0=    0 NMatD0=    1 NMtDS0=    0 NMtDT0=    0
 Petite list used in FoFCou.
 End of G2Drv F.D. properties file   721 does not exist.
 End of G2Drv F.D. properties file   722 does not exist.
 End of G2Drv F.D. properties file   788 does not exist.
 Leave Link 1110 at Mon Feb 21 20:59:34 2022, MaxMem= 16106127360 cpu:              84.6 elap:               3.1
 (Enter /sw/contrib/gaussian/g16/B01/g16/l1112.exe)
 MP22nd: MDV=   16106127360
 This link is doing NAtomX=     5 total of    18 degrees of freedom.
 Using ON3 I/O method in MakUI.
 Frozen-core window:  NFC=   4 NFV=   0.
 Using Ix for Sx.
 Use MO integrals over full window.
 Using OV2 memory method for fx*t*t/D, MaxI=    16 DoOO2=F NP=  28.
 R2 and R3 integrals will be kept in memory, NReq=   915591705.
 FoFCou: FMM=F IPFlag=           0 FMFlag=           0 FMFlg1=           0
         NFxFlg=           0 DoJE=F BraDBF=F KetDBF=F FulRan=T
         wScrn=  0.000000 ICntrl=       600 IOpCl=  0 I1Cent=           0 NGrid=           0
         NMat0=    1 NMatS0=      1 NMatT0=    0 NMatD0=    1 NMtDS0=    0 NMtDT0=    0
 Symmetry not used in FoFCou.
 DD1Dir will call FoFMem   1 times, MxPair=       272
 NAB=   136 NAA=     0 NBB=     0.
 Symmetry is being used.
 FoFJK:  IHMeth= 1 ICntrl=       0 DoSepK=F KAlg= 0 I1Cent=           0 FoldK=F
 IRaf=         0 NMat=      18 IRICut=      45 DoRegI=T DoRafI=T ISym2E= 2 IDoP0=3 IntGTp=3.
 Discarding MO integrals.
 Leave Link 1112 at Mon Feb 21 21:00:11 2022, MaxMem= 16106127360 cpu:            1016.6 elap:              36.7
 (Enter /sw/contrib/gaussian/g16/B01/g16/l601.exe)
 Copying SCF densities to generalized density rwf, IOpCl= 0 IROHF=0.

 **********************************************************************

            Population analysis using the MP2 Density.

 **********************************************************************

 Orbital symmetries:
       Occupied  (A') (A') (A') (A') (A') (A') (A') (A') (A') (A')
                 (A") (A') (A") (A') (A") (A')
       Virtual   (A') (A") (A') (A') (A") (A') (A') (A') (A") (A')
                 (A") (A') (A') (A') (A") (A') (A') (A") (A') (A')
                 (A') (A') (A') (A') (A') (A") (A') (A") (A') (A')
                 (A") (A') (A") (A') (A') (A") (A') (A") (A') (A')
                 (A") (A') (A") (A') (A') (A") (A') (A') (A") (A')
                 (A") (A') (A') (A') (A") (A') (A") (A') (A") (A')
                 (A') (A') (A") (A') (A') (A") (A') (A") (A') (A')
                 (A") (A') (A') (A") (A") (A') (A') (A") (A') (A')
                 (A') (A") (A') (A") (A") (A') (A') (A") (A') (A')
                 (A") (A') (A') (A") (A') (A") (A') (A") (A') (A')
                 (A") (A') (A") (A') (A') (A') (A") (A') (A") (A')
                 (A") (A') (A') (A') (A") (A') (A') (A') (A") (A')
                 (A") (A') (A") (A') (A') (A") (A") (A') (A") (A')
                 (A') (A') (A') (A") (A") (A") (A') (A') (A') (A')
                 (A") (A') (A") (A') (A') (A") (A') (A') (A') (A')
                 (A") (A') (A') (A") (A') (A") (A') (A") (A') (A")
                 (A') (A") (A') (A") (A') (A") (A") (A') (A") (A')
                 (A") (A') (A") (A') (A") (A') (A") (A') (A") (A')
                 (A') (A') (A') (A') (A') (A') (A') (A') (A') (A')
                 (A')
 The electronic state is 1-A'.
 Alpha  occ. eigenvalues --  -20.69015 -20.68367 -20.65882 -15.81343  -1.62553
 Alpha  occ. eigenvalues --   -1.49442  -1.25295  -0.94855  -0.77180  -0.75980
 Alpha  occ. eigenvalues --   -0.71215  -0.67890  -0.61974  -0.58785  -0.48438
 Alpha  occ. eigenvalues --   -0.47456
 Alpha virt. eigenvalues --    0.02977   0.07092   0.08628   0.10168   0.13385
 Alpha virt. eigenvalues --    0.13385   0.14418   0.15440   0.17845   0.19409
 Alpha virt. eigenvalues --    0.19988   0.20667   0.22077   0.23718   0.23762
 Alpha virt. eigenvalues --    0.26730   0.29196   0.30337   0.31016   0.34395
 Alpha virt. eigenvalues --    0.34952   0.38779   0.42274   0.43228   0.52792
 Alpha virt. eigenvalues --    0.52893   0.55781   0.57991   0.62498   0.64183
 Alpha virt. eigenvalues --    0.67491   0.68473   0.70392   0.71189   0.72329
 Alpha virt. eigenvalues --    0.72911   0.74298   0.79292   0.79467   0.81136
 Alpha virt. eigenvalues --    0.81340   0.83141   0.86814   0.90944   0.92255
 Alpha virt. eigenvalues --    0.93004   0.95631   0.97409   0.98507   1.01714
 Alpha virt. eigenvalues --    1.05194   1.05504   1.08333   1.11721   1.14225
 Alpha virt. eigenvalues --    1.19065   1.21745   1.23359   1.33973   1.35325
 Alpha virt. eigenvalues --    1.38868   1.45625   1.48751   1.50701   1.53769
 Alpha virt. eigenvalues --    1.56864   1.57941   1.61227   1.66476   1.67216
 Alpha virt. eigenvalues --    1.70141   1.79170   1.82939   1.83527   1.88188
 Alpha virt. eigenvalues --    1.90698   1.95687   1.99410   2.00205   2.08193
 Alpha virt. eigenvalues --    2.12372   2.12996   2.15218   2.22711   2.26600
 Alpha virt. eigenvalues --    2.26891   2.28952   2.31477   2.34835   2.38643
 Alpha virt. eigenvalues --    2.42780   2.42806   2.45006   2.45753   2.47958
 Alpha virt. eigenvalues --    2.50051   2.58821   2.59985   2.62184   2.62507
 Alpha virt. eigenvalues --    2.63401   2.67330   2.75148   2.81251   2.84731
 Alpha virt. eigenvalues --    2.89330   2.89611   2.94547   2.95071   3.02780
 Alpha virt. eigenvalues --    3.06268   3.12877   3.20547   3.22308   3.32033
 Alpha virt. eigenvalues --    3.33618   3.52984   3.63626   3.83852   3.84396
 Alpha virt. eigenvalues --    4.14995   4.16978   4.18528   4.25828   4.34743
 Alpha virt. eigenvalues --    4.39366   4.46345   4.52108   4.65446   4.71276
 Alpha virt. eigenvalues --    4.80054   4.83042   4.83262   4.89674   5.02531
 Alpha virt. eigenvalues --    5.07589   5.10839   5.14676   5.17158   5.24518
 Alpha virt. eigenvalues --    5.27522   5.30273   5.33145   5.35066   5.60116
 Alpha virt. eigenvalues --    5.67336   5.79000   5.82952   5.95637   6.16999
 Alpha virt. eigenvalues --    6.31187   6.33509   6.39506   6.49735   6.51043
 Alpha virt. eigenvalues --    6.61585   6.66817   6.70791   6.75791   6.76577
 Alpha virt. eigenvalues --    6.83732   6.89089   7.01960   7.05704   7.06037
 Alpha virt. eigenvalues --    7.09270   7.12270   7.15247   7.18291   7.22683
 Alpha virt. eigenvalues --    7.24301   7.30810   7.32563   7.34772   7.39856
 Alpha virt. eigenvalues --    7.43109   7.48237   7.60960   7.61012   7.63351
 Alpha virt. eigenvalues --    7.67108   7.80314   7.87758   8.09492   8.31591
 Alpha virt. eigenvalues --    8.40918   8.54296  13.40438  14.37343  15.17213
 Alpha virt. eigenvalues --   16.16159
          Condensed to atoms (all electrons):
               1          2          3          4          5
     1  H    0.589724   0.127806   0.020368   0.012556  -0.000593
     2  O    0.127806   8.327352  -0.176766  -0.088912   0.015976
     3  O    0.020368  -0.176766   8.469998  -0.123247  -0.045777
     4  N    0.012556  -0.088912  -0.123247   6.958641  -0.052825
     5  O   -0.000593   0.015976  -0.045777  -0.052825   8.277113
 Mulliken charges:
               1
     1  H    0.250139
     2  O   -0.205455
     3  O   -0.144577
     4  N    0.293788
     5  O   -0.193894
 Sum of Mulliken charges =  -0.00000
 Mulliken charges with hydrogens summed into heavy atoms:
               1
     2  O    0.044683
     3  O   -0.144577
     4  N    0.293788
     5  O   -0.193894
 APT charges:
               1
     1  H    0.297782
     2  O   -0.290677
     3  O   -0.481963
     4  N    0.864104
     5  O   -0.389246
 Sum of APT charges =  -0.00000
 APT charges with hydrogens summed into heavy atoms:
               1
     2  O    0.007105
     3  O   -0.481963
     4  N    0.864104
     5  O   -0.389246
 Electronic spatial extent (au):  <R**2>=            251.4351
 Charge=             -0.0000 electrons
 Dipole moment (field-independent basis, Debye):
    X=              0.5123    Y=              1.3368    Z=             -0.0000  Tot=              1.4316
 Quadrupole moment (field-independent basis, Debye-Ang):
   XX=            -22.5253   YY=            -18.6048   ZZ=            -22.0015
   XY=              3.2124   XZ=              0.0000   YZ=              0.0000
 Traceless Quadrupole moment (field-independent basis, Debye-Ang):
   XX=             -1.4814   YY=              2.4391   ZZ=             -0.9577
   XY=              3.2124   XZ=              0.0000   YZ=              0.0000
 Octapole moment (field-independent basis, Debye-Ang**2):
  XXX=              2.7750  YYY=             11.2553  ZZZ=              0.0000  XYY=              7.8534
  XXY=              6.5613  XXZ=             -0.0000  XZZ=             -1.5902  YZZ=             -0.8451
  YYZ=              0.0000  XYZ=              0.0000
 Hexadecapole moment (field-independent basis, Debye-Ang**3):
 XXXX=           -158.7189 YYYY=            -88.2342 ZZZZ=            -18.2157 XXXY=            -36.2714
 XXXZ=              0.0000 YYYX=            -30.3213 YYYZ=              0.0000 ZZZX=              0.0000
 ZZZY=              0.0000 XXYY=            -33.9477 XXZZ=            -30.8897 YYZZ=            -20.3868
 XXYZ=              0.0000 YYXZ=              0.0000 ZZXY=            -14.8604
 N-N= 1.170919291384D+02 E-N=-8.963128716093D+02  KE= 2.802097277035D+02
 Symmetry A'   KE= 2.662337026345D+02
 Symmetry A"   KE= 1.397602506906D+01
  Exact polarizability:  33.957   9.307  29.988  -0.000  -0.000  17.895
 Approx polarizability:  29.055   4.874  23.347  -0.000  -0.000  15.507
 No NMR shielding tensors so no spin-rotation constants.
 Leave Link  601 at Mon Feb 21 21:00:11 2022, MaxMem= 16106127360 cpu:               4.9 elap:               0.2
 (Enter /sw/contrib/gaussian/g16/B01/g16/l701.exe)
 ... and contract with generalized density number  2.
 Compute integral second derivatives.
 Leave Link  701 at Mon Feb 21 21:00:11 2022, MaxMem= 16106127360 cpu:               6.3 elap:               0.2
 (Enter /sw/contrib/gaussian/g16/B01/g16/l702.exe)
 L702 exits ... SP integral derivatives will be done elsewhere.
 Leave Link  702 at Mon Feb 21 21:00:11 2022, MaxMem= 16106127360 cpu:               0.5 elap:               0.0
 (Enter /sw/contrib/gaussian/g16/B01/g16/l703.exe)
 Integral derivatives from FoFJK, PRISM(SPDF).
 Compute integral second derivatives, UseDBF=F ICtDFT=           0.
 Calling FoFJK, ICntrl=  10100127 FMM=F ISym2X=1 I1Cent= 0 IOpClX= 0 NMat=1 NMatS=1 NMatT=0.
 FoFJK:  IHMeth= 1 ICntrl=10100127 DoSepK=F KAlg= 0 I1Cent=           0 FoldK=F
 IRaf=         0 NMat=       1 IRICut=       1 DoRegI=T DoRafI=F ISym2E= 1 IDoP0=0 IntGTp=1.
 FoFCou: FMM=F IPFlag=           0 FMFlag=      100000 FMFlg1=         800
         NFxFlg=           0 DoJE=F BraDBF=F KetDBF=F FulRan=T
         wScrn=  0.000000 ICntrl=  10100127 IOpCl=  0 I1Cent=           0 NGrid=           0
         NMat0=    1 NMatS0=      1 NMatT0=    0 NMatD0=    1 NMtDS0=    0 NMtDT0=    0
 Petite list used in FoFCou.
 Leave Link  703 at Mon Feb 21 21:00:26 2022, MaxMem= 16106127360 cpu:             428.1 elap:              15.3
 (Enter /sw/contrib/gaussian/g16/B01/g16/l716.exe)
 Dipole        = 2.01539119D-01 5.25933370D-01-3.20518841D-34
 Polarizability= 3.39574310D+01 9.30671290D+00 2.99875545D+01
                -8.17178270D-32-2.18364651D-31 1.78954337D+01
 Full mass-weighted force constant matrix:
 Low frequencies --- -263.7926  -44.8458  -29.8206   -0.0014    0.0008    0.0023
 Low frequencies ---   98.8858  231.8133  341.6493
 ******    1 imaginary frequencies (negative Signs) ****** 
 Diagonal vibrational polarizability:
       13.3669133      23.4225252      48.6123172
 Harmonic frequencies (cm**-1), IR intensities (KM/Mole), Raman scattering
 activities (A**4/AMU), depolarization ratios for plane and unpolarized
 incident light, reduced masses (AMU), force constants (mDyne/A),
 and normal coordinates:
                      1                      2                      3
                     A"                     A"                     A'
 Frequencies --   -263.7205               229.4635               341.6377
 Red. masses --      1.1329                11.2096                 8.6682
 Frc consts  --      0.0464                 0.3477                 0.5961
 IR Inten    --    125.0986                 0.4040                 2.9207
  Atom  AN      X      Y      Z        X      Y      Z        X      Y      Z
     1   1    -0.00  -0.00   1.00    -0.00  -0.00  -0.53     0.53  -0.44  -0.00
     2   8     0.00   0.00  -0.06     0.00   0.00  -0.33    -0.10  -0.38  -0.00
     3   8    -0.00  -0.00  -0.04     0.00  -0.00   0.35    -0.15   0.42   0.00
     4   7     0.00   0.00   0.05     0.00   0.00   0.53     0.06   0.27   0.00
     5   8    -0.00  -0.00  -0.00    -0.00   0.00  -0.46     0.17  -0.25  -0.00
                      4                      5                      6
                     A'                     A'                     A'
 Frequencies --    465.9622               782.8957               968.9178
 Red. masses --     12.0945                12.9601                15.5093
 Frc consts  --      1.5472                 4.6802                 8.5786
 IR Inten    --    200.3558               162.2551                19.8896
  Atom  AN      X      Y      Z        X      Y      Z        X      Y      Z
     1   1     0.44   0.17   0.00    -0.34   0.19   0.00    -0.15  -0.04  -0.00
     2   8     0.32   0.18  -0.00     0.42   0.09   0.00    -0.52   0.03   0.00
     3   8     0.16   0.45   0.00    -0.05  -0.26  -0.00     0.76  -0.01  -0.00
     4   7    -0.34  -0.40   0.00    -0.14   0.62  -0.00    -0.12   0.23  -0.00
     5   8    -0.20  -0.30  -0.00    -0.23  -0.38   0.00    -0.12  -0.22   0.00
                      7                      8                      9
                     A'                     A'                     A'
 Frequencies --   1371.4585              1677.7534              3778.3862
 Red. masses --      1.1331                13.2857                 1.0675
 Frc consts  --      1.2556                22.0339                 8.9793
 IR Inten    --    149.6655               135.3859                81.1178
  Atom  AN      X      Y      Z        X      Y      Z        X      Y      Z
     1   1     0.99  -0.05  -0.00    -0.34   0.00   0.00     0.10   0.99   0.00
     2   8    -0.03   0.05  -0.00    -0.00  -0.04   0.00    -0.01  -0.06  -0.00
     3   8    -0.02  -0.05   0.00     0.01   0.15  -0.00     0.00   0.00  -0.00
     4   7     0.02   0.01   0.00     0.71  -0.07  -0.00    -0.00  -0.00   0.00
     5   8    -0.03  -0.01  -0.00    -0.60  -0.05   0.00     0.00   0.00   0.00

 -------------------
 - Thermochemistry -
 -------------------
 Temperature   298.150 Kelvin.  Pressure   1.00000 Atm.
 Atom     1 has atomic number  1 and mass   1.00783
 Atom     2 has atomic number  8 and mass  15.99491
 Atom     3 has atomic number  8 and mass  15.99491
 Atom     4 has atomic number  7 and mass  14.00307
 Atom     5 has atomic number  8 and mass  15.99491
 Molecular mass:    62.99564 amu.
 Principal axes and moments of inertia in atomic units:
                           1         2         3
     Eigenvalues --    33.13789 356.96990 390.10779
           X            0.81434  -0.58039   0.00000
           Y            0.58039   0.81434   0.00000
           Z            0.00000   0.00000   1.00000
 This molecule is an asymmetric top.
 Rotational symmetry number  1.
 Rotational temperatures (Kelvin)      2.61374     0.24264     0.22203
 Rotational constants (GHZ):          54.46156     5.05572     4.62626
    1 imaginary frequencies ignored.
 Zero-point vibrational energy      57519.3 (Joules/Mol)
                                   13.74744 (Kcal/Mol)
 Warning -- explicit consideration of   3 degrees of freedom as
           vibrations may cause significant error
 Vibrational temperatures:    330.15   491.54   670.42  1126.41  1394.06
          (Kelvin)           1973.22  2413.91  5436.26
 
 Zero-point correction=                           0.021908 (Hartree/Particle)
 Thermal correction to Energy=                    0.026013
 Thermal correction to Enthalpy=                  0.026958
 Thermal correction to Gibbs Free Energy=        -0.004202
 Sum of electronic and zero-point Energies=           -280.424597
 Sum of electronic and thermal Energies=              -280.420491
 Sum of electronic and thermal Enthalpies=            -280.419547
 Sum of electronic and thermal Free Energies=         -280.450706
 
                     E (Thermal)             CV                S
                      KCal/Mol        Cal/Mol-Kelvin    Cal/Mol-Kelvin
 Total                   16.324             11.924             65.580
 Electronic               0.000              0.000              0.000
 Translational            0.889              2.981             38.341
 Rotational               0.889              2.981             23.049
 Vibrational             14.546              5.962              4.190
 Vibration     1          0.652              1.796              1.883
 Vibration     2          0.721              1.592              1.204
 Vibration     3          0.823              1.326              0.749
                       Q            Log10(Q)             Ln(Q)
 Total Bot       0.856307D+02          1.932630          4.450044
 Total V=0       0.102229D+13         12.009575         27.653068
 Vib (Bot)       0.179182D-09         -9.746706        -22.442620
 Vib (Bot)    1  0.858543D+00         -0.066238         -0.152518
 Vib (Bot)    2  0.542950D+00         -0.265240         -0.610738
 Vib (Bot)    3  0.363219D+00         -0.439831         -1.012748
 Vib (V=0)       0.213914D+01          0.330239          0.760403
 Vib (V=0)    1  0.149353D+01          0.174213          0.401141
 Vib (V=0)    2  0.123810D+01          0.092757          0.213580
 Vib (V=0)    3  0.111800D+01          0.048443          0.111545
 Electronic      0.100000D+01          0.000000          0.000000
 Translational   0.196526D+08          7.293420         16.793719
 Rotational      0.243173D+05          4.385916         10.098945
 
                                                                title
                                                             IR Spectrum
 
     3                                                                      1         1                                              
     7                                                                      6         3             9     7          4   3   2       
     7                                                                      7         7             6     8          6   4   2       
     8                                                                      8         1             9     3          6   2   9       
 
     X                                                                      X         X             X     X          X   X   X       
     X                                                                      X         X             X     X          X               
     X                                                                      X         X                   X          X               
     X                                                                      X         X                   X          X               
     X                                                                      X         X                   X          X               
     X                                                                      X         X                   X          X               
     X                                                                      X         X                   X          X               
     X                                                                      X         X                   X          X               
                                                                            X         X                   X          X               
                                                                            X         X                   X          X               
                                                                            X         X                   X          X               
                                                                            X         X                   X          X               
                                                                            X         X                   X          X               
                                                                            X         X                   X          X               
                                                                                      X                   X          X               
                                                                                                          X          X               
                                                                                                                     X               
                                                                                                                     X               
                                                                                                                     X               
                                                                                                                     X               
 
 ***** Axes restored to original set *****
 -------------------------------------------------------------------
 Center     Atomic                   Forces (Hartrees/Bohr)
 Number     Number              X              Y              Z
 -------------------------------------------------------------------
      1        1          -0.000294458   -0.000000000    0.000036834
      2        8          -0.000490932   -0.000000000   -0.001415188
      3        8          -0.005844641   -0.000000000    0.000845073
      4        7           0.005046162   -0.000000000   -0.006844114
      5        8           0.001583869    0.000000000    0.007377395
 -------------------------------------------------------------------
 Cartesian Forces:  Max     0.007377395 RMS     0.003331126
 -----------------------------------------------------------------------------------------------
                       Internal Coordinate Forces (Hartree/Bohr or radian)
  Cent   Atom   N1       Length/X         N2         Alpha/Y        N3         Beta/Z          J
 -----------------------------------------------------------------------------------------------
      1  H 
      2  O        1  -0.000037(     1)
      3  O        2   0.000961(     2)      1   0.000539(     5)
      4  N        3   0.001075(     3)      2   0.002932(     6)      1  -0.000000(     8)     0
      5  O        4   0.003156(     4)      3   0.015163(     7)      2  -0.000000(     9)     0
 -----------------------------------------------------------------------------------------------
 Internal  Forces:  Max     0.015163161 RMS     0.005279383
 Force constants in Cartesian coordinates: 
                1             2             3             4             5 
      1  0.646396D-01
      2  0.000000D+00 -0.228586D-02
      3  0.550691D-02  0.000000D+00  0.512273D+00
      4 -0.357040D-01  0.000000D+00 -0.163641D-01  0.273488D+00
      5  0.000000D+00  0.286474D-02  0.000000D+00  0.000000D+00  0.211729D-02
      6  0.480673D-01  0.000000D+00 -0.508467D+00  0.346883D-01  0.000000D+00
      7 -0.183196D-01  0.000000D+00  0.123690D-01 -0.219562D+00  0.000000D+00
      8  0.000000D+00  0.106405D-02  0.000000D+00  0.000000D+00 -0.695657D-02
      9 -0.532012D-01  0.000000D+00 -0.674891D-03 -0.195147D-01  0.000000D+00
     10 -0.898522D-02  0.000000D+00 -0.482470D-02 -0.181781D-01  0.000000D+00
     11  0.000000D+00 -0.268213D-02  0.000000D+00  0.000000D+00 -0.433488D-02
     12  0.551150D-02  0.000000D+00 -0.437322D-02  0.117779D-01  0.000000D+00
     13 -0.163076D-02  0.000000D+00  0.331282D-02 -0.434975D-04  0.000000D+00
     14  0.000000D+00  0.103921D-02  0.000000D+00  0.000000D+00  0.630942D-02
     15 -0.588443D-02  0.000000D+00  0.124216D-02 -0.105875D-01  0.000000D+00
                6             7             8             9            10 
      6  0.594435D+00
      7 -0.214972D-01  0.343962D+00
      8  0.000000D+00  0.000000D+00  0.543054D-02
      9 -0.784745D-01  0.415881D-01  0.000000D+00  0.184344D+00
     10 -0.515005D-01 -0.747951D-01  0.000000D+00  0.170741D+00  0.829232D+00
     11  0.000000D+00  0.000000D+00  0.524128D-02  0.000000D+00  0.000000D+00
     12  0.178082D-01  0.616851D-01  0.000000D+00 -0.847517D-01 -0.314096D-01
     13 -0.975786D-02 -0.312851D-01  0.000000D+00 -0.139613D+00 -0.727274D+00
     14  0.000000D+00  0.000000D+00 -0.477931D-02  0.000000D+00  0.000000D+00
     15 -0.253025D-01 -0.941451D-01  0.000000D+00 -0.204432D-01 -0.830063D-01
               11            12            13            14            15 
     11  0.131561D-01
     12  0.000000D+00  0.182881D+00
     13  0.000000D+00 -0.475649D-01  0.760233D+00
     14 -0.113804D-01  0.000000D+00  0.000000D+00  0.881105D-02
     15  0.000000D+00 -0.111564D+00  0.193623D+00  0.000000D+00  0.156067D+00
 Force constants in internal coordinates: 
                1             2             3             4             5 
      1  0.512273D+00
      2 -0.102589D-01  0.282467D+00
      3  0.324447D-02  0.361564D-02  0.121120D+00
      4 -0.350406D-02  0.670847D-02  0.156354D+00  0.813935D+00
      5  0.978927D-02  0.654848D-01  0.227433D-02  0.526578D-02  0.216665D+00
      6  0.452836D-02  0.602888D-01  0.400469D-01  0.242865D-01  0.314302D-01
      7 -0.108222D-02  0.409043D-01  0.437471D-01  0.960050D-01  0.218227D-01
      8  0.000000D+00  0.000000D+00  0.000000D+00  0.000000D+00  0.000000D+00
      9  0.000000D+00  0.000000D+00  0.000000D+00  0.000000D+00  0.000000D+00
                6             7             8             9 
      6  0.282701D+00
      7  0.986361D-01  0.508015D+00
      8  0.000000D+00  0.000000D+00 -0.766663D-02
      9  0.000000D+00  0.000000D+00 -0.398337D-02  0.413649D-01
 Leave Link  716 at Mon Feb 21 21:00:27 2022, MaxMem= 16106127360 cpu:               1.0 elap:               0.1
 (Enter /sw/contrib/gaussian/g16/B01/g16/l103.exe)

 GradGradGradGradGradGradGradGradGradGradGradGradGradGradGradGradGradGrad
 Berny optimization.
 Search for a local minimum.
 Step number   1 out of a maximum of    2
 All quantities printed in internal units (Hartrees-Bohrs-Radians)
 Second derivative matrix not updated -- analytic derivatives used.
 The second derivative matrix:
                          r1        r2        r3        r4        a1
           r1           0.51227
           r2          -0.01026   0.28247
           r3           0.00324   0.00362   0.12112
           r4          -0.00350   0.00671   0.15635   0.81393
           a1           0.00979   0.06548   0.00227   0.00527   0.21666
           a2           0.00453   0.06029   0.04005   0.02429   0.03143
           a3          -0.00108   0.04090   0.04375   0.09601   0.02182
           d1           0.00000  -0.00000  -0.00000  -0.00000  -0.00000
           d2          -0.00000   0.00000   0.00000   0.00000   0.00000
                          a2        a3        d1        d2
           a2           0.28270
           a3           0.09864   0.50801
           d1          -0.00000  -0.00000  -0.00767
           d2          -0.00000   0.00000  -0.00398   0.04136
 ITU=  0
     Eigenvalues ---   -0.00799   0.04169   0.08114   0.17538   0.22440
     Eigenvalues ---    0.32769   0.51295   0.53182   0.88379
 Eigenvalue     1 is  -7.99D-03 should be greater than     0.000000 Eigenvector:
                          d1        d2        a3        a2        r3
   1                    0.99676   0.08045   0.00000   0.00000  -0.00000
                          r4        a1        r2        r1
   1                    0.00000  -0.00000   0.00000  -0.00000
 Angle between quadratic step and forces=  18.14 degrees.
 Linear search not attempted -- first point.
 Variable       Old X    -DE/DX   Delta X   Delta X   Delta X     New X
                                 (Linear)    (Quad)   (Total)
    r1        1.83110  -0.00004   0.00000   0.00000   0.00000   1.83110
    r2        2.74940   0.00096   0.00000  -0.00096  -0.00096   2.74844
    r3        2.75670   0.00108   0.00000  -0.00336  -0.00336   2.75335
    r4        2.21236   0.00316   0.00000   0.00098   0.00098   2.21334
    a1        1.70335   0.00054   0.00000  -0.00031  -0.00031   1.70305
    a2        1.78543   0.00293   0.00000   0.00056   0.00056   1.78599
    a3        1.87290   0.01516   0.00000   0.02993   0.02993   1.90283
    d1        3.14159  -0.00000   0.00000  -0.00000   0.00000   3.14159
    d2        3.14159  -0.00000   0.00000  -0.00000   0.00000   3.14159
         Item               Value     Threshold  Converged?
 Maximum Force            0.015163     0.000450     NO 
 RMS     Force            0.005279     0.000300     NO 
 Maximum Displacement     0.029933     0.001800     NO 
 RMS     Displacement     0.010053     0.001200     NO 
 Predicted change in Energy=-2.269632D-04
                       ----------------------------
                       ! Non-Optimized Parameters !
                       ! (Angstroms and Degrees)  !
 ----------------------                            ----------------------
 !      Name          Value   Derivative information (Atomic Units)     !
 ------------------------------------------------------------------------
 !       r1          0.969    -DE/DX =    0.0                           !
 !       r2          1.4544   -DE/DX =    0.001                         !
 !       r3          1.457    -DE/DX =    0.0011                        !
 !       r4          1.1712   -DE/DX =    0.0032                        !
 !       a1         97.5775   -DE/DX =    0.0005                        !
 !       a2        102.3294   -DE/DX =    0.0029                        !
 !       a3        109.0242   -DE/DX =    0.0152                        !
 !       d1        180.0      -DE/DX =    0.0                           !
 !       d2        180.0      -DE/DX =    0.0                           !
 ------------------------------------------------------------------------
 GradGradGradGradGradGradGradGradGradGradGradGradGradGradGradGradGradGrad

 Leave Link  103 at Mon Feb 21 21:00:27 2022, MaxMem= 16106127360 cpu:               0.6 elap:               0.0
 (Enter /sw/contrib/gaussian/g16/B01/g16/l9999.exe)

 ----------------------------------------------------------------------

 Electric dipole moment (input orientation):
 (Debye = 10**-18 statcoulomb cm , SI units = C m)
                  (au)            (Debye)         (10**-30 SI)
   Tot        0.563226D+00      0.143158D+01      0.477523D+01
   x         -0.149983D+00     -0.381218D+00     -0.127161D+01
   y          0.000000D+00      0.000000D+00      0.000000D+00
   z         -0.542890D+00     -0.137989D+01     -0.460281D+01

 Dipole polarizability, Alpha (input orientation).
 (esu units = cm**3 , SI units = C**2 m**2 J**-1)
 Alpha(0;0):
               (au)            (10**-24 esu)      (10**-40 SI)
   iso        0.272801D+02      0.404250D+01      0.449789D+01
   aniso      0.216755D+02      0.321198D+01      0.357381D+01
   xx         0.321374D+02      0.476228D+01      0.529875D+01
   yx         0.000000D+00      0.000000D+00      0.000000D+00
   yy         0.178954D+02      0.265183D+01      0.295056D+01
   zx         0.951460D+01      0.140992D+01      0.156875D+01
   zy         0.000000D+00      0.000000D+00      0.000000D+00
   zz         0.318075D+02      0.471339D+01      0.524436D+01

 ----------------------------------------------------------------------

 Dipole orientation:
     1         -0.00000000          0.00000000          0.00000000
     8         -0.48760656          0.00000000         -1.76498196
     8          2.04250284          0.00000000         -2.84096591
     7          1.52872981          0.00000000         -5.54936860
     8          3.48121168          0.00000000         -6.58972313

 Electric dipole moment (dipole orientation):
 (Debye = 10**-18 statcoulomb cm , SI units = C m)
                  (au)            (Debye)         (10**-30 SI)
   Tot        0.563226D+00      0.143158D+01      0.477523D+01
   x          0.000000D+00      0.000000D+00      0.000000D+00
   y          0.000000D+00      0.000000D+00      0.000000D+00
   z          0.563226D+00      0.143158D+01      0.477523D+01

 Dipole polarizability, Alpha (dipole orientation).
 (esu units = cm**3 , SI units = C**2 m**2 J**-1)
 Alpha(0;0):
               (au)            (10**-24 esu)      (10**-40 SI)
   iso        0.272801D+02      0.404250D+01      0.449789D+01
   aniso      0.216755D+02      0.321198D+01      0.357381D+01
   xx         0.272297D+02      0.403502D+01      0.448957D+01
   yx         0.000000D+00      0.000000D+00      0.000000D+00
   yy         0.178954D+02      0.265183D+01      0.295056D+01
   zx        -0.824989D+01     -0.122251D+01     -0.136022D+01
   zy         0.000000D+00      0.000000D+00      0.000000D+00
   zz         0.367153D+02      0.544065D+01      0.605353D+01

 ----------------------------------------------------------------------
 1\1\GINC-N2129\Freq\RMP2-FC\Aug-CC-pVTZ\H1N1O3\CGAVINH\21-Feb-2022\1\\
 #p freq mp2/aug-cc-pvtz density=current\\title\\0,1\H\O,1,r1\O,2,r2,1,
 a1\N,3,r3,2,a2,1,d1,0\O,4,r4,3,a3,2,d2,0\\r1=0.96897556\r2=1.45491931\
 r3=1.45878406\r4=1.17072885\a1=97.59494903\a2=102.29752444\a3=107.3091
 885\d1=180.\d2=180.\\Version=ES64L-G16RevB.01\State=1-A'\HF=-279.50155
 15\MP2=-280.4465046\RMSD=3.719e-09\RMSF=3.331e-03\ZeroPoint=0.0219079\
 Thermal=0.0260134\Dipole=-0.1499826,0.,-0.5428896\DipoleDeriv=0.265312
 9,0.,0.0477688,0.,0.3551996,0.,0.0806264,0.,0.2728335,-0.3324481,0.,-0
 .208364,0.,-0.3146551,0.,-0.1137795,0.,-0.2249292,-0.0357481,0.,0.1553
 14,0.,-0.0891489,0.,-0.7427156,0.,-1.3209912,0.898105,0.,0.9000439,0.,
 0.0719818,0.,0.9081254,0.,1.6222265,-0.7952218,0.,-0.8947627,0.,-0.023
 3773,0.,-0.1322567,0.,-0.3491395\Polar=32.1374383,0.,17.8954337,9.5146
 034,0.,31.8075472\Quadrupole=-1.5320373,-0.7120064,2.2440437,0.,2.0648
 717,0.\PG=CS [SG(H1N1O3)]\NImag=1\\0.06463958,0.,-0.00228586,0.0055069
 1,0.,0.51227255,-0.03570398,0.,-0.01636408,0.27348791,0.,0.00286474,0.
 ,0.,0.00211729,0.04806725,0.,-0.50846659,0.03468832,0.,0.59443541,-0.0
 1831960,0.,0.01236905,-0.21956236,0.,-0.02149718,0.34396213,0.,0.00106
 405,0.,0.,-0.00695657,0.,0.,0.00543054,-0.05320124,0.,-0.00067489,-0.0
 1951465,0.,-0.07847450,0.04158813,0.,0.18434431,-0.00898522,0.,-0.0048
 2470,-0.01817807,0.,-0.05150053,-0.07479511,0.,0.17074116,0.82923215,0
 .,-0.00268213,0.,0.,-0.00433488,0.,0.,0.00524128,0.,0.,0.01315610,0.00
 551150,0.,-0.00437322,0.01177789,0.,0.01780817,0.06168510,0.,-0.084751
 74,-0.03140960,0.,0.18288070,-0.00163076,0.,0.00331282,-0.00004350,0.,
 -0.00975786,-0.03128506,0.,-0.13961340,-0.72727375,0.,-0.04756489,0.76
 023308,0.,0.00103921,0.,0.,0.00630942,0.,0.,-0.00477931,0.,0.,-0.01138
 037,0.,0.,0.00881105,-0.00588443,0.,0.00124216,-0.01058748,0.,-0.02530
 249,-0.09414510,0.,-0.02044318,-0.08300633,0.,-0.11156391,0.19362333,0
 .,0.15606743\\0.00029446,0.,-0.00003683,0.00049093,0.,0.00141519,0.005
 84464,0.,-0.00084507,-0.00504616,0.,0.00684411,-0.00158387,0.,-0.00737
 740\\\@


 HOW IS IT THAT THE SKY FEEDS THE STARS?

                           -- LUCRETIUS
 Job cpu time:       0 days  2 hours  1 minutes  7.2 seconds.
 Elapsed time:       0 days  0 hours  4 minutes 22.7 seconds.
 File lengths (MBytes):  RWF=   7239 Int=      0 D2E=      0 Chk=      8 Scr=      1
 Normal termination of Gaussian 16 at Mon Feb 21 21:00:28 2022.
