 Entering Gaussian System, Link 0=g16
 Input=hoono_a3_112p9094.gjf
 Output=hoono_a3_112p9094.log
 Initial command:
 /sw/contrib/gaussian/g16/B01/g16/l1.exe "/scr/Gau-3828.inp" -scrdir="/scr/"
 Entering Link 1 = /sw/contrib/gaussian/g16/B01/g16/l1.exe PID=      3829.
  
 Copyright (c) 1988-2017, Gaussian, Inc.  All Rights Reserved.
  
 This is part of the Gaussian(R) 16 program.  It is based on
 the Gaussian(R) 09 system (copyright 2009, Gaussian, Inc.),
 the Gaussian(R) 03 system (copyright 2003, Gaussian, Inc.),
 the Gaussian(R) 98 system (copyright 1998, Gaussian, Inc.),
 the Gaussian(R) 94 system (copyright 1995, Gaussian, Inc.),
 the Gaussian 92(TM) system (copyright 1992, Gaussian, Inc.),
 the Gaussian 90(TM) system (copyright 1990, Gaussian, Inc.),
 the Gaussian 88(TM) system (copyright 1988, Gaussian, Inc.),
 the Gaussian 86(TM) system (copyright 1986, Carnegie Mellon
 University), and the Gaussian 82(TM) system (copyright 1983,
 Carnegie Mellon University). Gaussian is a federally registered
 trademark of Gaussian, Inc.
  
 This software contains proprietary and confidential information,
 including trade secrets, belonging to Gaussian, Inc.
  
 This software is provided under written license and may be
 used, copied, transmitted, or stored only in accord with that
 written license.
  
 The following legend is applicable only to US Government
 contracts under FAR:
  
                    RESTRICTED RIGHTS LEGEND
  
 Use, reproduction and disclosure by the US Government is
 subject to restrictions as set forth in subparagraphs (a)
 and (c) of the Commercial Computer Software - Restricted
 Rights clause in FAR 52.227-19.
  
 Gaussian, Inc.
 340 Quinnipiac St., Bldg. 40, Wallingford CT 06492
  
  
 ---------------------------------------------------------------
 Warning -- This program may not be used in any manner that
 competes with the business of Gaussian, Inc. or will provide
 assistance to any competitor of Gaussian, Inc.  The licensee
 of this program is prohibited from giving any competitor of
 Gaussian, Inc. access to this program.  By using this program,
 the user acknowledges that Gaussian, Inc. is engaged in the
 business of creating and licensing software in the field of
 computational chemistry and represents and warrants to the
 licensee that it is not a competitor of Gaussian, Inc. and that
 it will not use this program in any manner prohibited above.
 ---------------------------------------------------------------
  

 Cite this work as:
 Gaussian 16, Revision B.01,
 M. J. Frisch, G. W. Trucks, H. B. Schlegel, G. E. Scuseria, 
 M. A. Robb, J. R. Cheeseman, G. Scalmani, V. Barone, 
 G. A. Petersson, H. Nakatsuji, X. Li, M. Caricato, A. V. Marenich, 
 J. Bloino, B. G. Janesko, R. Gomperts, B. Mennucci, H. P. Hratchian, 
 J. V. Ortiz, A. F. Izmaylov, J. L. Sonnenberg, D. Williams-Young, 
 F. Ding, F. Lipparini, F. Egidi, J. Goings, B. Peng, A. Petrone, 
 T. Henderson, D. Ranasinghe, V. G. Zakrzewski, J. Gao, N. Rega, 
 G. Zheng, W. Liang, M. Hada, M. Ehara, K. Toyota, R. Fukuda, 
 J. Hasegawa, M. Ishida, T. Nakajima, Y. Honda, O. Kitao, H. Nakai, 
 T. Vreven, K. Throssell, J. A. Montgomery, Jr., J. E. Peralta, 
 F. Ogliaro, M. J. Bearpark, J. J. Heyd, E. N. Brothers, K. N. Kudin, 
 V. N. Staroverov, T. A. Keith, R. Kobayashi, J. Normand, 
 K. Raghavachari, A. P. Rendell, J. C. Burant, S. S. Iyengar, 
 J. Tomasi, M. Cossi, J. M. Millam, M. Klene, C. Adamo, R. Cammi, 
 J. W. Ochterski, R. L. Martin, K. Morokuma, O. Farkas, 
 J. B. Foresman, and D. J. Fox, Gaussian, Inc., Wallingford CT, 2016.
 
 ******************************************
 Gaussian 16:  ES64L-G16RevB.01 20-Dec-2017
                 6-Mar-2022 
 ******************************************
 %nproc=28
 Will use up to   28 processors via shared memory.
 %mem=120GB
 %chk=hoono_a3_112p9094.chk
 ---------------------------------------
 #p freq mp2/aug-cc-pvtz density=current
 ---------------------------------------
 1/10=4,30=1,38=1/1,3;
 2/12=2,17=6,18=5,40=1/2;
 3/5=16,6=1,7=10,11=9,25=1,30=1,71=2,140=1/1,2,3;
 4//1;
 5/5=2,38=5,98=1/2;
 8/6=3,8=1,10=1,19=11,30=-1/1;
 9/15=3,16=-3/6;
 11/6=1,8=1,15=11,17=12,24=-1,27=1,28=-2,29=300,32=6,42=3/1,2,10;
 10/6=2,21=1/2;
 8/6=4,8=1,10=1,19=11,30=-1/11,4;
 10/5=1,20=4/2;
 11/12=2,14=11,16=1,17=2,28=-2,42=3,76=2/2,10,12;
 6/7=2,8=2,9=2,10=2,22=-1/1;
 7/8=1,10=1,12=2,25=1,44=2/1,2,3,16;
 1/10=4,30=1/3;
 99//99;
 Leave Link    1 at Sun Mar  6 19:44:24 2022, MaxMem= 16106127360 cpu:               1.7 elap:               0.1
 (Enter /sw/contrib/gaussian/g16/B01/g16/l101.exe)
 -----
 title
 -----
 Symbolic Z-matrix:
 Charge =  0 Multiplicity = 1
 H
 O                    1    r1
 O                    2    r2       1    a1
 N                    3    r3       2    a2       1    d1       0
 O                    4    r4       3    a3       2    d2       0
       Variables:
  r1                    0.98538                  
  r2                    1.42674                  
  r3                    1.38111                  
  r4                    1.19479                  
  a1                  100.63551                  
  a2                  113.13777                  
  a3                  112.90944                  
  d1                    0.                       
  d2                    0.                       
 
 ITRead=  0  0  0  0  0
 MicOpt= -1 -1 -1 -1 -1
 NAtoms=      5 NQM=        5 NQMF=       0 NMMI=      0 NMMIF=      0
                NMic=       0 NMicF=      0.
                    Isotopes and Nuclear Properties:
 (Nuclear quadrupole moments (NQMom) in fm**2, nuclear magnetic moments (NMagM)
  in nuclear magnetons)

  Atom         1           2           3           4           5
 IAtWgt=           1          16          16          14          16
 AtmWgt=   1.0078250  15.9949146  15.9949146  14.0030740  15.9949146
 NucSpn=           1           0           0           2           0
 AtZEff=  -0.0000000  -0.0000000  -0.0000000  -0.0000000  -0.0000000
 NQMom=    0.0000000   0.0000000   0.0000000   2.0440000   0.0000000
 NMagM=    2.7928460   0.0000000   0.0000000   0.4037610   0.0000000
 AtZNuc=   1.0000000   8.0000000   8.0000000   7.0000000   8.0000000
 Leave Link  101 at Sun Mar  6 19:44:24 2022, MaxMem= 16106127360 cpu:               3.9 elap:               0.2
 (Enter /sw/contrib/gaussian/g16/B01/g16/l103.exe)

 GradGradGradGradGradGradGradGradGradGradGradGradGradGradGradGradGradGrad
 Berny optimization.
 Initialization pass.
                       ----------------------------
                       !    Initial Parameters    !
                       ! (Angstroms and Degrees)  !
 ----------------------                            ----------------------
 !      Name          Value   Derivative information (Atomic Units)     !
 ------------------------------------------------------------------------
 !       r1          0.9854   calculate D2E/DX2 analytically            !
 !       r2          1.4267   calculate D2E/DX2 analytically            !
 !       r3          1.3811   calculate D2E/DX2 analytically            !
 !       r4          1.1948   calculate D2E/DX2 analytically            !
 !       a1        100.6355   calculate D2E/DX2 analytically            !
 !       a2        113.1378   calculate D2E/DX2 analytically            !
 !       a3        112.9094   calculate D2E/DX2 analytically            !
 !       d1          0.0      calculate D2E/DX2 analytically            !
 !       d2          0.0      calculate D2E/DX2 analytically            !
 ------------------------------------------------------------------------
 Trust Radius=3.00D-01 FncErr=1.00D-07 GrdErr=1.00D-07 EigMax=2.50D+02 EigMin=1.00D-04
 Number of steps in this run=      2 maximum allowed number of steps=      2.
 GradGradGradGradGradGradGradGradGradGradGradGradGradGradGradGradGradGrad

 Leave Link  103 at Sun Mar  6 19:44:24 2022, MaxMem= 16106127360 cpu:               1.2 elap:               0.1
 (Enter /sw/contrib/gaussian/g16/B01/g16/l202.exe)
                          Input orientation:                          
 ---------------------------------------------------------------------
 Center     Atomic      Atomic             Coordinates (Angstroms)
 Number     Number       Type             X           Y           Z
 ---------------------------------------------------------------------
      1          1           0        0.000000    0.000000    0.000000
      2          8           0        0.000000    0.000000    0.985377
      3          8           0        1.402227    0.000000    1.248696
      4          7           0        2.169996    0.000000    0.100659
      5          8           0        1.513728    0.000000   -0.897756
 ---------------------------------------------------------------------
                    Distance matrix (angstroms):
                    1          2          3          4          5
     1  H    0.000000
     2  O    0.985377   0.000000
     3  O    1.877627   1.426737   0.000000
     4  N    2.172329   2.343418   1.381108   0.000000
     5  O    1.759926   2.416105   2.149346   1.194788   0.000000
 Stoichiometry    HNO3
 Framework group  CS[SG(HNO3)]
 Deg. of freedom     7
 Full point group                 CS      NOp   2
 Largest Abelian subgroup         CS      NOp   2
 Largest concise Abelian subgroup C1      NOp   1
                         Standard orientation:                         
 ---------------------------------------------------------------------
 Center     Atomic      Atomic             Coordinates (Angstroms)
 Number     Number       Type             X           Y           Z
 ---------------------------------------------------------------------
      1          1           0        1.097636   -0.608962    0.000000
      2          8           0        1.311596    0.352905    0.000000
      3          8           0        0.000000    0.914414   -0.000000
      4          7           0       -0.998730   -0.039523   -0.000000
      5          8           0       -0.574912   -1.156616   -0.000000
 ---------------------------------------------------------------------
 Rotational constants (GHZ):          21.2049353           8.2462997           5.9373487
 Leave Link  202 at Sun Mar  6 19:44:25 2022, MaxMem= 16106127360 cpu:               1.6 elap:               0.1
 (Enter /sw/contrib/gaussian/g16/B01/g16/l301.exe)
 Standard basis: Aug-CC-pVTZ (5D, 7F)
 Ernie: Thresh=  0.10000D-02 Tol=  0.10000D-05 Strict=F.
 Ernie:  12 primitive shells out of 131 were deleted.
 There are   166 symmetry adapted cartesian basis functions of A'  symmetry.
 There are    79 symmetry adapted cartesian basis functions of A"  symmetry.
 There are   136 symmetry adapted basis functions of A'  symmetry.
 There are    71 symmetry adapted basis functions of A"  symmetry.
   207 basis functions,   315 primitive gaussians,   245 cartesian basis functions
    16 alpha electrons       16 beta electrons
       nuclear repulsion energy       123.0784387264 Hartrees.
 IExCor=    0 DFT=F Ex=HF Corr=None ExCW=0 ScaHFX=  1.000000
 ScaDFX=  1.000000  1.000000  1.000000  1.000000 ScalE2=  1.000000  1.000000
 IRadAn=      5 IRanWt=     -1 IRanGd=            0 ICorTp=0 IEmpDi=  4
 NAtoms=    5 NActive=    5 NUniq=    5 SFac= 1.00D+00 NAtFMM=   60 NAOKFM=F Big=F
 Integral buffers will be    131072 words long.
 Raffenetti 1 integral format.
 Two-electron integral symmetry is turned on.
 Leave Link  301 at Sun Mar  6 19:44:25 2022, MaxMem= 16106127360 cpu:               1.5 elap:               0.1
 (Enter /sw/contrib/gaussian/g16/B01/g16/l302.exe)
 NPDir=0 NMtPBC=     1 NCelOv=     1 NCel=       1 NClECP=     1 NCelD=      1
         NCelK=      1 NCelE2=     1 NClLst=     1 CellRange=     0.0.
 One-electron integrals computed using PRISM.
 One-electron integral symmetry used in STVInt
 NBasis=   207 RedAO= T EigKep=  1.31D-04  NBF=   136    71
 NBsUse=   207 1.00D-06 EigRej= -1.00D+00 NBFU=   136    71
 Leave Link  302 at Sun Mar  6 19:44:25 2022, MaxMem= 16106127360 cpu:               5.7 elap:               0.2
 (Enter /sw/contrib/gaussian/g16/B01/g16/l303.exe)
 DipDrv:  MaxL=1.
 Leave Link  303 at Sun Mar  6 19:44:25 2022, MaxMem= 16106127360 cpu:               0.9 elap:               0.1
 (Enter /sw/contrib/gaussian/g16/B01/g16/l401.exe)
 ExpMin= 2.53D-02 ExpMax= 1.53D+04 ExpMxC= 5.22D+02 IAcc=3 IRadAn=         5 AccDes= 0.00D+00
 Harris functional with IExCor=  205 and IRadAn=       5 diagonalized for initial guess.
 HarFok:  IExCor=  205 AccDes= 0.00D+00 IRadAn=         5 IDoV= 1 UseB2=F ITyADJ=14
 ICtDFT=  3500011 ScaDFX=  1.000000  1.000000  1.000000  1.000000
 FoFCou: FMM=F IPFlag=           0 FMFlag=      100000 FMFlg1=           0
         NFxFlg=           0 DoJE=T BraDBF=F KetDBF=T FulRan=T
         wScrn=  0.000000 ICntrl=       500 IOpCl=  0 I1Cent=   200000004 NGrid=           0
         NMat0=    1 NMatS0=      1 NMatT0=    0 NMatD0=    1 NMtDS0=    0 NMtDT0=    0
 Petite list used in FoFCou.
 Harris En= -279.645017550839    
 JPrj=0 DoOrth=F DoCkMO=F.
 Initial guess orbital symmetries:
       Occupied  (A') (A') (A') (A') (A') (A') (A') (A') (A') (A')
                 (A") (A') (A") (A') (A") (A')
       Virtual   (A") (A') (A') (A') (A') (A") (A') (A') (A') (A')
                 (A") (A') (A") (A') (A') (A") (A') (A') (A") (A')
                 (A') (A') (A') (A') (A") (A') (A') (A') (A") (A')
                 (A') (A") (A") (A') (A') (A") (A') (A") (A') (A")
                 (A') (A") (A') (A") (A') (A') (A') (A") (A') (A')
                 (A') (A") (A') (A") (A') (A") (A') (A') (A') (A")
                 (A') (A') (A") (A') (A') (A") (A') (A") (A') (A')
                 (A") (A') (A") (A") (A') (A') (A") (A') (A') (A')
                 (A") (A') (A') (A") (A') (A") (A") (A') (A') (A')
                 (A') (A") (A') (A") (A') (A') (A") (A') (A") (A')
                 (A") (A') (A") (A') (A") (A') (A') (A') (A") (A')
                 (A") (A') (A') (A') (A") (A') (A') (A') (A") (A')
                 (A") (A') (A') (A") (A") (A") (A") (A') (A') (A')
                 (A') (A') (A') (A") (A') (A") (A') (A") (A') (A')
                 (A") (A") (A') (A') (A') (A") (A') (A') (A') (A")
                 (A') (A') (A') (A") (A') (A") (A") (A') (A') (A")
                 (A') (A") (A") (A') (A") (A') (A") (A') (A") (A')
                 (A") (A") (A") (A') (A") (A') (A') (A') (A") (A')
                 (A') (A') (A') (A') (A') (A') (A') (A') (A') (A')
                 (A')
 The electronic state of the initial guess is 1-A'.
 Leave Link  401 at Sun Mar  6 19:44:25 2022, MaxMem= 16106127360 cpu:               7.2 elap:               0.3
 (Enter /sw/contrib/gaussian/g16/B01/g16/l502.exe)
 Keep R1 ints in memory in symmetry-blocked form, NReq=348887737.
 FoFCou: FMM=F IPFlag=           0 FMFlag=           0 FMFlg1=           0
         NFxFlg=           0 DoJE=F BraDBF=F KetDBF=F FulRan=T
         wScrn=  0.000000 ICntrl=       600 IOpCl=  0 I1Cent=           0 NGrid=           0
         NMat0=    1 NMatS0=  21528 NMatT0=    0 NMatD0=    1 NMtDS0=    0 NMtDT0=    0
 Petite list used in FoFCou.
 Closed shell SCF:
 Using DIIS extrapolation, IDIIS=  1040.
 NGot= 16106127360 LenX= 15988850015 LenY= 15988789549
 Requested convergence on RMS density matrix=1.00D-08 within 128 cycles.
 Requested convergence on MAX density matrix=1.00D-06.
 Requested convergence on             energy=1.00D-06.
 No special actions if energy rises.

 Cycle   1  Pass 1  IDiag  1:
 E= -279.363941531649    
 DIIS: error= 2.78D-02 at cycle   1 NSaved=   1.
 NSaved= 1 IEnMin= 1 EnMin= -279.363941531649     IErMin= 1 ErrMin= 2.78D-02
 ErrMax= 2.78D-02  0.00D+00 EMaxC= 1.00D-01 BMatC= 4.51D-01 BMatP= 4.51D-01
 IDIUse=3 WtCom= 7.22D-01 WtEn= 2.78D-01
 Coeff-Com:  0.100D+01
 Coeff-En:   0.100D+01
 Coeff:      0.100D+01
 Gap=     0.496 Goal=   None    Shift=    0.000
 GapD=    0.496 DampG=2.000 DampE=0.500 DampFc=1.0000 IDamp=-1.
 RMSDP=1.69D-03 MaxDP=9.03D-02              OVMax= 1.24D-01

 Cycle   2  Pass 1  IDiag  1:
 E= -279.445897962477     Delta-E=       -0.081956430828 Rises=F Damp=F
 DIIS: error= 1.96D-02 at cycle   2 NSaved=   2.
 NSaved= 2 IEnMin= 2 EnMin= -279.445897962477     IErMin= 2 ErrMin= 1.96D-02
 ErrMax= 1.96D-02  0.00D+00 EMaxC= 1.00D-01 BMatC= 8.61D-02 BMatP= 4.51D-01
 IDIUse=3 WtCom= 8.04D-01 WtEn= 1.96D-01
 Coeff-Com:  0.219D+00 0.781D+00
 Coeff-En:   0.788D-01 0.921D+00
 Coeff:      0.191D+00 0.809D+00
 Gap=     0.562 Goal=   None    Shift=    0.000
 RMSDP=9.68D-04 MaxDP=3.66D-02 DE=-8.20D-02 OVMax= 9.19D-02

 Cycle   3  Pass 1  IDiag  1:
 E= -279.483839183929     Delta-E=       -0.037941221452 Rises=F Damp=F
 DIIS: error= 1.09D-02 at cycle   3 NSaved=   3.
 NSaved= 3 IEnMin= 3 EnMin= -279.483839183929     IErMin= 3 ErrMin= 1.09D-02
 ErrMax= 1.09D-02  0.00D+00 EMaxC= 1.00D-01 BMatC= 3.08D-02 BMatP= 8.61D-02
 IDIUse=3 WtCom= 8.91D-01 WtEn= 1.09D-01
 Coeff-Com: -0.347D-01 0.364D+00 0.671D+00
 Coeff-En:   0.000D+00 0.216D+00 0.784D+00
 Coeff:     -0.310D-01 0.348D+00 0.683D+00
 Gap=     0.540 Goal=   None    Shift=    0.000
 RMSDP=4.10D-04 MaxDP=1.61D-02 DE=-3.79D-02 OVMax= 3.85D-02

 Cycle   4  Pass 1  IDiag  1:
 E= -279.504870666366     Delta-E=       -0.021031482437 Rises=F Damp=F
 DIIS: error= 1.59D-03 at cycle   4 NSaved=   4.
 NSaved= 4 IEnMin= 4 EnMin= -279.504870666366     IErMin= 4 ErrMin= 1.59D-03
 ErrMax= 1.59D-03  0.00D+00 EMaxC= 1.00D-01 BMatC= 5.92D-04 BMatP= 3.08D-02
 IDIUse=3 WtCom= 9.84D-01 WtEn= 1.59D-02
 Coeff-Com: -0.119D-01 0.470D-01 0.153D+00 0.812D+00
 Coeff-En:   0.000D+00 0.000D+00 0.000D+00 0.100D+01
 Coeff:     -0.117D-01 0.462D-01 0.151D+00 0.815D+00
 Gap=     0.527 Goal=   None    Shift=    0.000
 RMSDP=9.82D-05 MaxDP=2.29D-03 DE=-2.10D-02 OVMax= 1.17D-02

 Cycle   5  Pass 1  IDiag  1:
 E= -279.505673404222     Delta-E=       -0.000802737855 Rises=F Damp=F
 DIIS: error= 1.10D-03 at cycle   5 NSaved=   5.
 NSaved= 5 IEnMin= 5 EnMin= -279.505673404222     IErMin= 5 ErrMin= 1.10D-03
 ErrMax= 1.10D-03  0.00D+00 EMaxC= 1.00D-01 BMatC= 1.02D-04 BMatP= 5.92D-04
 IDIUse=3 WtCom= 9.89D-01 WtEn= 1.10D-02
 Coeff-Com:  0.537D-02-0.657D-01-0.111D+00 0.598D-01 0.111D+01
 Coeff-En:   0.000D+00 0.000D+00 0.000D+00 0.000D+00 0.100D+01
 Coeff:      0.531D-02-0.650D-01-0.110D+00 0.592D-01 0.111D+01
 Gap=     0.531 Goal=   None    Shift=    0.000
 RMSDP=7.96D-05 MaxDP=2.11D-03 DE=-8.03D-04 OVMax= 1.29D-02

 Cycle   6  Pass 1  IDiag  1:
 E= -279.506034240620     Delta-E=       -0.000360836398 Rises=F Damp=F
 DIIS: error= 3.32D-04 at cycle   6 NSaved=   6.
 NSaved= 6 IEnMin= 6 EnMin= -279.506034240620     IErMin= 6 ErrMin= 3.32D-04
 ErrMax= 3.32D-04  0.00D+00 EMaxC= 1.00D-01 BMatC= 2.42D-05 BMatP= 1.02D-04
 IDIUse=3 WtCom= 9.97D-01 WtEn= 3.32D-03
 Coeff-Com:  0.189D-02-0.719D-02-0.180D-01-0.185D+00 0.166D-01 0.119D+01
 Coeff-En:   0.000D+00 0.000D+00 0.000D+00 0.000D+00 0.000D+00 0.100D+01
 Coeff:      0.188D-02-0.717D-02-0.180D-01-0.184D+00 0.165D-01 0.119D+01
 Gap=     0.531 Goal=   None    Shift=    0.000
 RMSDP=4.66D-05 MaxDP=1.08D-03 DE=-3.61D-04 OVMax= 6.14D-03

 Cycle   7  Pass 1  IDiag  1:
 E= -279.506120097703     Delta-E=       -0.000085857083 Rises=F Damp=F
 DIIS: error= 1.28D-04 at cycle   7 NSaved=   7.
 NSaved= 7 IEnMin= 7 EnMin= -279.506120097703     IErMin= 7 ErrMin= 1.28D-04
 ErrMax= 1.28D-04  0.00D+00 EMaxC= 1.00D-01 BMatC= 3.57D-06 BMatP= 2.42D-05
 IDIUse=3 WtCom= 9.99D-01 WtEn= 1.28D-03
 Coeff-Com: -0.108D-02 0.113D-01 0.249D-01 0.152D-01-0.181D+00-0.144D+00
 Coeff-Com:  0.127D+01
 Coeff-En:   0.000D+00 0.000D+00 0.000D+00 0.000D+00 0.000D+00 0.000D+00
 Coeff-En:   0.100D+01
 Coeff:     -0.107D-02 0.113D-01 0.248D-01 0.152D-01-0.180D+00-0.144D+00
 Coeff:      0.127D+01
 Gap=     0.532 Goal=   None    Shift=    0.000
 RMSDP=1.74D-05 MaxDP=5.09D-04 DE=-8.59D-05 OVMax= 2.33D-03

 Cycle   8  Pass 1  IDiag  1:
 E= -279.506132042905     Delta-E=       -0.000011945203 Rises=F Damp=F
 DIIS: error= 4.69D-05 at cycle   8 NSaved=   8.
 NSaved= 8 IEnMin= 8 EnMin= -279.506132042905     IErMin= 8 ErrMin= 4.69D-05
 ErrMax= 4.69D-05  0.00D+00 EMaxC= 1.00D-01 BMatC= 6.05D-07 BMatP= 3.57D-06
 IDIUse=1 WtCom= 1.00D+00 WtEn= 0.00D+00
 Coeff-Com: -0.566D-03 0.415D-02 0.985D-02 0.253D-01-0.578D-01-0.193D+00
 Coeff-Com:  0.353D+00 0.859D+00
 Coeff:     -0.566D-03 0.415D-02 0.985D-02 0.253D-01-0.578D-01-0.193D+00
 Coeff:      0.353D+00 0.859D+00
 Gap=     0.532 Goal=   None    Shift=    0.000
 RMSDP=5.48D-06 MaxDP=1.53D-04 DE=-1.19D-05 OVMax= 6.59D-04

 Cycle   9  Pass 1  IDiag  1:
 E= -279.506133435093     Delta-E=       -0.000001392187 Rises=F Damp=F
 DIIS: error= 2.44D-05 at cycle   9 NSaved=   9.
 NSaved= 9 IEnMin= 9 EnMin= -279.506133435093     IErMin= 9 ErrMin= 2.44D-05
 ErrMax= 2.44D-05  0.00D+00 EMaxC= 1.00D-01 BMatC= 1.15D-07 BMatP= 6.05D-07
 IDIUse=1 WtCom= 1.00D+00 WtEn= 0.00D+00
 Coeff-Com:  0.240D-03-0.254D-02-0.532D-02-0.561D-02 0.466D-01 0.491D-01
 Coeff-Com: -0.338D+00 0.259D-01 0.123D+01
 Coeff:      0.240D-03-0.254D-02-0.532D-02-0.561D-02 0.466D-01 0.491D-01
 Coeff:     -0.338D+00 0.259D-01 0.123D+01
 Gap=     0.532 Goal=   None    Shift=    0.000
 RMSDP=2.47D-06 MaxDP=6.72D-05 DE=-1.39D-06 OVMax= 2.59D-04

 Cycle  10  Pass 1  IDiag  1:
 E= -279.506133696888     Delta-E=       -0.000000261795 Rises=F Damp=F
 DIIS: error= 5.42D-06 at cycle  10 NSaved=  10.
 NSaved=10 IEnMin=10 EnMin= -279.506133696888     IErMin=10 ErrMin= 5.42D-06
 ErrMax= 5.42D-06  0.00D+00 EMaxC= 1.00D-01 BMatC= 8.17D-09 BMatP= 1.15D-07
 IDIUse=1 WtCom= 1.00D+00 WtEn= 0.00D+00
 Coeff-Com: -0.365D-04 0.472D-03 0.115D-02-0.188D-02-0.105D-01 0.550D-02
 Coeff-Com:  0.699D-01-0.507D-01-0.428D+00 0.141D+01
 Coeff:     -0.365D-04 0.472D-03 0.115D-02-0.188D-02-0.105D-01 0.550D-02
 Coeff:      0.699D-01-0.507D-01-0.428D+00 0.141D+01
 Gap=     0.532 Goal=   None    Shift=    0.000
 RMSDP=6.94D-07 MaxDP=2.50D-05 DE=-2.62D-07 OVMax= 7.46D-05

 Cycle  11  Pass 1  IDiag  1:
 E= -279.506133721344     Delta-E=       -0.000000024456 Rises=F Damp=F
 DIIS: error= 2.17D-06 at cycle  11 NSaved=  11.
 NSaved=11 IEnMin=11 EnMin= -279.506133721344     IErMin=11 ErrMin= 2.17D-06
 ErrMax= 2.17D-06  0.00D+00 EMaxC= 1.00D-01 BMatC= 8.60D-10 BMatP= 8.17D-09
 IDIUse=1 WtCom= 1.00D+00 WtEn= 0.00D+00
 Coeff-Com: -0.172D-04 0.177D-03 0.373D-03 0.879D-03-0.243D-02-0.722D-02
 Coeff-Com:  0.207D-01 0.188D-01-0.602D-01-0.301D+00 0.133D+01
 Coeff:     -0.172D-04 0.177D-03 0.373D-03 0.879D-03-0.243D-02-0.722D-02
 Coeff:      0.207D-01 0.188D-01-0.602D-01-0.301D+00 0.133D+01
 Gap=     0.532 Goal=   None    Shift=    0.000
 RMSDP=2.43D-07 MaxDP=9.03D-06 DE=-2.45D-08 OVMax= 2.85D-05

 Cycle  12  Pass 1  IDiag  1:
 E= -279.506133724392     Delta-E=       -0.000000003048 Rises=F Damp=F
 DIIS: error= 7.66D-07 at cycle  12 NSaved=  12.
 NSaved=12 IEnMin=12 EnMin= -279.506133724392     IErMin=12 ErrMin= 7.66D-07
 ErrMax= 7.66D-07  0.00D+00 EMaxC= 1.00D-01 BMatC= 9.35D-11 BMatP= 8.60D-10
 IDIUse=1 WtCom= 1.00D+00 WtEn= 0.00D+00
 Coeff-Com:  0.239D-05-0.436D-04-0.966D-04 0.166D-03 0.114D-02-0.956D-03
 Coeff-Com: -0.722D-02 0.698D-02 0.424D-01-0.127D+00-0.162D+00 0.125D+01
 Coeff:      0.239D-05-0.436D-04-0.966D-04 0.166D-03 0.114D-02-0.956D-03
 Coeff:     -0.722D-02 0.698D-02 0.424D-01-0.127D+00-0.162D+00 0.125D+01
 Gap=     0.532 Goal=   None    Shift=    0.000
 RMSDP=8.75D-08 MaxDP=2.87D-06 DE=-3.05D-09 OVMax= 1.02D-05

 Cycle  13  Pass 1  IDiag  1:
 E= -279.506133724721     Delta-E=       -0.000000000330 Rises=F Damp=F
 DIIS: error= 1.59D-07 at cycle  13 NSaved=  13.
 NSaved=13 IEnMin=13 EnMin= -279.506133724721     IErMin=13 ErrMin= 1.59D-07
 ErrMax= 1.59D-07  0.00D+00 EMaxC= 1.00D-01 BMatC= 7.94D-12 BMatP= 9.35D-11
 IDIUse=1 WtCom= 1.00D+00 WtEn= 0.00D+00
 Coeff-Com:  0.138D-05-0.135D-04-0.200D-04-0.125D-03 0.726D-04 0.956D-03
 Coeff-Com: -0.125D-02-0.255D-02-0.108D-02 0.545D-01-0.131D+00-0.152D+00
 Coeff-Com:  0.123D+01
 Coeff:      0.138D-05-0.135D-04-0.200D-04-0.125D-03 0.726D-04 0.956D-03
 Coeff:     -0.125D-02-0.255D-02-0.108D-02 0.545D-01-0.131D+00-0.152D+00
 Coeff:      0.123D+01
 Gap=     0.532 Goal=   None    Shift=    0.000
 RMSDP=2.36D-08 MaxDP=7.00D-07 DE=-3.30D-10 OVMax= 2.16D-06

 Cycle  14  Pass 1  IDiag  1:
 E= -279.506133724744     Delta-E=       -0.000000000023 Rises=F Damp=F
 DIIS: error= 4.18D-08 at cycle  14 NSaved=  14.
 NSaved=14 IEnMin=14 EnMin= -279.506133724744     IErMin=14 ErrMin= 4.18D-08
 ErrMax= 4.18D-08  0.00D+00 EMaxC= 1.00D-01 BMatC= 5.11D-13 BMatP= 7.94D-12
 IDIUse=1 WtCom= 1.00D+00 WtEn= 0.00D+00
 Coeff-Com: -0.288D-06 0.437D-05 0.892D-05-0.588D-05-0.114D-03 0.745D-04
 Coeff-Com:  0.638D-03-0.345D-03-0.366D-02 0.868D-02 0.163D-01-0.883D-01
 Coeff-Com: -0.289D-01 0.110D+01
 Coeff:     -0.288D-06 0.437D-05 0.892D-05-0.588D-05-0.114D-03 0.745D-04
 Coeff:      0.638D-03-0.345D-03-0.366D-02 0.868D-02 0.163D-01-0.883D-01
 Coeff:     -0.289D-01 0.110D+01
 Gap=     0.532 Goal=   None    Shift=    0.000
 RMSDP=4.56D-09 MaxDP=1.14D-07 DE=-2.25D-11 OVMax= 4.78D-07

 SCF Done:  E(RHF) =  -279.506133725     A.U. after   14 cycles
            NFock= 14  Conv=0.46D-08     -V/T= 2.0022
 KE= 2.788974048265D+02 PE=-9.070435715835D+02 EE= 2.255615943059D+02
 Leave Link  502 at Sun Mar  6 19:44:29 2022, MaxMem= 16106127360 cpu:              55.8 elap:               3.6
 (Enter /sw/contrib/gaussian/g16/B01/g16/l801.exe)
 ExpMin= 2.53D-02 ExpMax= 1.53D+04 ExpMxC= 5.22D+02 IAcc=3 IRadAn=         5 AccDes= 0.00D+00
 HarFok:  IExCor=  205 AccDes= 0.00D+00 IRadAn=         5 IDoV=-2 UseB2=F ITyADJ=14
 ICtDFT= 12500011 ScaDFX=  1.000000  1.000000  1.000000  1.000000
 Largest valence mixing into a core orbital is  2.07D-04
 Largest core mixing into a valence orbital is  3.13D-05
 Range of M.O.s used for correlation:     5   207
 NBasis=   207 NAE=    16 NBE=    16 NFC=     4 NFV=     0
 NROrb=    203 NOA=    12 NOB=    12 NVA=   191 NVB=   191

 **** Warning!!: The largest alpha MO coefficient is  0.16649665D+02

 Leave Link  801 at Sun Mar  6 19:44:29 2022, MaxMem= 16106127360 cpu:               2.4 elap:               0.1
 (Enter /sw/contrib/gaussian/g16/B01/g16/l906.exe)
 Frozen-core derivative calculation, NFC=   4 NFV=   0.
 FulOut=F Deriv=T AODrv=T NAtomX=     5
   MMem=           0  MDisk=          12 MDiskD=          12
  W3Min=      811440 MinDsk=     2425030 NBas6D=         245
 NBas2D=       30762    NTT=       30135    LW2=     7400000
    MDV= 16105571518 MDiskM=      328644 NBas2p=       30759
 Disk-based method using ON**2 memory for 12 occupieds at a time.
 Permanent disk used for amplitudes=    11516536 words.
 Estimated scratch disk usage=   321863743 words.
 IMap=   1   2   3   4   5   6   7   8   9  10  11  12  13  14  15  16
 Actual    scratch disk usage=   310892607 words.
 JobTyp=1 Pass  1:  I=   5 to  16 NPSUse= 28 ParTrn=T ParDer=T DoDerP=T.
 (rs|ai) integrals will be sorted in core.
 Spin components of T(2) and E(2):
     alpha-alpha T2 =       0.3479786241D-01 E2=     -0.1246087820D+00
     alpha-beta  T2 =       0.1843887443D+00 E2=     -0.6996822659D+00
     beta-beta   T2 =       0.3479786241D-01 E2=     -0.1246087820D+00
 The integrals were generated   1 times.
 ANorm=    0.1119814480D+01
 E2 =    -0.9488998298D+00 EUMP2 =    -0.28045503355457D+03
 Leave Link  906 at Sun Mar  6 19:46:06 2022, MaxMem= 16106127360 cpu:            2707.6 elap:              96.8
 (Enter /sw/contrib/gaussian/g16/B01/g16/l1101.exe)
 Using compressed Sx but separate Hx and Fx, NAtomX=     5.
 Will process      6 centers per pass.
 Leave Link 1101 at Sun Mar  6 19:46:06 2022, MaxMem= 16106127360 cpu:               5.6 elap:               0.2
 (Enter /sw/contrib/gaussian/g16/B01/g16/l1102.exe)
 Leave Link 1102 at Sun Mar  6 19:46:06 2022, MaxMem= 16106127360 cpu:               1.0 elap:               0.1
 (Enter /sw/contrib/gaussian/g16/B01/g16/l1110.exe)
 Forming Gx(P) for the SCF density, NAtomX=     5.
 Integral derivatives from FoFJK, PRISM(SPDF).
 Do as many integral derivatives as possible in FoFJK.
 G2DrvN: MDV=   16106126844.
 G2DrvN: will do     6 centers at a time, making    1 passes.
 Calling FoFCou, ICntrl=  3107 FMM=F I1Cent=   0 AccDes= 0.00D+00.
 FoFJK:  IHMeth= 1 ICntrl=    3107 DoSepK=F KAlg= 0 I1Cent=           0 FoldK=F
 IRaf=         0 NMat=       1 IRICut=       1 DoRegI=T DoRafI=F ISym2E= 1 IDoP0=0 IntGTp=1.
 FoFCou: FMM=F IPFlag=           0 FMFlag=      100000 FMFlg1=           0
         NFxFlg=           0 DoJE=F BraDBF=F KetDBF=F FulRan=T
         wScrn=  0.000000 ICntrl=      3107 IOpCl=  0 I1Cent=           0 NGrid=           0
         NMat0=    1 NMatS0=      1 NMatT0=    0 NMatD0=    1 NMtDS0=    0 NMtDT0=    0
 Petite list used in FoFCou.
 End of G2Drv F.D. properties file   721 does not exist.
 End of G2Drv F.D. properties file   722 does not exist.
 End of G2Drv F.D. properties file   788 does not exist.
 Leave Link 1110 at Sun Mar  6 19:46:09 2022, MaxMem= 16106127360 cpu:              87.6 elap:               3.2
 (Enter /sw/contrib/gaussian/g16/B01/g16/l1002.exe)
 Minotr:  Closed shell wavefunction.
          IDoAtm=11111
          Frozen-core window.
          Direct CPHF calculation.
          Differentiating once with respect to electric field.
                with respect to dipole field.
          Differentiating once with respect to nuclear coordinates.
          Requested convergence is 1.0D-08 RMS, and 1.0D-07 maximum.
          Secondary convergence is 1.0D-12 RMS, and 1.0D-12 maximum.
          NewPWx=T KeepS1=T KeepF1=T KeepIn=T MapXYZ=F SortEE=F KeepMc=T.
 Keep R1 ints in memory in symmetry-blocked form, NReq=348888983.
 FoFCou: FMM=F IPFlag=           0 FMFlag=           0 FMFlg1=           0
         NFxFlg=           0 DoJE=F BraDBF=F KetDBF=F FulRan=T
         wScrn=  0.000000 ICntrl=       600 IOpCl=  0 I1Cent=           0 NGrid=           0
         NMat0=    1 NMatS0=  21528 NMatT0=    0 NMatD0=    1 NMtDS0=    0 NMtDT0=    0
 Petite list used in FoFCou.
          MDV=   16106127360 using IRadAn=       1.
          Solving linear equations simultaneously, MaxMat=       0.
          There are    18 degrees of freedom in the 1st order CPHF.  IDoFFX=6 NUNeed=    18.
     15 vectors produced by pass  0 Test12= 1.70D-14 5.56D-09 XBig12= 7.85D+00 1.23D+00.
 AX will form    15 AO Fock derivatives at one time.
     15 vectors produced by pass  1 Test12= 1.70D-14 5.56D-09 XBig12= 1.34D+00 2.36D-01.
     15 vectors produced by pass  2 Test12= 1.70D-14 5.56D-09 XBig12= 6.54D-02 5.71D-02.
     15 vectors produced by pass  3 Test12= 1.70D-14 5.56D-09 XBig12= 1.89D-03 1.00D-02.
     15 vectors produced by pass  4 Test12= 1.70D-14 5.56D-09 XBig12= 3.92D-05 1.23D-03.
     15 vectors produced by pass  5 Test12= 1.70D-14 5.56D-09 XBig12= 5.47D-07 1.13D-04.
     15 vectors produced by pass  6 Test12= 1.70D-14 5.56D-09 XBig12= 4.45D-09 1.17D-05.
     14 vectors produced by pass  7 Test12= 1.70D-14 5.56D-09 XBig12= 3.57D-11 8.47D-07.
      3 vectors produced by pass  8 Test12= 1.70D-14 5.56D-09 XBig12= 2.56D-13 6.03D-08.
      1 vectors produced by pass  9 Test12= 1.70D-14 5.56D-09 XBig12= 1.73D-15 7.34D-09.
 InvSVY:  IOpt=1 It=  1 EMax= 8.88D-16
 Solved reduced A of dimension   123 with    15 vectors.
 FullF1:  Do perturbations      1 to      18.
 Saving first derivative matrices.
 End of Minotr F.D. properties file   721 does not exist.
 End of Minotr F.D. properties file   722 does not exist.
 End of Minotr F.D. properties file   788 does not exist.
 Leave Link 1002 at Sun Mar  6 19:46:12 2022, MaxMem= 16106127360 cpu:              78.2 elap:               2.9
 (Enter /sw/contrib/gaussian/g16/B01/g16/l811.exe)
 MDV= 16106127360.
 Form MO integral derivatives with frozen-active canonical formalism.
 MOERI=1 MOERIx=1 NAtoms=     5 NAtomX=     5.
 Discarding MO integrals.
 MO basis two electron integral derivatives will not be stored on disk.
 IAlg= 3 DoFC=T DoPWx=T Debug=F.
 Frozen-core window:  NFC=   4 NFV=   0.
 Reordered first order wavefunction length =     18678272
 In DefCFB: NBatch=  1 ICI= 16 ICA=191 LFMax= 96
            Large arrays: LIAPS=   619940160 LIARS=   288257200 words.
 In StABat: MaxSiz= 55 MinSiz= 25 NAtomB=  5
 DoIAMN: NPSUse= 28.
 Leave Link  811 at Sun Mar  6 19:47:34 2022, MaxMem= 16106127360 cpu:            2281.0 elap:              81.6
 (Enter /sw/contrib/gaussian/g16/B01/g16/l804.exe)
 Frozen-core window:  NFC=   4 NFV=   0.
 Closed-shell transformation, MDV= 16106127360 ITran=4 ISComp=1.
 Semi-Direct transformation.
 ModeAB=           2 MOrb=            16 LenV=   16104919855
 LASXX=     67341636 LTotXX=    67341636 LenRXX=    67341636
 LTotAB=    68301760 MaxLAS=    99807120 LenRXY=    99807120
 NonZer=   134683272 LenScr=   202817536 LnRSAI=           0
 LnScr1=           0 LExtra=           0 Total=    369966292
 MaxDsk=          -1 SrtSym=           F ITran=            4
 DoSDTr:  NPSUse= 28
 JobTyp=0 Pass  1:  I=   1 to  16.
 (rs|ai) integrals will be sorted in core.
 Complete sort for first half transformation.
 First half transformation complete.
 Begin second half transformation for I=  10.
 Begin second half transformation for I=  10.
 Complete sort for second half transformation.
 Second half transformation complete.
 Spin components of T(2) and E(2):
     alpha-alpha T2 =       0.3479786241D-01 E2=     -0.1246087820D+00
     alpha-beta  T2 =       0.1843887443D+00 E2=     -0.6996822659D+00
     beta-beta   T2 =       0.3479786241D-01 E2=     -0.1246087820D+00
 ANorm=    0.1583656825D+01
 E2 =    -0.9488998298D+00 EUMP2 =    -0.28045503355457D+03
 Leave Link  804 at Sun Mar  6 19:47:50 2022, MaxMem= 16106127360 cpu:             437.0 elap:              15.7
 (Enter /sw/contrib/gaussian/g16/B01/g16/l1002.exe)
 Minotr:  Closed shell wavefunction.
          Computing MP2/KS-MP2 derivatives.
          Using Z-Vector for PSCF gradient.
          Skipping F1 and S1 gradient terms here.
          IDoAtm=11111
          Frozen-core window.
          Using MO integrals in the linear equations.
          Forming densities via direct SCF.
          Differentiating once with respect to electric field.
                with respect to dipole field.
          Differentiating once with respect to nuclear coordinates.
          Using symmetry in CPHF.
          Requested convergence is 1.0D-10 RMS, and 1.0D-09 maximum.
          NewPWx=F KeepS1=T KeepF1=T KeepIn=T MapXYZ=F SortEE=F KeepMc=T.
          MDV=   16106127360 using IRadAn=       5.
          Solving linear equations separately, MaxMat=       0.
          There are     1 degrees of freedom in the 1st order CPHF.  IDoFFX=0 NUNeed=     1.
 FoFJK:  IHMeth= 1 ICntrl=       0 DoSepK=F KAlg= 0 I1Cent=           0 FoldK=F
 IRaf=         0 NMat=       1 IRICut=       1 DoRegI=T DoRafI=F ISym2E= 0 IDoP0=0 IntGTp=1.
 FoFCou: FMM=F IPFlag=           0 FMFlag=      100000 FMFlg1=           0
         NFxFlg=           0 DoJE=F BraDBF=F KetDBF=F FulRan=T
         wScrn=  0.000000 ICntrl=         0 IOpCl=  0 I1Cent=           0 NGrid=           0
         NMat0=    1 NMatS0=      1 NMatT0=    0 NMatD0=    1 NMtDS0=    0 NMtDT0=    0
 Symmetry not used in FoFCou.
 LinEq1:  Iter=  0 NonCon=     1 RMS=6.60D-03 Max=1.72D-01 NDo=     1
 LinEq1:  Iter=  1 NonCon=     1 RMS=2.00D-03 Max=3.04D-02 NDo=     1
 LinEq1:  Iter=  2 NonCon=     1 RMS=8.89D-04 Max=1.45D-02 NDo=     1
 LinEq1:  Iter=  3 NonCon=     1 RMS=3.78D-04 Max=8.06D-03 NDo=     1
 LinEq1:  Iter=  4 NonCon=     1 RMS=1.36D-04 Max=1.66D-03 NDo=     1
 LinEq1:  Iter=  5 NonCon=     1 RMS=7.58D-05 Max=1.39D-03 NDo=     1
 LinEq1:  Iter=  6 NonCon=     1 RMS=2.43D-05 Max=3.45D-04 NDo=     1
 LinEq1:  Iter=  7 NonCon=     1 RMS=8.25D-06 Max=1.13D-04 NDo=     1
 LinEq1:  Iter=  8 NonCon=     1 RMS=4.02D-06 Max=6.20D-05 NDo=     1
 LinEq1:  Iter=  9 NonCon=     1 RMS=1.05D-06 Max=1.16D-05 NDo=     1
 LinEq1:  Iter= 10 NonCon=     1 RMS=2.33D-07 Max=2.89D-06 NDo=     1
 LinEq1:  Iter= 11 NonCon=     1 RMS=5.07D-08 Max=8.06D-07 NDo=     1
 LinEq1:  Iter= 12 NonCon=     1 RMS=1.20D-08 Max=1.75D-07 NDo=     1
 LinEq1:  Iter= 13 NonCon=     1 RMS=2.09D-09 Max=2.28D-08 NDo=     1
 LinEq1:  Iter= 14 NonCon=     1 RMS=4.32D-10 Max=5.56D-09 NDo=     1
 LinEq1:  Iter= 15 NonCon=     0 RMS=8.82D-11 Max=9.43D-10 NDo=     1
 Linear equations converged to 1.000D-10 1.000D-09 after    15 iterations.
 End of Minotr F.D. properties file   721 does not exist.
 End of Minotr F.D. properties file   722 does not exist.
 End of Minotr F.D. properties file   788 does not exist.
 Leave Link 1002 at Sun Mar  6 19:47:52 2022, MaxMem= 16106127360 cpu:              66.1 elap:               2.4
 (Enter /sw/contrib/gaussian/g16/B01/g16/l1102.exe)
 Use density number 2.
 Symmetrizing basis deriv contribution to polar:
 IMax=3 JMax=2 DiffMx= 0.00D+00
 Leave Link 1102 at Sun Mar  6 19:47:52 2022, MaxMem= 16106127360 cpu:               1.5 elap:               0.1
 (Enter /sw/contrib/gaussian/g16/B01/g16/l1110.exe)
 Forming Gx(P) for generalized density number  2 NAtomX=     5.
 Integral derivatives from FoFJK, PRISM(SPDF).
 Do as many integral derivatives as possible in FoFJK.
 G2DrvN: MDV=   16106126844.
 G2DrvN: will do     6 centers at a time, making    1 passes.
 Calling FoFCou, ICntrl=  3107 FMM=F I1Cent=   0 AccDes= 0.00D+00.
 FoFJK:  IHMeth= 1 ICntrl=    3107 DoSepK=F KAlg= 0 I1Cent=           0 FoldK=F
 IRaf=         0 NMat=       1 IRICut=       1 DoRegI=T DoRafI=F ISym2E= 1 IDoP0=0 IntGTp=1.
 FoFCou: FMM=F IPFlag=           0 FMFlag=      100000 FMFlg1=           0
         NFxFlg=           0 DoJE=F BraDBF=F KetDBF=F FulRan=T
         wScrn=  0.000000 ICntrl=      3107 IOpCl=  0 I1Cent=           0 NGrid=           0
         NMat0=    1 NMatS0=      1 NMatT0=    0 NMatD0=    1 NMtDS0=    0 NMtDT0=    0
 Petite list used in FoFCou.
 End of G2Drv F.D. properties file   721 does not exist.
 End of G2Drv F.D. properties file   722 does not exist.
 End of G2Drv F.D. properties file   788 does not exist.
 Leave Link 1110 at Sun Mar  6 19:47:55 2022, MaxMem= 16106127360 cpu:              87.1 elap:               3.1
 (Enter /sw/contrib/gaussian/g16/B01/g16/l1112.exe)
 MP22nd: MDV=   16106127360
 This link is doing NAtomX=     5 total of    18 degrees of freedom.
 Using ON3 I/O method in MakUI.
 Frozen-core window:  NFC=   4 NFV=   0.
 Using Ix for Sx.
 Use MO integrals over full window.
 Using OV2 memory method for fx*t*t/D, MaxI=    16 DoOO2=F NP=  28.
 R2 and R3 integrals will be kept in memory, NReq=   915591705.
 FoFCou: FMM=F IPFlag=           0 FMFlag=           0 FMFlg1=           0
         NFxFlg=           0 DoJE=F BraDBF=F KetDBF=F FulRan=T
         wScrn=  0.000000 ICntrl=       600 IOpCl=  0 I1Cent=           0 NGrid=           0
         NMat0=    1 NMatS0=      1 NMatT0=    0 NMatD0=    1 NMtDS0=    0 NMtDT0=    0
 Symmetry not used in FoFCou.
 DD1Dir will call FoFMem   1 times, MxPair=       272
 NAB=   136 NAA=     0 NBB=     0.
 Symmetry is being used.
 FoFJK:  IHMeth= 1 ICntrl=       0 DoSepK=F KAlg= 0 I1Cent=           0 FoldK=F
 IRaf=         0 NMat=      18 IRICut=      45 DoRegI=T DoRafI=T ISym2E= 2 IDoP0=3 IntGTp=3.
 Discarding MO integrals.
 Leave Link 1112 at Sun Mar  6 19:48:30 2022, MaxMem= 16106127360 cpu:             960.9 elap:              34.7
 (Enter /sw/contrib/gaussian/g16/B01/g16/l601.exe)
 Copying SCF densities to generalized density rwf, IOpCl= 0 IROHF=0.

 **********************************************************************

            Population analysis using the MP2 Density.

 **********************************************************************

 Orbital symmetries:
       Occupied  (A') (A') (A') (A') (A') (A') (A') (A') (A') (A')
                 (A") (A') (A') (A") (A') (A")
       Virtual   (A') (A") (A') (A') (A") (A') (A') (A') (A") (A')
                 (A") (A') (A') (A') (A") (A') (A') (A") (A') (A')
                 (A') (A') (A') (A') (A") (A') (A') (A") (A') (A')
                 (A') (A") (A") (A') (A') (A') (A") (A') (A") (A')
                 (A") (A") (A') (A') (A") (A') (A') (A") (A') (A')
                 (A') (A") (A') (A') (A") (A') (A") (A') (A') (A")
                 (A') (A') (A") (A') (A') (A") (A') (A") (A') (A')
                 (A") (A') (A") (A") (A') (A') (A") (A') (A') (A')
                 (A") (A') (A') (A") (A') (A") (A") (A') (A') (A')
                 (A') (A') (A") (A") (A') (A') (A") (A") (A') (A")
                 (A') (A') (A") (A') (A") (A') (A') (A') (A") (A")
                 (A') (A') (A') (A') (A") (A') (A') (A') (A") (A')
                 (A") (A") (A') (A') (A") (A") (A') (A") (A') (A')
                 (A') (A') (A") (A') (A') (A") (A") (A') (A') (A')
                 (A") (A") (A') (A') (A') (A") (A') (A') (A') (A")
                 (A') (A') (A') (A") (A') (A") (A") (A') (A') (A")
                 (A') (A") (A') (A") (A") (A') (A") (A') (A") (A")
                 (A') (A") (A") (A') (A') (A") (A') (A') (A") (A')
                 (A') (A') (A') (A') (A') (A') (A') (A') (A') (A')
                 (A')
 The electronic state is 1-A'.
 Alpha  occ. eigenvalues --  -20.71834 -20.68653 -20.66731 -15.82694  -1.64613
 Alpha  occ. eigenvalues --   -1.50312  -1.29316  -0.95990  -0.83664  -0.75923
 Alpha  occ. eigenvalues --   -0.74024  -0.63530  -0.61744  -0.61740  -0.50710
 Alpha  occ. eigenvalues --   -0.49671
 Alpha virt. eigenvalues --    0.03519   0.05942   0.09512   0.10015   0.11968
 Alpha virt. eigenvalues --    0.12252   0.14975   0.15230   0.17731   0.18030
 Alpha virt. eigenvalues --    0.19006   0.21089   0.21666   0.24240   0.24636
 Alpha virt. eigenvalues --    0.27000   0.31446   0.31838   0.33783   0.34449
 Alpha virt. eigenvalues --    0.34808   0.39249   0.45146   0.48869   0.50583
 Alpha virt. eigenvalues --    0.51771   0.54646   0.55976   0.59907   0.61926
 Alpha virt. eigenvalues --    0.63767   0.69001   0.71663   0.72470   0.74830
 Alpha virt. eigenvalues --    0.76206   0.76691   0.79589   0.80865   0.83928
 Alpha virt. eigenvalues --    0.84318   0.85266   0.88589   0.90917   0.93507
 Alpha virt. eigenvalues --    0.94625   0.95362   1.01894   1.03304   1.06689
 Alpha virt. eigenvalues --    1.07301   1.09798   1.14764   1.15730   1.16678
 Alpha virt. eigenvalues --    1.22454   1.22804   1.24580   1.35583   1.35682
 Alpha virt. eigenvalues --    1.37407   1.46694   1.48744   1.50252   1.54377
 Alpha virt. eigenvalues --    1.59799   1.60470   1.60682   1.62969   1.69614
 Alpha virt. eigenvalues --    1.74136   1.80058   1.83158   1.88942   1.89395
 Alpha virt. eigenvalues --    1.93077   1.97800   1.99061   2.05501   2.12813
 Alpha virt. eigenvalues --    2.13081   2.16754   2.18982   2.24583   2.25940
 Alpha virt. eigenvalues --    2.29374   2.35269   2.37256   2.38520   2.40361
 Alpha virt. eigenvalues --    2.43313   2.46909   2.47903   2.53308   2.53941
 Alpha virt. eigenvalues --    2.55502   2.56106   2.62170   2.63203   2.67732
 Alpha virt. eigenvalues --    2.68070   2.75325   2.81090   2.82588   2.83792
 Alpha virt. eigenvalues --    2.91956   2.99864   3.04496   3.04718   3.11226
 Alpha virt. eigenvalues --    3.12043   3.17879   3.21387   3.31247   3.32955
 Alpha virt. eigenvalues --    3.36338   3.47301   3.67934   3.87041   3.93845
 Alpha virt. eigenvalues --    4.18950   4.23179   4.23444   4.27187   4.37566
 Alpha virt. eigenvalues --    4.49857   4.55087   4.55219   4.59894   4.69638
 Alpha virt. eigenvalues --    4.81197   4.89178   4.91650   4.93772   5.00346
 Alpha virt. eigenvalues --    5.00673   5.10560   5.13245   5.18437   5.25394
 Alpha virt. eigenvalues --    5.26302   5.32146   5.34958   5.37018   5.55313
 Alpha virt. eigenvalues --    5.64705   5.71326   5.89509   5.99115   6.26589
 Alpha virt. eigenvalues --    6.29534   6.36372   6.37778   6.59783   6.66128
 Alpha virt. eigenvalues --    6.67286   6.69815   6.73031   6.78218   6.80137
 Alpha virt. eigenvalues --    6.87164   6.96578   7.02176   7.06634   7.08002
 Alpha virt. eigenvalues --    7.13514   7.17432   7.19380   7.20471   7.24805
 Alpha virt. eigenvalues --    7.25143   7.27376   7.35060   7.39110   7.43499
 Alpha virt. eigenvalues --    7.44240   7.46493   7.56156   7.66352   7.68927
 Alpha virt. eigenvalues --    7.79613   7.88433   7.95409   8.08004   8.31141
 Alpha virt. eigenvalues --    8.49741   8.65279  13.62553  14.76400  15.11282
 Alpha virt. eigenvalues --   15.81475
          Condensed to atoms (all electrons):
               1          2          3          4          5
     1  H    0.579912   0.122429   0.024730   0.000250  -0.004328
     2  O    0.122429   8.392305  -0.228629  -0.001067  -0.010747
     3  O    0.024730  -0.228629   8.372568  -0.168142  -0.038626
     4  N    0.000250  -0.001067  -0.168142   7.134441  -0.119127
     5  O   -0.004328  -0.010747  -0.038626  -0.119127   8.367287
 Mulliken charges:
               1
     1  H    0.277008
     2  O   -0.274291
     3  O    0.038099
     4  N    0.153644
     5  O   -0.194459
 Sum of Mulliken charges =  -0.00000
 Mulliken charges with hydrogens summed into heavy atoms:
               1
     2  O    0.002717
     3  O    0.038099
     4  N    0.153644
     5  O   -0.194459
 APT charges:
               1
     1  H    0.274477
     2  O   -0.302978
     3  O   -0.308128
     4  N    0.637849
     5  O   -0.301221
 Sum of APT charges =  -0.00000
 APT charges with hydrogens summed into heavy atoms:
               1
     2  O   -0.028500
     3  O   -0.308128
     4  N    0.637849
     5  O   -0.301221
 Electronic spatial extent (au):  <R**2>=            205.5624
 Charge=             -0.0000 electrons
 Dipole moment (field-independent basis, Debye):
    X=              0.0174    Y=             -1.0924    Z=              0.0000  Tot=              1.0925
 Quadrupole moment (field-independent basis, Debye-Ang):
   XX=            -23.3480   YY=            -22.9314   ZZ=            -21.9280
   XY=             -1.9873   XZ=             -0.0000   YZ=             -0.0000
 Traceless Quadrupole moment (field-independent basis, Debye-Ang):
   XX=             -0.6121   YY=             -0.1956   ZZ=              0.8078
   XY=             -1.9873   XZ=             -0.0000   YZ=             -0.0000
 Octapole moment (field-independent basis, Debye-Ang**2):
  XXX=              2.4809  YYY=              0.2203  ZZZ=             -0.0000  XYY=              2.4163
  XXY=             -2.7720  XXZ=              0.0000  XZZ=             -0.5837  YZZ=             -0.6977
  YYZ=              0.0000  XYZ=             -0.0000
 Hexadecapole moment (field-independent basis, Debye-Ang**3):
 XXXX=           -126.5471 YYYY=            -93.6452 ZZZZ=            -18.0336 XXXY=            -20.8179
 XXXZ=             -0.0000 YYYX=            -19.2698 YYYZ=             -0.0000 ZZZX=             -0.0000
 ZZZY=             -0.0000 XXYY=            -35.2822 XXZZ=            -24.2470 YYZZ=            -18.3783
 XXYZ=             -0.0000 YYXZ=             -0.0000 ZZXY=             -5.6961
 N-N= 1.230784387264D+02 E-N=-9.077242994603D+02  KE= 2.802130389713D+02
 Symmetry A'   KE= 2.663664883247D+02
 Symmetry A"   KE= 1.384655064663D+01
  Exact polarizability:  30.880   4.033  29.674   0.000   0.000  17.590
 Approx polarizability:  24.636   0.371  27.475   0.000  -0.000  15.501
 No NMR shielding tensors so no spin-rotation constants.
 Leave Link  601 at Sun Mar  6 19:48:30 2022, MaxMem= 16106127360 cpu:               4.2 elap:               0.2
 (Enter /sw/contrib/gaussian/g16/B01/g16/l701.exe)
 ... and contract with generalized density number  2.
 Compute integral second derivatives.
 Leave Link  701 at Sun Mar  6 19:48:31 2022, MaxMem= 16106127360 cpu:               5.9 elap:               0.2
 (Enter /sw/contrib/gaussian/g16/B01/g16/l702.exe)
 L702 exits ... SP integral derivatives will be done elsewhere.
 Leave Link  702 at Sun Mar  6 19:48:31 2022, MaxMem= 16106127360 cpu:               0.8 elap:               0.1
 (Enter /sw/contrib/gaussian/g16/B01/g16/l703.exe)
 Integral derivatives from FoFJK, PRISM(SPDF).
 Compute integral second derivatives, UseDBF=F ICtDFT=           0.
 Calling FoFJK, ICntrl=  10100127 FMM=F ISym2X=1 I1Cent= 0 IOpClX= 0 NMat=1 NMatS=1 NMatT=0.
 FoFJK:  IHMeth= 1 ICntrl=10100127 DoSepK=F KAlg= 0 I1Cent=           0 FoldK=F
 IRaf=         0 NMat=       1 IRICut=       1 DoRegI=T DoRafI=F ISym2E= 1 IDoP0=0 IntGTp=1.
 FoFCou: FMM=F IPFlag=           0 FMFlag=      100000 FMFlg1=         800
         NFxFlg=           0 DoJE=F BraDBF=F KetDBF=F FulRan=T
         wScrn=  0.000000 ICntrl=  10100127 IOpCl=  0 I1Cent=           0 NGrid=           0
         NMat0=    1 NMatS0=      1 NMatT0=    0 NMatD0=    1 NMtDS0=    0 NMtDT0=    0
 Petite list used in FoFCou.
 Leave Link  703 at Sun Mar  6 19:48:47 2022, MaxMem= 16106127360 cpu:             448.5 elap:              16.1
 (Enter /sw/contrib/gaussian/g16/B01/g16/l716.exe)
 Dipole        = 6.82816491D-03-4.29765648D-01 1.44248637D-33
 Polarizability= 3.08804370D+01 4.03295265D+00 2.96739193D+01
                 3.28964564D-31 6.92224682D-32 1.75903100D+01
 Full mass-weighted force constant matrix:
 Low frequencies ---  -66.1168  -31.9328   -0.0017   -0.0013    0.0005   54.3481
 Low frequencies ---  356.1639  418.3359  531.8718
 Diagonal vibrational polarizability:
        7.0572895       9.6453527      15.7497288
 Harmonic frequencies (cm**-1), IR intensities (KM/Mole), Raman scattering
 activities (A**4/AMU), depolarization ratios for plane and unpolarized
 incident light, reduced masses (AMU), force constants (mDyne/A),
 and normal coordinates:
                      1                      2                      3
                     A"                     A'                     A"
 Frequencies --    356.0993               418.3159               531.8279
 Red. masses --      1.5425                 6.9748                 2.9559
 Frc consts  --      0.1152                 0.7191                 0.4926
 IR Inten    --     62.9576                 7.9901                25.1059
  Atom  AN      X      Y      Z        X      Y      Z        X      Y      Z
     1   1    -0.00  -0.00   0.98    -0.74  -0.24  -0.00    -0.00  -0.00   0.93
     2   8    -0.00  -0.00  -0.11    -0.33  -0.31   0.00    -0.00  -0.00   0.06
     3   8    -0.00   0.00   0.11    -0.06   0.08  -0.00     0.00   0.00  -0.19
     4   7     0.00   0.00  -0.11     0.06   0.09   0.00    -0.00  -0.00   0.27
     5   8     0.00   0.00   0.03     0.38   0.16   0.00     0.00  -0.00  -0.17
                      4                      5                      6
                     A'                     A'                     A'
 Frequencies --    721.0267               833.8621               975.1846
 Red. masses --     13.5639                12.3571                 9.4883
 Frc consts  --      4.1547                 5.0624                 5.3164
 IR Inten    --    219.3235                25.9845                11.7231
  Atom  AN      X      Y      Z        X      Y      Z        X      Y      Z
     1   1    -0.33   0.00  -0.00     0.44  -0.17   0.00    -0.64   0.00   0.00
     2   8     0.00  -0.08  -0.00     0.53  -0.22  -0.00     0.18  -0.16  -0.00
     3   8     0.38   0.57   0.00    -0.40  -0.02   0.00    -0.34   0.41   0.00
     4   7    -0.43  -0.47  -0.00    -0.41  -0.04   0.00     0.37   0.04  -0.00
     5   8     0.02  -0.08   0.00     0.21   0.29  -0.00    -0.13  -0.28   0.00
                      7                      8                      9
                     A'                     A'                     A'
 Frequencies --   1426.0097              1572.1179              3484.3735
 Red. masses --      1.3097                 6.4744                 1.0633
 Frc consts  --      1.5691                 9.4280                 7.6063
 IR Inten    --     81.4213               147.4615                45.1903
  Atom  AN      X      Y      Z        X      Y      Z        X      Y      Z
     1   1     0.97  -0.21   0.00    -0.76   0.17  -0.00     0.16   0.99  -0.00
     2   8    -0.07  -0.05   0.00     0.02   0.02  -0.00    -0.01  -0.06   0.00
     3   8    -0.03   0.06  -0.00    -0.04  -0.06   0.00     0.00  -0.00  -0.00
     4   7     0.07  -0.05   0.00     0.25  -0.40  -0.00    -0.00   0.00  -0.00
     5   8    -0.02   0.05  -0.00    -0.16   0.38   0.00     0.00  -0.00   0.00

 -------------------
 - Thermochemistry -
 -------------------
 Temperature   298.150 Kelvin.  Pressure   1.00000 Atm.
 Atom     1 has atomic number  1 and mass   1.00783
 Atom     2 has atomic number  8 and mass  15.99491
 Atom     3 has atomic number  8 and mass  15.99491
 Atom     4 has atomic number  7 and mass  14.00307
 Atom     5 has atomic number  8 and mass  15.99491
 Molecular mass:    62.99564 amu.
 Principal axes and moments of inertia in atomic units:
                           1         2         3
     Eigenvalues --    85.10949 218.85467 303.96416
           X            0.80271  -0.59637   0.00000
           Y            0.59637   0.80271   0.00000
           Z           -0.00000   0.00000   1.00000
 This molecule is an asymmetric top.
 Rotational symmetry number  1.
 Rotational temperatures (Kelvin)      1.01768     0.39576     0.28495
 Rotational constants (GHZ):          21.20494     8.24630     5.93735
 Zero-point vibrational energy      61720.2 (Joules/Mol)
                                   14.75149 (Kcal/Mol)
 Warning -- explicit consideration of   3 degrees of freedom as
           vibrations may cause significant error
 Vibrational temperatures:    512.35   601.86   765.18  1037.40  1199.74
          (Kelvin)           1403.07  2051.71  2261.93  5013.24
 
 Zero-point correction=                           0.023508 (Hartree/Particle)
 Thermal correction to Energy=                    0.027413
 Thermal correction to Enthalpy=                  0.028357
 Thermal correction to Gibbs Free Energy=        -0.002433
 Sum of electronic and zero-point Energies=           -280.431526
 Sum of electronic and thermal Energies=              -280.427620
 Sum of electronic and thermal Enthalpies=            -280.426676
 Sum of electronic and thermal Free Energies=         -280.457467
 
                     E (Thermal)             CV                S
                      KCal/Mol        Cal/Mol-Kelvin    Cal/Mol-Kelvin
 Total                   17.202             12.081             64.805
 Electronic               0.000              0.000              0.000
 Translational            0.889              2.981             38.341
 Rotational               0.889              2.981             23.253
 Vibrational             15.425              6.119              3.212
 Vibration     1          0.732              1.563              1.139
 Vibration     2          0.781              1.430              0.898
 Vibration     3          0.887              1.180              0.583
                       Q            Log10(Q)             Ln(Q)
 Total Bot       0.131619D+02          1.119318          2.577324
 Total V=0       0.855531D+12         11.932236         27.474988
 Vib (Bot)       0.248642D-10        -10.604426        -24.417592
 Vib (Bot)    1  0.516049D+00         -0.287309         -0.661554
 Vib (Bot)    2  0.420292D+00         -0.376449         -0.866805
 Vib (Bot)    3  0.300203D+00         -0.522585         -1.203297
 Vib (V=0)       0.161619D+01          0.208492          0.480071
 Vib (V=0)    1  0.121854D+01          0.085841          0.197657
 Vib (V=0)    2  0.115318D+01          0.061897          0.142524
 Vib (V=0)    3  0.108320D+01          0.034708          0.079919
 Electronic      0.100000D+01          0.000000          0.000000
 Translational   0.196526D+08          7.293420         16.793719
 Rotational      0.269354D+05          4.430324         10.201197
 
                                                                title
                                                             IR Spectrum
 
     3                                                                     1     1                                                   
     4                                                                     5     4               9    8   7      5   4  3            
     8                                                                     7     2               7    3   2      3   1  5            
     4                                                                     2     6               5    4   1      2   8  6            
 
     X                                                                     X     X               X    X   X      X   X  X            
     X                                                                     X     X                    X   X      X      X            
     X                                                                     X     X                        X             X            
     X                                                                     X     X                        X             X            
                                                                           X     X                        X             X            
                                                                           X     X                        X             X            
                                                                           X     X                        X                          
                                                                           X                              X                          
                                                                           X                              X                          
                                                                           X                              X                          
                                                                           X                              X                          
                                                                           X                              X                          
                                                                           X                              X                          
                                                                                                          X                          
                                                                                                          X                          
                                                                                                          X                          
                                                                                                          X                          
                                                                                                          X                          
                                                                                                          X                          
                                                                                                          X                          
 
 ***** Axes restored to original set *****
 -------------------------------------------------------------------
 Center     Atomic                   Forces (Hartrees/Bohr)
 Number     Number              X              Y              Z
 -------------------------------------------------------------------
      1        1           0.000317151   -0.000000000   -0.000227728
      2        8           0.001130337   -0.000000000    0.001548169
      3        8           0.001579071   -0.000000000    0.004348683
      4        7          -0.007481505    0.000000000    0.001244352
      5        8           0.004454946   -0.000000000   -0.006913477
 -------------------------------------------------------------------
 Cartesian Forces:  Max     0.007481505 RMS     0.003166444
 -----------------------------------------------------------------------------------------------
                       Internal Coordinate Forces (Hartree/Bohr or radian)
  Cent   Atom   N1       Length/X         N2         Alpha/Y        N3         Beta/Z          J
 -----------------------------------------------------------------------------------------------
      1  H 
      2  O        1   0.000228(     1)
      3  O        2  -0.001666(     2)      1  -0.000591(     5)
      4  N        3   0.003030(     3)      2   0.002188(     6)      1   0.000000(     8)     0
      5  O        4   0.003330(     4)      3   0.016979(     7)      2  -0.000000(     9)     0
 -----------------------------------------------------------------------------------------------
 Internal  Forces:  Max     0.016979140 RMS     0.005930396
 Force constants in Cartesian coordinates: 
                1             2             3             4             5 
      1  0.714998D-01
      2  0.000000D+00  0.621037D-02
      3  0.255574D-01  0.000000D+00  0.435880D+00
      4 -0.521378D-01  0.000000D+00 -0.498244D-02  0.279532D+00
      5  0.000000D+00 -0.224705D-02  0.000000D+00  0.000000D+00  0.125136D-01
      6  0.300581D-01  0.000000D+00 -0.417958D+00 -0.142970D-01  0.000000D+00
      7 -0.245360D-01  0.000000D+00 -0.169520D-01 -0.168717D+00  0.000000D+00
      8  0.000000D+00 -0.435880D-02  0.000000D+00  0.000000D+00 -0.194725D-01
      9 -0.431294D-01  0.000000D+00 -0.207375D-01  0.114584D-01  0.000000D+00
     10 -0.570689D-02  0.000000D+00  0.626758D-02 -0.827042D-01  0.000000D+00
     11  0.000000D+00  0.814549D-02  0.000000D+00  0.000000D+00  0.194609D-01
     12 -0.199598D-01  0.000000D+00  0.123156D-01  0.118650D-01  0.000000D+00
     13  0.108809D-01  0.000000D+00 -0.989060D-02  0.240267D-01  0.000000D+00
     14  0.000000D+00 -0.775001D-02  0.000000D+00  0.000000D+00 -0.102550D-01
     15  0.747366D-02  0.000000D+00 -0.950050D-02 -0.404388D-02  0.000000D+00
                6             7             8             9            10 
      6  0.523089D+00
      7 -0.913133D-01  0.302049D+00
      8  0.000000D+00  0.000000D+00  0.407733D-01
      9 -0.968363D-01  0.821686D-01  0.000000D+00  0.326077D+00
     10  0.401549D-01 -0.143727D+00  0.000000D+00 -0.342575D-01  0.562653D+00
     11  0.000000D+00  0.000000D+00 -0.493150D-01  0.000000D+00  0.000000D+00
     12 -0.123456D-01  0.193087D-01  0.000000D+00 -0.265542D-01  0.243045D+00
     13  0.353973D-01  0.349297D-01  0.000000D+00 -0.162400D-01 -0.330515D+00
     14  0.000000D+00  0.000000D+00  0.323730D-01  0.000000D+00  0.000000D+00
     15  0.405059D-02  0.678794D-02  0.000000D+00 -0.181949D+00 -0.255210D+00
               11            12            13            14            15 
     11  0.613310D-01
     12  0.000000D+00  0.441103D+00
     13  0.000000D+00 -0.254259D+00  0.260678D+00
     14 -0.396224D-01  0.000000D+00  0.000000D+00  0.252544D-01
     15  0.000000D+00 -0.414519D+00  0.244992D+00  0.000000D+00  0.601918D+00
 Force constants in internal coordinates: 
                1             2             3             4             5 
      1  0.435880D+00
      2  0.235293D-01  0.255724D+00
      3  0.435414D-02  0.172004D-01  0.217818D+00
      4 -0.133717D-01  0.234065D-01  0.152012D+00  0.723866D+00
      5  0.479072D-01  0.545478D-01 -0.246823D-01  0.227581D-01  0.248341D+00
      6  0.106543D-01  0.227210D-01  0.106214D+00  0.866842D-02 -0.813740D-02
      7  0.687871D-02 -0.706787D-01  0.141515D+00  0.126743D+00 -0.209692D-01
      8  0.000000D+00  0.000000D+00  0.000000D+00  0.000000D+00  0.000000D+00
      9  0.000000D+00  0.000000D+00  0.000000D+00  0.000000D+00  0.000000D+00
                6             7             8             9 
      6  0.560198D+00
      7  0.938052D-01  0.714732D+00
      8  0.000000D+00  0.000000D+00  0.213170D-01
      9  0.000000D+00  0.000000D+00  0.294977D-01  0.109524D+00
 Leave Link  716 at Sun Mar  6 19:48:47 2022, MaxMem= 16106127360 cpu:               0.8 elap:               0.1
 (Enter /sw/contrib/gaussian/g16/B01/g16/l103.exe)

 GradGradGradGradGradGradGradGradGradGradGradGradGradGradGradGradGradGrad
 Berny optimization.
 Search for a local minimum.
 Step number   1 out of a maximum of    2
 All quantities printed in internal units (Hartrees-Bohrs-Radians)
 Second derivative matrix not updated -- analytic derivatives used.
 The second derivative matrix:
                          r1        r2        r3        r4        a1
           r1           0.43588
           r2           0.02353   0.25572
           r3           0.00435   0.01720   0.21782
           r4          -0.01337   0.02341   0.15201   0.72387
           a1           0.04791   0.05455  -0.02468   0.02276   0.24834
           a2           0.01065   0.02272   0.10621   0.00867  -0.00814
           a3           0.00688  -0.07068   0.14151   0.12674  -0.02097
           d1          -0.00000  -0.00000  -0.00000   0.00000   0.00000
           d2          -0.00000   0.00000   0.00000   0.00000   0.00000
                          a2        a3        d1        d2
           a2           0.56020
           a3           0.09381   0.71473
           d1          -0.00000  -0.00000   0.02132
           d2          -0.00000  -0.00000   0.02950   0.10952
 ITU=  0
     Eigenvalues ---    0.01236   0.11848   0.12573   0.20367   0.27169
     Eigenvalues ---    0.45076   0.52772   0.64022   0.93677
 Angle between quadratic step and forces=  20.45 degrees.
 Linear search not attempted -- first point.
 Variable       Old X    -DE/DX   Delta X   Delta X   Delta X     New X
                                 (Linear)    (Quad)   (Total)
    r1        1.86209   0.00023   0.00000   0.00026   0.00026   1.86235
    r2        2.69614  -0.00167   0.00000   0.00035   0.00035   2.69650
    r3        2.60992   0.00303   0.00000  -0.00270  -0.00270   2.60721
    r4        2.25782   0.00333   0.00000   0.00097   0.00097   2.25879
    a1        1.75642  -0.00059   0.00000  -0.00082  -0.00082   1.75560
    a2        1.97463   0.00219   0.00000   0.00034   0.00034   1.97497
    a3        1.97064   0.01698   0.00000   0.02408   0.02408   1.99473
    d1        0.00000   0.00000   0.00000  -0.00000  -0.00000  -0.00000
    d2        0.00000  -0.00000   0.00000  -0.00000  -0.00000  -0.00000
         Item               Value     Threshold  Converged?
 Maximum Force            0.016979     0.000450     NO 
 RMS     Force            0.005930     0.000300     NO 
 Maximum Displacement     0.024084     0.001800     NO 
 RMS     Displacement     0.008091     0.001200     NO 
 Predicted change in Energy=-2.023224D-04
                       ----------------------------
                       ! Non-Optimized Parameters !
                       ! (Angstroms and Degrees)  !
 ----------------------                            ----------------------
 !      Name          Value   Derivative information (Atomic Units)     !
 ------------------------------------------------------------------------
 !       r1          0.9855   -DE/DX =    0.0002                        !
 !       r2          1.4269   -DE/DX =   -0.0017                        !
 !       r3          1.3797   -DE/DX =    0.003                         !
 !       r4          1.1953   -DE/DX =    0.0033                        !
 !       a1        100.5885   -DE/DX =   -0.0006                        !
 !       a2        113.1572   -DE/DX =    0.0022                        !
 !       a3        114.2893   -DE/DX =    0.017                         !
 !       d1          0.0      -DE/DX =    0.0                           !
 !       d2          0.0      -DE/DX =    0.0                           !
 ------------------------------------------------------------------------
 GradGradGradGradGradGradGradGradGradGradGradGradGradGradGradGradGradGrad

 Leave Link  103 at Sun Mar  6 19:48:47 2022, MaxMem= 16106127360 cpu:               0.5 elap:               0.0
 (Enter /sw/contrib/gaussian/g16/B01/g16/l9999.exe)

 ----------------------------------------------------------------------

 Electric dipole moment (input orientation):
 (Debye = 10**-18 statcoulomb cm , SI units = C m)
                  (au)            (Debye)         (10**-30 SI)
   Tot        0.429820D+00      0.109249D+01      0.364416D+01
   x         -0.999825D-01     -0.254130D+00     -0.847687D+00
   y          0.000000D+00      0.000000D+00      0.000000D+00
   z         -0.418029D+00     -0.106252D+01     -0.354420D+01

 Dipole polarizability, Alpha (input orientation).
 (esu units = cm**3 , SI units = C**2 m**2 J**-1)
 Alpha(0;0):
               (au)            (10**-24 esu)      (10**-40 SI)
   iso        0.260482D+02      0.385995D+01      0.429477D+01
   aniso      0.145204D+02      0.215170D+01      0.239409D+01
   xx         0.291139D+02      0.431424D+01      0.480024D+01
   yx         0.000000D+00      0.000000D+00      0.000000D+00
   yy         0.175903D+02      0.260662D+01      0.290025D+01
   zx        -0.390839D+01     -0.579164D+00     -0.644407D+00
   zy         0.000000D+00      0.000000D+00      0.000000D+00
   zz         0.314404D+02      0.465899D+01      0.518382D+01

 ----------------------------------------------------------------------

 Dipole orientation:
     1         -0.00000000         -0.00000000          0.00000000
     8         -0.43315045         -0.00000000         -1.81101276
     8          2.02823748         -0.00000000         -2.91135300
     7          3.94396367          0.00000000         -1.13888285
     8          3.17669898          0.00000000          0.98457411

 Electric dipole moment (dipole orientation):
 (Debye = 10**-18 statcoulomb cm , SI units = C m)
                  (au)            (Debye)         (10**-30 SI)
   Tot        0.429820D+00      0.109249D+01      0.364416D+01
   x          0.000000D+00      0.000000D+00      0.000000D+00
   y          0.000000D+00      0.000000D+00      0.000000D+00
   z          0.429820D+00      0.109249D+01      0.364416D+01

 Dipole polarizability, Alpha (dipole orientation).
 (esu units = cm**3 , SI units = C**2 m**2 J**-1)
 Alpha(0;0):
               (au)            (10**-24 esu)      (10**-40 SI)
   iso        0.260482D+02      0.385995D+01      0.429477D+01
   aniso      0.145204D+02      0.215170D+01      0.239409D+01
   xx         0.310083D+02      0.459495D+01      0.511257D+01
   yx         0.000000D+00      0.000000D+00      0.000000D+00
   yy         0.175903D+02      0.260662D+01      0.290025D+01
   zx         0.401175D+01      0.594480D+00      0.661449D+00
   zy         0.000000D+00      0.000000D+00      0.000000D+00
   zz         0.295461D+02      0.437828D+01      0.487149D+01

 ----------------------------------------------------------------------
 1\1\GINC-N2110\Freq\RMP2-FC\Aug-CC-pVTZ\H1N1O3\CGAVINH\06-Mar-2022\1\\
 #p freq mp2/aug-cc-pvtz density=current\\title\\0,1\H\O,1,r1\O,2,r2,1,
 a1\N,3,r3,2,a2,1,d1,0\O,4,r4,3,a3,2,d2,0\\r1=0.98537664\r2=1.42673666\
 r3=1.38110764\r4=1.19478846\a1=100.6355057\a2=113.13777052\a3=112.9094
 3665\d1=0.\d2=0.\\Version=ES64L-G16RevB.01\State=1-A'\HF=-279.5061337\
 MP2=-280.4550336\RMSD=4.560e-09\RMSF=3.166e-03\ZeroPoint=0.023508\Ther
 mal=0.0274132\Dipole=-0.0999825,0.,-0.4180295\DipoleDeriv=0.3204428,0.
 ,0.0358703,0.,0.2975218,0.,-0.0283212,0.,0.2054675,-0.5260206,0.,0.284
 4664,0.,-0.254474,0.,-0.1002429,0.,-0.1284385,0.0043467,0.,0.3286262,0
 .,-0.0119806,0.,0.4321852,0.,-0.9167506,0.1933365,0.,-0.1169305,0.,0.0
 166368,0.,-0.6487253,0.,1.7035738,0.0078946,0.,-0.5320324,0.,-0.047704
 ,0.,0.3451043,0.,-0.8638521\Polar=29.1139455,0.,17.59031,-3.9083907,0.
 ,31.4404109\Quadrupole=0.1858136,0.6005618,-0.7863754,0.,1.4038223,0.\
 PG=CS [SG(H1N1O3)]\NImag=0\\0.07149978,0.,0.00621037,0.02555741,0.,0.4
 3588007,-0.05213783,0.,-0.00498244,0.27953192,0.,-0.00224705,0.,0.,0.0
 1251364,0.03005812,0.,-0.41795774,-0.01429700,0.,0.52308904,-0.0245359
 8,0.,-0.01695195,-0.16871655,0.,-0.09131332,0.30204946,0.,-0.00435880,
 0.,0.,-0.01947251,0.,0.,0.04077327,-0.04312940,0.,-0.02073748,0.011458
 36,0.,-0.09683626,0.08216859,0.,0.32607701,-0.00570689,0.,0.00626758,-
 0.08270422,0.,0.04015491,-0.14372662,0.,-0.03425754,0.56265284,0.,0.00
 814549,0.,0.,0.01946092,0.,0.,-0.04931495,0.,0.,0.06133097,-0.01995979
 ,0.,0.01231565,0.01186496,0.,-0.01234562,0.01930875,0.,-0.02655417,0.2
 4304459,0.,0.44110300,0.01088092,0.,-0.00989060,0.02402668,0.,0.035397
 29,0.03492968,0.,-0.01623999,-0.33051511,0.,-0.25425851,0.26067782,0.,
 -0.00775001,0.,0.,-0.01025500,0.,0.,0.03237300,0.,0.,-0.03962243,0.,0.
 ,0.02525444,0.00747366,0.,-0.00950050,-0.00404388,0.,0.00405059,0.0067
 8794,0.,-0.18194910,-0.25520953,0.,-0.41451886,0.24499181,0.,0.6019178
 8\\-0.00031715,0.,0.00022773,-0.00113034,0.,-0.00154817,-0.00157907,0.
 ,-0.00434868,0.00748151,0.,-0.00124435,-0.00445495,0.,0.00691348\\\@


 FAULTILY FAULTLESS, ICILY REGULAR, SPLENDIDLY NULL...
           MAUDE BY TENNYSON
 Job cpu time:       0 days  2 hours  0 minutes 58.0 seconds.
 Elapsed time:       0 days  0 hours  4 minutes 22.4 seconds.
 File lengths (MBytes):  RWF=   7239 Int=      0 D2E=      0 Chk=      8 Scr=      1
 Normal termination of Gaussian 16 at Sun Mar  6 19:48:48 2022.
