 Entering Gaussian System, Link 0=g16
 Input=hoono_r3_1p490084.gjf
 Output=hoono_r3_1p490084.log
 Initial command:
 /sw/contrib/gaussian/g16/B01/g16/l1.exe "/scr/Gau-31308.inp" -scrdir="/scr/"
 Entering Link 1 = /sw/contrib/gaussian/g16/B01/g16/l1.exe PID=     31309.
  
 Copyright (c) 1988-2017, Gaussian, Inc.  All Rights Reserved.
  
 This is part of the Gaussian(R) 16 program.  It is based on
 the Gaussian(R) 09 system (copyright 2009, Gaussian, Inc.),
 the Gaussian(R) 03 system (copyright 2003, Gaussian, Inc.),
 the Gaussian(R) 98 system (copyright 1998, Gaussian, Inc.),
 the Gaussian(R) 94 system (copyright 1995, Gaussian, Inc.),
 the Gaussian 92(TM) system (copyright 1992, Gaussian, Inc.),
 the Gaussian 90(TM) system (copyright 1990, Gaussian, Inc.),
 the Gaussian 88(TM) system (copyright 1988, Gaussian, Inc.),
 the Gaussian 86(TM) system (copyright 1986, Carnegie Mellon
 University), and the Gaussian 82(TM) system (copyright 1983,
 Carnegie Mellon University). Gaussian is a federally registered
 trademark of Gaussian, Inc.
  
 This software contains proprietary and confidential information,
 including trade secrets, belonging to Gaussian, Inc.
  
 This software is provided under written license and may be
 used, copied, transmitted, or stored only in accord with that
 written license.
  
 The following legend is applicable only to US Government
 contracts under FAR:
  
                    RESTRICTED RIGHTS LEGEND
  
 Use, reproduction and disclosure by the US Government is
 subject to restrictions as set forth in subparagraphs (a)
 and (c) of the Commercial Computer Software - Restricted
 Rights clause in FAR 52.227-19.
  
 Gaussian, Inc.
 340 Quinnipiac St., Bldg. 40, Wallingford CT 06492
  
  
 ---------------------------------------------------------------
 Warning -- This program may not be used in any manner that
 competes with the business of Gaussian, Inc. or will provide
 assistance to any competitor of Gaussian, Inc.  The licensee
 of this program is prohibited from giving any competitor of
 Gaussian, Inc. access to this program.  By using this program,
 the user acknowledges that Gaussian, Inc. is engaged in the
 business of creating and licensing software in the field of
 computational chemistry and represents and warrants to the
 licensee that it is not a competitor of Gaussian, Inc. and that
 it will not use this program in any manner prohibited above.
 ---------------------------------------------------------------
  

 Cite this work as:
 Gaussian 16, Revision B.01,
 M. J. Frisch, G. W. Trucks, H. B. Schlegel, G. E. Scuseria, 
 M. A. Robb, J. R. Cheeseman, G. Scalmani, V. Barone, 
 G. A. Petersson, H. Nakatsuji, X. Li, M. Caricato, A. V. Marenich, 
 J. Bloino, B. G. Janesko, R. Gomperts, B. Mennucci, H. P. Hratchian, 
 J. V. Ortiz, A. F. Izmaylov, J. L. Sonnenberg, D. Williams-Young, 
 F. Ding, F. Lipparini, F. Egidi, J. Goings, B. Peng, A. Petrone, 
 T. Henderson, D. Ranasinghe, V. G. Zakrzewski, J. Gao, N. Rega, 
 G. Zheng, W. Liang, M. Hada, M. Ehara, K. Toyota, R. Fukuda, 
 J. Hasegawa, M. Ishida, T. Nakajima, Y. Honda, O. Kitao, H. Nakai, 
 T. Vreven, K. Throssell, J. A. Montgomery, Jr., J. E. Peralta, 
 F. Ogliaro, M. J. Bearpark, J. J. Heyd, E. N. Brothers, K. N. Kudin, 
 V. N. Staroverov, T. A. Keith, R. Kobayashi, J. Normand, 
 K. Raghavachari, A. P. Rendell, J. C. Burant, S. S. Iyengar, 
 J. Tomasi, M. Cossi, J. M. Millam, M. Klene, C. Adamo, R. Cammi, 
 J. W. Ochterski, R. L. Martin, K. Morokuma, O. Farkas, 
 J. B. Foresman, and D. J. Fox, Gaussian, Inc., Wallingford CT, 2016.
 
 ******************************************
 Gaussian 16:  ES64L-G16RevB.01 20-Dec-2017
                21-Feb-2022 
 ******************************************
 %nproc=28
 Will use up to   28 processors via shared memory.
 %mem=120GB
 %chk=hoono_r3_1p490084.chk
 ---------------------------------------
 #p freq mp2/aug-cc-pvtz density=current
 ---------------------------------------
 1/10=4,30=1,38=1/1,3;
 2/12=2,17=6,18=5,40=1/2;
 3/5=16,6=1,7=10,11=9,25=1,30=1,71=2,140=1/1,2,3;
 4//1;
 5/5=2,38=5,98=1/2;
 8/6=3,8=1,10=1,19=11,30=-1/1;
 9/15=3,16=-3/6;
 11/6=1,8=1,15=11,17=12,24=-1,27=1,28=-2,29=300,32=6,42=3/1,2,10;
 10/6=2,21=1/2;
 8/6=4,8=1,10=1,19=11,30=-1/11,4;
 10/5=1,20=4/2;
 11/12=2,14=11,16=1,17=2,28=-2,42=3,76=2/2,10,12;
 6/7=2,8=2,9=2,10=2,22=-1/1;
 7/8=1,10=1,12=2,25=1,44=2/1,2,3,16;
 1/10=4,30=1/3;
 99//99;
 Leave Link    1 at Mon Feb 21 20:16:29 2022, MaxMem= 16106127360 cpu:               2.9 elap:               0.1
 (Enter /sw/contrib/gaussian/g16/B01/g16/l101.exe)
 -----
 title
 -----
 Symbolic Z-matrix:
 Charge =  0 Multiplicity = 1
 H
 O                    1    r1
 O                    2    r2       1    a1
 N                    3    r3       2    a2       1    d1       0
 O                    4    r4       3    a3       2    d2       0
       Variables:
  r1                    0.96898                  
  r2                    1.45492                  
  r3                    1.49008                  
  r4                    1.17073                  
  a1                   97.59495                  
  a2                  102.29752                  
  a3                  109.06955                  
  d1                  180.                       
  d2                  180.                       
 
 ITRead=  0  0  0  0  0
 MicOpt= -1 -1 -1 -1 -1
 NAtoms=      5 NQM=        5 NQMF=       0 NMMI=      0 NMMIF=      0
                NMic=       0 NMicF=      0.
                    Isotopes and Nuclear Properties:
 (Nuclear quadrupole moments (NQMom) in fm**2, nuclear magnetic moments (NMagM)
  in nuclear magnetons)

  Atom         1           2           3           4           5
 IAtWgt=           1          16          16          14          16
 AtmWgt=   1.0078250  15.9949146  15.9949146  14.0030740  15.9949146
 NucSpn=           1           0           0           2           0
 AtZEff=  -0.0000000  -0.0000000  -0.0000000  -0.0000000  -0.0000000
 NQMom=    0.0000000   0.0000000   0.0000000   2.0440000   0.0000000
 NMagM=    2.7928460   0.0000000   0.0000000   0.4037610   0.0000000
 AtZNuc=   1.0000000   8.0000000   8.0000000   7.0000000   8.0000000
 Leave Link  101 at Mon Feb 21 20:16:29 2022, MaxMem= 16106127360 cpu:               2.2 elap:               0.1
 (Enter /sw/contrib/gaussian/g16/B01/g16/l103.exe)

 GradGradGradGradGradGradGradGradGradGradGradGradGradGradGradGradGradGrad
 Berny optimization.
 Initialization pass.
                       ----------------------------
                       !    Initial Parameters    !
                       ! (Angstroms and Degrees)  !
 ----------------------                            ----------------------
 !      Name          Value   Derivative information (Atomic Units)     !
 ------------------------------------------------------------------------
 !       r1          0.969    calculate D2E/DX2 analytically            !
 !       r2          1.4549   calculate D2E/DX2 analytically            !
 !       r3          1.4901   calculate D2E/DX2 analytically            !
 !       r4          1.1707   calculate D2E/DX2 analytically            !
 !       a1         97.5949   calculate D2E/DX2 analytically            !
 !       a2        102.2975   calculate D2E/DX2 analytically            !
 !       a3        109.0696   calculate D2E/DX2 analytically            !
 !       d1        180.0      calculate D2E/DX2 analytically            !
 !       d2        180.0      calculate D2E/DX2 analytically            !
 ------------------------------------------------------------------------
 Trust Radius=3.00D-01 FncErr=1.00D-07 GrdErr=1.00D-07 EigMax=2.50D+02 EigMin=1.00D-04
 Number of steps in this run=      2 maximum allowed number of steps=      2.
 GradGradGradGradGradGradGradGradGradGradGradGradGradGradGradGradGradGrad

 Leave Link  103 at Mon Feb 21 20:16:29 2022, MaxMem= 16106127360 cpu:               0.5 elap:               0.0
 (Enter /sw/contrib/gaussian/g16/B01/g16/l202.exe)
                          Input orientation:                          
 ---------------------------------------------------------------------
 Center     Atomic      Atomic             Coordinates (Angstroms)
 Number     Number       Type             X           Y           Z
 ---------------------------------------------------------------------
      1          1           0        0.000000    0.000000    0.000000
      2          8           0        0.000000    0.000000    0.968976
      3          8           0        1.442156    0.000000    1.161271
      4          7           0        1.564318    0.000000    2.646339
      5          8           0        2.698434    0.000000    2.936834
 ---------------------------------------------------------------------
                    Distance matrix (angstroms):
                    1          2          3          4          5
     1  H    0.000000
     2  O    0.968976   0.000000
     3  O    1.851584   1.454919   0.000000
     4  N    3.074118   2.293608   1.490084   0.000000
     5  O    3.988300   3.339762   2.175054   1.170729   0.000000
 Stoichiometry    HNO3
 Framework group  CS[SG(HNO3)]
 Deg. of freedom     7
 Full point group                 CS      NOp   2
 Largest Abelian subgroup         CS      NOp   2
 Largest concise Abelian subgroup C1      NOp   1
                         Standard orientation:                         
 ---------------------------------------------------------------------
 Center     Atomic      Atomic             Coordinates (Angstroms)
 Number     Number       Type             X           Y           Z
 ---------------------------------------------------------------------
      1          1           0        1.545218    1.707577   -0.000000
      2          8           0        1.453862    0.742918   -0.000000
      3          8           0       -0.000000    0.687448   -0.000000
      4          7           0       -0.261633   -0.779487    0.000000
      5          8           0       -1.418085   -0.961762    0.000000
 ---------------------------------------------------------------------
 Rotational constants (GHZ):          53.6583459           4.9321572           4.5169675
 Leave Link  202 at Mon Feb 21 20:16:29 2022, MaxMem= 16106127360 cpu:               1.3 elap:               0.1
 (Enter /sw/contrib/gaussian/g16/B01/g16/l301.exe)
 Standard basis: Aug-CC-pVTZ (5D, 7F)
 Ernie: Thresh=  0.10000D-02 Tol=  0.10000D-05 Strict=F.
 Ernie:  12 primitive shells out of 131 were deleted.
 There are   166 symmetry adapted cartesian basis functions of A'  symmetry.
 There are    79 symmetry adapted cartesian basis functions of A"  symmetry.
 There are   136 symmetry adapted basis functions of A'  symmetry.
 There are    71 symmetry adapted basis functions of A"  symmetry.
   207 basis functions,   315 primitive gaussians,   245 cartesian basis functions
    16 alpha electrons       16 beta electrons
       nuclear repulsion energy       116.0310456662 Hartrees.
 IExCor=    0 DFT=F Ex=HF Corr=None ExCW=0 ScaHFX=  1.000000
 ScaDFX=  1.000000  1.000000  1.000000  1.000000 ScalE2=  1.000000  1.000000
 IRadAn=      5 IRanWt=     -1 IRanGd=            0 ICorTp=0 IEmpDi=  4
 NAtoms=    5 NActive=    5 NUniq=    5 SFac= 1.00D+00 NAtFMM=   60 NAOKFM=F Big=F
 Integral buffers will be    131072 words long.
 Raffenetti 1 integral format.
 Two-electron integral symmetry is turned on.
 Leave Link  301 at Mon Feb 21 20:16:29 2022, MaxMem= 16106127360 cpu:               1.6 elap:               0.1
 (Enter /sw/contrib/gaussian/g16/B01/g16/l302.exe)
 NPDir=0 NMtPBC=     1 NCelOv=     1 NCel=       1 NClECP=     1 NCelD=      1
         NCelK=      1 NCelE2=     1 NClLst=     1 CellRange=     0.0.
 One-electron integrals computed using PRISM.
 One-electron integral symmetry used in STVInt
 NBasis=   207 RedAO= T EigKep=  1.85D-04  NBF=   136    71
 NBsUse=   207 1.00D-06 EigRej= -1.00D+00 NBFU=   136    71
 Leave Link  302 at Mon Feb 21 20:16:29 2022, MaxMem= 16106127360 cpu:               6.5 elap:               0.3
 (Enter /sw/contrib/gaussian/g16/B01/g16/l303.exe)
 DipDrv:  MaxL=1.
 Leave Link  303 at Mon Feb 21 20:16:29 2022, MaxMem= 16106127360 cpu:               1.4 elap:               0.1
 (Enter /sw/contrib/gaussian/g16/B01/g16/l401.exe)
 ExpMin= 2.53D-02 ExpMax= 1.53D+04 ExpMxC= 5.22D+02 IAcc=3 IRadAn=         5 AccDes= 0.00D+00
 Harris functional with IExCor=  205 and IRadAn=       5 diagonalized for initial guess.
 HarFok:  IExCor=  205 AccDes= 0.00D+00 IRadAn=         5 IDoV= 1 UseB2=F ITyADJ=14
 ICtDFT=  3500011 ScaDFX=  1.000000  1.000000  1.000000  1.000000
 FoFCou: FMM=F IPFlag=           0 FMFlag=      100000 FMFlg1=           0
         NFxFlg=           0 DoJE=T BraDBF=F KetDBF=T FulRan=T
         wScrn=  0.000000 ICntrl=       500 IOpCl=  0 I1Cent=   200000004 NGrid=           0
         NMat0=    1 NMatS0=      1 NMatT0=    0 NMatD0=    1 NMtDS0=    0 NMtDT0=    0
 Petite list used in FoFCou.
 Harris En= -279.627405018952    
 JPrj=0 DoOrth=F DoCkMO=F.
 Initial guess orbital symmetries:
       Occupied  (A') (A') (A') (A') (A') (A') (A') (A') (A') (A')
                 (A") (A') (A') (A") (A") (A')
       Virtual   (A") (A') (A') (A') (A') (A') (A") (A') (A') (A')
                 (A") (A') (A") (A') (A') (A") (A') (A") (A') (A')
                 (A') (A') (A') (A') (A') (A") (A') (A") (A') (A')
                 (A") (A') (A") (A') (A') (A") (A') (A") (A') (A')
                 (A") (A') (A") (A') (A") (A') (A') (A') (A") (A")
                 (A') (A') (A') (A') (A") (A') (A") (A') (A") (A')
                 (A') (A') (A") (A') (A') (A") (A') (A") (A') (A')
                 (A") (A') (A') (A") (A") (A') (A') (A") (A') (A')
                 (A') (A") (A') (A") (A') (A") (A') (A") (A') (A')
                 (A') (A") (A') (A") (A') (A") (A") (A') (A') (A')
                 (A") (A') (A") (A') (A') (A') (A") (A') (A") (A')
                 (A") (A') (A') (A') (A") (A') (A') (A') (A") (A')
                 (A") (A') (A') (A") (A") (A') (A') (A") (A") (A')
                 (A') (A') (A') (A") (A") (A') (A") (A') (A') (A')
                 (A') (A") (A") (A') (A') (A") (A') (A') (A') (A')
                 (A') (A") (A') (A") (A') (A") (A') (A") (A") (A')
                 (A') (A") (A') (A") (A') (A") (A") (A") (A') (A')
                 (A") (A') (A") (A') (A') (A") (A") (A") (A') (A')
                 (A') (A') (A') (A') (A') (A') (A') (A') (A') (A')
                 (A')
 The electronic state of the initial guess is 1-A'.
 Leave Link  401 at Mon Feb 21 20:16:30 2022, MaxMem= 16106127360 cpu:               7.1 elap:               0.3
 (Enter /sw/contrib/gaussian/g16/B01/g16/l502.exe)
 Keep R1 ints in memory in symmetry-blocked form, NReq=348887737.
 FoFCou: FMM=F IPFlag=           0 FMFlag=           0 FMFlg1=           0
         NFxFlg=           0 DoJE=F BraDBF=F KetDBF=F FulRan=T
         wScrn=  0.000000 ICntrl=       600 IOpCl=  0 I1Cent=           0 NGrid=           0
         NMat0=    1 NMatS0=  21528 NMatT0=    0 NMatD0=    1 NMtDS0=    0 NMtDT0=    0
 Petite list used in FoFCou.
 Closed shell SCF:
 Using DIIS extrapolation, IDIIS=  1040.
 NGot= 16106127360 LenX= 15988850015 LenY= 15988789549
 Requested convergence on RMS density matrix=1.00D-08 within 128 cycles.
 Requested convergence on MAX density matrix=1.00D-06.
 Requested convergence on             energy=1.00D-06.
 No special actions if energy rises.

 Cycle   1  Pass 1  IDiag  1:
 E= -279.370332652913    
 DIIS: error= 2.75D-02 at cycle   1 NSaved=   1.
 NSaved= 1 IEnMin= 1 EnMin= -279.370332652913     IErMin= 1 ErrMin= 2.75D-02
 ErrMax= 2.75D-02  0.00D+00 EMaxC= 1.00D-01 BMatC= 4.34D-01 BMatP= 4.34D-01
 IDIUse=3 WtCom= 7.25D-01 WtEn= 2.75D-01
 Coeff-Com:  0.100D+01
 Coeff-En:   0.100D+01
 Coeff:      0.100D+01
 Gap=     0.497 Goal=   None    Shift=    0.000
 GapD=    0.497 DampG=2.000 DampE=0.500 DampFc=1.0000 IDamp=-1.
 RMSDP=1.60D-03 MaxDP=1.02D-01              OVMax= 1.05D-01

 Cycle   2  Pass 1  IDiag  1:
 E= -279.452906474599     Delta-E=       -0.082573821686 Rises=F Damp=F
 DIIS: error= 1.75D-02 at cycle   2 NSaved=   2.
 NSaved= 2 IEnMin= 2 EnMin= -279.452906474599     IErMin= 2 ErrMin= 1.75D-02
 ErrMax= 1.75D-02  0.00D+00 EMaxC= 1.00D-01 BMatC= 6.56D-02 BMatP= 4.34D-01
 IDIUse=3 WtCom= 8.25D-01 WtEn= 1.75D-01
 Coeff-Com:  0.183D+00 0.817D+00
 Coeff-En:   0.000D+00 0.100D+01
 Coeff:      0.151D+00 0.849D+00
 Gap=     0.523 Goal=   None    Shift=    0.000
 RMSDP=8.68D-04 MaxDP=3.61D-02 DE=-8.26D-02 OVMax= 7.13D-02

 Cycle   3  Pass 1  IDiag  1:
 E= -279.479261699002     Delta-E=       -0.026355224402 Rises=F Damp=F
 DIIS: error= 1.07D-02 at cycle   3 NSaved=   3.
 NSaved= 3 IEnMin= 3 EnMin= -279.479261699002     IErMin= 3 ErrMin= 1.07D-02
 ErrMax= 1.07D-02  0.00D+00 EMaxC= 1.00D-01 BMatC= 2.72D-02 BMatP= 6.56D-02
 IDIUse=3 WtCom= 8.93D-01 WtEn= 1.07D-01
 Coeff-Com: -0.321D-01 0.383D+00 0.650D+00
 Coeff-En:   0.000D+00 0.245D+00 0.755D+00
 Coeff:     -0.287D-01 0.368D+00 0.661D+00
 Gap=     0.509 Goal=   None    Shift=    0.000
 RMSDP=3.68D-04 MaxDP=1.61D-02 DE=-2.64D-02 OVMax= 3.50D-02

 Cycle   4  Pass 1  IDiag  1:
 E= -279.497282680150     Delta-E=       -0.018020981148 Rises=F Damp=F
 DIIS: error= 1.33D-03 at cycle   4 NSaved=   4.
 NSaved= 4 IEnMin= 4 EnMin= -279.497282680150     IErMin= 4 ErrMin= 1.33D-03
 ErrMax= 1.33D-03  0.00D+00 EMaxC= 1.00D-01 BMatC= 5.29D-04 BMatP= 2.72D-02
 IDIUse=3 WtCom= 9.87D-01 WtEn= 1.33D-02
 Coeff-Com: -0.123D-01 0.674D-01 0.174D+00 0.771D+00
 Coeff-En:   0.000D+00 0.000D+00 0.000D+00 0.100D+01
 Coeff:     -0.121D-01 0.665D-01 0.171D+00 0.774D+00
 Gap=     0.502 Goal=   None    Shift=    0.000
 RMSDP=9.05D-05 MaxDP=2.86D-03 DE=-1.80D-02 OVMax= 1.18D-02

 Cycle   5  Pass 1  IDiag  1:
 E= -279.497992274705     Delta-E=       -0.000709594556 Rises=F Damp=F
 DIIS: error= 7.89D-04 at cycle   5 NSaved=   5.
 NSaved= 5 IEnMin= 5 EnMin= -279.497992274705     IErMin= 5 ErrMin= 7.89D-04
 ErrMax= 7.89D-04  0.00D+00 EMaxC= 1.00D-01 BMatC= 9.30D-05 BMatP= 5.29D-04
 IDIUse=3 WtCom= 9.92D-01 WtEn= 7.89D-03
 Coeff-Com:  0.635D-02-0.763D-01-0.125D+00 0.789D-02 0.119D+01
 Coeff-En:   0.000D+00 0.000D+00 0.000D+00 0.000D+00 0.100D+01
 Coeff:      0.630D-02-0.757D-01-0.124D+00 0.783D-02 0.119D+01
 Gap=     0.501 Goal=   None    Shift=    0.000
 RMSDP=8.04D-05 MaxDP=2.18D-03 DE=-7.10D-04 OVMax= 1.16D-02

 Cycle   6  Pass 1  IDiag  1:
 E= -279.498340083556     Delta-E=       -0.000347808850 Rises=F Damp=F
 DIIS: error= 2.85D-04 at cycle   6 NSaved=   6.
 NSaved= 6 IEnMin= 6 EnMin= -279.498340083556     IErMin= 6 ErrMin= 2.85D-04
 ErrMax= 2.85D-04  0.00D+00 EMaxC= 1.00D-01 BMatC= 1.77D-05 BMatP= 9.30D-05
 IDIUse=3 WtCom= 9.97D-01 WtEn= 2.85D-03
 Coeff-Com:  0.694D-03 0.652D-03 0.348D-02-0.122D+00-0.245D+00 0.136D+01
 Coeff-En:   0.000D+00 0.000D+00 0.000D+00 0.000D+00 0.000D+00 0.100D+01
 Coeff:      0.692D-03 0.650D-03 0.347D-02-0.122D+00-0.244D+00 0.136D+01
 Gap=     0.502 Goal=   None    Shift=    0.000
 RMSDP=4.81D-05 MaxDP=1.34D-03 DE=-3.48D-04 OVMax= 5.86D-03

 Cycle   7  Pass 1  IDiag  1:
 E= -279.498421261889     Delta-E=       -0.000081178333 Rises=F Damp=F
 DIIS: error= 1.45D-04 at cycle   7 NSaved=   7.
 NSaved= 7 IEnMin= 7 EnMin= -279.498421261889     IErMin= 7 ErrMin= 1.45D-04
 ErrMax= 1.45D-04  0.00D+00 EMaxC= 1.00D-01 BMatC= 5.32D-06 BMatP= 1.77D-05
 IDIUse=3 WtCom= 9.99D-01 WtEn= 1.45D-03
 Coeff-Com: -0.978D-03 0.146D-01 0.288D-01-0.242D-01-0.312D+00 0.441D+00
 Coeff-Com:  0.853D+00
 Coeff-En:   0.000D+00 0.000D+00 0.000D+00 0.000D+00 0.000D+00 0.000D+00
 Coeff-En:   0.100D+01
 Coeff:     -0.977D-03 0.146D-01 0.288D-01-0.242D-01-0.311D+00 0.440D+00
 Coeff:      0.853D+00
 Gap=     0.502 Goal=   None    Shift=    0.000
 RMSDP=1.42D-05 MaxDP=4.07D-04 DE=-8.12D-05 OVMax= 1.64D-03

 Cycle   8  Pass 1  IDiag  1:
 E= -279.498431567559     Delta-E=       -0.000010305670 Rises=F Damp=F
 DIIS: error= 5.90D-05 at cycle   8 NSaved=   8.
 NSaved= 8 IEnMin= 8 EnMin= -279.498431567559     IErMin= 8 ErrMin= 5.90D-05
 ErrMax= 5.90D-05  0.00D+00 EMaxC= 1.00D-01 BMatC= 6.77D-07 BMatP= 5.32D-06
 IDIUse=1 WtCom= 1.00D+00 WtEn= 0.00D+00
 Coeff-Com: -0.494D-03 0.389D-02 0.860D-02 0.278D-01-0.403D-01-0.204D+00
 Coeff-Com:  0.141D+00 0.106D+01
 Coeff:     -0.494D-03 0.389D-02 0.860D-02 0.278D-01-0.403D-01-0.204D+00
 Coeff:      0.141D+00 0.106D+01
 Gap=     0.501 Goal=   None    Shift=    0.000
 RMSDP=7.78D-06 MaxDP=2.19D-04 DE=-1.03D-05 OVMax= 8.87D-04

 Cycle   9  Pass 1  IDiag  1:
 E= -279.498433674413     Delta-E=       -0.000002106854 Rises=F Damp=F
 DIIS: error= 1.62D-05 at cycle   9 NSaved=   9.
 NSaved= 9 IEnMin= 9 EnMin= -279.498433674413     IErMin= 9 ErrMin= 1.62D-05
 ErrMax= 1.62D-05  0.00D+00 EMaxC= 1.00D-01 BMatC= 7.18D-08 BMatP= 6.77D-07
 IDIUse=1 WtCom= 1.00D+00 WtEn= 0.00D+00
 Coeff-Com:  0.141D-03-0.192D-02-0.350D-02-0.336D-02 0.358D-01 0.630D-02
 Coeff-Com: -0.158D+00-0.148D+00 0.127D+01
 Coeff:      0.141D-03-0.192D-02-0.350D-02-0.336D-02 0.358D-01 0.630D-02
 Coeff:     -0.158D+00-0.148D+00 0.127D+01
 Gap=     0.501 Goal=   None    Shift=    0.000
 RMSDP=2.05D-06 MaxDP=6.97D-05 DE=-2.11D-06 OVMax= 1.77D-04

 Cycle  10  Pass 1  IDiag  1:
 E= -279.498433845263     Delta-E=       -0.000000170849 Rises=F Damp=F
 DIIS: error= 4.19D-06 at cycle  10 NSaved=  10.
 NSaved=10 IEnMin=10 EnMin= -279.498433845263     IErMin=10 ErrMin= 4.19D-06
 ErrMax= 4.19D-06  0.00D+00 EMaxC= 1.00D-01 BMatC= 5.39D-09 BMatP= 7.18D-08
 IDIUse=1 WtCom= 1.00D+00 WtEn= 0.00D+00
 Coeff-Com:  0.271D-04-0.200D-03-0.237D-03-0.241D-02 0.553D-03 0.181D-01
 Coeff-Com: -0.547D-02-0.681D-01-0.101D+00 0.116D+01
 Coeff:      0.271D-04-0.200D-03-0.237D-03-0.241D-02 0.553D-03 0.181D-01
 Coeff:     -0.547D-02-0.681D-01-0.101D+00 0.116D+01
 Gap=     0.501 Goal=   None    Shift=    0.000
 RMSDP=4.95D-07 MaxDP=2.07D-05 DE=-1.71D-07 OVMax= 3.98D-05

 Cycle  11  Pass 1  IDiag  1:
 E= -279.498433857177     Delta-E=       -0.000000011914 Rises=F Damp=F
 DIIS: error= 2.02D-06 at cycle  11 NSaved=  11.
 NSaved=11 IEnMin=11 EnMin= -279.498433857177     IErMin=11 ErrMin= 2.02D-06
 ErrMax= 2.02D-06  0.00D+00 EMaxC= 1.00D-01 BMatC= 6.31D-10 BMatP= 5.39D-09
 IDIUse=1 WtCom= 1.00D+00 WtEn= 0.00D+00
 Coeff-Com: -0.215D-04 0.249D-03 0.502D-03 0.533D-03-0.405D-02-0.365D-02
 Coeff-Com:  0.184D-01 0.318D-01-0.135D+00-0.149D+00 0.124D+01
 Coeff:     -0.215D-04 0.249D-03 0.502D-03 0.533D-03-0.405D-02-0.365D-02
 Coeff:      0.184D-01 0.318D-01-0.135D+00-0.149D+00 0.124D+01
 Gap=     0.501 Goal=   None    Shift=    0.000
 RMSDP=1.67D-07 MaxDP=5.85D-06 DE=-1.19D-08 OVMax= 1.72D-05

 Cycle  12  Pass 1  IDiag  1:
 E= -279.498433858858     Delta-E=       -0.000000001682 Rises=F Damp=F
 DIIS: error= 6.15D-07 at cycle  12 NSaved=  12.
 NSaved=12 IEnMin=12 EnMin= -279.498433858858     IErMin=12 ErrMin= 6.15D-07
 ErrMax= 6.15D-07  0.00D+00 EMaxC= 1.00D-01 BMatC= 7.68D-11 BMatP= 6.31D-10
 IDIUse=1 WtCom= 1.00D+00 WtEn= 0.00D+00
 Coeff-Com:  0.153D-05-0.329D-04-0.717D-04 0.136D-03 0.116D-02-0.220D-02
 Coeff-Com: -0.416D-02 0.469D-02 0.421D-01-0.126D+00-0.263D+00 0.135D+01
 Coeff:      0.153D-05-0.329D-04-0.717D-04 0.136D-03 0.116D-02-0.220D-02
 Coeff:     -0.416D-02 0.469D-02 0.421D-01-0.126D+00-0.263D+00 0.135D+01
 Gap=     0.501 Goal=   None    Shift=    0.000
 RMSDP=7.15D-08 MaxDP=2.78D-06 DE=-1.68D-09 OVMax= 7.16D-06

 Cycle  13  Pass 1  IDiag  1:
 E= -279.498433859101     Delta-E=       -0.000000000243 Rises=F Damp=F
 DIIS: error= 1.90D-07 at cycle  13 NSaved=  13.
 NSaved=13 IEnMin=13 EnMin= -279.498433859101     IErMin=13 ErrMin= 1.90D-07
 ErrMax= 1.90D-07  0.00D+00 EMaxC= 1.00D-01 BMatC= 4.88D-12 BMatP= 7.68D-11
 IDIUse=1 WtCom= 1.00D+00 WtEn= 0.00D+00
 Coeff-Com:  0.136D-05-0.149D-04-0.238D-04-0.895D-04 0.101D-03 0.823D-03
 Coeff-Com: -0.671D-03-0.355D-02 0.406D-03 0.459D-01-0.426D-01-0.356D+00
 Coeff-Com:  0.136D+01
 Coeff:      0.136D-05-0.149D-04-0.238D-04-0.895D-04 0.101D-03 0.823D-03
 Coeff:     -0.671D-03-0.355D-02 0.406D-03 0.459D-01-0.426D-01-0.356D+00
 Coeff:      0.136D+01
 Gap=     0.501 Goal=   None    Shift=    0.000
 RMSDP=2.10D-08 MaxDP=6.59D-07 DE=-2.43D-10 OVMax= 1.94D-06

 Cycle  14  Pass 1  IDiag  1:
 E= -279.498433859119     Delta-E=       -0.000000000018 Rises=F Damp=F
 DIIS: error= 2.92D-08 at cycle  14 NSaved=  14.
 NSaved=14 IEnMin=14 EnMin= -279.498433859119     IErMin=14 ErrMin= 2.92D-08
 ErrMax= 2.92D-08  0.00D+00 EMaxC= 1.00D-01 BMatC= 2.50D-13 BMatP= 4.88D-12
 IDIUse=1 WtCom= 1.00D+00 WtEn= 0.00D+00
 Coeff-Com: -0.236D-06 0.378D-05 0.691D-05 0.691D-05-0.920D-04 0.403D-04
 Coeff-Com:  0.277D-03 0.320D-03-0.269D-02 0.185D-02 0.184D-01-0.244D-01
 Coeff-Com: -0.218D+00 0.122D+01
 Coeff:     -0.236D-06 0.378D-05 0.691D-05 0.691D-05-0.920D-04 0.403D-04
 Coeff:      0.277D-03 0.320D-03-0.269D-02 0.185D-02 0.184D-01-0.244D-01
 Coeff:     -0.218D+00 0.122D+01
 Gap=     0.501 Goal=   None    Shift=    0.000
 RMSDP=4.27D-09 MaxDP=1.10D-07 DE=-1.77D-11 OVMax= 3.94D-07

 SCF Done:  E(RHF) =  -279.498433859     A.U. after   14 cycles
            NFock= 14  Conv=0.43D-08     -V/T= 2.0025
 KE= 2.787969048289D+02 PE=-8.933807050851D+02 EE= 2.190543207309D+02
 Leave Link  502 at Mon Feb 21 20:16:33 2022, MaxMem= 16106127360 cpu:              56.1 elap:               3.6
 (Enter /sw/contrib/gaussian/g16/B01/g16/l801.exe)
 ExpMin= 2.53D-02 ExpMax= 1.53D+04 ExpMxC= 5.22D+02 IAcc=3 IRadAn=         5 AccDes= 0.00D+00
 HarFok:  IExCor=  205 AccDes= 0.00D+00 IRadAn=         5 IDoV=-2 UseB2=F ITyADJ=14
 ICtDFT= 12500011 ScaDFX=  1.000000  1.000000  1.000000  1.000000
 DSYEVD-2 returned Info=          93 IAlg= 4 N=    46 NDim=    46 NE2=   350130240 trying  DSYEV.
 Largest valence mixing into a core orbital is  2.09D-04
 Largest core mixing into a valence orbital is  3.72D-05
 Range of M.O.s used for correlation:     5   207
 NBasis=   207 NAE=    16 NBE=    16 NFC=     4 NFV=     0
 NROrb=    203 NOA=    12 NOB=    12 NVA=   191 NVB=   191

 **** Warning!!: The largest alpha MO coefficient is  0.17126319D+02

 Leave Link  801 at Mon Feb 21 20:16:33 2022, MaxMem= 16106127360 cpu:               2.2 elap:               0.1
 (Enter /sw/contrib/gaussian/g16/B01/g16/l906.exe)
 Frozen-core derivative calculation, NFC=   4 NFV=   0.
 FulOut=F Deriv=T AODrv=T NAtomX=     5
   MMem=           0  MDisk=          12 MDiskD=          12
  W3Min=      811440 MinDsk=     2425030 NBas6D=         245
 NBas2D=       30762    NTT=       30135    LW2=     7400000
    MDV= 16105574353 MDiskM=      328644 NBas2p=       30702
 Disk-based method using ON**2 memory for 12 occupieds at a time.
 Permanent disk used for amplitudes=    11516536 words.
 Estimated scratch disk usage=   321251614 words.
 IMap=   1   2   3   4   5   6   7   8   9  10  11  12  13  14  15  16
 Actual    scratch disk usage=   310331678 words.
 JobTyp=1 Pass  1:  I=   5 to  16 NPSUse= 28 ParTrn=T ParDer=T DoDerP=T.
 (rs|ai) integrals will be sorted in core.
 Spin components of T(2) and E(2):
     alpha-alpha T2 =       0.3440375084D-01 E2=     -0.1227688519D+00
     alpha-beta  T2 =       0.1890891108D+00 E2=     -0.7025682606D+00
     beta-beta   T2 =       0.3440375084D-01 E2=     -0.1227688519D+00
 The integrals were generated   1 times.
 ANorm=    0.1121559901D+01
 E2 =    -0.9481059645D+00 EUMP2 =    -0.28044653982362D+03
 Leave Link  906 at Mon Feb 21 20:18:11 2022, MaxMem= 16106127360 cpu:            2723.5 elap:              97.4
 (Enter /sw/contrib/gaussian/g16/B01/g16/l1101.exe)
 Using compressed Sx but separate Hx and Fx, NAtomX=     5.
 Will process      6 centers per pass.
 Leave Link 1101 at Mon Feb 21 20:18:11 2022, MaxMem= 16106127360 cpu:               5.6 elap:               0.2
 (Enter /sw/contrib/gaussian/g16/B01/g16/l1102.exe)
 Leave Link 1102 at Mon Feb 21 20:18:11 2022, MaxMem= 16106127360 cpu:               1.3 elap:               0.1
 (Enter /sw/contrib/gaussian/g16/B01/g16/l1110.exe)
 Forming Gx(P) for the SCF density, NAtomX=     5.
 Integral derivatives from FoFJK, PRISM(SPDF).
 Do as many integral derivatives as possible in FoFJK.
 G2DrvN: MDV=   16106126844.
 G2DrvN: will do     6 centers at a time, making    1 passes.
 Calling FoFCou, ICntrl=  3107 FMM=F I1Cent=   0 AccDes= 0.00D+00.
 FoFJK:  IHMeth= 1 ICntrl=    3107 DoSepK=F KAlg= 0 I1Cent=           0 FoldK=F
 IRaf=         0 NMat=       1 IRICut=       1 DoRegI=T DoRafI=F ISym2E= 1 IDoP0=0 IntGTp=1.
 FoFCou: FMM=F IPFlag=           0 FMFlag=      100000 FMFlg1=           0
         NFxFlg=           0 DoJE=F BraDBF=F KetDBF=F FulRan=T
         wScrn=  0.000000 ICntrl=      3107 IOpCl=  0 I1Cent=           0 NGrid=           0
         NMat0=    1 NMatS0=      1 NMatT0=    0 NMatD0=    1 NMtDS0=    0 NMtDT0=    0
 Petite list used in FoFCou.
 End of G2Drv F.D. properties file   721 does not exist.
 End of G2Drv F.D. properties file   722 does not exist.
 End of G2Drv F.D. properties file   788 does not exist.
 Leave Link 1110 at Mon Feb 21 20:18:14 2022, MaxMem= 16106127360 cpu:              82.8 elap:               3.0
 (Enter /sw/contrib/gaussian/g16/B01/g16/l1002.exe)
 Minotr:  Closed shell wavefunction.
          IDoAtm=11111
          Frozen-core window.
          Direct CPHF calculation.
          Differentiating once with respect to electric field.
                with respect to dipole field.
          Differentiating once with respect to nuclear coordinates.
          Requested convergence is 1.0D-08 RMS, and 1.0D-07 maximum.
          Secondary convergence is 1.0D-12 RMS, and 1.0D-12 maximum.
          NewPWx=T KeepS1=T KeepF1=T KeepIn=T MapXYZ=F SortEE=F KeepMc=T.
 Keep R1 ints in memory in symmetry-blocked form, NReq=348888983.
 FoFCou: FMM=F IPFlag=           0 FMFlag=           0 FMFlg1=           0
         NFxFlg=           0 DoJE=F BraDBF=F KetDBF=F FulRan=T
         wScrn=  0.000000 ICntrl=       600 IOpCl=  0 I1Cent=           0 NGrid=           0
         NMat0=    1 NMatS0=  21528 NMatT0=    0 NMatD0=    1 NMtDS0=    0 NMtDT0=    0
 Petite list used in FoFCou.
          MDV=   16106127360 using IRadAn=       1.
          Solving linear equations simultaneously, MaxMat=       0.
          There are    18 degrees of freedom in the 1st order CPHF.  IDoFFX=6 NUNeed=    18.
     15 vectors produced by pass  0 Test12= 1.70D-14 5.56D-09 XBig12= 8.34D+00 1.10D+00.
 AX will form    15 AO Fock derivatives at one time.
     15 vectors produced by pass  1 Test12= 1.70D-14 5.56D-09 XBig12= 1.38D+00 2.47D-01.
     15 vectors produced by pass  2 Test12= 1.70D-14 5.56D-09 XBig12= 1.50D-01 1.02D-01.
     15 vectors produced by pass  3 Test12= 1.70D-14 5.56D-09 XBig12= 5.29D-03 1.20D-02.
     15 vectors produced by pass  4 Test12= 1.70D-14 5.56D-09 XBig12= 1.03D-04 1.98D-03.
     15 vectors produced by pass  5 Test12= 1.70D-14 5.56D-09 XBig12= 1.51D-06 1.90D-04.
     15 vectors produced by pass  6 Test12= 1.70D-14 5.56D-09 XBig12= 1.19D-08 1.48D-05.
     13 vectors produced by pass  7 Test12= 1.70D-14 5.56D-09 XBig12= 8.83D-11 1.31D-06.
      3 vectors produced by pass  8 Test12= 1.70D-14 5.56D-09 XBig12= 6.07D-13 1.15D-07.
      2 vectors produced by pass  9 Test12= 1.70D-14 5.56D-09 XBig12= 3.82D-15 9.77D-09.
 InvSVY:  IOpt=1 It=  1 EMax= 8.88D-16
 Solved reduced A of dimension   123 with    15 vectors.
 FullF1:  Do perturbations      1 to      18.
 Saving first derivative matrices.
 End of Minotr F.D. properties file   721 does not exist.
 End of Minotr F.D. properties file   722 does not exist.
 End of Minotr F.D. properties file   788 does not exist.
 Leave Link 1002 at Mon Feb 21 20:18:17 2022, MaxMem= 16106127360 cpu:              80.6 elap:               2.9
 (Enter /sw/contrib/gaussian/g16/B01/g16/l811.exe)
 MDV= 16106127360.
 Form MO integral derivatives with frozen-active canonical formalism.
 MOERI=1 MOERIx=1 NAtoms=     5 NAtomX=     5.
 Discarding MO integrals.
 MO basis two electron integral derivatives will not be stored on disk.
 IAlg= 3 DoFC=T DoPWx=T Debug=F.
 Frozen-core window:  NFC=   4 NFV=   0.
 Reordered first order wavefunction length =     18678272
 In DefCFB: NBatch=  1 ICI= 16 ICA=191 LFMax= 96
            Large arrays: LIAPS=   619940160 LIARS=   288257200 words.
 In StABat: MaxSiz= 55 MinSiz= 25 NAtomB=  5
 DoIAMN: NPSUse= 28.
 Leave Link  811 at Mon Feb 21 20:19:38 2022, MaxMem= 16106127360 cpu:            2257.5 elap:              80.8
 (Enter /sw/contrib/gaussian/g16/B01/g16/l804.exe)
 Frozen-core window:  NFC=   4 NFV=   0.
 Closed-shell transformation, MDV= 16106127360 ITran=4 ISComp=1.
 Semi-Direct transformation.
 ModeAB=           2 MOrb=            16 LenV=   16104923149
 LASXX=     67341636 LTotXX=    67341636 LenRXX=    67341636
 LTotAB=    68301760 MaxLAS=    99807120 LenRXY=    99807120
 NonZer=   134683272 LenScr=   202817536 LnRSAI=           0
 LnScr1=           0 LExtra=           0 Total=    369966292
 MaxDsk=          -1 SrtSym=           F ITran=            4
 DoSDTr:  NPSUse= 28
 JobTyp=0 Pass  1:  I=   1 to  16.
 (rs|ai) integrals will be sorted in core.
 Complete sort for first half transformation.
 First half transformation complete.
 Begin second half transformation for I=  10.
 Begin second half transformation for I=  10.
 Complete sort for second half transformation.
 Second half transformation complete.
 Spin components of T(2) and E(2):
     alpha-alpha T2 =       0.3440375084D-01 E2=     -0.1227688519D+00
     alpha-beta  T2 =       0.1890891108D+00 E2=     -0.7025682606D+00
     beta-beta   T2 =       0.3440375084D-01 E2=     -0.1227688519D+00
 ANorm=    0.1586125224D+01
 E2 =    -0.9481059645D+00 EUMP2 =    -0.28044653982362D+03
 Leave Link  804 at Mon Feb 21 20:19:54 2022, MaxMem= 16106127360 cpu:             437.6 elap:              15.7
 (Enter /sw/contrib/gaussian/g16/B01/g16/l1002.exe)
 Minotr:  Closed shell wavefunction.
          Computing MP2/KS-MP2 derivatives.
          Using Z-Vector for PSCF gradient.
          Skipping F1 and S1 gradient terms here.
          IDoAtm=11111
          Frozen-core window.
          Using MO integrals in the linear equations.
          Forming densities via direct SCF.
          Differentiating once with respect to electric field.
                with respect to dipole field.
          Differentiating once with respect to nuclear coordinates.
          Using symmetry in CPHF.
          Requested convergence is 1.0D-10 RMS, and 1.0D-09 maximum.
          NewPWx=F KeepS1=T KeepF1=T KeepIn=T MapXYZ=F SortEE=F KeepMc=T.
          MDV=   16106127360 using IRadAn=       5.
          Solving linear equations separately, MaxMat=       0.
          There are     1 degrees of freedom in the 1st order CPHF.  IDoFFX=0 NUNeed=     1.
 FoFJK:  IHMeth= 1 ICntrl=       0 DoSepK=F KAlg= 0 I1Cent=           0 FoldK=F
 IRaf=         0 NMat=       1 IRICut=       1 DoRegI=T DoRafI=F ISym2E= 0 IDoP0=0 IntGTp=1.
 FoFCou: FMM=F IPFlag=           0 FMFlag=      100000 FMFlg1=           0
         NFxFlg=           0 DoJE=F BraDBF=F KetDBF=F FulRan=T
         wScrn=  0.000000 ICntrl=         0 IOpCl=  0 I1Cent=           0 NGrid=           0
         NMat0=    1 NMatS0=      1 NMatT0=    0 NMatD0=    1 NMtDS0=    0 NMtDT0=    0
 Symmetry not used in FoFCou.
 LinEq1:  Iter=  0 NonCon=     1 RMS=6.07D-03 Max=1.32D-01 NDo=     1
 LinEq1:  Iter=  1 NonCon=     1 RMS=2.00D-03 Max=4.03D-02 NDo=     1
 LinEq1:  Iter=  2 NonCon=     1 RMS=9.15D-04 Max=1.42D-02 NDo=     1
 LinEq1:  Iter=  3 NonCon=     1 RMS=4.09D-04 Max=7.83D-03 NDo=     1
 LinEq1:  Iter=  4 NonCon=     1 RMS=1.26D-04 Max=1.84D-03 NDo=     1
 LinEq1:  Iter=  5 NonCon=     1 RMS=4.77D-05 Max=7.52D-04 NDo=     1
 LinEq1:  Iter=  6 NonCon=     1 RMS=2.12D-05 Max=2.44D-04 NDo=     1
 LinEq1:  Iter=  7 NonCon=     1 RMS=8.69D-06 Max=1.78D-04 NDo=     1
 LinEq1:  Iter=  8 NonCon=     1 RMS=3.66D-06 Max=3.83D-05 NDo=     1
 LinEq1:  Iter=  9 NonCon=     1 RMS=1.00D-06 Max=1.53D-05 NDo=     1
 LinEq1:  Iter= 10 NonCon=     1 RMS=2.04D-07 Max=2.32D-06 NDo=     1
 LinEq1:  Iter= 11 NonCon=     1 RMS=3.91D-08 Max=4.62D-07 NDo=     1
 LinEq1:  Iter= 12 NonCon=     1 RMS=9.41D-09 Max=1.44D-07 NDo=     1
 LinEq1:  Iter= 13 NonCon=     1 RMS=1.66D-09 Max=2.98D-08 NDo=     1
 LinEq1:  Iter= 14 NonCon=     1 RMS=3.06D-10 Max=4.63D-09 NDo=     1
 LinEq1:  Iter= 15 NonCon=     0 RMS=5.51D-11 Max=6.57D-10 NDo=     1
 Linear equations converged to 1.000D-10 1.000D-09 after    15 iterations.
 End of Minotr F.D. properties file   721 does not exist.
 End of Minotr F.D. properties file   722 does not exist.
 End of Minotr F.D. properties file   788 does not exist.
 Leave Link 1002 at Mon Feb 21 20:19:56 2022, MaxMem= 16106127360 cpu:              64.5 elap:               2.4
 (Enter /sw/contrib/gaussian/g16/B01/g16/l1102.exe)
 Use density number 2.
 Symmetrizing basis deriv contribution to polar:
 IMax=3 JMax=2 DiffMx= 0.00D+00
 Leave Link 1102 at Mon Feb 21 20:19:56 2022, MaxMem= 16106127360 cpu:               0.7 elap:               0.1
 (Enter /sw/contrib/gaussian/g16/B01/g16/l1110.exe)
 Forming Gx(P) for generalized density number  2 NAtomX=     5.
 Integral derivatives from FoFJK, PRISM(SPDF).
 Do as many integral derivatives as possible in FoFJK.
 G2DrvN: MDV=   16106126844.
 G2DrvN: will do     6 centers at a time, making    1 passes.
 Calling FoFCou, ICntrl=  3107 FMM=F I1Cent=   0 AccDes= 0.00D+00.
 FoFJK:  IHMeth= 1 ICntrl=    3107 DoSepK=F KAlg= 0 I1Cent=           0 FoldK=F
 IRaf=         0 NMat=       1 IRICut=       1 DoRegI=T DoRafI=F ISym2E= 1 IDoP0=0 IntGTp=1.
 FoFCou: FMM=F IPFlag=           0 FMFlag=      100000 FMFlg1=           0
         NFxFlg=           0 DoJE=F BraDBF=F KetDBF=F FulRan=T
         wScrn=  0.000000 ICntrl=      3107 IOpCl=  0 I1Cent=           0 NGrid=           0
         NMat0=    1 NMatS0=      1 NMatT0=    0 NMatD0=    1 NMtDS0=    0 NMtDT0=    0
 Petite list used in FoFCou.
 End of G2Drv F.D. properties file   721 does not exist.
 End of G2Drv F.D. properties file   722 does not exist.
 End of G2Drv F.D. properties file   788 does not exist.
 Leave Link 1110 at Mon Feb 21 20:19:59 2022, MaxMem= 16106127360 cpu:              83.2 elap:               3.0
 (Enter /sw/contrib/gaussian/g16/B01/g16/l1112.exe)
 MP22nd: MDV=   16106127360
 This link is doing NAtomX=     5 total of    18 degrees of freedom.
 Using ON3 I/O method in MakUI.
 Frozen-core window:  NFC=   4 NFV=   0.
 Using Ix for Sx.
 Use MO integrals over full window.
 Using OV2 memory method for fx*t*t/D, MaxI=    16 DoOO2=F NP=  28.
 R2 and R3 integrals will be kept in memory, NReq=   915591705.
 FoFCou: FMM=F IPFlag=           0 FMFlag=           0 FMFlg1=           0
         NFxFlg=           0 DoJE=F BraDBF=F KetDBF=F FulRan=T
         wScrn=  0.000000 ICntrl=       600 IOpCl=  0 I1Cent=           0 NGrid=           0
         NMat0=    1 NMatS0=      1 NMatT0=    0 NMatD0=    1 NMtDS0=    0 NMtDT0=    0
 Symmetry not used in FoFCou.
 DD1Dir will call FoFMem   1 times, MxPair=       272
 NAB=   136 NAA=     0 NBB=     0.
 Symmetry is being used.
 FoFJK:  IHMeth= 1 ICntrl=       0 DoSepK=F KAlg= 0 I1Cent=           0 FoldK=F
 IRaf=         0 NMat=      18 IRICut=      45 DoRegI=T DoRafI=T ISym2E= 2 IDoP0=3 IntGTp=3.
 Discarding MO integrals.
 Leave Link 1112 at Mon Feb 21 20:20:39 2022, MaxMem= 16106127360 cpu:            1092.0 elap:              39.5
 (Enter /sw/contrib/gaussian/g16/B01/g16/l601.exe)
 Copying SCF densities to generalized density rwf, IOpCl= 0 IROHF=0.

 **********************************************************************

            Population analysis using the MP2 Density.

 **********************************************************************

 Orbital symmetries:
       Occupied  (A') (A') (A') (A') (A') (A') (A') (A') (A') (A')
                 (A") (A') (A") (A') (A") (A')
       Virtual   (A') (A") (A') (A') (A") (A') (A') (A') (A") (A')
                 (A") (A') (A') (A') (A") (A') (A') (A") (A') (A')
                 (A') (A') (A') (A') (A") (A') (A') (A") (A') (A')
                 (A") (A') (A") (A') (A') (A") (A') (A') (A") (A')
                 (A") (A') (A") (A') (A') (A") (A') (A') (A") (A')
                 (A") (A') (A') (A') (A") (A') (A") (A') (A") (A')
                 (A') (A') (A") (A') (A') (A") (A') (A") (A') (A')
                 (A") (A') (A") (A') (A") (A') (A') (A") (A') (A')
                 (A') (A") (A') (A") (A') (A") (A') (A") (A') (A')
                 (A") (A') (A') (A") (A') (A") (A') (A") (A') (A')
                 (A") (A') (A") (A') (A') (A") (A') (A') (A") (A')
                 (A") (A') (A') (A') (A") (A') (A') (A') (A") (A')
                 (A") (A') (A") (A') (A') (A") (A") (A') (A") (A')
                 (A') (A') (A') (A") (A") (A") (A') (A') (A') (A')
                 (A") (A') (A") (A') (A') (A") (A') (A') (A') (A')
                 (A") (A') (A') (A") (A') (A") (A') (A") (A') (A")
                 (A') (A") (A') (A') (A") (A") (A") (A') (A") (A')
                 (A") (A') (A") (A') (A") (A') (A") (A') (A") (A')
                 (A') (A') (A') (A') (A') (A') (A') (A') (A') (A')
                 (A')
 The electronic state is 1-A'.
 Alpha  occ. eigenvalues --  -20.69167 -20.68559 -20.65614 -15.81790  -1.62313
 Alpha  occ. eigenvalues --   -1.49111  -1.24510  -0.95063  -0.77035  -0.75577
 Alpha  occ. eigenvalues --   -0.70689  -0.68093  -0.62192  -0.58770  -0.48185
 Alpha  occ. eigenvalues --   -0.47089
 Alpha virt. eigenvalues --    0.03049   0.06765   0.08533   0.10134   0.13377
 Alpha virt. eigenvalues --    0.13415   0.14474   0.15515   0.17894   0.19396
 Alpha virt. eigenvalues --    0.19965   0.20156   0.22160   0.23673   0.23703
 Alpha virt. eigenvalues --    0.26494   0.28181   0.30457   0.30970   0.34113
 Alpha virt. eigenvalues --    0.34871   0.38694   0.42312   0.43274   0.52577
 Alpha virt. eigenvalues --    0.52785   0.55515   0.57992   0.62365   0.63650
 Alpha virt. eigenvalues --    0.67327   0.68450   0.70739   0.71178   0.72449
 Alpha virt. eigenvalues --    0.73161   0.74587   0.78962   0.79318   0.80909
 Alpha virt. eigenvalues --    0.81497   0.82922   0.86583   0.90816   0.92312
 Alpha virt. eigenvalues --    0.92403   0.95954   0.97315   0.98592   1.01915
 Alpha virt. eigenvalues --    1.05075   1.05316   1.07960   1.11525   1.13820
 Alpha virt. eigenvalues --    1.18788   1.21978   1.23192   1.33538   1.34455
 Alpha virt. eigenvalues --    1.38943   1.44858   1.48756   1.51001   1.53593
 Alpha virt. eigenvalues --    1.56309   1.57408   1.61168   1.66148   1.66969
 Alpha virt. eigenvalues --    1.70021   1.79286   1.82941   1.82960   1.87920
 Alpha virt. eigenvalues --    1.90626   1.95564   1.98595   2.00159   2.06824
 Alpha virt. eigenvalues --    2.11723   2.12770   2.15371   2.21836   2.26107
 Alpha virt. eigenvalues --    2.26719   2.28685   2.31349   2.33643   2.38598
 Alpha virt. eigenvalues --    2.41961   2.42153   2.45126   2.45966   2.47125
 Alpha virt. eigenvalues --    2.49665   2.59233   2.59433   2.61344   2.62192
 Alpha virt. eigenvalues --    2.63711   2.66462   2.75233   2.80921   2.84168
 Alpha virt. eigenvalues --    2.87281   2.89601   2.89813   2.95633   3.01407
 Alpha virt. eigenvalues --    3.05502   3.11346   3.20573   3.22416   3.31132
 Alpha virt. eigenvalues --    3.33342   3.51176   3.63198   3.82352   3.83787
 Alpha virt. eigenvalues --    4.14825   4.17140   4.18030   4.24446   4.35196
 Alpha virt. eigenvalues --    4.39280   4.46558   4.51507   4.65070   4.70530
 Alpha virt. eigenvalues --    4.79530   4.80704   4.83292   4.89226   5.01269
 Alpha virt. eigenvalues --    5.06839   5.08950   5.14598   5.16975   5.23510
 Alpha virt. eigenvalues --    5.26073   5.30192   5.32807   5.34224   5.59582
 Alpha virt. eigenvalues --    5.66788   5.74986   5.83124   5.94154   6.15493
 Alpha virt. eigenvalues --    6.30846   6.32597   6.39045   6.48604   6.49887
 Alpha virt. eigenvalues --    6.61258   6.66922   6.69080   6.76247   6.76349
 Alpha virt. eigenvalues --    6.82296   6.88885   7.00651   7.05222   7.05995
 Alpha virt. eigenvalues --    7.09051   7.11509   7.14136   7.18045   7.20909
 Alpha virt. eigenvalues --    7.24350   7.31323   7.32019   7.33773   7.38980
 Alpha virt. eigenvalues --    7.41575   7.47634   7.59512   7.60292   7.61149
 Alpha virt. eigenvalues --    7.65171   7.77672   7.87989   8.05771   8.29999
 Alpha virt. eigenvalues --    8.40846   8.52991  13.33283  14.23312  15.13730
 Alpha virt. eigenvalues --   16.09525
          Condensed to atoms (all electrons):
               1          2          3          4          5
     1  H    0.590144   0.128585   0.019829   0.012175  -0.000674
     2  O    0.128585   8.321951  -0.176155  -0.085375   0.014729
     3  O    0.019829  -0.176155   8.477565  -0.120584  -0.033401
     4  N    0.012175  -0.085375  -0.120584   6.944172  -0.051043
     5  O   -0.000674   0.014729  -0.033401  -0.051043   8.249995
 Mulliken charges:
               1
     1  H    0.249941
     2  O   -0.203736
     3  O   -0.167254
     4  N    0.300654
     5  O   -0.179606
 Sum of Mulliken charges =  -0.00000
 Mulliken charges with hydrogens summed into heavy atoms:
               1
     2  O    0.046205
     3  O   -0.167254
     4  N    0.300654
     5  O   -0.179606
 APT charges:
               1
     1  H    0.297964
     2  O   -0.295167
     3  O   -0.509635
     4  N    0.891079
     5  O   -0.384241
 Sum of APT charges =  -0.00000
 APT charges with hydrogens summed into heavy atoms:
               1
     2  O    0.002797
     3  O   -0.509635
     4  N    0.891079
     5  O   -0.384241
 Electronic spatial extent (au):  <R**2>=            256.1723
 Charge=              0.0000 electrons
 Dipole moment (field-independent basis, Debye):
    X=              0.3675    Y=              1.1782    Z=             -0.0000  Tot=              1.2342
 Quadrupole moment (field-independent basis, Debye-Ang):
   XX=            -22.4158   YY=            -18.4813   ZZ=            -22.0549
   XY=              3.3148   XZ=              0.0000   YZ=              0.0000
 Traceless Quadrupole moment (field-independent basis, Debye-Ang):
   XX=             -1.4318   YY=              2.5027   ZZ=             -1.0709
   XY=              3.3148   XZ=              0.0000   YZ=              0.0000
 Octapole moment (field-independent basis, Debye-Ang**2):
  XXX=              2.2530  YYY=             11.2269  ZZZ=              0.0000  XYY=              7.8535
  XXY=              6.3183  XXZ=             -0.0000  XZZ=             -1.6295  YZZ=             -0.9752
  YYZ=             -0.0000  XYZ=             -0.0000
 Hexadecapole moment (field-independent basis, Debye-Ang**3):
 XXXX=           -158.3049 YYYY=            -92.8213 ZZZZ=            -18.3371 XXXY=            -37.6928
 XXXZ=              0.0000 YYYX=            -31.2292 YYYZ=              0.0000 ZZZX=              0.0000
 ZZZY=              0.0000 XXYY=            -34.3505 XXZZ=            -30.8569 YYZZ=            -21.3397
 XXYZ=              0.0000 YYXZ=              0.0000 ZZXY=            -15.3950
 N-N= 1.160310456662D+02 E-N=-8.941897710404D+02  KE= 2.801609391682D+02
 Symmetry A'   KE= 2.661996655352D+02
 Symmetry A"   KE= 1.396127363300D+01
  Exact polarizability:  33.988   9.648  30.908  -0.000  -0.000  18.036
 Approx polarizability:  29.161   5.324  24.254  -0.000  -0.000  15.570
 No NMR shielding tensors so no spin-rotation constants.
 Leave Link  601 at Mon Feb 21 20:20:39 2022, MaxMem= 16106127360 cpu:               4.3 elap:               0.2
 (Enter /sw/contrib/gaussian/g16/B01/g16/l701.exe)
 ... and contract with generalized density number  2.
 Compute integral second derivatives.
 Leave Link  701 at Mon Feb 21 20:20:39 2022, MaxMem= 16106127360 cpu:               5.5 elap:               0.2
 (Enter /sw/contrib/gaussian/g16/B01/g16/l702.exe)
 L702 exits ... SP integral derivatives will be done elsewhere.
 Leave Link  702 at Mon Feb 21 20:20:39 2022, MaxMem= 16106127360 cpu:               0.8 elap:               0.1
 (Enter /sw/contrib/gaussian/g16/B01/g16/l703.exe)
 Integral derivatives from FoFJK, PRISM(SPDF).
 Compute integral second derivatives, UseDBF=F ICtDFT=           0.
 Calling FoFJK, ICntrl=  10100127 FMM=F ISym2X=1 I1Cent= 0 IOpClX= 0 NMat=1 NMatS=1 NMatT=0.
 FoFJK:  IHMeth= 1 ICntrl=10100127 DoSepK=F KAlg= 0 I1Cent=           0 FoldK=F
 IRaf=         0 NMat=       1 IRICut=       1 DoRegI=T DoRafI=F ISym2E= 1 IDoP0=0 IntGTp=1.
 FoFCou: FMM=F IPFlag=           0 FMFlag=      100000 FMFlg1=         800
         NFxFlg=           0 DoJE=F BraDBF=F KetDBF=F FulRan=T
         wScrn=  0.000000 ICntrl=  10100127 IOpCl=  0 I1Cent=           0 NGrid=           0
         NMat0=    1 NMatS0=      1 NMatT0=    0 NMatD0=    1 NMtDS0=    0 NMtDT0=    0
 Petite list used in FoFCou.
 Leave Link  703 at Mon Feb 21 20:20:54 2022, MaxMem= 16106127360 cpu:             420.3 elap:              15.1
 (Enter /sw/contrib/gaussian/g16/B01/g16/l716.exe)
 Dipole        = 1.44572632D-01 4.63558138D-01-1.80383848D-32
 Polarizability= 3.39876699D+01 9.64767702D+00 3.09079334D+01
                -6.91624757D-31-7.02076698D-31 1.80359961D+01
 Full mass-weighted force constant matrix:
 Low frequencies --- -277.7825    0.0007    0.0016    0.0016   43.2873   49.2027
 Low frequencies ---   79.9189  243.1133  330.3315
 ******    1 imaginary frequencies (negative Signs) ****** 
 Diagonal vibrational polarizability:
       17.6783842      34.0024004      44.0748997
 Harmonic frequencies (cm**-1), IR intensities (KM/Mole), Raman scattering
 activities (A**4/AMU), depolarization ratios for plane and unpolarized
 incident light, reduced masses (AMU), force constants (mDyne/A),
 and normal coordinates:
                      1                      2                      3
                     A"                     A"                     A'
 Frequencies --   -277.7009               241.5413               330.2498
 Red. masses --      1.1323                10.9106                 8.4911
 Frc consts  --      0.0514                 0.3750                 0.5456
 IR Inten    --    125.4413                 0.6517                13.5456
  Atom  AN      X      Y      Z        X      Y      Z        X      Y      Z
     1   1    -0.00   0.00   1.00    -0.00   0.00  -0.55     0.56  -0.42  -0.00
     2   8     0.00   0.00  -0.06    -0.00   0.00  -0.32    -0.07  -0.36  -0.00
     3   8    -0.00  -0.00  -0.04     0.00  -0.00   0.33    -0.13   0.47   0.00
     4   7     0.00  -0.00   0.05     0.00  -0.00   0.54     0.02   0.21   0.00
     5   8    -0.00   0.00  -0.01    -0.00   0.00  -0.45     0.15  -0.27  -0.00
                      4                      5                      6
                     A'                     A'                     A'
 Frequencies --    393.7536               768.0337               962.2403
 Red. masses --     12.5654                13.1783                15.5402
 Frc consts  --      1.1478                 4.5800                 8.4776
 IR Inten    --    213.8970               149.8696                19.6351
  Atom  AN      X      Y      Z        X      Y      Z        X      Y      Z
     1   1    -0.35  -0.24   0.00    -0.31   0.19  -0.00    -0.14  -0.05  -0.00
     2   8    -0.31  -0.25   0.00     0.43   0.09  -0.00    -0.54   0.03  -0.00
     3   8    -0.20  -0.40  -0.00    -0.04  -0.24   0.00     0.75  -0.02   0.00
     4   7     0.35   0.47  -0.00    -0.17   0.61   0.00    -0.11   0.23   0.00
     5   8     0.23   0.26   0.00    -0.22  -0.40  -0.00    -0.11  -0.21  -0.00
                      7                      8                      9
                     A'                     A'                     A'
 Frequencies --   1365.4617              1663.8888              3777.9742
 Red. masses --      1.1294                13.3472                 1.0676
 Frc consts  --      1.2407                21.7715                 8.9776
 IR Inten    --    147.4057               156.3207                82.9824
  Atom  AN      X      Y      Z        X      Y      Z        X      Y      Z
     1   1     0.99  -0.05  -0.00    -0.33   0.00   0.00     0.10   0.99   0.00
     2   8    -0.03   0.05  -0.00    -0.00  -0.04   0.00    -0.01  -0.06  -0.00
     3   8    -0.02  -0.05   0.00     0.00   0.15  -0.00     0.00   0.00  -0.00
     4   7     0.02   0.01   0.00     0.71  -0.05  -0.00    -0.00  -0.00   0.00
     5   8    -0.03  -0.01  -0.00    -0.60  -0.07   0.00     0.00   0.00   0.00

 -------------------
 - Thermochemistry -
 -------------------
 Temperature   298.150 Kelvin.  Pressure   1.00000 Atm.
 Atom     1 has atomic number  1 and mass   1.00783
 Atom     2 has atomic number  8 and mass  15.99491
 Atom     3 has atomic number  8 and mass  15.99491
 Atom     4 has atomic number  7 and mass  14.00307
 Atom     5 has atomic number  8 and mass  15.99491
 Molecular mass:    62.99564 amu.
 Principal axes and moments of inertia in atomic units:
                           1         2         3
     Eigenvalues --    33.63393 365.91316 399.54709
           X            0.80223  -0.59701   0.00000
           Y            0.59701   0.80223   0.00000
           Z           -0.00000   0.00000   1.00000
 This molecule is an asymmetric top.
 Rotational symmetry number  1.
 Rotational temperatures (Kelvin)      2.57519     0.23671     0.21678
 Rotational constants (GHZ):          53.65835     4.93216     4.51697
    1 imaginary frequencies ignored.
 Zero-point vibrational energy      56841.4 (Joules/Mol)
                                   13.58543 (Kcal/Mol)
 Warning -- explicit consideration of   3 degrees of freedom as
           vibrations may cause significant error
 Vibrational temperatures:    347.52   475.16   566.52  1105.03  1384.45
          (Kelvin)           1964.59  2393.96  5435.66
 
 Zero-point correction=                           0.021650 (Hartree/Particle)
 Thermal correction to Energy=                    0.025822
 Thermal correction to Enthalpy=                  0.026766
 Thermal correction to Gibbs Free Energy=        -0.004526
 Sum of electronic and zero-point Energies=           -280.424890
 Sum of electronic and thermal Energies=              -280.420718
 Sum of electronic and thermal Enthalpies=            -280.419774
 Sum of electronic and thermal Free Energies=         -280.451066
 
                     E (Thermal)             CV                S
                      KCal/Mol        Cal/Mol-Kelvin    Cal/Mol-Kelvin
 Total                   16.203             12.123             65.860
 Electronic               0.000              0.000              0.000
 Translational            0.889              2.981             38.341
 Rotational               0.889              2.981             23.113
 Vibrational             14.426              6.161              4.407
 Vibration     1          0.658              1.777              1.791
 Vibration     2          0.713              1.615              1.259
 Vibration     3          0.761              1.484              0.986
                       Q            Log10(Q)             Ln(Q)
 Total Bot       0.120758D+03          2.081916          4.793789
 Total V=0       0.109674D+13         12.040103         27.723361
 Vib (Bot)       0.244787D-09         -9.611211        -22.130631
 Vib (Bot)    1  0.811217D+00         -0.090863         -0.209219
 Vib (Bot)    2  0.565685D+00         -0.247425         -0.569718
 Vib (Bot)    3  0.454719D+00         -0.342257         -0.788076
 Vib (V=0)       0.222318D+01          0.346975          0.798941
 Vib (V=0)    1  0.145293D+01          0.162244          0.373582
 Vib (V=0)    2  0.125498D+01          0.098638          0.227122
 Vib (V=0)    3  0.117585D+01          0.070351          0.161989
 Electronic      0.100000D+01          0.000000          0.000000
 Translational   0.196526D+08          7.293420         16.793719
 Rotational      0.251019D+05          4.399707         10.130701
 
                                                                title
                                                             IR Spectrum
 
     3                                                                       1         1                                             
     7                                                                       6         3            9      7           3 3  2        
     7                                                                       6         6            6      6           9 3  4        
     8                                                                       4         5            2      8           4 0  2        
 
     X                                                                       X         X            X      X           X X  X        
     X                                                                       X         X            X      X           X             
     X                                                                       X         X                   X           X             
     X                                                                       X         X                   X           X             
     X                                                                       X         X                   X           X             
     X                                                                       X         X                   X           X             
     X                                                                       X         X                   X           X             
     X                                                                       X         X                   X           X             
                                                                             X         X                   X           X             
                                                                             X         X                   X           X             
                                                                             X         X                   X           X             
                                                                             X         X                   X           X             
                                                                             X         X                   X           X             
                                                                             X         X                   X           X             
                                                                             X                                         X             
                                                                                                                       X             
                                                                                                                       X             
                                                                                                                       X             
                                                                                                                       X             
                                                                                                                       X             
 
 ***** Axes restored to original set *****
 -------------------------------------------------------------------
 Center     Atomic                   Forces (Hartrees/Bohr)
 Number     Number              X              Y              Z
 -------------------------------------------------------------------
      1        1           0.000125542    0.000000000    0.000193657
      2        8           0.000080985    0.000000000    0.000762485
      3        8           0.001736228    0.000000000    0.005163819
      4        7           0.006062417    0.000000000   -0.003258340
      5        8          -0.008005172   -0.000000000   -0.002861620
 -------------------------------------------------------------------
 Cartesian Forces:  Max     0.008005172 RMS     0.003161878
 -----------------------------------------------------------------------------------------------
                       Internal Coordinate Forces (Hartree/Bohr or radian)
  Cent   Atom   N1       Length/X         N2         Alpha/Y        N3         Beta/Z          J
 -----------------------------------------------------------------------------------------------
      1  H 
      2  O        1  -0.000194(     1)
      3  O        2  -0.000331(     2)      1  -0.000230(     5)
      4  N        3  -0.006259(     3)      2  -0.002301(     6)      1   0.000000(     8)     0
      5  O        4  -0.008465(     4)      3  -0.001738(     7)      2  -0.000000(     9)     0
 -----------------------------------------------------------------------------------------------
 Internal  Forces:  Max     0.008464879 RMS     0.003641438
 Force constants in Cartesian coordinates: 
                1             2             3             4             5 
      1  0.641370D-01
      2  0.000000D+00 -0.253571D-02
      3  0.516534D-02  0.000000D+00  0.512147D+00
      4 -0.350240D-01  0.000000D+00 -0.159143D-01  0.271133D+00
      5  0.000000D+00  0.323807D-02  0.000000D+00  0.000000D+00  0.152540D-02
      6  0.476437D-01  0.000000D+00 -0.508613D+00  0.326070D-01  0.000000D+00
      7 -0.192479D-01  0.000000D+00  0.121166D-01 -0.221166D+00  0.000000D+00
      8  0.000000D+00  0.113209D-02  0.000000D+00  0.000000D+00 -0.607152D-02
      9 -0.528842D-01  0.000000D+00 -0.618050D-03 -0.199525D-01  0.000000D+00
     10 -0.848630D-02  0.000000D+00 -0.473090D-02 -0.149790D-01  0.000000D+00
     11  0.000000D+00 -0.286673D-02  0.000000D+00  0.000000D+00 -0.457055D-02
     12  0.584559D-02  0.000000D+00 -0.414489D-02  0.116957D-01  0.000000D+00
     13 -0.137883D-02  0.000000D+00  0.336327D-02  0.360128D-04  0.000000D+00
     14  0.000000D+00  0.103229D-02  0.000000D+00  0.000000D+00  0.587860D-02
     15 -0.577044D-02  0.000000D+00  0.122910D-02 -0.843591D-02  0.000000D+00
                6             7             8             9            10 
      6  0.591223D+00
      7 -0.238956D-01  0.336840D+00
      8  0.000000D+00  0.000000D+00  0.530111D-02
      9 -0.770438D-01  0.336066D-01  0.000000D+00  0.158489D+00
     10 -0.480962D-01 -0.739853D-01  0.000000D+00  0.171300D+00  0.812873D+00
     11  0.000000D+00  0.000000D+00  0.669050D-02  0.000000D+00  0.000000D+00
     12  0.190473D-01  0.631948D-01  0.000000D+00 -0.650417D-01 -0.181249D-01
     13 -0.825892D-02 -0.224409D-01  0.000000D+00 -0.132070D+00 -0.715423D+00
     14  0.000000D+00  0.000000D+00 -0.705218D-02  0.000000D+00  0.000000D+00
     15 -0.246134D-01 -0.850224D-01  0.000000D+00 -0.157850D-01 -0.100348D+00
               11            12            13            14            15 
     11  0.131132D-01
     12  0.000000D+00  0.169145D+00
     13  0.000000D+00 -0.626112D-01  0.739206D+00
     14 -0.123664D-01  0.000000D+00  0.000000D+00  0.125077D-01
     15  0.000000D+00 -0.119006D+00  0.199577D+00  0.000000D+00  0.158175D+00
 Force constants in internal coordinates: 
                1             2             3             4             5 
      1  0.512147D+00
      2 -0.101876D-01  0.280305D+00
      3  0.301809D-02  0.464169D-03  0.925451D-01
      4 -0.356307D-02  0.617724D-02  0.145830D+00  0.799378D+00
      5  0.958385D-02  0.656217D-01  0.134393D-02  0.506756D-02  0.214693D+00
      6  0.395285D-02  0.552070D-01  0.350592D-01  0.219166D-01  0.294659D-01
      7 -0.787892D-03  0.357175D-01  0.250932D-01  0.789660D-01  0.212605D-01
      8  0.000000D+00  0.000000D+00  0.000000D+00  0.000000D+00  0.000000D+00
      9  0.000000D+00  0.000000D+00  0.000000D+00  0.000000D+00  0.000000D+00
                6             7             8             9 
      6  0.262630D+00
      7  0.972006D-01  0.460951D+00
      8  0.000000D+00  0.000000D+00 -0.867113D-02
      9  0.000000D+00  0.000000D+00 -0.391684D-02  0.384930D-01
 Leave Link  716 at Mon Feb 21 20:20:54 2022, MaxMem= 16106127360 cpu:               1.3 elap:               0.1
 (Enter /sw/contrib/gaussian/g16/B01/g16/l103.exe)

 GradGradGradGradGradGradGradGradGradGradGradGradGradGradGradGradGradGrad
 Berny optimization.
 Search for a local minimum.
 Step number   1 out of a maximum of    2
 All quantities printed in internal units (Hartrees-Bohrs-Radians)
 Second derivative matrix not updated -- analytic derivatives used.
 The second derivative matrix:
                          r1        r2        r3        r4        a1
           r1           0.51215
           r2          -0.01019   0.28030
           r3           0.00302   0.00046   0.09255
           r4          -0.00356   0.00618   0.14583   0.79938
           a1           0.00958   0.06562   0.00134   0.00507   0.21469
           a2           0.00395   0.05521   0.03506   0.02192   0.02947
           a3          -0.00079   0.03572   0.02509   0.07897   0.02126
           d1           0.00000  -0.00000  -0.00000  -0.00000  -0.00000
           d2          -0.00000   0.00000   0.00000   0.00000   0.00000
                          a2        a3        d1        d2
           a2           0.26263
           a3           0.09720   0.46095
           d1          -0.00000  -0.00000  -0.00867
           d2          -0.00000  -0.00000  -0.00392   0.03849
 ITU=  0
     Eigenvalues ---   -0.00899   0.03882   0.05870   0.17328   0.20979
     Eigenvalues ---    0.31741   0.49967   0.51282   0.85098
 Eigenvalue     1 is  -8.99D-03 should be greater than     0.000000 Eigenvector:
                          d1        d2        a3        a2        r3
   1                    0.99662   0.08220   0.00000   0.00000  -0.00000
                          r4        r2        a1        r1
   1                    0.00000   0.00000  -0.00000  -0.00000
 Angle between quadratic step and forces=  57.10 degrees.
 Linear search not attempted -- first point.
 Variable       Old X    -DE/DX   Delta X   Delta X   Delta X     New X
                                 (Linear)    (Quad)   (Total)
    r1        1.83110  -0.00019   0.00000   0.00004   0.00004   1.83114
    r2        2.74940  -0.00033   0.00000  -0.00118  -0.00118   2.74822
    r3        2.81585  -0.00626   0.00000  -0.07195  -0.07195   2.74391
    r4        2.21236  -0.00846   0.00000   0.00256   0.00256   2.21492
    a1        1.70335  -0.00023   0.00000  -0.00043  -0.00043   1.70292
    a2        1.78543  -0.00230   0.00000   0.00108   0.00108   1.78650
    a3        1.90362  -0.00174   0.00000  -0.00041  -0.00041   1.90321
    d1        3.14159   0.00000   0.00000  -0.00000   0.00000   3.14159
    d2        3.14159  -0.00000   0.00000  -0.00000   0.00000   3.14159
         Item               Value     Threshold  Converged?
 Maximum Force            0.008465     0.000450     NO 
 RMS     Force            0.003641     0.000300     NO 
 Maximum Displacement     0.071945     0.001800     NO 
 RMS     Displacement     0.024004     0.001200     NO 
 Predicted change in Energy=-2.136692D-04
                       ----------------------------
                       ! Non-Optimized Parameters !
                       ! (Angstroms and Degrees)  !
 ----------------------                            ----------------------
 !      Name          Value   Derivative information (Atomic Units)     !
 ------------------------------------------------------------------------
 !       r1          0.969    -DE/DX =   -0.0002                        !
 !       r2          1.4543   -DE/DX =   -0.0003                        !
 !       r3          1.452    -DE/DX =   -0.0063                        !
 !       r4          1.1721   -DE/DX =   -0.0085                        !
 !       a1         97.5703   -DE/DX =   -0.0002                        !
 !       a2        102.3592   -DE/DX =   -0.0023                        !
 !       a3        109.0461   -DE/DX =   -0.0017                        !
 !       d1        180.0      -DE/DX =    0.0                           !
 !       d2        180.0      -DE/DX =    0.0                           !
 ------------------------------------------------------------------------
 GradGradGradGradGradGradGradGradGradGradGradGradGradGradGradGradGradGrad

 Leave Link  103 at Mon Feb 21 20:20:54 2022, MaxMem= 16106127360 cpu:               1.3 elap:               0.1
 (Enter /sw/contrib/gaussian/g16/B01/g16/l9999.exe)

 ----------------------------------------------------------------------

 Electric dipole moment (input orientation):
 (Debye = 10**-18 statcoulomb cm , SI units = C m)
                  (au)            (Debye)         (10**-30 SI)
   Tot        0.485579D+00      0.123422D+01      0.411691D+01
   x         -0.100224D+00     -0.254743D+00     -0.849731D+00
   y          0.000000D+00      0.000000D+00      0.000000D+00
   z         -0.475124D+00     -0.120764D+01     -0.402827D+01

 Dipole polarizability, Alpha (input orientation).
 (esu units = cm**3 , SI units = C**2 m**2 J**-1)
 Alpha(0;0):
               (au)            (10**-24 esu)      (10**-40 SI)
   iso        0.276439D+02      0.409640D+01      0.455786D+01
   aniso      0.222272D+02      0.329373D+01      0.366476D+01
   xx         0.321492D+02      0.476402D+01      0.530069D+01
   yx         0.000000D+00      0.000000D+00      0.000000D+00
   yy         0.180360D+02      0.267266D+01      0.297373D+01
   zx         0.976523D+01      0.144706D+01      0.161007D+01
   zy         0.000000D+00      0.000000D+00      0.000000D+00
   zz         0.327464D+02      0.485252D+01      0.539915D+01

 ----------------------------------------------------------------------

 Dipole orientation:
     1         -0.00000000          0.00000000          0.00000000
     8         -0.37793858          0.00000000         -1.79167070
     8          2.21365632          0.00000000         -2.70972893
     7          1.86030326          0.00000000         -5.50332184
     8          3.84401995          0.00000000         -6.48280697

 Electric dipole moment (dipole orientation):
 (Debye = 10**-18 statcoulomb cm , SI units = C m)
                  (au)            (Debye)         (10**-30 SI)
   Tot        0.485579D+00      0.123422D+01      0.411691D+01
   x          0.000000D+00      0.000000D+00      0.000000D+00
   y          0.000000D+00      0.000000D+00      0.000000D+00
   z          0.485579D+00      0.123422D+01      0.411691D+01

 Dipole polarizability, Alpha (dipole orientation).
 (esu units = cm**3 , SI units = C**2 m**2 J**-1)
 Alpha(0;0):
               (au)            (10**-24 esu)      (10**-40 SI)
   iso        0.276439D+02      0.409640D+01      0.455786D+01
   aniso      0.222272D+02      0.329373D+01      0.366476D+01
   xx         0.282304D+02      0.418331D+01      0.465456D+01
   yx         0.000000D+00      0.000000D+00      0.000000D+00
   yy         0.180360D+02      0.267266D+01      0.297373D+01
   zx        -0.881260D+01     -0.130589D+01     -0.145300D+01
   zy         0.000000D+00      0.000000D+00      0.000000D+00
   zz         0.366653D+02      0.543323D+01      0.604528D+01

 ----------------------------------------------------------------------
 1\1\GINC-N2128\Freq\RMP2-FC\Aug-CC-pVTZ\H1N1O3\CGAVINH\21-Feb-2022\1\\
 #p freq mp2/aug-cc-pvtz density=current\\title\\0,1\H\O,1,r1\O,2,r2,1,
 a1\N,3,r3,2,a2,1,d1,0\O,4,r4,3,a3,2,d2,0\\r1=0.96897556\r2=1.45491931\
 r3=1.49008445\r4=1.17072885\a1=97.59494903\a2=102.29752444\a3=109.0695
 5123\d1=180.\d2=180.\\Version=ES64L-G16RevB.01\State=1-A'\HF=-279.4984
 339\MP2=-280.4465398\RMSD=4.267e-09\RMSF=3.162e-03\ZeroPoint=0.0216498
 \Thermal=0.0258217\Dipole=-0.1002236,0.,-0.4751238\DipoleDeriv=0.26363
 32,0.,0.0453196,0.,0.3546231,0.,0.0820965,0.,0.2756372,-0.3340846,0.,-
 0.2053452,0.,-0.317597,0.,-0.1134894,0.,-0.2338205,-0.0656205,0.,0.134
 7791,0.,-0.1052784,0.,-0.7358569,0.,-1.3580071,0.929421,0.,0.9561641,0
 .,0.0752854,0.,0.9064519,0.,1.66853,-0.7933491,0.,-0.9309176,0.,-0.007
 0331,0.,-0.1392022,0.,-0.3523396\Polar=32.1491974,0.,18.0359961,9.7652
 292,0.,32.7464059\Quadrupole=-1.5011734,-0.7961641,2.2973376,0.,2.1461
 028,0.\PG=CS [SG(H1N1O3)]\NImag=1\\0.06413704,0.,-0.00253571,0.0051653
 4,0.,0.51214692,-0.03502399,0.,-0.01591429,0.27113299,0.,0.00323807,0.
 ,0.,0.00152540,0.04764369,0.,-0.50861308,0.03260699,0.,0.59122289,-0.0
 1924792,0.,0.01211658,-0.22116605,0.,-0.02389558,0.33684013,0.,0.00113
 209,0.,0.,-0.00607152,0.,0.,0.00530111,-0.05288419,0.,-0.00061805,-0.0
 1995249,0.,-0.07704377,0.03360660,0.,0.15848855,-0.00848630,0.,-0.0047
 3090,-0.01497895,0.,-0.04809619,-0.07398526,0.,0.17130028,0.81287307,0
 .,-0.00286673,0.,0.,-0.00457055,0.,0.,0.00669050,0.,0.,0.01311320,0.00
 584559,0.,-0.00414489,0.01169571,0.,0.01904733,0.06319483,0.,-0.065041
 72,-0.01812489,0.,0.16914480,-0.00137883,0.,0.00336327,0.00003601,0.,-
 0.00825892,-0.02244089,0.,-0.13207020,-0.71542256,0.,-0.06261124,0.739
 20627,0.,0.00103229,0.,0.,0.00587860,0.,0.,-0.00705218,0.,0.,-0.012366
 42,0.,0.,0.01250770,-0.00577044,0.,0.00122910,-0.00843591,0.,-0.024613
 37,-0.08502243,0.,-0.01578501,-0.10034830,0.,-0.11900552,0.19957709,0.
 ,0.15817480\\-0.00012554,0.,-0.00019366,-0.00008098,0.,-0.00076248,-0.
 00173623,0.,-0.00516382,-0.00606242,0.,0.00325834,0.00800517,0.,0.0028
 6162\\\@


 I do not feel obliged to believe that the same God who
 has endowed us with sense, reason, and intellect has
 intended us to forgo their use.
                   --Galileo Galilei
 Job cpu time:       0 days  2 hours  2 minutes 26.8 seconds.
 Elapsed time:       0 days  0 hours  4 minutes 25.7 seconds.
 File lengths (MBytes):  RWF=   7239 Int=      0 D2E=      0 Chk=      8 Scr=      1
 Normal termination of Gaussian 16 at Mon Feb 21 20:20:55 2022.
