title                                                                   
Freq      RMP2-FC                                                     Aug-CC-pVTZ         
Number of atoms                            I                5
Info1-9                                    I   N=           9
          33          24           0           0           0         100
           6           2           1
Full Title                                 C   N=           1
title       
Route                                      C   N=           4
#p freq mp2/aug-cc-pvtz density=current         
Charge                                     I                0
Multiplicity                               I                1
Number of electrons                        I               32
Number of alpha electrons                  I               16
Number of beta electrons                   I               16
Number of basis functions                  I              207
Number of independent functions            I              207
Number of point charges in /Mol/           I                0
Number of translation vectors              I                0
Atomic numbers                             I   N=           5
           1           8           8           7           8
Nuclear charges                            R   N=           5
  1.00000000E+00  8.00000000E+00  8.00000000E+00  7.00000000E+00  8.00000000E+00
Current cartesian coordinates              R   N=          15
  2.06318244E+00 -1.12121651E+00 -4.93038066E-32  2.48720853E+00  6.91954306E-01
 -9.86076132E-32 -2.02589872E-16  1.73261416E+00  6.16297582E-33 -1.87242302E+00
 -8.55413208E-02  1.47911420E-31 -1.10673620E+00 -2.20956774E+00 -6.16297582E-32
Number of symbols in /Mol/                 I                0
Force Field                                I                0
Atom Types                                 C   N=           5
                                                            
Int Atom Types                             I   N=           5
           0           0           0           0           0
MM charges                                 R   N=           5
  0.00000000E+00  0.00000000E+00  0.00000000E+00  0.00000000E+00  0.00000000E+00
Integer atomic weights                     I   N=           5
           1          16          16          14          16
Real atomic weights                        R   N=           5
  1.00782504E+00  1.59949146E+01  1.59949146E+01  1.40030740E+01  1.59949146E+01
Atom fragment info                         I   N=           5
           0           0           0           0           0
Atom residue num                           I   N=           5
           0           0           0           0           0
Nuclear spins                              I   N=           5
           1           0           0           2           0
Nuclear ZEff                               R   N=           5
 -1.00000000E+00 -5.60000000E+00 -5.60000000E+00 -4.55000000E+00 -5.60000000E+00
Nuclear ZNuc                               R   N=           5
  1.00000000E+00  8.00000000E+00  8.00000000E+00  7.00000000E+00  8.00000000E+00
Nuclear QMom                               R   N=           5
  0.00000000E+00  0.00000000E+00  0.00000000E+00  2.04400000E+00  0.00000000E+00
Nuclear GFac                               R   N=           5
  2.79284600E+00  0.00000000E+00  0.00000000E+00  4.03761000E-01  0.00000000E+00
MicOpt                                     I   N=           5
          -1          -1          -1          -1          -1
Number of residues                         I                0
Number of secondary structures             I                0
SymInf integers                            I   N=          26
           1           2           1           1           1           1
           1          -1           0           0           0           0
           0           0           0           0           0           0
           0           0           0           0           0           0
           0           0
RotTr to input orientation                 R   N=          12
 -9.73727849E-01 -1.23780983E-16  2.27714902E-01  2.27714902E-01  2.89472818E-17
  9.73727849E-01 -1.27120718E-16  1.00000000E+00  0.00000000E+00  2.26429591E+00
  0.00000000E+00  6.21942355E-01
Number of contracted shells                I               65
Number of primitive shells                 I              119
Pure/Cartesian d shells                    I                0
Pure/Cartesian f shells                    I                0
Highest angular momentum                   I                3
Largest degree of contraction              I                7
Shell types                                I   N=          65
           0           0           0           0           1           1
           1          -2          -2           0           0           0
           0           0           1           1           1           1
          -2          -2          -2          -3          -3           0
           0           0           0           0           1           1
           1           1          -2          -2          -2          -3
          -3           0           0           0           0           0
           1           1           1           1          -2          -2
          -2          -3          -3           0           0           0
           0           0           1           1           1           1
          -2          -2          -2          -3          -3
Number of primitives per shell             I   N=          65
           3           1           1           1           1           1
           1           1           1           7           6           1
           1           1           3           1           1           1
           1           1           1           1           1           7
           6           1           1           1           3           1
           1           1           1           1           1           1
           1           7           6           1           1           1
           3           1           1           1           1           1
           1           1           1           7           6           1
           1           1           3           1           1           1
           1           1           1           1           1
Shell to atom map                          I   N=          65
           1           1           1           1           1           1
           1           1           1           2           2           2
           2           2           2           2           2           2
           2           2           2           2           2           3
           3           3           3           3           3           3
           3           3           3           3           3           3
           3           4           4           4           4           4
           4           4           4           4           4           4
           4           4           4           5           5           5
           5           5           5           5           5           5
           5           5           5           5           5
Primitive exponents                        R   N=         119
  3.38700000E+01  5.09500000E+00  1.15900000E+00  3.25800000E-01  1.02700000E-01
  2.52600000E-02  1.40700000E+00  3.88000000E-01  1.02000000E-01  1.05700000E+00
  2.47000000E-01  1.53300000E+04  2.29900000E+03  5.22400000E+02  1.47300000E+02
  4.75500000E+01  1.67600000E+01  6.20700000E+00  5.22400000E+02  1.47300000E+02
  4.75500000E+01  1.67600000E+01  6.20700000E+00  6.88200000E-01  1.75200000E+00
  2.38400000E-01  7.37600000E-02  3.44600000E+01  7.74900000E+00  2.28000000E+00
  7.15600000E-01  2.14000000E-01  5.97400000E-02  2.31400000E+00  6.45000000E-01
  2.14000000E-01  1.42800000E+00  5.00000000E-01  1.53300000E+04  2.29900000E+03
  5.22400000E+02  1.47300000E+02  4.75500000E+01  1.67600000E+01  6.20700000E+00
  5.22400000E+02  1.47300000E+02  4.75500000E+01  1.67600000E+01  6.20700000E+00
  6.88200000E-01  1.75200000E+00  2.38400000E-01  7.37600000E-02  3.44600000E+01
  7.74900000E+00  2.28000000E+00  7.15600000E-01  2.14000000E-01  5.97400000E-02
  2.31400000E+00  6.45000000E-01  2.14000000E-01  1.42800000E+00  5.00000000E-01
  1.14200000E+04  1.71200000E+03  3.89300000E+02  1.10000000E+02  3.55700000E+01
  1.25400000E+01  4.64400000E+00  3.89300000E+02  1.10000000E+02  3.55700000E+01
  1.25400000E+01  4.64400000E+00  5.11800000E-01  1.29300000E+00  1.78700000E-01
  5.76000000E-02  2.66300000E+01  5.94800000E+00  1.74200000E+00  5.55000000E-01
  1.72500000E-01  4.91000000E-02  1.65400000E+00  4.69000000E-01  1.51000000E-01
  1.09300000E+00  3.64000000E-01  1.53300000E+04  2.29900000E+03  5.22400000E+02
  1.47300000E+02  4.75500000E+01  1.67600000E+01  6.20700000E+00  5.22400000E+02
  1.47300000E+02  4.75500000E+01  1.67600000E+01  6.20700000E+00  6.88200000E-01
  1.75200000E+00  2.38400000E-01  7.37600000E-02  3.44600000E+01  7.74900000E+00
  2.28000000E+00  7.15600000E-01  2.14000000E-01  5.97400000E-02  2.31400000E+00
  6.45000000E-01  2.14000000E-01  1.42800000E+00  5.00000000E-01
Contraction coefficients                   R   N=         119
  2.54948632E-02  1.90362766E-01  8.52162022E-01  1.00000000E+00  1.00000000E+00
  1.00000000E+00  1.00000000E+00  1.00000000E+00  1.00000000E+00  1.00000000E+00
  1.00000000E+00  5.19808943E-04  4.02025621E-03  2.07128267E-02  8.10105536E-02
  2.35962985E-01  4.42653446E-01  3.57064423E-01 -4.42115008E-05 -1.22591041E-03
 -1.05517725E-02 -6.74452633E-02 -1.71198607E-01  1.07329856E+00  1.00000000E+00
  1.00000000E+00  1.00000000E+00  4.11634896E-02  2.57762836E-01  8.02419274E-01
  1.00000000E+00  1.00000000E+00  1.00000000E+00  1.00000000E+00  1.00000000E+00
  1.00000000E+00  1.00000000E+00  1.00000000E+00  5.19808943E-04  4.02025621E-03
  2.07128267E-02  8.10105536E-02  2.35962985E-01  4.42653446E-01  3.57064423E-01
 -4.42115008E-05 -1.22591041E-03 -1.05517725E-02 -6.74452633E-02 -1.71198607E-01
  1.07329856E+00  1.00000000E+00  1.00000000E+00  1.00000000E+00  4.11634896E-02
  2.57762836E-01  8.02419274E-01  1.00000000E+00  1.00000000E+00  1.00000000E+00
  1.00000000E+00  1.00000000E+00  1.00000000E+00  1.00000000E+00  1.00000000E+00
  5.34563860E-04  4.13435660E-03  2.12335358E-02  8.25006224E-02  2.38138871E-01
  4.42551547E-01  3.53757422E-01 -4.89867350E-05 -1.19527323E-03 -1.03490714E-02
 -6.48680190E-02 -1.71552477E-01  1.07289568E+00  1.00000000E+00  1.00000000E+00
  1.00000000E+00  3.98072123E-02  2.49002660E-01  8.10479727E-01  1.00000000E+00
  1.00000000E+00  1.00000000E+00  1.00000000E+00  1.00000000E+00  1.00000000E+00
  1.00000000E+00  1.00000000E+00  5.19808943E-04  4.02025621E-03  2.07128267E-02
  8.10105536E-02  2.35962985E-01  4.42653446E-01  3.57064423E-01 -4.42115008E-05
 -1.22591041E-03 -1.05517725E-02 -6.74452633E-02 -1.71198607E-01  1.07329856E+00
  1.00000000E+00  1.00000000E+00  1.00000000E+00  4.11634896E-02  2.57762836E-01
  8.02419274E-01  1.00000000E+00  1.00000000E+00  1.00000000E+00  1.00000000E+00
  1.00000000E+00  1.00000000E+00  1.00000000E+00  1.00000000E+00
Coordinates of each shell                  R   N=         195
  2.06318244E+00 -1.12121651E+00 -6.14590061E-32  2.06318244E+00 -1.12121651E+00
 -6.14590061E-32  2.06318244E+00 -1.12121651E+00 -6.14590061E-32  2.06318244E+00
 -1.12121651E+00 -6.14590061E-32  2.06318244E+00 -1.12121651E+00 -6.14590061E-32
  2.06318244E+00 -1.12121651E+00 -6.14590061E-32  2.06318244E+00 -1.12121651E+00
 -6.14590061E-32  2.06318244E+00 -1.12121651E+00 -6.14590061E-32  2.06318244E+00
 -1.12121651E+00 -6.14590061E-32  2.48720853E+00  6.91954306E-01 -4.96968685E-32
  2.48720853E+00  6.91954306E-01 -4.96968685E-32  2.48720853E+00  6.91954306E-01
 -4.96968685E-32  2.48720853E+00  6.91954306E-01 -4.96968685E-32  2.48720853E+00
  6.91954306E-01 -4.96968685E-32  2.48720853E+00  6.91954306E-01 -4.96968685E-32
  2.48720853E+00  6.91954306E-01 -4.96968685E-32  2.48720853E+00  6.91954306E-01
 -4.96968685E-32  2.48720853E+00  6.91954306E-01 -4.96968685E-32  2.48720853E+00
  6.91954306E-01 -4.96968685E-32  2.48720853E+00  6.91954306E-01 -4.96968685E-32
  2.48720853E+00  6.91954306E-01 -4.96968685E-32  2.48720853E+00  6.91954306E-01
 -4.96968685E-32  2.48720853E+00  6.91954306E-01 -4.96968685E-32  1.64363579E-17
  1.73261416E+00  2.06811302E-32  1.64363579E-17  1.73261416E+00  2.06811302E-32
  1.64363579E-17  1.73261416E+00  2.06811302E-32  1.64363579E-17  1.73261416E+00
  2.06811302E-32  1.64363579E-17  1.73261416E+00  2.06811302E-32  1.64363579E-17
  1.73261416E+00  2.06811302E-32  1.64363579E-17  1.73261416E+00  2.06811302E-32
  1.64363579E-17  1.73261416E+00  2.06811302E-32  1.64363579E-17  1.73261416E+00
  2.06811302E-32  1.64363579E-17  1.73261416E+00  2.06811302E-32  1.64363579E-17
  1.73261416E+00  2.06811302E-32  1.64363579E-17  1.73261416E+00  2.06811302E-32
  1.64363579E-17  1.73261416E+00  2.06811302E-32  1.64363579E-17  1.73261416E+00
  2.06811302E-32 -1.87242302E+00 -8.55413208E-02  4.26096666E-32 -1.87242302E+00
 -8.55413208E-02  4.26096666E-32 -1.87242302E+00 -8.55413208E-02  4.26096666E-32
 -1.87242302E+00 -8.55413208E-02  4.26096666E-32 -1.87242302E+00 -8.55413208E-02
  4.26096666E-32 -1.87242302E+00 -8.55413208E-02  4.26096666E-32 -1.87242302E+00
 -8.55413208E-02  4.26096666E-32 -1.87242302E+00 -8.55413208E-02  4.26096666E-32
 -1.87242302E+00 -8.55413208E-02  4.26096666E-32 -1.87242302E+00 -8.55413208E-02
  4.26096666E-32 -1.87242302E+00 -8.55413208E-02  4.26096666E-32 -1.87242302E+00
 -8.55413208E-02  4.26096666E-32 -1.87242302E+00 -8.55413208E-02  4.26096666E-32
 -1.87242302E+00 -8.55413208E-02  4.26096666E-32 -1.10673620E+00 -2.20956774E+00
 -5.85344164E-34 -1.10673620E+00 -2.20956774E+00 -5.85344164E-34 -1.10673620E+00
 -2.20956774E+00 -5.85344164E-34 -1.10673620E+00 -2.20956774E+00 -5.85344164E-34
 -1.10673620E+00 -2.20956774E+00 -5.85344164E-34 -1.10673620E+00 -2.20956774E+00
 -5.85344164E-34 -1.10673620E+00 -2.20956774E+00 -5.85344164E-34 -1.10673620E+00
 -2.20956774E+00 -5.85344164E-34 -1.10673620E+00 -2.20956774E+00 -5.85344164E-34
 -1.10673620E+00 -2.20956774E+00 -5.85344164E-34 -1.10673620E+00 -2.20956774E+00
 -5.85344164E-34 -1.10673620E+00 -2.20956774E+00 -5.85344164E-34 -1.10673620E+00
 -2.20956774E+00 -5.85344164E-34 -1.10673620E+00 -2.20956774E+00 -5.85344164E-34
Num ILSW                                   I              100
ILSW                                       I   N=         100
           0           0           0           0           2           0
           0           0           0           0           0          -1
           5           0           0           0           2           0
           0           0           0           0           1           0
           1           0           0           0           0           0
           0           0      100000           0          -1           0
           0           0           0           0           0           0
           0           0           0           1           1           0
           0 -2000000000           1           0           0           0
           0           0           4          52           0           0
           0           0           0           0           0           0
           0           0           0           5           4           1
           0           0           0           0           0           0
           0           0           0           0           0           0
           0           0           0           0           0           0
           0           0           0           0           0           0
           0           0           0           0
Num RLSW                                   I               52
RLSW                                       R   N=          52
  1.00000000E+00  1.00000000E+00  1.00000000E+00  1.00000000E+00  1.00000000E+00
  0.00000000E+00  0.00000000E+00  1.00000000E+00  0.00000000E+00  0.00000000E+00
  0.00000000E+00  0.00000000E+00  1.00000000E+00  0.00000000E+00  0.00000000E+00
  0.00000000E+00  0.00000000E+00  1.00000000E+00  0.00000000E+00  0.00000000E+00
  0.00000000E+00  0.00000000E+00  1.00000000E+00  0.00000000E+00  0.00000000E+00
  0.00000000E+00  0.00000000E+00  1.00000000E+00  0.00000000E+00  0.00000000E+00
  0.00000000E+00  0.00000000E+00  1.00000000E+00  0.00000000E+00  0.00000000E+00
  0.00000000E+00  0.00000000E+00  0.00000000E+00  1.00000000E+00  1.00000000E+00
  0.00000000E+00  1.00000000E+00  0.00000000E+00  0.00000000E+00  0.00000000E+00
  0.00000000E+00  0.00000000E+00  0.00000000E+00  0.00000000E+00  0.00000000E+00
  0.00000000E+00  0.00000000E+00
MxBond                                     I                2
NBond                                      I   N=           5
           1           2           2           2           1
IBond                                      I   N=          10
           2           0           1           3           2           4
           3           5           4           0
RBond                                      R   N=          10
  1.00000000E+00  0.00000000E+00  1.00000000E+00  1.00000000E+00  1.00000000E+00
  1.00000000E+00  1.00000000E+00  2.00000000E+00  2.00000000E+00  0.00000000E+00
Virial Ratio                               R      2.002209578034555E+00
SCF Energy                                 R     -2.795061483942607E+02
MP2 Energy                                 R     -2.804551950205549E+02
Total Energy                               R     -2.804551950205549E+02
Post-SCF wavefunction norm                 R      1.583779528817459E+00
RMS Force                                  R      1.032219682147491E-03
RMS Density                                R      4.464721359207322E-09
NImag                                      I                0
Job Status                                 I                1
Nuclear derivative order                   I                2
External E-field                           R   N=          35
  0.00000000E+00  0.00000000E+00  0.00000000E+00  0.00000000E+00  0.00000000E+00
  0.00000000E+00  0.00000000E+00  0.00000000E+00  0.00000000E+00  0.00000000E+00
  0.00000000E+00  0.00000000E+00  0.00000000E+00  0.00000000E+00  0.00000000E+00
  0.00000000E+00  0.00000000E+00  0.00000000E+00  0.00000000E+00  0.00000000E+00
  0.00000000E+00  0.00000000E+00  0.00000000E+00  0.00000000E+00  0.00000000E+00
  0.00000000E+00  0.00000000E+00  0.00000000E+00  0.00000000E+00  0.00000000E+00
  0.00000000E+00  0.00000000E+00  0.00000000E+00  0.00000000E+00  0.00000000E+00
IOpCl                                      I                0
IROHF                                      I                0
Alpha Orbital Energies                     R   N=         207
 -2.07196835E+01 -2.06879267E+01 -2.06685233E+01 -1.58265672E+01 -1.64517459E+00
 -1.50578286E+00 -1.29385139E+00 -9.60336027E-01 -8.35671998E-01 -7.59351823E-01
 -7.40393652E-01 -6.37769917E-01 -6.18849637E-01 -6.18836880E-01 -5.05417213E-01
 -4.97626670E-01  3.52709943E-02  5.97843399E-02  9.50540420E-02  1.00333707E-01
  1.19506166E-01  1.22607214E-01  1.49323179E-01  1.52605032E-01  1.77427960E-01
  1.79988414E-01  1.89682807E-01  2.10883771E-01  2.16865957E-01  2.42379473E-01
  2.46325802E-01  2.68732725E-01  3.13224483E-01  3.17459554E-01  3.37841621E-01
  3.43957906E-01  3.47592485E-01  3.92723205E-01  4.49641530E-01  4.90401680E-01
  5.05434394E-01  5.18201363E-01  5.43709872E-01  5.60749663E-01  5.97949310E-01
  6.20504407E-01  6.38638114E-01  6.90576339E-01  7.16479641E-01  7.24033305E-01
  7.42487662E-01  7.64436614E-01  7.67130355E-01  7.95604434E-01  8.06424008E-01
  8.38491223E-01  8.43185527E-01  8.52478989E-01  8.85058948E-01  9.08132754E-01
  9.29752996E-01  9.48713402E-01  9.53529748E-01  1.01905966E+00  1.03431113E+00
  1.06647120E+00  1.06722315E+00  1.09630734E+00  1.14549333E+00  1.15623475E+00
  1.16962999E+00  1.22196883E+00  1.22784039E+00  1.24750779E+00  1.35409304E+00
  1.35757515E+00  1.37071315E+00  1.46840689E+00  1.48467246E+00  1.50335665E+00
  1.54453906E+00  1.59730141E+00  1.59740453E+00  1.60432488E+00  1.62920973E+00
  1.69484647E+00  1.74524311E+00  1.80068606E+00  1.82925130E+00  1.88789628E+00
  1.90418085E+00  1.93168292E+00  1.97903508E+00  1.98895691E+00  2.05252077E+00
  2.12483971E+00  2.13249872E+00  2.16785352E+00  2.18972136E+00  2.24287995E+00
  2.26022328E+00  2.29629011E+00  2.35465750E+00  2.36758508E+00  2.38818585E+00
  2.40326819E+00  2.43505763E+00  2.46948791E+00  2.48005921E+00  2.53048035E+00
  2.54021068E+00  2.54852515E+00  2.55988559E+00  2.61654245E+00  2.63118207E+00
  2.67246536E+00  2.67488180E+00  2.75329183E+00  2.80584822E+00  2.81454634E+00
  2.84697056E+00  2.91801450E+00  2.98600372E+00  3.04772214E+00  3.05068916E+00
  3.11676453E+00  3.12172113E+00  3.17705305E+00  3.21927804E+00  3.31110730E+00
  3.33183800E+00  3.35895287E+00  3.48103070E+00  3.67774062E+00  3.87038821E+00
  3.93845398E+00  4.18734775E+00  4.22289597E+00  4.22549425E+00  4.26861528E+00
  4.36869789E+00  4.49853979E+00  4.53145510E+00  4.55539270E+00  4.60618739E+00
  4.69165623E+00  4.81153826E+00  4.89815105E+00  4.91475876E+00  4.93893366E+00
  4.99833057E+00  5.00512345E+00  5.10784472E+00  5.13316120E+00  5.17794820E+00
  5.25245837E+00  5.25602144E+00  5.31819596E+00  5.34754180E+00  5.36715933E+00
  5.54647749E+00  5.64459522E+00  5.70827976E+00  5.89346414E+00  5.99659662E+00
  6.26492027E+00  6.29843210E+00  6.35802359E+00  6.37476445E+00  6.60084578E+00
  6.65618053E+00  6.66248727E+00  6.69111338E+00  6.72537250E+00  6.79556976E+00
  6.80661418E+00  6.85049924E+00  6.96857926E+00  7.02984211E+00  7.06632211E+00
  7.07691523E+00  7.13202675E+00  7.17509304E+00  7.17867318E+00  7.20556652E+00
  7.24665892E+00  7.24925033E+00  7.27242904E+00  7.35048207E+00  7.39898816E+00
  7.43331592E+00  7.44171412E+00  7.46425754E+00  7.55940196E+00  7.66328156E+00
  7.67345256E+00  7.79617264E+00  7.88760353E+00  7.95278093E+00  8.07515942E+00
  8.31550417E+00  8.49755058E+00  8.65216108E+00  1.36212418E+01  1.47761852E+01
  1.51149500E+01  1.57914054E+01
Alpha MO coefficients                      R   N=       42849
  6.83590325E-05 -1.32456130E-05 -1.09646744E-03  1.30403432E-05 -4.50286535E-05
  4.10454348E-05  0.00000000E+00 -7.13066588E-05 -2.70651864E-04  0.00000000E+00
  6.42644224E-06 -3.35431232E-04  0.00000000E+00  4.22218861E-05  0.00000000E+00
  0.00000000E+00 -2.71346250E-05  2.17881409E-05  2.25215565E-04  0.00000000E+00
  0.00000000E+00 -5.10760679E-05 -2.10568128E-04  3.09264407E-03 -9.89112673E-05
 -9.71893582E-05  3.48467535E-03  2.43957902E-03  1.03227411E-04 -5.38531949E-05
  0.00000000E+00 -7.29901648E-04  2.97303873E-04  0.00000000E+00 -1.96349365E-03
  1.10364418E-03  0.00000000E+00 -5.35982051E-04  4.02552427E-05  0.00000000E+00
  2.06232499E-05  0.00000000E+00  0.00000000E+00 -8.89475651E-06  4.25492612E-05
 -4.40548400E-04  0.00000000E+00  0.00000000E+00  4.33487871E-04 -6.53918776E-04
 -3.60522181E-04  0.00000000E+00  0.00000000E+00  5.33282377E-04 -7.30085760E-04
  0.00000000E+00  7.38364628E-05 -5.28540137E-05  0.00000000E+00  0.00000000E+00
 -2.75459013E-05  1.06754693E-04  0.00000000E+00  2.10043657E-04 -4.98536960E-05
  0.00000000E+00  0.00000000E+00 -1.65361834E-04  2.96912046E-04  9.76902339E-01
 -9.17595546E-03  4.34083268E-02  5.26481903E-04 -2.19677036E-03  4.50598608E-04
 -2.14849958E-03  0.00000000E+00 -3.19966130E-04  2.25247592E-03  0.00000000E+00
 -2.28676668E-03 -4.99191243E-04  0.00000000E+00 -2.16359148E-04  9.55635084E-05
  0.00000000E+00  6.59052247E-06  0.00000000E+00  0.00000000E+00 -5.36940487E-06
  3.66468753E-05  8.25216761E-04  0.00000000E+00  0.00000000E+00 -4.71564212E-04
 -1.73623001E-04 -1.40902855E-04  0.00000000E+00  0.00000000E+00 -5.52231784E-04
  3.47718611E-04  0.00000000E+00 -6.51459558E-06 -7.96427869E-05  0.00000000E+00
  0.00000000E+00 -8.72656853E-06  4.80111088E-05  0.00000000E+00  9.21195550E-05
  1.52312203E-06  0.00000000E+00  0.00000000E+00 -3.36486170E-04  3.78272889E-04
  1.04263230E-04  4.57212977E-04 -3.22875549E-04 -8.41614061E-04  3.62162327E-04
 -4.40185644E-05 -1.00209669E-04  0.00000000E+00  6.95649635E-04  1.11146442E-03
  0.00000000E+00 -7.75138671E-04 -6.39340402E-04  0.00000000E+00  1.94394324E-04
  2.13031079E-04  0.00000000E+00 -5.24917008E-05  0.00000000E+00  0.00000000E+00
  1.89337790E-05  9.33866069E-05 -4.14539968E-04  0.00000000E+00  0.00000000E+00
  3.97752062E-05  1.08024983E-03  2.63679790E-05  0.00000000E+00  0.00000000E+00
 -3.20892812E-04  3.62389955E-05  0.00000000E+00 -7.83399347E-05 -1.13707860E-04
  0.00000000E+00  0.00000000E+00 -9.66152928E-05  1.06324799E-04  0.00000000E+00
 -1.24945270E-04  4.66098980E-05  0.00000000E+00  0.00000000E+00  1.41288798E-05
  5.19069738E-04 -7.24672083E-04  4.39852267E-05 -7.14482471E-05  2.45188606E-04
 -1.72175855E-04 -2.93677365E-05 -4.15360622E-05  0.00000000E+00  1.70188242E-04
  2.53755803E-04  0.00000000E+00  5.35377934E-04  3.39565253E-04  0.00000000E+00
 -2.12550398E-04 -6.22616124E-05  0.00000000E+00 -1.27233137E-05  0.00000000E+00
  0.00000000E+00  3.03395235E-06  1.51350490E-05 -3.53605476E-06  0.00000000E+00
  0.00000000E+00 -1.62447916E-04  9.99867122E-06 -2.01758630E-05  0.00000000E+00
  0.00000000E+00 -1.76222149E-04 -3.89661598E-05  0.00000000E+00 -6.20011693E-06
 -9.05179522E-06  0.00000000E+00  0.00000000E+00 -2.07164739E-05  9.38537761E-06
  0.00000000E+00  4.05958610E-05  6.06265394E-05  0.00000000E+00  0.00000000E+00
  1.55347529E-04 -1.03079766E-04  3.68214663E-05  3.27261500E-05 -7.52619061E-05
 -3.00759035E-05  2.26850523E-05  1.16395855E-05  0.00000000E+00  2.44496997E-04
  5.16722975E-05  0.00000000E+00  1.25377242E-04  3.07691897E-05  0.00000000E+00
  1.14557836E-05  0.00000000E+00  0.00000000E+00 -8.54317359E-06  1.85462121E-05
  1.20008996E-05  0.00000000E+00  0.00000000E+00 -9.28345513E-05  7.62213996E-05
 -2.58455929E-04  2.48096257E-05 -1.47980385E-05 -5.69073887E-04  1.30257197E-04
  7.56101557E-06  1.33329844E-05  0.00000000E+00 -7.37108455E-07 -4.00269961E-05
  0.00000000E+00  1.86056918E-04  1.05252484E-04  0.00000000E+00 -4.12238425E-05
  5.27315248E-05  0.00000000E+00 -1.46347252E-06  0.00000000E+00  0.00000000E+00
 -8.39808926E-06 -1.22003877E-05  2.16554268E-05  0.00000000E+00  0.00000000E+00
  5.08227200E-05  1.11740396E-04  6.11512504E-05  0.00000000E+00  0.00000000E+00
 -3.77279985E-05 -6.21257416E-05  0.00000000E+00  7.60652256E-06  9.89229239E-06
  0.00000000E+00  0.00000000E+00 -1.11588306E-06 -2.54437130E-05  0.00000000E+00
 -1.31354087E-05 -3.54818059E-05  0.00000000E+00  0.00000000E+00 -9.12921257E-07
 -2.13049850E-05  7.52134576E-04  2.10501578E-05 -1.84520401E-05  3.18719032E-04
 -3.83405649E-04  1.65037653E-05  2.74768624E-05  0.00000000E+00 -6.61606169E-05
 -1.54866683E-04  0.00000000E+00  1.77691125E-04 -2.10518647E-04  0.00000000E+00
 -1.55667764E-04  1.40562241E-04  0.00000000E+00 -3.99648219E-06  0.00000000E+00
  0.00000000E+00 -2.96127052E-05 -9.93864432E-06 -5.22292030E-05  0.00000000E+00
  0.00000000E+00  8.04210102E-05  1.22412605E-04 -6.68539454E-05  0.00000000E+00
  0.00000000E+00  4.21589016E-05  2.59475410E-05  0.00000000E+00  3.00332739E-06
  3.22027046E-06  0.00000000E+00  0.00000000E+00 -7.91912115E-06 -2.53527501E-06
  0.00000000E+00  3.54618101E-06 -2.46533411E-05  0.00000000E+00  0.00000000E+00
  9.78655932E-05 -1.54340275E-04  2.36933648E-04  1.35697491E-03 -1.46464176E-04
 -7.15147573E-04  9.07679536E-04  6.32233600E-05 -7.11579212E-05  0.00000000E+00
  5.72068576E-04 -2.08283625E-03  0.00000000E+00  1.02447888E-04  5.18852268E-04
  0.00000000E+00  1.86035554E-04 -3.06652495E-04  0.00000000E+00 -1.27823086E-04
  0.00000000E+00  0.00000000E+00 -2.03979267E-04 -1.58383899E-04 -4.59171091E-04
  0.00000000E+00  0.00000000E+00 -6.01347368E-04 -9.23655355E-04 -4.24775848E-05
  0.00000000E+00  0.00000000E+00  5.67786494E-05  1.24492280E-04  0.00000000E+00
  8.51671033E-06  3.68809047E-05  0.00000000E+00  0.00000000E+00 -2.44984894E-05
 -4.34911590E-06  0.00000000E+00 -1.35923330E-04  1.57521807E-04  0.00000000E+00
  0.00000000E+00 -3.16667462E-04 -3.69258751E-05  9.76645706E-01 -9.88574053E-03
  4.35756043E-02  3.70325983E-03 -8.94921326E-04 -4.44939417E-04  2.13302904E-03
  0.00000000E+00  5.12525162E-04 -2.50728860E-03  0.00000000E+00 -8.57239528E-05
  8.30393394E-04  0.00000000E+00  1.05592820E-04 -6.46038797E-05  0.00000000E+00
 -1.93410442E-04  0.00000000E+00  0.00000000E+00 -7.46397243E-05 -4.35512002E-05
  4.08766448E-04  0.00000000E+00  0.00000000E+00  8.59322878E-04  4.84161580E-04
 -2.03468660E-04  0.00000000E+00  0.00000000E+00 -1.49737991E-04 -3.67590113E-05
  0.00000000E+00 -5.25388587E-06  7.03396505E-05  0.00000000E+00  0.00000000E+00
 -2.80640305E-05  1.07079704E-05  0.00000000E+00 -8.80679734E-05  9.11756366E-05
  0.00000000E+00  0.00000000E+00 -1.69064566E-04  2.05646997E-04  3.70787641E-04
  1.91450810E-03  1.47938411E-03 -1.86151280E-05  5.15416655E-05  2.67323085E-04
  0.00000000E+00  4.06486737E-04  1.00526798E-03  0.00000000E+00 -1.40830866E-04
  2.29828630E-04  0.00000000E+00 -2.37395990E-05  0.00000000E+00  0.00000000E+00
  3.01024414E-05 -3.30114863E-05 -2.38463081E-04  0.00000000E+00  0.00000000E+00
 -3.35766990E-04  4.45000754E-04  9.76834562E-01 -9.19488818E-03  4.34621137E-02
  1.41928853E-04 -1.93555183E-03 -2.05021474E-03 -8.17610270E-04  0.00000000E+00
  2.09049766E-03  7.58723992E-04  0.00000000E+00 -3.95318921E-04  5.87088627E-04
  0.00000000E+00  2.32377811E-04 -2.89052295E-04  0.00000000E+00  3.17872785E-05
  0.00000000E+00  0.00000000E+00 -7.16557882E-05  6.69973757E-05  7.61748810E-04
  0.00000000E+00  0.00000000E+00 -2.20640119E-04  3.40866158E-04 -2.40331740E-04
  0.00000000E+00  0.00000000E+00  3.19500524E-04  2.55656688E-05  0.00000000E+00
 -8.09473273E-05  1.79932876E-06  0.00000000E+00  0.00000000E+00  1.52466628E-05