 Entering Gaussian System, Link 0=g16
 Input=hoono_r2_1p464443.gjf
 Output=hoono_r2_1p464443.log
 Initial command:
 /sw/contrib/gaussian/g16/B01/g16/l1.exe "/scr/Gau-14623.inp" -scrdir="/scr/"
 Entering Link 1 = /sw/contrib/gaussian/g16/B01/g16/l1.exe PID=     14624.
  
 Copyright (c) 1988-2017, Gaussian, Inc.  All Rights Reserved.
  
 This is part of the Gaussian(R) 16 program.  It is based on
 the Gaussian(R) 09 system (copyright 2009, Gaussian, Inc.),
 the Gaussian(R) 03 system (copyright 2003, Gaussian, Inc.),
 the Gaussian(R) 98 system (copyright 1998, Gaussian, Inc.),
 the Gaussian(R) 94 system (copyright 1995, Gaussian, Inc.),
 the Gaussian 92(TM) system (copyright 1992, Gaussian, Inc.),
 the Gaussian 90(TM) system (copyright 1990, Gaussian, Inc.),
 the Gaussian 88(TM) system (copyright 1988, Gaussian, Inc.),
 the Gaussian 86(TM) system (copyright 1986, Carnegie Mellon
 University), and the Gaussian 82(TM) system (copyright 1983,
 Carnegie Mellon University). Gaussian is a federally registered
 trademark of Gaussian, Inc.
  
 This software contains proprietary and confidential information,
 including trade secrets, belonging to Gaussian, Inc.
  
 This software is provided under written license and may be
 used, copied, transmitted, or stored only in accord with that
 written license.
  
 The following legend is applicable only to US Government
 contracts under FAR:
  
                    RESTRICTED RIGHTS LEGEND
  
 Use, reproduction and disclosure by the US Government is
 subject to restrictions as set forth in subparagraphs (a)
 and (c) of the Commercial Computer Software - Restricted
 Rights clause in FAR 52.227-19.
  
 Gaussian, Inc.
 340 Quinnipiac St., Bldg. 40, Wallingford CT 06492
  
  
 ---------------------------------------------------------------
 Warning -- This program may not be used in any manner that
 competes with the business of Gaussian, Inc. or will provide
 assistance to any competitor of Gaussian, Inc.  The licensee
 of this program is prohibited from giving any competitor of
 Gaussian, Inc. access to this program.  By using this program,
 the user acknowledges that Gaussian, Inc. is engaged in the
 business of creating and licensing software in the field of
 computational chemistry and represents and warrants to the
 licensee that it is not a competitor of Gaussian, Inc. and that
 it will not use this program in any manner prohibited above.
 ---------------------------------------------------------------
  

 Cite this work as:
 Gaussian 16, Revision B.01,
 M. J. Frisch, G. W. Trucks, H. B. Schlegel, G. E. Scuseria, 
 M. A. Robb, J. R. Cheeseman, G. Scalmani, V. Barone, 
 G. A. Petersson, H. Nakatsuji, X. Li, M. Caricato, A. V. Marenich, 
 J. Bloino, B. G. Janesko, R. Gomperts, B. Mennucci, H. P. Hratchian, 
 J. V. Ortiz, A. F. Izmaylov, J. L. Sonnenberg, D. Williams-Young, 
 F. Ding, F. Lipparini, F. Egidi, J. Goings, B. Peng, A. Petrone, 
 T. Henderson, D. Ranasinghe, V. G. Zakrzewski, J. Gao, N. Rega, 
 G. Zheng, W. Liang, M. Hada, M. Ehara, K. Toyota, R. Fukuda, 
 J. Hasegawa, M. Ishida, T. Nakajima, Y. Honda, O. Kitao, H. Nakai, 
 T. Vreven, K. Throssell, J. A. Montgomery, Jr., J. E. Peralta, 
 F. Ogliaro, M. J. Bearpark, J. J. Heyd, E. N. Brothers, K. N. Kudin, 
 V. N. Staroverov, T. A. Keith, R. Kobayashi, J. Normand, 
 K. Raghavachari, A. P. Rendell, J. C. Burant, S. S. Iyengar, 
 J. Tomasi, M. Cossi, J. M. Millam, M. Klene, C. Adamo, R. Cammi, 
 J. W. Ochterski, R. L. Martin, K. Morokuma, O. Farkas, 
 J. B. Foresman, and D. J. Fox, Gaussian, Inc., Wallingford CT, 2016.
 
 ******************************************
 Gaussian 16:  ES64L-G16RevB.01 20-Dec-2017
                21-Feb-2022 
 ******************************************
 %nproc=28
 Will use up to   28 processors via shared memory.
 %mem=120GB
 %chk=hoono_r2_1p464443.chk
 ---------------------------------------
 #p freq mp2/aug-cc-pvtz density=current
 ---------------------------------------
 1/10=4,30=1,38=1/1,3;
 2/12=2,17=6,18=5,40=1/2;
 3/5=16,6=1,7=10,11=9,25=1,30=1,71=2,140=1/1,2,3;
 4//1;
 5/5=2,38=5,98=1/2;
 8/6=3,8=1,10=1,19=11,30=-1/1;
 9/15=3,16=-3/6;
 11/6=1,8=1,15=11,17=12,24=-1,27=1,28=-2,29=300,32=6,42=3/1,2,10;
 10/6=2,21=1/2;
 8/6=4,8=1,10=1,19=11,30=-1/11,4;
 10/5=1,20=4/2;
 11/12=2,14=11,16=1,17=2,28=-2,42=3,76=2/2,10,12;
 6/7=2,8=2,9=2,10=2,22=-1/1;
 7/8=1,10=1,12=2,25=1,44=2/1,2,3,16;
 1/10=4,30=1/3;
 99//99;
 Leave Link    1 at Mon Feb 21 20:03:54 2022, MaxMem= 16106127360 cpu:               2.4 elap:               0.1
 (Enter /sw/contrib/gaussian/g16/B01/g16/l101.exe)
 -----
 title
 -----
 Symbolic Z-matrix:
 Charge =  0 Multiplicity = 1
 H
 O                    1    r1
 O                    2    r2       1    a1
 N                    3    r3       2    a2       1    d1       0
 O                    4    r4       3    a3       2    d2       0
       Variables:
  r1                    0.96898                  
  r2                    1.46444                  
  r3                    1.45878                  
  r4                    1.17073                  
  a1                   97.59495                  
  a2                  102.29752                  
  a3                  109.06955                  
  d1                  180.                       
  d2                  180.                       
 
 ITRead=  0  0  0  0  0
 MicOpt= -1 -1 -1 -1 -1
 NAtoms=      5 NQM=        5 NQMF=       0 NMMI=      0 NMMIF=      0
                NMic=       0 NMicF=      0.
                    Isotopes and Nuclear Properties:
 (Nuclear quadrupole moments (NQMom) in fm**2, nuclear magnetic moments (NMagM)
  in nuclear magnetons)

  Atom         1           2           3           4           5
 IAtWgt=           1          16          16          14          16
 AtmWgt=   1.0078250  15.9949146  15.9949146  14.0030740  15.9949146
 NucSpn=           1           0           0           2           0
 AtZEff=  -0.0000000  -0.0000000  -0.0000000  -0.0000000  -0.0000000
 NQMom=    0.0000000   0.0000000   0.0000000   2.0440000   0.0000000
 NMagM=    2.7928460   0.0000000   0.0000000   0.4037610   0.0000000
 AtZNuc=   1.0000000   8.0000000   8.0000000   7.0000000   8.0000000
 Leave Link  101 at Mon Feb 21 20:03:55 2022, MaxMem= 16106127360 cpu:               3.8 elap:               0.3
 (Enter /sw/contrib/gaussian/g16/B01/g16/l103.exe)

 GradGradGradGradGradGradGradGradGradGradGradGradGradGradGradGradGradGrad
 Berny optimization.
 Initialization pass.
                       ----------------------------
                       !    Initial Parameters    !
                       ! (Angstroms and Degrees)  !
 ----------------------                            ----------------------
 !      Name          Value   Derivative information (Atomic Units)     !
 ------------------------------------------------------------------------
 !       r1          0.969    calculate D2E/DX2 analytically            !
 !       r2          1.4644   calculate D2E/DX2 analytically            !
 !       r3          1.4588   calculate D2E/DX2 analytically            !
 !       r4          1.1707   calculate D2E/DX2 analytically            !
 !       a1         97.5949   calculate D2E/DX2 analytically            !
 !       a2        102.2975   calculate D2E/DX2 analytically            !
 !       a3        109.0696   calculate D2E/DX2 analytically            !
 !       d1        180.0      calculate D2E/DX2 analytically            !
 !       d2        180.0      calculate D2E/DX2 analytically            !
 ------------------------------------------------------------------------
 Trust Radius=3.00D-01 FncErr=1.00D-07 GrdErr=1.00D-07 EigMax=2.50D+02 EigMin=1.00D-04
 Number of steps in this run=      2 maximum allowed number of steps=      2.
 GradGradGradGradGradGradGradGradGradGradGradGradGradGradGradGradGradGrad

 Leave Link  103 at Mon Feb 21 20:03:55 2022, MaxMem= 16106127360 cpu:               0.6 elap:               0.0
 (Enter /sw/contrib/gaussian/g16/B01/g16/l202.exe)
                          Input orientation:                          
 ---------------------------------------------------------------------
 Center     Atomic      Atomic             Coordinates (Angstroms)
 Number     Number       Type             X           Y           Z
 ---------------------------------------------------------------------
      1          1           0        0.000000    0.000000    0.000000
      2          8           0        0.000000    0.000000    0.968976
      3          8           0        1.451596    0.000000    1.162530
      4          7           0        1.571192    0.000000    2.616403
      5          8           0        2.705308    0.000000    2.906898
 ---------------------------------------------------------------------
                    Distance matrix (angstroms):
                    1          2          3          4          5
     1  H    0.000000
     2  O    0.968976   0.000000
     3  O    1.859733   1.464443   0.000000
     4  N    3.051919   2.276546   1.458784   0.000000
     5  O    3.970988   3.327797   2.148165   1.170729   0.000000
 Stoichiometry    HNO3
 Framework group  CS[SG(HNO3)]
 Deg. of freedom     7
 Full point group                 CS      NOp   2
 Largest Abelian subgroup         CS      NOp   2
 Largest concise Abelian subgroup C1      NOp   1
                         Standard orientation:                         
 ---------------------------------------------------------------------
 Center     Atomic      Atomic             Coordinates (Angstroms)
 Number     Number       Type             X           Y           Z
 ---------------------------------------------------------------------
      1          1           0        1.562654    1.681247    0.000000
      2          8           0        1.463770    0.717330    0.000000
      3          8           0        0.000000    0.672922   -0.000000
      4          7           0       -0.267339   -0.761156   -0.000000
      5          8           0       -1.425179   -0.934397   -0.000000
 ---------------------------------------------------------------------
 Rotational constants (GHZ):          54.7222620           4.9888028           4.5719931
 Leave Link  202 at Mon Feb 21 20:03:55 2022, MaxMem= 16106127360 cpu:               1.1 elap:               0.1
 (Enter /sw/contrib/gaussian/g16/B01/g16/l301.exe)
 Standard basis: Aug-CC-pVTZ (5D, 7F)
 Ernie: Thresh=  0.10000D-02 Tol=  0.10000D-05 Strict=F.
 Ernie:  12 primitive shells out of 131 were deleted.
 There are   166 symmetry adapted cartesian basis functions of A'  symmetry.
 There are    79 symmetry adapted cartesian basis functions of A"  symmetry.
 There are   136 symmetry adapted basis functions of A'  symmetry.
 There are    71 symmetry adapted basis functions of A"  symmetry.
   207 basis functions,   315 primitive gaussians,   245 cartesian basis functions
    16 alpha electrons       16 beta electrons
       nuclear repulsion energy       116.6379426977 Hartrees.
 IExCor=    0 DFT=F Ex=HF Corr=None ExCW=0 ScaHFX=  1.000000
 ScaDFX=  1.000000  1.000000  1.000000  1.000000 ScalE2=  1.000000  1.000000
 IRadAn=      5 IRanWt=     -1 IRanGd=            0 ICorTp=0 IEmpDi=  4
 NAtoms=    5 NActive=    5 NUniq=    5 SFac= 1.00D+00 NAtFMM=   60 NAOKFM=F Big=F
 Integral buffers will be    131072 words long.
 Raffenetti 1 integral format.
 Two-electron integral symmetry is turned on.
 Leave Link  301 at Mon Feb 21 20:03:55 2022, MaxMem= 16106127360 cpu:               2.5 elap:               0.1
 (Enter /sw/contrib/gaussian/g16/B01/g16/l302.exe)
 NPDir=0 NMtPBC=     1 NCelOv=     1 NCel=       1 NClECP=     1 NCelD=      1
         NCelK=      1 NCelE2=     1 NClLst=     1 CellRange=     0.0.
 One-electron integrals computed using PRISM.
 One-electron integral symmetry used in STVInt
 NBasis=   207 RedAO= T EigKep=  1.83D-04  NBF=   136    71
 NBsUse=   207 1.00D-06 EigRej= -1.00D+00 NBFU=   136    71
 Leave Link  302 at Mon Feb 21 20:03:55 2022, MaxMem= 16106127360 cpu:               8.0 elap:               0.4
 (Enter /sw/contrib/gaussian/g16/B01/g16/l303.exe)
 DipDrv:  MaxL=1.
 Leave Link  303 at Mon Feb 21 20:03:55 2022, MaxMem= 16106127360 cpu:               0.7 elap:               0.0
 (Enter /sw/contrib/gaussian/g16/B01/g16/l401.exe)
 ExpMin= 2.53D-02 ExpMax= 1.53D+04 ExpMxC= 5.22D+02 IAcc=3 IRadAn=         5 AccDes= 0.00D+00
 Harris functional with IExCor=  205 and IRadAn=       5 diagonalized for initial guess.
 HarFok:  IExCor=  205 AccDes= 0.00D+00 IRadAn=         5 IDoV= 1 UseB2=F ITyADJ=14
 ICtDFT=  3500011 ScaDFX=  1.000000  1.000000  1.000000  1.000000
 FoFCou: FMM=F IPFlag=           0 FMFlag=      100000 FMFlg1=           0
         NFxFlg=           0 DoJE=T BraDBF=F KetDBF=T FulRan=T
         wScrn=  0.000000 ICntrl=       500 IOpCl=  0 I1Cent=   200000004 NGrid=           0
         NMat0=    1 NMatS0=      1 NMatT0=    0 NMatD0=    1 NMtDS0=    0 NMtDT0=    0
 Petite list used in FoFCou.
 Harris En= -279.628261512539    
 JPrj=0 DoOrth=F DoCkMO=F.
 Initial guess orbital symmetries:
       Occupied  (A') (A') (A') (A') (A') (A') (A') (A') (A') (A')
                 (A") (A') (A') (A") (A") (A')
       Virtual   (A") (A') (A') (A') (A') (A') (A") (A') (A') (A')
                 (A") (A') (A") (A') (A') (A") (A') (A") (A') (A')
                 (A') (A') (A') (A') (A') (A") (A') (A") (A') (A')
                 (A") (A') (A") (A') (A') (A") (A') (A") (A') (A')
                 (A") (A') (A") (A') (A") (A') (A') (A') (A") (A")
                 (A') (A') (A') (A') (A") (A') (A") (A') (A") (A')
                 (A') (A') (A") (A') (A') (A") (A') (A") (A') (A')
                 (A") (A') (A') (A") (A") (A') (A') (A") (A') (A')
                 (A') (A") (A') (A") (A') (A") (A') (A") (A') (A')
                 (A') (A") (A') (A") (A') (A") (A") (A') (A') (A")
                 (A') (A') (A") (A') (A') (A') (A') (A") (A") (A')
                 (A") (A') (A') (A') (A") (A') (A') (A') (A") (A')
                 (A") (A') (A') (A") (A") (A') (A') (A") (A") (A')
                 (A') (A') (A') (A") (A") (A') (A") (A') (A') (A')
                 (A') (A") (A") (A') (A') (A") (A') (A') (A') (A')
                 (A') (A") (A') (A") (A') (A") (A') (A") (A") (A')
                 (A') (A") (A') (A") (A') (A") (A") (A") (A') (A')
                 (A") (A') (A") (A') (A") (A') (A") (A") (A') (A')
                 (A') (A') (A') (A') (A') (A') (A') (A') (A') (A')
                 (A')
 The electronic state of the initial guess is 1-A'.
 Leave Link  401 at Mon Feb 21 20:03:55 2022, MaxMem= 16106127360 cpu:               6.4 elap:               0.3
 (Enter /sw/contrib/gaussian/g16/B01/g16/l502.exe)
 Keep R1 ints in memory in symmetry-blocked form, NReq=348887737.
 FoFCou: FMM=F IPFlag=           0 FMFlag=           0 FMFlg1=           0
         NFxFlg=           0 DoJE=F BraDBF=F KetDBF=F FulRan=T
         wScrn=  0.000000 ICntrl=       600 IOpCl=  0 I1Cent=           0 NGrid=           0
         NMat0=    1 NMatS0=  21528 NMatT0=    0 NMatD0=    1 NMtDS0=    0 NMtDT0=    0
 Petite list used in FoFCou.
 Closed shell SCF:
 Using DIIS extrapolation, IDIIS=  1040.
 NGot= 16106127360 LenX= 15988850015 LenY= 15988789549
 Requested convergence on RMS density matrix=1.00D-08 within 128 cycles.
 Requested convergence on MAX density matrix=1.00D-06.
 Requested convergence on             energy=1.00D-06.
 No special actions if energy rises.

 Cycle   1  Pass 1  IDiag  1:
 E= -279.369372430488    
 DIIS: error= 2.85D-02 at cycle   1 NSaved=   1.
 NSaved= 1 IEnMin= 1 EnMin= -279.369372430488     IErMin= 1 ErrMin= 2.85D-02
 ErrMax= 2.85D-02  0.00D+00 EMaxC= 1.00D-01 BMatC= 4.38D-01 BMatP= 4.38D-01
 IDIUse=3 WtCom= 7.15D-01 WtEn= 2.85D-01
 Coeff-Com:  0.100D+01
 Coeff-En:   0.100D+01
 Coeff:      0.100D+01
 Gap=     0.515 Goal=   None    Shift=    0.000
 GapD=    0.515 DampG=2.000 DampE=0.500 DampFc=1.0000 IDamp=-1.
 RMSDP=1.62D-03 MaxDP=9.92D-02              OVMax= 1.14D-01

 Cycle   2  Pass 1  IDiag  1:
 E= -279.451018792163     Delta-E=       -0.081646361675 Rises=F Damp=F
 DIIS: error= 1.81D-02 at cycle   2 NSaved=   2.
 NSaved= 2 IEnMin= 2 EnMin= -279.451018792163     IErMin= 2 ErrMin= 1.81D-02
 ErrMax= 1.81D-02  0.00D+00 EMaxC= 1.00D-01 BMatC= 7.26D-02 BMatP= 4.38D-01
 IDIUse=3 WtCom= 8.19D-01 WtEn= 1.81D-01
 Coeff-Com:  0.196D+00 0.804D+00
 Coeff-En:   0.000D+00 0.100D+01
 Coeff:      0.161D+00 0.839D+00
 Gap=     0.530 Goal=   None    Shift=    0.000
 RMSDP=9.04D-04 MaxDP=3.73D-02 DE=-8.16D-02 OVMax= 6.98D-02

 Cycle   3  Pass 1  IDiag  1:
 E= -279.480412576821     Delta-E=       -0.029393784659 Rises=F Damp=F
 DIIS: error= 1.05D-02 at cycle   3 NSaved=   3.
 NSaved= 3 IEnMin= 3 EnMin= -279.480412576821     IErMin= 3 ErrMin= 1.05D-02
 ErrMax= 1.05D-02  0.00D+00 EMaxC= 1.00D-01 BMatC= 2.92D-02 BMatP= 7.26D-02
 IDIUse=3 WtCom= 8.95D-01 WtEn= 1.05D-01
 Coeff-Com: -0.331D-01 0.379D+00 0.654D+00
 Coeff-En:   0.000D+00 0.242D+00 0.758D+00
 Coeff:     -0.296D-01 0.364D+00 0.665D+00
 Gap=     0.511 Goal=   None    Shift=    0.000
 RMSDP=3.78D-04 MaxDP=1.52D-02 DE=-2.94D-02 OVMax= 3.84D-02

 Cycle   4  Pass 1  IDiag  1:
 E= -279.499781358166     Delta-E=       -0.019368781345 Rises=F Damp=F
 DIIS: error= 1.30D-03 at cycle   4 NSaved=   4.
 NSaved= 4 IEnMin= 4 EnMin= -279.499781358166     IErMin= 4 ErrMin= 1.30D-03
 ErrMax= 1.30D-03  0.00D+00 EMaxC= 1.00D-01 BMatC= 5.01D-04 BMatP= 2.92D-02
 IDIUse=3 WtCom= 9.87D-01 WtEn= 1.30D-02
 Coeff-Com: -0.118D-01 0.583D-01 0.160D+00 0.794D+00
 Coeff-En:   0.000D+00 0.000D+00 0.000D+00 0.100D+01
 Coeff:     -0.117D-01 0.575D-01 0.158D+00 0.796D+00
 Gap=     0.502 Goal=   None    Shift=    0.000
 RMSDP=9.03D-05 MaxDP=2.81D-03 DE=-1.94D-02 OVMax= 1.12D-02

 Cycle   5  Pass 1  IDiag  1:
 E= -279.500458921890     Delta-E=       -0.000677563724 Rises=F Damp=F
 DIIS: error= 7.42D-04 at cycle   5 NSaved=   5.
 NSaved= 5 IEnMin= 5 EnMin= -279.500458921890     IErMin= 5 ErrMin= 7.42D-04
 ErrMax= 7.42D-04  0.00D+00 EMaxC= 1.00D-01 BMatC= 8.76D-05 BMatP= 5.01D-04
 IDIUse=3 WtCom= 9.93D-01 WtEn= 7.42D-03
 Coeff-Com:  0.612D-02-0.722D-01-0.117D+00 0.234D-01 0.116D+01
 Coeff-En:   0.000D+00 0.000D+00 0.000D+00 0.000D+00 0.100D+01
 Coeff:      0.607D-02-0.717D-01-0.116D+00 0.233D-01 0.116D+01
 Gap=     0.502 Goal=   None    Shift=    0.000
 RMSDP=7.57D-05 MaxDP=2.09D-03 DE=-6.78D-04 OVMax= 1.10D-02

 Cycle   6  Pass 1  IDiag  1:
 E= -279.500772485264     Delta-E=       -0.000313563374 Rises=F Damp=F
 DIIS: error= 2.91D-04 at cycle   6 NSaved=   6.
 NSaved= 6 IEnMin= 6 EnMin= -279.500772485264     IErMin= 6 ErrMin= 2.91D-04
 ErrMax= 2.91D-04  0.00D+00 EMaxC= 1.00D-01 BMatC= 1.68D-05 BMatP= 8.76D-05
 IDIUse=3 WtCom= 9.97D-01 WtEn= 2.91D-03
 Coeff-Com:  0.718D-03 0.725D-04 0.181D-02-0.127D+00-0.210D+00 0.133D+01
 Coeff-En:   0.000D+00 0.000D+00 0.000D+00 0.000D+00 0.000D+00 0.100D+01
 Coeff:      0.716D-03 0.722D-04 0.181D-02-0.127D+00-0.209D+00 0.133D+01
 Gap=     0.502 Goal=   None    Shift=    0.000
 RMSDP=4.48D-05 MaxDP=1.24D-03 DE=-3.14D-04 OVMax= 5.46D-03

 Cycle   7  Pass 1  IDiag  1:
 E= -279.500844731820     Delta-E=       -0.000072246556 Rises=F Damp=F
 DIIS: error= 1.27D-04 at cycle   7 NSaved=   7.
 NSaved= 7 IEnMin= 7 EnMin= -279.500844731820     IErMin= 7 ErrMin= 1.27D-04
 ErrMax= 1.27D-04  0.00D+00 EMaxC= 1.00D-01 BMatC= 4.98D-06 BMatP= 1.68D-05
 IDIUse=3 WtCom= 9.99D-01 WtEn= 1.27D-03
 Coeff-Com: -0.942D-03 0.138D-01 0.268D-01-0.282D-01-0.299D+00 0.432D+00
 Coeff-Com:  0.856D+00
 Coeff-En:   0.000D+00 0.000D+00 0.000D+00 0.000D+00 0.000D+00 0.000D+00
 Coeff-En:   0.100D+01
 Coeff:     -0.941D-03 0.138D-01 0.268D-01-0.282D-01-0.299D+00 0.431D+00
 Coeff:      0.856D+00
 Gap=     0.503 Goal=   None    Shift=    0.000
 RMSDP=1.35D-05 MaxDP=3.82D-04 DE=-7.22D-05 OVMax= 1.57D-03

 Cycle   8  Pass 1  IDiag  1:
 E= -279.500854209730     Delta-E=       -0.000009477910 Rises=F Damp=F
 DIIS: error= 5.53D-05 at cycle   8 NSaved=   8.
 NSaved= 8 IEnMin= 8 EnMin= -279.500854209730     IErMin= 8 ErrMin= 5.53D-05
 ErrMax= 5.53D-05  0.00D+00 EMaxC= 1.00D-01 BMatC= 6.07D-07 BMatP= 4.98D-06
 IDIUse=1 WtCom= 1.00D+00 WtEn= 0.00D+00
 Coeff-Com: -0.448D-03 0.343D-02 0.755D-02 0.275D-01-0.409D-01-0.194D+00
 Coeff-Com:  0.126D+00 0.107D+01
 Coeff:     -0.448D-03 0.343D-02 0.755D-02 0.275D-01-0.409D-01-0.194D+00
 Coeff:      0.126D+00 0.107D+01
 Gap=     0.502 Goal=   None    Shift=    0.000
 RMSDP=7.19D-06 MaxDP=2.10D-04 DE=-9.48D-06 OVMax= 7.77D-04

 Cycle   9  Pass 1  IDiag  1:
 E= -279.500856086201     Delta-E=       -0.000001876471 Rises=F Damp=F
 DIIS: error= 1.58D-05 at cycle   9 NSaved=   9.
 NSaved= 9 IEnMin= 9 EnMin= -279.500856086201     IErMin= 9 ErrMin= 1.58D-05
 ErrMax= 1.58D-05  0.00D+00 EMaxC= 1.00D-01 BMatC= 6.77D-08 BMatP= 6.07D-07
 IDIUse=1 WtCom= 1.00D+00 WtEn= 0.00D+00
 Coeff-Com:  0.123D-03-0.172D-02-0.306D-02-0.198D-02 0.342D-01 0.162D-03
 Coeff-Com: -0.153D+00-0.125D+00 0.125D+01
 Coeff:      0.123D-03-0.172D-02-0.306D-02-0.198D-02 0.342D-01 0.162D-03
 Coeff:     -0.153D+00-0.125D+00 0.125D+01
 Gap=     0.502 Goal=   None    Shift=    0.000
 RMSDP=1.94D-06 MaxDP=6.63D-05 DE=-1.88D-06 OVMax= 1.74D-04

 Cycle  10  Pass 1  IDiag  1:
 E= -279.500856246163     Delta-E=       -0.000000159962 Rises=F Damp=F
 DIIS: error= 4.09D-06 at cycle  10 NSaved=  10.
 NSaved=10 IEnMin=10 EnMin= -279.500856246163     IErMin=10 ErrMin= 4.09D-06
 ErrMax= 4.09D-06  0.00D+00 EMaxC= 1.00D-01 BMatC= 5.54D-09 BMatP= 6.77D-08
 IDIUse=1 WtCom= 1.00D+00 WtEn= 0.00D+00
 Coeff-Com:  0.304D-04-0.235D-03-0.309D-03-0.267D-02 0.144D-02 0.194D-01
 Coeff-Com: -0.953D-02-0.766D-01-0.831D-01 0.115D+01
 Coeff:      0.304D-04-0.235D-03-0.309D-03-0.267D-02 0.144D-02 0.194D-01
 Coeff:     -0.953D-02-0.766D-01-0.831D-01 0.115D+01
 Gap=     0.502 Goal=   None    Shift=    0.000
 RMSDP=5.07D-07 MaxDP=2.11D-05 DE=-1.60D-07 OVMax= 4.14D-05

 Cycle  11  Pass 1  IDiag  1:
 E= -279.500856258712     Delta-E=       -0.000000012549 Rises=F Damp=F
 DIIS: error= 2.02D-06 at cycle  11 NSaved=  11.
 NSaved=11 IEnMin=11 EnMin= -279.500856258712     IErMin=11 ErrMin= 2.02D-06
 ErrMax= 2.02D-06  0.00D+00 EMaxC= 1.00D-01 BMatC= 6.54D-10 BMatP= 5.54D-09
 IDIUse=1 WtCom= 1.00D+00 WtEn= 0.00D+00
 Coeff-Com: -0.212D-04 0.244D-03 0.483D-03 0.517D-03-0.428D-02-0.340D-02
 Coeff-Com:  0.185D-01 0.341D-01-0.139D+00-0.178D+00 0.127D+01
 Coeff:     -0.212D-04 0.244D-03 0.483D-03 0.517D-03-0.428D-02-0.340D-02
 Coeff:      0.185D-01 0.341D-01-0.139D+00-0.178D+00 0.127D+01
 Gap=     0.502 Goal=   None    Shift=    0.000
 RMSDP=1.77D-07 MaxDP=6.48D-06 DE=-1.25D-08 OVMax= 1.74D-05

 Cycle  12  Pass 1  IDiag  1:
 E= -279.500856260505     Delta-E=       -0.000000001793 Rises=F Damp=F
 DIIS: error= 5.84D-07 at cycle  12 NSaved=  12.
 NSaved=12 IEnMin=12 EnMin= -279.500856260505     IErMin=12 ErrMin= 5.84D-07
 ErrMax= 5.84D-07  0.00D+00 EMaxC= 1.00D-01 BMatC= 7.16D-11 BMatP= 6.54D-10
 IDIUse=1 WtCom= 1.00D+00 WtEn= 0.00D+00
 Coeff-Com:  0.123D-05-0.291D-04-0.626D-04 0.186D-03 0.109D-02-0.228D-02
 Coeff-Com: -0.409D-02 0.523D-02 0.418D-01-0.115D+00-0.277D+00 0.135D+01
 Coeff:      0.123D-05-0.291D-04-0.626D-04 0.186D-03 0.109D-02-0.228D-02
 Coeff:     -0.409D-02 0.523D-02 0.418D-01-0.115D+00-0.277D+00 0.135D+01
 Gap=     0.502 Goal=   None    Shift=    0.000
 RMSDP=7.16D-08 MaxDP=2.83D-06 DE=-1.79D-09 OVMax= 6.73D-06

 Cycle  13  Pass 1  IDiag  1:
 E= -279.500856260735     Delta-E=       -0.000000000230 Rises=F Damp=F
 DIIS: error= 1.73D-07 at cycle  13 NSaved=  13.
 NSaved=13 IEnMin=13 EnMin= -279.500856260735     IErMin=13 ErrMin= 1.73D-07
 ErrMax= 1.73D-07  0.00D+00 EMaxC= 1.00D-01 BMatC= 4.07D-12 BMatP= 7.16D-11
 IDIUse=1 WtCom= 1.00D+00 WtEn= 0.00D+00
 Coeff-Com:  0.129D-05-0.141D-04-0.226D-04-0.883D-04 0.122D-03 0.744D-03
 Coeff-Com: -0.680D-03-0.342D-02 0.570D-03 0.414D-01-0.374D-01-0.325D+00
 Coeff-Com:  0.132D+01
 Coeff:      0.129D-05-0.141D-04-0.226D-04-0.883D-04 0.122D-03 0.744D-03
 Coeff:     -0.680D-03-0.342D-02 0.570D-03 0.414D-01-0.374D-01-0.325D+00
 Coeff:      0.132D+01
 Gap=     0.502 Goal=   None    Shift=    0.000
 RMSDP=1.93D-08 MaxDP=5.63D-07 DE=-2.30D-10 OVMax= 1.59D-06

 Cycle  14  Pass 1  IDiag  1:
 E= -279.500856260748     Delta-E=       -0.000000000013 Rises=F Damp=F
 DIIS: error= 2.52D-08 at cycle  14 NSaved=  14.
 NSaved=14 IEnMin=14 EnMin= -279.500856260748     IErMin=14 ErrMin= 2.52D-08
 ErrMax= 2.52D-08  0.00D+00 EMaxC= 1.00D-01 BMatC= 2.07D-13 BMatP= 4.07D-12
 IDIUse=1 WtCom= 1.00D+00 WtEn= 0.00D+00
 Coeff-Com: -0.193D-06 0.317D-05 0.563D-05 0.446D-05-0.840D-04 0.471D-04
 Coeff-Com:  0.262D-03 0.260D-03-0.248D-02 0.148D-02 0.174D-01-0.258D-01
 Coeff-Com: -0.204D+00 0.121D+01
 Coeff:     -0.193D-06 0.317D-05 0.563D-05 0.446D-05-0.840D-04 0.471D-04
 Coeff:      0.262D-03 0.260D-03-0.248D-02 0.148D-02 0.174D-01-0.258D-01
 Coeff:     -0.204D+00 0.121D+01
 Gap=     0.502 Goal=   None    Shift=    0.000
 RMSDP=3.88D-09 MaxDP=9.17D-08 DE=-1.33D-11 OVMax= 3.55D-07

 SCF Done:  E(RHF) =  -279.500856261     A.U. after   14 cycles
            NFock= 14  Conv=0.39D-08     -V/T= 2.0024
 KE= 2.788292390637D+02 PE=-8.945922000983D+02 EE= 2.196241620761D+02
 Leave Link  502 at Mon Feb 21 20:03:59 2022, MaxMem= 16106127360 cpu:              53.7 elap:               3.5
 (Enter /sw/contrib/gaussian/g16/B01/g16/l801.exe)
 ExpMin= 2.53D-02 ExpMax= 1.53D+04 ExpMxC= 5.22D+02 IAcc=3 IRadAn=         5 AccDes= 0.00D+00
 HarFok:  IExCor=  205 AccDes= 0.00D+00 IRadAn=         5 IDoV=-2 UseB2=F ITyADJ=14
 ICtDFT= 12500011 ScaDFX=  1.000000  1.000000  1.000000  1.000000
 Largest valence mixing into a core orbital is  2.08D-04
 Largest core mixing into a valence orbital is  3.64D-05
 Range of M.O.s used for correlation:     5   207
 NBasis=   207 NAE=    16 NBE=    16 NFC=     4 NFV=     0
 NROrb=    203 NOA=    12 NOB=    12 NVA=   191 NVB=   191

 **** Warning!!: The largest alpha MO coefficient is  0.17599288D+02

 Leave Link  801 at Mon Feb 21 20:03:59 2022, MaxMem= 16106127360 cpu:               2.2 elap:               0.1
 (Enter /sw/contrib/gaussian/g16/B01/g16/l906.exe)
 Frozen-core derivative calculation, NFC=   4 NFV=   0.
 FulOut=F Deriv=T AODrv=T NAtomX=     5
   MMem=           0  MDisk=          12 MDiskD=          12
  W3Min=      811440 MinDsk=     2425030 NBas6D=         245
 NBas2D=       30762    NTT=       30135    LW2=     7400000
    MDV= 16105574339 MDiskM=      328644 NBas2p=       30702
 Disk-based method using ON**2 memory for 12 occupieds at a time.
 Permanent disk used for amplitudes=    11516536 words.
 Estimated scratch disk usage=   321251614 words.
 IMap=   1   2   3   4   5   6   7   8   9  10  11  12  13  14  15  16
 Actual    scratch disk usage=   310331678 words.
 JobTyp=1 Pass  1:  I=   5 to  16 NPSUse= 28 ParTrn=T ParDer=T DoDerP=T.
 (rs|ai) integrals will be sorted in core.
 Spin components of T(2) and E(2):
     alpha-alpha T2 =       0.3411455862D-01 E2=     -0.1224650651D+00
     alpha-beta  T2 =       0.1875427121D+00 E2=     -0.7008992006D+00
     beta-beta   T2 =       0.3411455862D-01 E2=     -0.1224650651D+00
 The integrals were generated   1 times.
 ANorm=    0.1120612256D+01
 E2 =    -0.9458293308D+00 EUMP2 =    -0.28044668559152D+03
 Leave Link  906 at Mon Feb 21 20:05:36 2022, MaxMem= 16106127360 cpu:            2708.5 elap:              96.9
 (Enter /sw/contrib/gaussian/g16/B01/g16/l1101.exe)
 Using compressed Sx but separate Hx and Fx, NAtomX=     5.
 Will process      6 centers per pass.
 Leave Link 1101 at Mon Feb 21 20:05:36 2022, MaxMem= 16106127360 cpu:               5.6 elap:               0.2
 (Enter /sw/contrib/gaussian/g16/B01/g16/l1102.exe)
 Leave Link 1102 at Mon Feb 21 20:05:36 2022, MaxMem= 16106127360 cpu:               0.5 elap:               0.0
 (Enter /sw/contrib/gaussian/g16/B01/g16/l1110.exe)
 Forming Gx(P) for the SCF density, NAtomX=     5.
 Integral derivatives from FoFJK, PRISM(SPDF).
 Do as many integral derivatives as possible in FoFJK.
 G2DrvN: MDV=   16106126844.
 G2DrvN: will do     6 centers at a time, making    1 passes.
 Calling FoFCou, ICntrl=  3107 FMM=F I1Cent=   0 AccDes= 0.00D+00.
 FoFJK:  IHMeth= 1 ICntrl=    3107 DoSepK=F KAlg= 0 I1Cent=           0 FoldK=F
 IRaf=         0 NMat=       1 IRICut=       1 DoRegI=T DoRafI=F ISym2E= 1 IDoP0=0 IntGTp=1.
 FoFCou: FMM=F IPFlag=           0 FMFlag=      100000 FMFlg1=           0
         NFxFlg=           0 DoJE=F BraDBF=F KetDBF=F FulRan=T
         wScrn=  0.000000 ICntrl=      3107 IOpCl=  0 I1Cent=           0 NGrid=           0
         NMat0=    1 NMatS0=      1 NMatT0=    0 NMatD0=    1 NMtDS0=    0 NMtDT0=    0
 Petite list used in FoFCou.
 End of G2Drv F.D. properties file   721 does not exist.
 End of G2Drv F.D. properties file   722 does not exist.
 End of G2Drv F.D. properties file   788 does not exist.
 Leave Link 1110 at Mon Feb 21 20:05:39 2022, MaxMem= 16106127360 cpu:              83.3 elap:               3.0
 (Enter /sw/contrib/gaussian/g16/B01/g16/l1002.exe)
 Minotr:  Closed shell wavefunction.
          IDoAtm=11111
          Frozen-core window.
          Direct CPHF calculation.
          Differentiating once with respect to electric field.
                with respect to dipole field.
          Differentiating once with respect to nuclear coordinates.
          Requested convergence is 1.0D-08 RMS, and 1.0D-07 maximum.
          Secondary convergence is 1.0D-12 RMS, and 1.0D-12 maximum.
          NewPWx=T KeepS1=T KeepF1=T KeepIn=T MapXYZ=F SortEE=F KeepMc=T.
 Keep R1 ints in memory in symmetry-blocked form, NReq=348888983.
 FoFCou: FMM=F IPFlag=           0 FMFlag=           0 FMFlg1=           0
         NFxFlg=           0 DoJE=F BraDBF=F KetDBF=F FulRan=T
         wScrn=  0.000000 ICntrl=       600 IOpCl=  0 I1Cent=           0 NGrid=           0
         NMat0=    1 NMatS0=  21528 NMatT0=    0 NMatD0=    1 NMtDS0=    0 NMtDT0=    0
 Petite list used in FoFCou.
          MDV=   16106127360 using IRadAn=       1.
          Solving linear equations simultaneously, MaxMat=       0.
          There are    18 degrees of freedom in the 1st order CPHF.  IDoFFX=6 NUNeed=    18.
     15 vectors produced by pass  0 Test12= 1.70D-14 5.56D-09 XBig12= 8.41D+00 9.81D-01.
 AX will form    15 AO Fock derivatives at one time.
     15 vectors produced by pass  1 Test12= 1.70D-14 5.56D-09 XBig12= 1.36D+00 2.66D-01.
     15 vectors produced by pass  2 Test12= 1.70D-14 5.56D-09 XBig12= 1.43D-01 9.63D-02.
     15 vectors produced by pass  3 Test12= 1.70D-14 5.56D-09 XBig12= 4.99D-03 1.07D-02.
     15 vectors produced by pass  4 Test12= 1.70D-14 5.56D-09 XBig12= 9.92D-05 1.90D-03.
     15 vectors produced by pass  5 Test12= 1.70D-14 5.56D-09 XBig12= 1.41D-06 1.77D-04.
     15 vectors produced by pass  6 Test12= 1.70D-14 5.56D-09 XBig12= 1.11D-08 1.50D-05.
     12 vectors produced by pass  7 Test12= 1.70D-14 5.56D-09 XBig12= 8.21D-11 1.27D-06.
      3 vectors produced by pass  8 Test12= 1.70D-14 5.56D-09 XBig12= 5.79D-13 1.21D-07.
      2 vectors produced by pass  9 Test12= 1.70D-14 5.56D-09 XBig12= 3.80D-15 1.04D-08.
 InvSVY:  IOpt=1 It=  1 EMax= 8.88D-16
 Solved reduced A of dimension   122 with    15 vectors.
 FullF1:  Do perturbations      1 to      18.
 Saving first derivative matrices.
 End of Minotr F.D. properties file   721 does not exist.
 End of Minotr F.D. properties file   722 does not exist.
 End of Minotr F.D. properties file   788 does not exist.
 Leave Link 1002 at Mon Feb 21 20:05:42 2022, MaxMem= 16106127360 cpu:              84.4 elap:               3.1
 (Enter /sw/contrib/gaussian/g16/B01/g16/l811.exe)
 MDV= 16106127360.
 Form MO integral derivatives with frozen-active canonical formalism.
 MOERI=1 MOERIx=1 NAtoms=     5 NAtomX=     5.
 Discarding MO integrals.
 MO basis two electron integral derivatives will not be stored on disk.
 IAlg= 3 DoFC=T DoPWx=T Debug=F.
 Frozen-core window:  NFC=   4 NFV=   0.
 Reordered first order wavefunction length =     18678272
 In DefCFB: NBatch=  1 ICI= 16 ICA=191 LFMax= 96
            Large arrays: LIAPS=   619940160 LIARS=   288257200 words.
 In StABat: MaxSiz= 55 MinSiz= 25 NAtomB=  5
 DoIAMN: NPSUse= 28.
 Leave Link  811 at Mon Feb 21 20:07:02 2022, MaxMem= 16106127360 cpu:            2233.0 elap:              79.9
 (Enter /sw/contrib/gaussian/g16/B01/g16/l804.exe)
 Frozen-core window:  NFC=   4 NFV=   0.
 Closed-shell transformation, MDV= 16106127360 ITran=4 ISComp=1.
 Semi-Direct transformation.
 ModeAB=           2 MOrb=            16 LenV=   16104923065
 LASXX=     67341636 LTotXX=    67341636 LenRXX=    67341636
 LTotAB=    68301760 MaxLAS=    99807120 LenRXY=    99807120
 NonZer=   134683272 LenScr=   202817536 LnRSAI=           0
 LnScr1=           0 LExtra=           0 Total=    369966292
 MaxDsk=          -1 SrtSym=           F ITran=            4
 DoSDTr:  NPSUse= 28
 JobTyp=0 Pass  1:  I=   1 to  16.
 (rs|ai) integrals will be sorted in core.
 Complete sort for first half transformation.
 First half transformation complete.
 Begin second half transformation for I=  10.
 Begin second half transformation for I=  10.
 Complete sort for second half transformation.
 Second half transformation complete.
 Spin components of T(2) and E(2):
     alpha-alpha T2 =       0.3411455862D-01 E2=     -0.1224650651D+00
     alpha-beta  T2 =       0.1875427121D+00 E2=     -0.7008992006D+00
     beta-beta   T2 =       0.3411455862D-01 E2=     -0.1224650651D+00
 ANorm=    0.1584785051D+01
 E2 =    -0.9458293308D+00 EUMP2 =    -0.28044668559152D+03
 Leave Link  804 at Mon Feb 21 20:07:18 2022, MaxMem= 16106127360 cpu:             436.3 elap:              15.6
 (Enter /sw/contrib/gaussian/g16/B01/g16/l1002.exe)
 Minotr:  Closed shell wavefunction.
          Computing MP2/KS-MP2 derivatives.
          Using Z-Vector for PSCF gradient.
          Skipping F1 and S1 gradient terms here.
          IDoAtm=11111
          Frozen-core window.
          Using MO integrals in the linear equations.
          Forming densities via direct SCF.
          Differentiating once with respect to electric field.
                with respect to dipole field.
          Differentiating once with respect to nuclear coordinates.
          Using symmetry in CPHF.
          Requested convergence is 1.0D-10 RMS, and 1.0D-09 maximum.
          NewPWx=F KeepS1=T KeepF1=T KeepIn=T MapXYZ=F SortEE=F KeepMc=T.
          MDV=   16106127360 using IRadAn=       5.
          Solving linear equations separately, MaxMat=       0.
          There are     1 degrees of freedom in the 1st order CPHF.  IDoFFX=0 NUNeed=     1.
 FoFJK:  IHMeth= 1 ICntrl=       0 DoSepK=F KAlg= 0 I1Cent=           0 FoldK=F
 IRaf=         0 NMat=       1 IRICut=       1 DoRegI=T DoRafI=F ISym2E= 0 IDoP0=0 IntGTp=1.
 FoFCou: FMM=F IPFlag=           0 FMFlag=      100000 FMFlg1=           0
         NFxFlg=           0 DoJE=F BraDBF=F KetDBF=F FulRan=T
         wScrn=  0.000000 ICntrl=         0 IOpCl=  0 I1Cent=           0 NGrid=           0
         NMat0=    1 NMatS0=      1 NMatT0=    0 NMatD0=    1 NMtDS0=    0 NMtDT0=    0
 Symmetry not used in FoFCou.
 LinEq1:  Iter=  0 NonCon=     1 RMS=5.97D-03 Max=1.33D-01 NDo=     1
 LinEq1:  Iter=  1 NonCon=     1 RMS=1.91D-03 Max=3.81D-02 NDo=     1
 LinEq1:  Iter=  2 NonCon=     1 RMS=8.70D-04 Max=1.42D-02 NDo=     1
 LinEq1:  Iter=  3 NonCon=     1 RMS=3.87D-04 Max=7.77D-03 NDo=     1
 LinEq1:  Iter=  4 NonCon=     1 RMS=1.19D-04 Max=1.89D-03 NDo=     1
 LinEq1:  Iter=  5 NonCon=     1 RMS=4.46D-05 Max=7.08D-04 NDo=     1
 LinEq1:  Iter=  6 NonCon=     1 RMS=2.02D-05 Max=2.15D-04 NDo=     1
 LinEq1:  Iter=  7 NonCon=     1 RMS=8.17D-06 Max=1.52D-04 NDo=     1
 LinEq1:  Iter=  8 NonCon=     1 RMS=3.49D-06 Max=3.41D-05 NDo=     1
 LinEq1:  Iter=  9 NonCon=     1 RMS=9.51D-07 Max=1.33D-05 NDo=     1
 LinEq1:  Iter= 10 NonCon=     1 RMS=1.87D-07 Max=2.05D-06 NDo=     1
 LinEq1:  Iter= 11 NonCon=     1 RMS=3.48D-08 Max=3.40D-07 NDo=     1
 LinEq1:  Iter= 12 NonCon=     1 RMS=8.44D-09 Max=1.18D-07 NDo=     1
 LinEq1:  Iter= 13 NonCon=     1 RMS=1.55D-09 Max=2.33D-08 NDo=     1
 LinEq1:  Iter= 14 NonCon=     1 RMS=2.81D-10 Max=3.94D-09 NDo=     1
 LinEq1:  Iter= 15 NonCon=     0 RMS=5.08D-11 Max=5.41D-10 NDo=     1
 Linear equations converged to 1.000D-10 1.000D-09 after    15 iterations.
 End of Minotr F.D. properties file   721 does not exist.
 End of Minotr F.D. properties file   722 does not exist.
 End of Minotr F.D. properties file   788 does not exist.
 Leave Link 1002 at Mon Feb 21 20:07:20 2022, MaxMem= 16106127360 cpu:              65.6 elap:               2.4
 (Enter /sw/contrib/gaussian/g16/B01/g16/l1102.exe)
 Use density number 2.
 Symmetrizing basis deriv contribution to polar:
 IMax=3 JMax=2 DiffMx= 0.00D+00
 Leave Link 1102 at Mon Feb 21 20:07:20 2022, MaxMem= 16106127360 cpu:               0.7 elap:               0.1
 (Enter /sw/contrib/gaussian/g16/B01/g16/l1110.exe)
 Forming Gx(P) for generalized density number  2 NAtomX=     5.
 Integral derivatives from FoFJK, PRISM(SPDF).
 Do as many integral derivatives as possible in FoFJK.
 G2DrvN: MDV=   16106126844.
 G2DrvN: will do     6 centers at a time, making    1 passes.
 Calling FoFCou, ICntrl=  3107 FMM=F I1Cent=   0 AccDes= 0.00D+00.
 FoFJK:  IHMeth= 1 ICntrl=    3107 DoSepK=F KAlg= 0 I1Cent=           0 FoldK=F
 IRaf=         0 NMat=       1 IRICut=       1 DoRegI=T DoRafI=F ISym2E= 1 IDoP0=0 IntGTp=1.
 FoFCou: FMM=F IPFlag=           0 FMFlag=      100000 FMFlg1=           0
         NFxFlg=           0 DoJE=F BraDBF=F KetDBF=F FulRan=T
         wScrn=  0.000000 ICntrl=      3107 IOpCl=  0 I1Cent=           0 NGrid=           0
         NMat0=    1 NMatS0=      1 NMatT0=    0 NMatD0=    1 NMtDS0=    0 NMtDT0=    0
 Petite list used in FoFCou.
 End of G2Drv F.D. properties file   721 does not exist.
 End of G2Drv F.D. properties file   722 does not exist.
 End of G2Drv F.D. properties file   788 does not exist.
 Leave Link 1110 at Mon Feb 21 20:07:24 2022, MaxMem= 16106127360 cpu:              85.0 elap:               3.1
 (Enter /sw/contrib/gaussian/g16/B01/g16/l1112.exe)
 MP22nd: MDV=   16106127360
 This link is doing NAtomX=     5 total of    18 degrees of freedom.
 Using ON3 I/O method in MakUI.
 Frozen-core window:  NFC=   4 NFV=   0.
 Using Ix for Sx.
 Use MO integrals over full window.
 Using OV2 memory method for fx*t*t/D, MaxI=    16 DoOO2=F NP=  28.
 R2 and R3 integrals will be kept in memory, NReq=   915591705.
 FoFCou: FMM=F IPFlag=           0 FMFlag=           0 FMFlg1=           0
         NFxFlg=           0 DoJE=F BraDBF=F KetDBF=F FulRan=T
         wScrn=  0.000000 ICntrl=       600 IOpCl=  0 I1Cent=           0 NGrid=           0
         NMat0=    1 NMatS0=      1 NMatT0=    0 NMatD0=    1 NMtDS0=    0 NMtDT0=    0
 Symmetry not used in FoFCou.
 DD1Dir will call FoFMem   1 times, MxPair=       272
 NAB=   136 NAA=     0 NBB=     0.
 Symmetry is being used.
 FoFJK:  IHMeth= 1 ICntrl=       0 DoSepK=F KAlg= 0 I1Cent=           0 FoldK=F
 IRaf=         0 NMat=      18 IRICut=      45 DoRegI=T DoRafI=T ISym2E= 2 IDoP0=3 IntGTp=3.
 Discarding MO integrals.
 Leave Link 1112 at Mon Feb 21 20:07:54 2022, MaxMem= 16106127360 cpu:             849.4 elap:              30.6
 (Enter /sw/contrib/gaussian/g16/B01/g16/l601.exe)
 Copying SCF densities to generalized density rwf, IOpCl= 0 IROHF=0.

 **********************************************************************

            Population analysis using the MP2 Density.

 **********************************************************************

 Orbital symmetries:
       Occupied  (A') (A') (A') (A') (A') (A') (A') (A') (A') (A')
                 (A") (A') (A") (A') (A") (A')
       Virtual   (A') (A") (A') (A') (A') (A") (A') (A') (A") (A')
                 (A") (A') (A') (A') (A") (A') (A') (A") (A') (A')
                 (A') (A') (A') (A') (A") (A') (A') (A") (A') (A')
                 (A") (A') (A") (A') (A') (A") (A') (A') (A") (A')
                 (A") (A') (A") (A') (A') (A") (A') (A') (A") (A')
                 (A") (A') (A') (A') (A") (A') (A") (A') (A") (A')
                 (A') (A') (A") (A') (A') (A") (A') (A") (A') (A')
                 (A") (A') (A') (A") (A") (A') (A') (A") (A') (A')
                 (A') (A") (A') (A") (A') (A") (A') (A") (A') (A')
                 (A") (A') (A') (A") (A') (A") (A') (A") (A') (A')
                 (A") (A') (A") (A') (A') (A") (A') (A') (A") (A')
                 (A") (A') (A') (A') (A") (A') (A') (A') (A") (A')
                 (A") (A') (A") (A') (A') (A") (A") (A') (A") (A')
                 (A') (A') (A') (A") (A") (A") (A') (A') (A') (A')
                 (A") (A') (A") (A') (A') (A") (A') (A') (A') (A')
                 (A") (A') (A') (A") (A') (A") (A') (A") (A') (A")
                 (A') (A") (A') (A") (A') (A") (A") (A') (A") (A')
                 (A") (A') (A") (A') (A") (A') (A") (A") (A') (A')
                 (A') (A') (A') (A') (A') (A') (A') (A') (A') (A')
                 (A')
 The electronic state is 1-A'.
 Alpha  occ. eigenvalues --  -20.69142 -20.68446 -20.66080 -15.81302  -1.62376
 Alpha  occ. eigenvalues --   -1.49200  -1.25610  -0.94794  -0.77179  -0.75842
 Alpha  occ. eigenvalues --   -0.71095  -0.67937  -0.61955  -0.58810  -0.48692
 Alpha  occ. eigenvalues --   -0.47271
 Alpha virt. eigenvalues --    0.02961   0.07166   0.08570   0.10167   0.13347
 Alpha virt. eigenvalues --    0.13397   0.14403   0.15449   0.17828   0.19426
 Alpha virt. eigenvalues --    0.19985   0.20626   0.21923   0.23182   0.23730
 Alpha virt. eigenvalues --    0.26598   0.29336   0.30380   0.31024   0.34288
 Alpha virt. eigenvalues --    0.34937   0.38708   0.42154   0.43149   0.52718
 Alpha virt. eigenvalues --    0.52905   0.55834   0.58138   0.62577   0.63836
 Alpha virt. eigenvalues --    0.67452   0.68457   0.70561   0.71141   0.72360
 Alpha virt. eigenvalues --    0.72963   0.74475   0.79089   0.79194   0.81032
 Alpha virt. eigenvalues --    0.81254   0.82993   0.86813   0.90734   0.92178
 Alpha virt. eigenvalues --    0.92551   0.95698   0.97703   0.98401   1.01643
 Alpha virt. eigenvalues --    1.05133   1.05503   1.08147   1.11663   1.13978
 Alpha virt. eigenvalues --    1.18884   1.22077   1.23197   1.33859   1.34988
 Alpha virt. eigenvalues --    1.38613   1.45318   1.48795   1.50963   1.53747
 Alpha virt. eigenvalues --    1.56618   1.57913   1.61267   1.66256   1.66908
 Alpha virt. eigenvalues --    1.70313   1.79197   1.83061   1.83451   1.87735
 Alpha virt. eigenvalues --    1.90932   1.95607   1.99100   2.00670   2.07716
 Alpha virt. eigenvalues --    2.11888   2.13187   2.14796   2.22399   2.26255
 Alpha virt. eigenvalues --    2.26401   2.28901   2.31330   2.34134   2.38723
 Alpha virt. eigenvalues --    2.42289   2.42733   2.45347   2.46297   2.47556
 Alpha virt. eigenvalues --    2.50031   2.58826   2.59533   2.61811   2.62311
 Alpha virt. eigenvalues --    2.63190   2.66451   2.75691   2.82425   2.85300
 Alpha virt. eigenvalues --    2.87955   2.88926   2.92102   2.95574   3.01872
 Alpha virt. eigenvalues --    3.06825   3.12363   3.19295   3.22361   3.31327
 Alpha virt. eigenvalues --    3.34508   3.51365   3.64187   3.83832   3.84221
 Alpha virt. eigenvalues --    4.14699   4.15990   4.18231   4.25644   4.34936
 Alpha virt. eigenvalues --    4.39109   4.45431   4.52063   4.66040   4.70560
 Alpha virt. eigenvalues --    4.80420   4.82443   4.82962   4.89495   5.02251
 Alpha virt. eigenvalues --    5.07714   5.10146   5.14456   5.17869   5.24121
 Alpha virt. eigenvalues --    5.27208   5.30798   5.32829   5.35287   5.60097
 Alpha virt. eigenvalues --    5.67348   5.76679   5.81233   5.95394   6.16655
 Alpha virt. eigenvalues --    6.32367   6.33683   6.39659   6.49436   6.50552
 Alpha virt. eigenvalues --    6.61596   6.67418   6.70067   6.75841   6.75920
 Alpha virt. eigenvalues --    6.83236   6.89744   7.00581   7.04363   7.04934
 Alpha virt. eigenvalues --    7.08319   7.12320   7.14335   7.17846   7.22257
 Alpha virt. eigenvalues --    7.23920   7.30561   7.32483   7.34739   7.39709
 Alpha virt. eigenvalues --    7.41978   7.48357   7.60094   7.61457   7.62229
 Alpha virt. eigenvalues --    7.66229   7.77972   7.88451   8.07719   8.30216
 Alpha virt. eigenvalues --    8.39889   8.54444  13.36312  14.38167  15.15120
 Alpha virt. eigenvalues --   16.15121
          Condensed to atoms (all electrons):
               1          2          3          4          5
     1  H    0.588912   0.128143   0.020551   0.012202  -0.000612
     2  O    0.128143   8.310215  -0.161969  -0.088868   0.015202
     3  O    0.020551  -0.161969   8.458492  -0.131018  -0.038395
     4  N    0.012202  -0.088868  -0.131018   6.970585  -0.055425
     5  O   -0.000612   0.015202  -0.038395  -0.055425   8.272173
 Mulliken charges:
               1
     1  H    0.250804
     2  O   -0.202723
     3  O   -0.147661
     4  N    0.292524
     5  O   -0.192943
 Sum of Mulliken charges =  -0.00000
 Mulliken charges with hydrogens summed into heavy atoms:
               1
     2  O    0.048081
     3  O   -0.147661
     4  N    0.292524
     5  O   -0.192943
 APT charges:
               1
     1  H    0.298541
     2  O   -0.288728
     3  O   -0.495674
     4  N    0.877164
     5  O   -0.391304
 Sum of APT charges =  -0.00000
 APT charges with hydrogens summed into heavy atoms:
               1
     2  O    0.009814
     3  O   -0.495674
     4  N    0.877164
     5  O   -0.391304
 Electronic spatial extent (au):  <R**2>=            253.8078
 Charge=             -0.0000 electrons
 Dipole moment (field-independent basis, Debye):
    X=              0.5100    Y=              1.3523    Z=              0.0000  Tot=              1.4453
 Quadrupole moment (field-independent basis, Debye-Ang):
   XX=            -22.4167   YY=            -18.6507   ZZ=            -22.0236
   XY=              3.2859   XZ=             -0.0000   YZ=             -0.0000
 Traceless Quadrupole moment (field-independent basis, Debye-Ang):
   XX=             -1.3864   YY=              2.3796   ZZ=             -0.9933
   XY=              3.2859   XZ=             -0.0000   YZ=             -0.0000
 Octapole moment (field-independent basis, Debye-Ang**2):
  XXX=              2.9999  YYY=             11.1691  ZZZ=             -0.0000  XYY=              7.9205
  XXY=              6.6743  XXZ=              0.0000  XZZ=             -1.5973  YZZ=             -0.8610
  YYZ=              0.0000  XYZ=              0.0000
 Hexadecapole moment (field-independent basis, Debye-Ang**3):
 XXXX=           -159.8842 YYYY=            -89.3135 ZZZZ=            -18.2671 XXXY=            -36.4671
 XXXZ=             -0.0000 YYYX=            -30.7845 YYYZ=             -0.0000 ZZZX=             -0.0000
 ZZZY=             -0.0000 XXYY=            -33.9761 XXZZ=            -31.1739 YYZZ=            -20.5678
 XXYZ=             -0.0000 YYXZ=             -0.0000 ZZXY=            -15.0750
 N-N= 1.166379426977D+02 E-N=-8.953802695358D+02  KE= 2.801843169168D+02
 Symmetry A'   KE= 2.662183060362D+02
 Symmetry A"   KE= 1.396601088058D+01
  Exact polarizability:  34.234   9.487  30.214   0.000   0.000  17.959
 Approx polarizability:  29.288   5.098  23.499   0.000   0.000  15.537
 No NMR shielding tensors so no spin-rotation constants.
 Leave Link  601 at Mon Feb 21 20:07:54 2022, MaxMem= 16106127360 cpu:               4.3 elap:               0.2
 (Enter /sw/contrib/gaussian/g16/B01/g16/l701.exe)
 ... and contract with generalized density number  2.
 Compute integral second derivatives.
 Leave Link  701 at Mon Feb 21 20:07:55 2022, MaxMem= 16106127360 cpu:               5.5 elap:               0.2
 (Enter /sw/contrib/gaussian/g16/B01/g16/l702.exe)
 L702 exits ... SP integral derivatives will be done elsewhere.
 Leave Link  702 at Mon Feb 21 20:07:55 2022, MaxMem= 16106127360 cpu:               0.9 elap:               0.1
 (Enter /sw/contrib/gaussian/g16/B01/g16/l703.exe)
 Integral derivatives from FoFJK, PRISM(SPDF).
 Compute integral second derivatives, UseDBF=F ICtDFT=           0.
 Calling FoFJK, ICntrl=  10100127 FMM=F ISym2X=1 I1Cent= 0 IOpClX= 0 NMat=1 NMatS=1 NMatT=0.
 FoFJK:  IHMeth= 1 ICntrl=10100127 DoSepK=F KAlg= 0 I1Cent=           0 FoldK=F
 IRaf=         0 NMat=       1 IRICut=       1 DoRegI=T DoRafI=F ISym2E= 1 IDoP0=0 IntGTp=1.
 FoFCou: FMM=F IPFlag=           0 FMFlag=      100000 FMFlg1=         800
         NFxFlg=           0 DoJE=F BraDBF=F KetDBF=F FulRan=T
         wScrn=  0.000000 ICntrl=  10100127 IOpCl=  0 I1Cent=           0 NGrid=           0
         NMat0=    1 NMatS0=      1 NMatT0=    0 NMatD0=    1 NMtDS0=    0 NMtDT0=    0
 Petite list used in FoFCou.
 Leave Link  703 at Mon Feb 21 20:08:10 2022, MaxMem= 16106127360 cpu:             425.2 elap:              15.2
 (Enter /sw/contrib/gaussian/g16/B01/g16/l716.exe)
 Dipole        = 2.00658138D-01 5.32026395D-01 2.29964132D-33
 Polarizability= 3.42344649D+01 9.48705343D+00 3.02142350D+01
                 2.75208597D-31 5.38569284D-31 1.79590982D+01
 Full mass-weighted force constant matrix:
 Low frequencies --- -272.9143  -19.2151   -0.0013   -0.0012   -0.0008   29.7917
 Low frequencies ---   47.1564  232.6005  342.7205
 ******    1 imaginary frequencies (negative Signs) ****** 
 Diagonal vibrational polarizability:
       14.3454120      25.0203095      45.4134814
 Harmonic frequencies (cm**-1), IR intensities (KM/Mole), Raman scattering
 activities (A**4/AMU), depolarization ratios for plane and unpolarized
 incident light, reduced masses (AMU), force constants (mDyne/A),
 and normal coordinates:
                      1                      2                      3
                     A"                     A"                     A'
 Frequencies --   -272.7905               232.1768               342.6777
 Red. masses --      1.1404                10.3907                 8.6749
 Frc consts  --      0.0500                 0.3300                 0.6002
 IR Inten    --    124.3933                 0.8575                 3.3545
  Atom  AN      X      Y      Z        X      Y      Z        X      Y      Z
     1   1     0.00   0.00   1.00     0.00  -0.00  -0.58     0.53  -0.45   0.00
     2   8     0.00   0.00  -0.07     0.00  -0.00  -0.30    -0.10  -0.38   0.00
     3   8     0.00   0.00  -0.04     0.00   0.00   0.32    -0.15   0.42  -0.00
     4   7    -0.00  -0.00   0.06    -0.00   0.00   0.52     0.05   0.27  -0.00
     5   8    -0.00  -0.00  -0.01     0.00  -0.00  -0.44     0.17  -0.25   0.00
                      4                      5                      6
                     A'                     A'                     A'
 Frequencies --    448.8529               779.0911               948.3871
 Red. masses --     12.2306                13.0515                15.1074
 Frc consts  --      1.4518                 4.6675                 8.0059
 IR Inten    --    199.4725               166.8018                28.1340
  Atom  AN      X      Y      Z        X      Y      Z        X      Y      Z
     1   1     0.43   0.18   0.00    -0.33   0.19  -0.00    -0.22  -0.02   0.00
     2   8     0.32   0.19   0.00     0.45   0.08   0.00    -0.49   0.04   0.00
     3   8     0.17   0.45  -0.00    -0.10  -0.27  -0.00     0.74  -0.04  -0.00
     4   7    -0.35  -0.39  -0.00    -0.13   0.61  -0.00    -0.13   0.28  -0.00
     5   8    -0.21  -0.31   0.00    -0.21  -0.36   0.00    -0.13  -0.24   0.00
                      7                      8                      9
                     A'                     A'                     A'
 Frequencies --   1360.5611              1676.8503              3779.6080
 Red. masses --      1.1328                13.3135                 1.0676
 Frc consts  --      1.2355                22.0562                 8.9858
 IR Inten    --    152.0529               141.0774                82.0710
  Atom  AN      X      Y      Z        X      Y      Z        X      Y      Z
     1   1     0.99  -0.05   0.00    -0.33   0.01  -0.00     0.11   0.99  -0.00
     2   8    -0.03   0.05   0.00    -0.00  -0.04  -0.00    -0.01  -0.06  -0.00
     3   8    -0.02  -0.05  -0.00     0.00   0.15   0.00     0.00   0.00   0.00
     4   7     0.02   0.01  -0.00     0.71  -0.06   0.00    -0.00  -0.00   0.00
     5   8    -0.03  -0.01   0.00    -0.60  -0.06  -0.00     0.00   0.00  -0.00

 -------------------
 - Thermochemistry -
 -------------------
 Temperature   298.150 Kelvin.  Pressure   1.00000 Atm.
 Atom     1 has atomic number  1 and mass   1.00783
 Atom     2 has atomic number  8 and mass  15.99491
 Atom     3 has atomic number  8 and mass  15.99491
 Atom     4 has atomic number  7 and mass  14.00307
 Atom     5 has atomic number  8 and mass  15.99491
 Molecular mass:    62.99564 amu.
 Principal axes and moments of inertia in atomic units:
                           1         2         3
     Eigenvalues --    32.98002 361.75838 394.73839
           X            0.81362  -0.58139   0.00000
           Y            0.58139   0.81362   0.00000
           Z           -0.00000   0.00000   1.00000
 This molecule is an asymmetric top.
 Rotational symmetry number  1.
 Rotational temperatures (Kelvin)      2.62625     0.23942     0.21942
 Rotational constants (GHZ):          54.72226     4.98880     4.57199
    1 imaginary frequencies ignored.
 Zero-point vibrational energy      57230.6 (Joules/Mol)
                                   13.67844 (Kcal/Mol)
 Warning -- explicit consideration of   3 degrees of freedom as
           vibrations may cause significant error
 Vibrational temperatures:    334.05   493.04   645.80  1120.94  1364.52
          (Kelvin)           1957.54  2412.61  5438.01
 
 Zero-point correction=                           0.021798 (Hartree/Particle)
 Thermal correction to Energy=                    0.025917
 Thermal correction to Enthalpy=                  0.026862
 Thermal correction to Gibbs Free Energy=        -0.004325
 Sum of electronic and zero-point Energies=           -280.424888
 Sum of electronic and thermal Energies=              -280.420768
 Sum of electronic and thermal Enthalpies=            -280.419824
 Sum of electronic and thermal Free Energies=         -280.451011
 
                     E (Thermal)             CV                S
                      KCal/Mol        Cal/Mol-Kelvin    Cal/Mol-Kelvin
 Total                   16.263             11.991             65.638
 Electronic               0.000              0.000              0.000
 Translational            0.889              2.981             38.341
 Rotational               0.889              2.981             23.070
 Vibrational             14.486              6.029              4.228
 Vibration     1          0.653              1.792              1.862
 Vibration     2          0.722              1.590              1.200
 Vibration     3          0.808              1.363              0.799
                       Q            Log10(Q)             Ln(Q)
 Total Bot       0.975917D+02          1.989413          4.580792
 Total V=0       0.103699D+13         12.015776         27.667347
 Vib (Bot)       0.202143D-09         -9.694342        -22.322047
 Vib (Bot)    1  0.847500D+00         -0.071860         -0.165465
 Vib (Bot)    2  0.540945D+00         -0.266847         -0.614438
 Vib (Bot)    3  0.382412D+00         -0.417469         -0.961258
 Vib (V=0)       0.214794D+01          0.332022          0.764508
 Vib (V=0)    1  0.148400D+01          0.171434          0.394741
 Vib (V=0)    2  0.123663D+01          0.092239          0.212389
 Vib (V=0)    3  0.112947D+01          0.052877          0.121753
 Electronic      0.100000D+01          0.000000          0.000000
 Translational   0.196526D+08          7.293420         16.793719
 Rotational      0.245660D+05          4.390335         10.109120
 
                                                                title
                                                             IR Spectrum
 
     3                                                                      1          1                                             
     7                                                                      6          3             9    7          4   3   2       
     8                                                                      7          6             4    7          4   4   3       
     0                                                                      7          1             8    9          9   3   2       
 
     X                                                                      X          X             X    X          X   X   X       
     X                                                                      X          X             X    X          X               
     X                                                                      X          X             X    X          X               
     X                                                                      X          X                  X          X               
     X                                                                      X          X                  X          X               
     X                                                                      X          X                  X          X               
     X                                                                      X          X                  X          X               
     X                                                                      X          X                  X          X               
                                                                            X          X                  X          X               
                                                                            X          X                  X          X               
                                                                            X          X                  X          X               
                                                                            X          X                  X          X               
                                                                            X          X                  X          X               
                                                                            X          X                  X          X               
                                                                                       X                  X          X               
                                                                                                          X          X               
                                                                                                          X          X               
                                                                                                                     X               
                                                                                                                     X               
                                                                                                                     X               
 
 ***** Axes restored to original set *****
 -------------------------------------------------------------------
 Center     Atomic                   Forces (Hartrees/Bohr)
 Number     Number              X              Y              Z
 -------------------------------------------------------------------
      1        1           0.000698232    0.000000000   -0.000187017
      2        8           0.004314184    0.000000000    0.001722453
      3        8          -0.004342736   -0.000000000   -0.001458483
      4        7          -0.001021232   -0.000000000    0.000170117
      5        8           0.000351552    0.000000000   -0.000247071
 -------------------------------------------------------------------
 Cartesian Forces:  Max     0.004342736 RMS     0.001719390
 -----------------------------------------------------------------------------------------------
                       Internal Coordinate Forces (Hartree/Bohr or radian)
  Cent   Atom   N1       Length/X         N2         Alpha/Y        N3         Beta/Z          J
 -----------------------------------------------------------------------------------------------
      1  H 
      2  O        1   0.000187(     1)
      3  O        2  -0.005171(     2)      1  -0.001279(     5)
      4  N        3  -0.000132(     3)      2  -0.001100(     6)      1   0.000000(     8)     0
      5  O        4   0.000279(     4)      3  -0.000723(     7)      2   0.000000(     9)     0
 -----------------------------------------------------------------------------------------------
 Internal  Forces:  Max     0.005171380 RMS     0.001833033
 Force constants in Cartesian coordinates: 
                1             2             3             4             5 
      1  0.636406D-01
      2  0.000000D+00 -0.243955D-02
      3  0.470990D-02  0.000000D+00  0.512588D+00
      4 -0.359080D-01  0.000000D+00 -0.158939D-01  0.259617D+00
      5  0.000000D+00  0.334263D-02  0.000000D+00  0.000000D+00  0.325289D-02
      6  0.477663D-01  0.000000D+00 -0.509010D+00  0.300770D-01  0.000000D+00
      7 -0.172601D-01  0.000000D+00  0.126752D-01 -0.207844D+00  0.000000D+00
      8  0.000000D+00  0.734896D-03  0.000000D+00  0.000000D+00 -0.781570D-02
      9 -0.520361D-01  0.000000D+00 -0.172204D-03 -0.166401D-01  0.000000D+00
     10 -0.928982D-02  0.000000D+00 -0.478371D-02 -0.165669D-01  0.000000D+00
     11  0.000000D+00 -0.264094D-02  0.000000D+00  0.000000D+00 -0.508002D-02
     12  0.526959D-02  0.000000D+00 -0.483406D-02  0.114178D-01  0.000000D+00
     13 -0.118273D-02  0.000000D+00  0.329251D-02  0.701507D-03  0.000000D+00
     14  0.000000D+00  0.100296D-02  0.000000D+00  0.000000D+00  0.630020D-02
     15 -0.570968D-02  0.000000D+00  0.142870D-02 -0.896079D-02  0.000000D+00
                6             7             8             9            10 
      6  0.594266D+00
      7 -0.184952D-01  0.327829D+00
      8  0.000000D+00  0.000000D+00  0.556510D-02
      9 -0.782477D-01  0.324269D-01  0.000000D+00  0.180394D+00
     10 -0.513206D-01 -0.774685D-01  0.000000D+00  0.174711D+00  0.827411D+00
     11  0.000000D+00  0.000000D+00  0.871226D-02  0.000000D+00  0.000000D+00
     12  0.173775D-01  0.637096D-01  0.000000D+00 -0.815645D-01 -0.187224D-01
     13 -0.802749D-02 -0.252563D-01  0.000000D+00 -0.138462D+00 -0.724086D+00
     14  0.000000D+00  0.000000D+00 -0.719655D-02  0.000000D+00  0.000000D+00
     15 -0.243854D-01 -0.903165D-01  0.000000D+00 -0.204095D-01 -0.998846D-01
               11            12            13            14            15 
     11  0.830980D-02
     12  0.000000D+00  0.185981D+00
     13  0.000000D+00 -0.616745D-01  0.749823D+00
     14 -0.930110D-02  0.000000D+00  0.000000D+00  0.919449D-02
     15  0.000000D+00 -0.116960D+00  0.204872D+00  0.000000D+00  0.160326D+00
 Force constants in internal coordinates: 
                1             2             3             4             5 
      1  0.512588D+00
      2 -0.106131D-01  0.266067D+00
      3  0.351614D-02  0.217875D-02  0.116518D+00
      4 -0.354405D-02  0.542947D-02  0.153156D+00  0.812019D+00
      5  0.932254D-02  0.630357D-01  0.237539D-02  0.469214D-02  0.213725D+00
      6  0.458184D-02  0.568968D-01  0.397209D-01  0.220139D-01  0.312844D-01
      7 -0.125451D-02  0.370628D-01  0.315724D-01  0.842757D-01  0.212192D-01
      8  0.000000D+00  0.000000D+00  0.000000D+00  0.000000D+00  0.000000D+00
      9  0.000000D+00  0.000000D+00  0.000000D+00  0.000000D+00  0.000000D+00
                6             7             8             9 
      6  0.277714D+00
      7  0.952088D-01  0.480918D+00
      8  0.000000D+00  0.000000D+00 -0.753212D-02
      9  0.000000D+00  0.000000D+00 -0.380578D-02  0.409739D-01
 Leave Link  716 at Mon Feb 21 20:08:10 2022, MaxMem= 16106127360 cpu:               0.9 elap:               0.1
 (Enter /sw/contrib/gaussian/g16/B01/g16/l103.exe)

 GradGradGradGradGradGradGradGradGradGradGradGradGradGradGradGradGradGrad
 Berny optimization.
 Search for a local minimum.
 Step number   1 out of a maximum of    2
 All quantities printed in internal units (Hartrees-Bohrs-Radians)
 Second derivative matrix not updated -- analytic derivatives used.
 The second derivative matrix:
                          r1        r2        r3        r4        a1
           r1           0.51259
           r2          -0.01061   0.26607
           r3           0.00352   0.00218   0.11652
           r4          -0.00354   0.00543   0.15316   0.81202
           a1           0.00932   0.06304   0.00238   0.00469   0.21373
           a2           0.00458   0.05690   0.03972   0.02201   0.03128
           a3          -0.00125   0.03706   0.03157   0.08428   0.02122
           d1           0.00000  -0.00000  -0.00000  -0.00000  -0.00000
           d2          -0.00000   0.00000   0.00000   0.00000   0.00000
                          a2        a3        d1        d2
           a2           0.27771
           a3           0.09521   0.48092
           d1          -0.00000  -0.00000  -0.00753
           d2          -0.00000  -0.00000  -0.00381   0.04097
 ITU=  0
     Eigenvalues ---   -0.00783   0.04127   0.07786   0.17071   0.22001
     Eigenvalues ---    0.31430   0.51265   0.51364   0.87038
 Eigenvalue     1 is  -7.83D-03 should be greater than     0.000000 Eigenvector:
                          d1        d2        a3        a2        r3
   1                    0.99697   0.07775   0.00000   0.00000  -0.00000
                          r4        a1        r2        r1
   1                    0.00000  -0.00000   0.00000  -0.00000
 Angle between quadratic step and forces=  19.93 degrees.
 Linear search not attempted -- first point.
 Variable       Old X    -DE/DX   Delta X   Delta X   Delta X     New X
                                 (Linear)    (Quad)   (Total)
    r1        1.83110   0.00019   0.00000  -0.00002  -0.00002   1.83108
    r2        2.76740  -0.00517   0.00000  -0.01942  -0.01942   2.74797
    r3        2.75670  -0.00013   0.00000  -0.00194  -0.00194   2.75476
    r4        2.21236   0.00028   0.00000   0.00084   0.00084   2.21320
    a1        1.70335  -0.00128   0.00000  -0.00028  -0.00028   1.70307
    a2        1.78543  -0.00110   0.00000   0.00029   0.00029   1.78571
    a3        1.90362  -0.00072   0.00000  -0.00007  -0.00007   1.90355
    d1        3.14159   0.00000   0.00000  -0.00000   0.00000   3.14159
    d2        3.14159   0.00000   0.00000   0.00000   0.00000   3.14159
         Item               Value     Threshold  Converged?
 Maximum Force            0.005171     0.000450     NO 
 RMS     Force            0.001833     0.000300     NO 
 Maximum Displacement     0.019422     0.001800     NO 
 RMS     Displacement     0.006514     0.001200     NO 
 Predicted change in Energy=-5.051380D-05
                       ----------------------------
                       ! Non-Optimized Parameters !
                       ! (Angstroms and Degrees)  !
 ----------------------                            ----------------------
 !      Name          Value   Derivative information (Atomic Units)     !
 ------------------------------------------------------------------------
 !       r1          0.969    -DE/DX =    0.0002                        !
 !       r2          1.4542   -DE/DX =   -0.0052                        !
 !       r3          1.4578   -DE/DX =   -0.0001                        !
 !       r4          1.1712   -DE/DX =    0.0003                        !
 !       a1         97.5786   -DE/DX =   -0.0013                        !
 !       a2        102.3139   -DE/DX =   -0.0011                        !
 !       a3        109.0656   -DE/DX =   -0.0007                        !
 !       d1        180.0      -DE/DX =    0.0                           !
 !       d2        180.0      -DE/DX =    0.0                           !
 ------------------------------------------------------------------------
 GradGradGradGradGradGradGradGradGradGradGradGradGradGradGradGradGradGrad

 Leave Link  103 at Mon Feb 21 20:08:10 2022, MaxMem= 16106127360 cpu:               2.1 elap:               0.1
 (Enter /sw/contrib/gaussian/g16/B01/g16/l9999.exe)

 ----------------------------------------------------------------------

 Electric dipole moment (input orientation):
 (Debye = 10**-18 statcoulomb cm , SI units = C m)
                  (au)            (Debye)         (10**-30 SI)
   Tot        0.568609D+00      0.144526D+01      0.482086D+01
   x         -0.145317D+00     -0.369359D+00     -0.123205D+01
   y          0.000000D+00      0.000000D+00      0.000000D+00
   z         -0.549726D+00     -0.139726D+01     -0.466077D+01

 Dipole polarizability, Alpha (input orientation).
 (esu units = cm**3 , SI units = C**2 m**2 J**-1)
 Alpha(0;0):
               (au)            (10**-24 esu)      (10**-40 SI)
   iso        0.274693D+02      0.407053D+01      0.452907D+01
   aniso      0.220371D+02      0.326555D+01      0.363342D+01
   xx         0.322664D+02      0.478139D+01      0.532001D+01
   yx         0.000000D+00      0.000000D+00      0.000000D+00
   yy         0.179591D+02      0.266126D+01      0.296106D+01
   zx         0.969758D+01      0.143703D+01      0.159891D+01
   zy         0.000000D+00      0.000000D+00      0.000000D+00
   zz         0.321823D+02      0.476893D+01      0.530615D+01

 ----------------------------------------------------------------------

 Dipole orientation:
     1          0.00000000          0.00000000         -0.00000000
     8         -0.46796706          0.00000000         -1.77029045
     8          2.09058003          0.00000000         -2.82495681
     7          1.60692977          0.00000000         -5.53890048
     8          3.53863227          0.00000000         -6.61734773

 Electric dipole moment (dipole orientation):
 (Debye = 10**-18 statcoulomb cm , SI units = C m)
                  (au)            (Debye)         (10**-30 SI)
   Tot        0.568609D+00      0.144526D+01      0.482086D+01
   x          0.000000D+00      0.000000D+00      0.000000D+00
   y          0.000000D+00      0.000000D+00      0.000000D+00
   z          0.568609D+00      0.144526D+01      0.482086D+01

 Dipole polarizability, Alpha (dipole orientation).
 (esu units = cm**3 , SI units = C**2 m**2 J**-1)
 Alpha(0;0):
               (au)            (10**-24 esu)      (10**-40 SI)
   iso        0.274693D+02      0.407053D+01      0.452907D+01
   aniso      0.220371D+02      0.326555D+01      0.363342D+01
   xx         0.274688D+02      0.407045D+01      0.452899D+01
   yx         0.000000D+00      0.000000D+00      0.000000D+00
   yy         0.179591D+02      0.266126D+01      0.296106D+01
   zx        -0.845158D+01     -0.125239D+01     -0.139348D+01
   zy         0.000000D+00      0.000000D+00      0.000000D+00
   zz         0.369799D+02      0.547986D+01      0.609717D+01

 ----------------------------------------------------------------------
 1\1\GINC-N2228\Freq\RMP2-FC\Aug-CC-pVTZ\H1N1O3\CGAVINH\21-Feb-2022\1\\
 #p freq mp2/aug-cc-pvtz density=current\\title\\0,1\H\O,1,r1\O,2,r2,1,
 a1\N,3,r3,2,a2,1,d1,0\O,4,r4,3,a3,2,d2,0\\r1=0.96897556\r2=1.46444325\
 r3=1.45878406\r4=1.17072885\a1=97.59494903\a2=102.29752444\a3=109.0695
 5123\d1=180.\d2=180.\\Version=ES64L-G16RevB.01\State=1-A'\HF=-279.5008
 563\MP2=-280.4466856\RMSD=3.885e-09\RMSF=1.719e-03\ZeroPoint=0.021798\
 Thermal=0.0259175\Dipole=-0.1453172,0.,-0.549726\DipoleDeriv=0.2661379
 ,0.,0.0477378,0.,0.3551447,0.,0.0835134,0.,0.2743413,-0.3277745,0.,-0.
 2025979,0.,-0.3140429,0.,-0.1148485,0.,-0.2243657,-0.0488334,0.,0.1423
 778,0.,-0.0871897,0.,-0.7523588,0.,-1.3509979,0.8951349,0.,0.9096381,0
 .,0.066145,0.,0.9261769,0.,1.6702135,-0.7846649,0.,-0.8971558,0.,-0.02
 00571,0.,-0.142483,0.,-0.3691912\Polar=32.2663968,0.,17.9590982,9.6975
 758,0.,32.1823031\Quadrupole=-1.4975687,-0.7384597,2.2360285,0.,2.1078
 368,0.\PG=CS [SG(H1N1O3)]\NImag=1\\0.06364060,0.,-0.00243955,0.0047099
 0,0.,0.51258795,-0.03590795,0.,-0.01589393,0.25961704,0.,0.00334263,0.
 ,0.,0.00325289,0.04776628,0.,-0.50901039,0.03007702,0.,0.59426604,-0.0
 1726010,0.,0.01267523,-0.20784371,0.,-0.01849519,0.32782867,0.,0.00073
 490,0.,0.,-0.00781570,0.,0.,0.00556510,-0.05203608,0.,-0.00017220,-0.0
 1664009,0.,-0.07824773,0.03242688,0.,0.18039393,-0.00928982,0.,-0.0047
 8371,-0.01656688,0.,-0.05132062,-0.07746852,0.,0.17471141,0.82741098,0
 .,-0.00264094,0.,0.,-0.00508002,0.,0.,0.00871226,0.,0.,0.00830980,0.00
 526959,0.,-0.00483406,0.01141778,0.,0.01737748,0.06370961,0.,-0.081564
 45,-0.01872245,0.,0.18598056,-0.00118273,0.,0.00329251,0.00070151,0.,-
 0.00802749,-0.02525633,0.,-0.13846211,-0.72408575,0.,-0.06167454,0.749
 82330,0.,0.00100296,0.,0.,0.00630020,0.,0.,-0.00719655,0.,0.,-0.009301
 10,0.,0.,0.00919449,-0.00570968,0.,0.00142870,-0.00896079,0.,-0.024385
 40,-0.09031653,0.,-0.02040954,-0.09988464,0.,-0.11695952,0.20487163,0.
 ,0.16032576\\-0.00069823,0.,0.00018702,-0.00431418,0.,-0.00172245,0.00
 434274,0.,0.00145848,0.00102123,0.,-0.00017012,-0.00035155,0.,0.000247
 07\\\@


 POCKETA-POCKETA
 BARON VON RICHTOFEN
 SLAUGHTERED THE ALLIES WITH
 HARDLY A CARE.
 KILLED EIGHTY-ONE WITH HIS
 BLOOD-COLORED TRIPLANE, THEN
 UN-AEROBATICALLY
 PLUNGED FROM THE AIR.
   -- TONY HOFFMAN
 Job cpu time:       0 days  1 hours 57 minutes 54.3 seconds.
 Elapsed time:       0 days  0 hours  4 minutes 15.8 seconds.
 File lengths (MBytes):  RWF=   7239 Int=      0 D2E=      0 Chk=      8 Scr=      1
 Normal termination of Gaussian 16 at Mon Feb 21 20:08:11 2022.
