 Entering Gaussian System, Link 0=g16
 Input=hoono_a1_98p44867.gjf
 Output=hoono_a1_98p44867.log
 Initial command:
 /sw/contrib/gaussian/g16/B01/g16/l1.exe "/scr/Gau-29258.inp" -scrdir="/scr/"
 Entering Link 1 = /sw/contrib/gaussian/g16/B01/g16/l1.exe PID=     29259.
  
 Copyright (c) 1988-2017, Gaussian, Inc.  All Rights Reserved.
  
 This is part of the Gaussian(R) 16 program.  It is based on
 the Gaussian(R) 09 system (copyright 2009, Gaussian, Inc.),
 the Gaussian(R) 03 system (copyright 2003, Gaussian, Inc.),
 the Gaussian(R) 98 system (copyright 1998, Gaussian, Inc.),
 the Gaussian(R) 94 system (copyright 1995, Gaussian, Inc.),
 the Gaussian 92(TM) system (copyright 1992, Gaussian, Inc.),
 the Gaussian 90(TM) system (copyright 1990, Gaussian, Inc.),
 the Gaussian 88(TM) system (copyright 1988, Gaussian, Inc.),
 the Gaussian 86(TM) system (copyright 1986, Carnegie Mellon
 University), and the Gaussian 82(TM) system (copyright 1983,
 Carnegie Mellon University). Gaussian is a federally registered
 trademark of Gaussian, Inc.
  
 This software contains proprietary and confidential information,
 including trade secrets, belonging to Gaussian, Inc.
  
 This software is provided under written license and may be
 used, copied, transmitted, or stored only in accord with that
 written license.
  
 The following legend is applicable only to US Government
 contracts under FAR:
  
                    RESTRICTED RIGHTS LEGEND
  
 Use, reproduction and disclosure by the US Government is
 subject to restrictions as set forth in subparagraphs (a)
 and (c) of the Commercial Computer Software - Restricted
 Rights clause in FAR 52.227-19.
  
 Gaussian, Inc.
 340 Quinnipiac St., Bldg. 40, Wallingford CT 06492
  
  
 ---------------------------------------------------------------
 Warning -- This program may not be used in any manner that
 competes with the business of Gaussian, Inc. or will provide
 assistance to any competitor of Gaussian, Inc.  The licensee
 of this program is prohibited from giving any competitor of
 Gaussian, Inc. access to this program.  By using this program,
 the user acknowledges that Gaussian, Inc. is engaged in the
 business of creating and licensing software in the field of
 computational chemistry and represents and warrants to the
 licensee that it is not a competitor of Gaussian, Inc. and that
 it will not use this program in any manner prohibited above.
 ---------------------------------------------------------------
  

 Cite this work as:
 Gaussian 16, Revision B.01,
 M. J. Frisch, G. W. Trucks, H. B. Schlegel, G. E. Scuseria, 
 M. A. Robb, J. R. Cheeseman, G. Scalmani, V. Barone, 
 G. A. Petersson, H. Nakatsuji, X. Li, M. Caricato, A. V. Marenich, 
 J. Bloino, B. G. Janesko, R. Gomperts, B. Mennucci, H. P. Hratchian, 
 J. V. Ortiz, A. F. Izmaylov, J. L. Sonnenberg, D. Williams-Young, 
 F. Ding, F. Lipparini, F. Egidi, J. Goings, B. Peng, A. Petrone, 
 T. Henderson, D. Ranasinghe, V. G. Zakrzewski, J. Gao, N. Rega, 
 G. Zheng, W. Liang, M. Hada, M. Ehara, K. Toyota, R. Fukuda, 
 J. Hasegawa, M. Ishida, T. Nakajima, Y. Honda, O. Kitao, H. Nakai, 
 T. Vreven, K. Throssell, J. A. Montgomery, Jr., J. E. Peralta, 
 F. Ogliaro, M. J. Bearpark, J. J. Heyd, E. N. Brothers, K. N. Kudin, 
 V. N. Staroverov, T. A. Keith, R. Kobayashi, J. Normand, 
 K. Raghavachari, A. P. Rendell, J. C. Burant, S. S. Iyengar, 
 J. Tomasi, M. Cossi, J. M. Millam, M. Klene, C. Adamo, R. Cammi, 
 J. W. Ochterski, R. L. Martin, K. Morokuma, O. Farkas, 
 J. B. Foresman, and D. J. Fox, Gaussian, Inc., Wallingford CT, 2016.
 
 ******************************************
 Gaussian 16:  ES64L-G16RevB.01 20-Dec-2017
                 6-Mar-2022 
 ******************************************
 %nproc=28
 Will use up to   28 processors via shared memory.
 %mem=120GB
 %chk=hoono_a1_98p44867.chk
 ---------------------------------------
 #p freq mp2/aug-cc-pvtz density=current
 ---------------------------------------
 1/10=4,30=1,38=1/1,3;
 2/12=2,17=6,18=5,40=1/2;
 3/5=16,6=1,7=10,11=9,25=1,30=1,71=2,140=1/1,2,3;
 4//1;
 5/5=2,38=5,98=1/2;
 8/6=3,8=1,10=1,19=11,30=-1/1;
 9/15=3,16=-3/6;
 11/6=1,8=1,15=11,17=12,24=-1,27=1,28=-2,29=300,32=6,42=3/1,2,10;
 10/6=2,21=1/2;
 8/6=4,8=1,10=1,19=11,30=-1/11,4;
 10/5=1,20=4/2;
 11/12=2,14=11,16=1,17=2,28=-2,42=3,76=2/2,10,12;
 6/7=2,8=2,9=2,10=2,22=-1/1;
 7/8=1,10=1,12=2,25=1,44=2/1,2,3,16;
 1/10=4,30=1/3;
 99//99;
 Leave Link    1 at Sun Mar  6 19:26:29 2022, MaxMem= 16106127360 cpu:               2.5 elap:               0.1
 (Enter /sw/contrib/gaussian/g16/B01/g16/l101.exe)
 -----
 title
 -----
 Symbolic Z-matrix:
 Charge =  0 Multiplicity = 1
 H
 O                    1    r1
 O                    2    r2       1    a1
 N                    3    r3       2    a2       1    d1       0
 O                    4    r4       3    a3       2    d2       0
       Variables:
  r1                    0.98538                  
  r2                    1.42674                  
  r3                    1.38111                  
  r4                    1.19479                  
  a1                   98.44867                  
  a2                  113.13777                  
  a3                  114.33392                  
  d1                    0.                       
  d2                    0.                       
 
 ITRead=  0  0  0  0  0
 MicOpt= -1 -1 -1 -1 -1
 NAtoms=      5 NQM=        5 NQMF=       0 NMMI=      0 NMMIF=      0
                NMic=       0 NMicF=      0.
                    Isotopes and Nuclear Properties:
 (Nuclear quadrupole moments (NQMom) in fm**2, nuclear magnetic moments (NMagM)
  in nuclear magnetons)

  Atom         1           2           3           4           5
 IAtWgt=           1          16          16          14          16
 AtmWgt=   1.0078250  15.9949146  15.9949146  14.0030740  15.9949146
 NucSpn=           1           0           0           2           0
 AtZEff=  -0.0000000  -0.0000000  -0.0000000  -0.0000000  -0.0000000
 NQMom=    0.0000000   0.0000000   0.0000000   2.0440000   0.0000000
 NMagM=    2.7928460   0.0000000   0.0000000   0.4037610   0.0000000
 AtZNuc=   1.0000000   8.0000000   8.0000000   7.0000000   8.0000000
 Leave Link  101 at Sun Mar  6 19:26:29 2022, MaxMem= 16106127360 cpu:               2.8 elap:               0.1
 (Enter /sw/contrib/gaussian/g16/B01/g16/l103.exe)

 GradGradGradGradGradGradGradGradGradGradGradGradGradGradGradGradGradGrad
 Berny optimization.
 Initialization pass.
                       ----------------------------
                       !    Initial Parameters    !
                       ! (Angstroms and Degrees)  !
 ----------------------                            ----------------------
 !      Name          Value   Derivative information (Atomic Units)     !
 ------------------------------------------------------------------------
 !       r1          0.9854   calculate D2E/DX2 analytically            !
 !       r2          1.4267   calculate D2E/DX2 analytically            !
 !       r3          1.3811   calculate D2E/DX2 analytically            !
 !       r4          1.1948   calculate D2E/DX2 analytically            !
 !       a1         98.4487   calculate D2E/DX2 analytically            !
 !       a2        113.1378   calculate D2E/DX2 analytically            !
 !       a3        114.3339   calculate D2E/DX2 analytically            !
 !       d1          0.0      calculate D2E/DX2 analytically            !
 !       d2          0.0      calculate D2E/DX2 analytically            !
 ------------------------------------------------------------------------
 Trust Radius=3.00D-01 FncErr=1.00D-07 GrdErr=1.00D-07 EigMax=2.50D+02 EigMin=1.00D-04
 Number of steps in this run=      2 maximum allowed number of steps=      2.
 GradGradGradGradGradGradGradGradGradGradGradGradGradGradGradGradGradGrad

 Leave Link  103 at Sun Mar  6 19:26:29 2022, MaxMem= 16106127360 cpu:               1.2 elap:               0.1
 (Enter /sw/contrib/gaussian/g16/B01/g16/l202.exe)
                          Input orientation:                          
 ---------------------------------------------------------------------
 Center     Atomic      Atomic             Coordinates (Angstroms)
 Number     Number       Type             X           Y           Z
 ---------------------------------------------------------------------
      1          1           0        0.000000    0.000000    0.000000
      2          8           0        0.000000    0.000000    0.985377
      3          8           0        1.411254    0.000000    1.194998
      4          7           0        2.134656    0.000000    0.018500
      5          8           0        1.465163    0.000000   -0.971095
 ---------------------------------------------------------------------
                    Distance matrix (angstroms):
                    1          2          3          4          5
     1  H    0.000000
     2  O    0.985377   0.000000
     3  O    1.849231   1.426737   0.000000
     4  N    2.134736   2.343418   1.381108   0.000000
     5  O    1.757762   2.444276   2.166763   1.194788   0.000000
 Stoichiometry    HNO3
 Framework group  CS[SG(HNO3)]
 Deg. of freedom     7
 Full point group                 CS      NOp   2
 Largest Abelian subgroup         CS      NOp   2
 Largest concise Abelian subgroup C1      NOp   1
                         Standard orientation:                         
 ---------------------------------------------------------------------
 Center     Atomic      Atomic             Coordinates (Angstroms)
 Number     Number       Type             X           Y           Z
 ---------------------------------------------------------------------
      1          1           0        1.074458   -0.588336    0.000000
      2          8           0        1.316517    0.366847    0.000000
      3          8           0        0.000000    0.916721    0.000000
      4          7           0       -0.990244   -0.046022    0.000000
      5          8           0       -0.584360   -1.169756    0.000000
 ---------------------------------------------------------------------
 Rotational constants (GHZ):          21.4116975           8.1104934           5.8823355
 Leave Link  202 at Sun Mar  6 19:26:29 2022, MaxMem= 16106127360 cpu:               0.4 elap:               0.0
 (Enter /sw/contrib/gaussian/g16/B01/g16/l301.exe)
 Standard basis: Aug-CC-pVTZ (5D, 7F)
 Ernie: Thresh=  0.10000D-02 Tol=  0.10000D-05 Strict=F.
 Ernie:  12 primitive shells out of 131 were deleted.
 There are   166 symmetry adapted cartesian basis functions of A'  symmetry.
 There are    79 symmetry adapted cartesian basis functions of A"  symmetry.
 There are   136 symmetry adapted basis functions of A'  symmetry.
 There are    71 symmetry adapted basis functions of A"  symmetry.
   207 basis functions,   315 primitive gaussians,   245 cartesian basis functions
    16 alpha electrons       16 beta electrons
       nuclear repulsion energy       122.8578381925 Hartrees.
 IExCor=    0 DFT=F Ex=HF Corr=None ExCW=0 ScaHFX=  1.000000
 ScaDFX=  1.000000  1.000000  1.000000  1.000000 ScalE2=  1.000000  1.000000
 IRadAn=      5 IRanWt=     -1 IRanGd=            0 ICorTp=0 IEmpDi=  4
 NAtoms=    5 NActive=    5 NUniq=    5 SFac= 1.00D+00 NAtFMM=   60 NAOKFM=F Big=F
 Integral buffers will be    131072 words long.
 Raffenetti 1 integral format.
 Two-electron integral symmetry is turned on.
 Leave Link  301 at Sun Mar  6 19:26:29 2022, MaxMem= 16106127360 cpu:               2.6 elap:               0.1
 (Enter /sw/contrib/gaussian/g16/B01/g16/l302.exe)
 NPDir=0 NMtPBC=     1 NCelOv=     1 NCel=       1 NClECP=     1 NCelD=      1
         NCelK=      1 NCelE2=     1 NClLst=     1 CellRange=     0.0.
 One-electron integrals computed using PRISM.
 One-electron integral symmetry used in STVInt
 NBasis=   207 RedAO= T EigKep=  1.31D-04  NBF=   136    71
 NBsUse=   207 1.00D-06 EigRej= -1.00D+00 NBFU=   136    71
 Leave Link  302 at Sun Mar  6 19:26:29 2022, MaxMem= 16106127360 cpu:               4.7 elap:               0.2
 (Enter /sw/contrib/gaussian/g16/B01/g16/l303.exe)
 DipDrv:  MaxL=1.
 Leave Link  303 at Sun Mar  6 19:26:30 2022, MaxMem= 16106127360 cpu:               0.9 elap:               0.1
 (Enter /sw/contrib/gaussian/g16/B01/g16/l401.exe)
 ExpMin= 2.53D-02 ExpMax= 1.53D+04 ExpMxC= 5.22D+02 IAcc=3 IRadAn=         5 AccDes= 0.00D+00
 Harris functional with IExCor=  205 and IRadAn=       5 diagonalized for initial guess.
 HarFok:  IExCor=  205 AccDes= 0.00D+00 IRadAn=         5 IDoV= 1 UseB2=F ITyADJ=14
 ICtDFT=  3500011 ScaDFX=  1.000000  1.000000  1.000000  1.000000
 FoFCou: FMM=F IPFlag=           0 FMFlag=      100000 FMFlg1=           0
         NFxFlg=           0 DoJE=T BraDBF=F KetDBF=T FulRan=T
         wScrn=  0.000000 ICntrl=       500 IOpCl=  0 I1Cent=   200000004 NGrid=           0
         NMat0=    1 NMatS0=      1 NMatT0=    0 NMatD0=    1 NMtDS0=    0 NMtDT0=    0
 Petite list used in FoFCou.
 Harris En= -279.644760638749    
 JPrj=0 DoOrth=F DoCkMO=F.
 Initial guess orbital symmetries:
       Occupied  (A') (A') (A') (A') (A') (A') (A') (A') (A') (A')
                 (A") (A') (A") (A') (A") (A')
       Virtual   (A") (A') (A') (A') (A') (A") (A') (A') (A') (A')
                 (A") (A') (A") (A') (A') (A") (A') (A') (A") (A')
                 (A') (A') (A') (A') (A") (A') (A') (A') (A") (A')
                 (A') (A") (A") (A') (A') (A") (A') (A") (A') (A")
                 (A') (A") (A') (A") (A') (A') (A') (A") (A') (A')
                 (A') (A") (A') (A") (A') (A") (A') (A') (A') (A")
                 (A') (A') (A") (A') (A') (A') (A") (A") (A') (A')
                 (A") (A') (A") (A") (A') (A') (A") (A') (A') (A')
                 (A") (A') (A') (A") (A') (A") (A') (A") (A') (A')
                 (A') (A") (A') (A") (A') (A') (A") (A') (A") (A')
                 (A") (A') (A') (A") (A") (A') (A') (A') (A") (A')
                 (A") (A') (A') (A') (A") (A') (A') (A') (A") (A')
                 (A") (A') (A') (A") (A") (A") (A") (A') (A') (A')
                 (A') (A') (A') (A") (A') (A") (A') (A") (A') (A')
                 (A") (A") (A') (A') (A') (A") (A') (A') (A') (A")
                 (A') (A') (A') (A") (A') (A") (A") (A') (A') (A")
                 (A') (A") (A") (A') (A") (A') (A") (A') (A") (A')
                 (A") (A") (A") (A') (A") (A') (A') (A') (A") (A')
                 (A') (A') (A') (A') (A') (A') (A') (A') (A') (A')
                 (A')
 The electronic state of the initial guess is 1-A'.
 Leave Link  401 at Sun Mar  6 19:26:30 2022, MaxMem= 16106127360 cpu:               7.3 elap:               0.3
 (Enter /sw/contrib/gaussian/g16/B01/g16/l502.exe)
 Keep R1 ints in memory in symmetry-blocked form, NReq=348887737.
 FoFCou: FMM=F IPFlag=           0 FMFlag=           0 FMFlg1=           0
         NFxFlg=           0 DoJE=F BraDBF=F KetDBF=F FulRan=T
         wScrn=  0.000000 ICntrl=       600 IOpCl=  0 I1Cent=           0 NGrid=           0
         NMat0=    1 NMatS0=  21528 NMatT0=    0 NMatD0=    1 NMtDS0=    0 NMtDT0=    0
 Petite list used in FoFCou.
 Closed shell SCF:
 Using DIIS extrapolation, IDIIS=  1040.
 NGot= 16106127360 LenX= 15988850015 LenY= 15988789549
 Requested convergence on RMS density matrix=1.00D-08 within 128 cycles.
 Requested convergence on MAX density matrix=1.00D-06.
 Requested convergence on             energy=1.00D-06.
 No special actions if energy rises.

 Cycle   1  Pass 1  IDiag  1:
 E= -279.363621918756    
 DIIS: error= 2.74D-02 at cycle   1 NSaved=   1.
 NSaved= 1 IEnMin= 1 EnMin= -279.363621918756     IErMin= 1 ErrMin= 2.74D-02
 ErrMax= 2.74D-02  0.00D+00 EMaxC= 1.00D-01 BMatC= 4.50D-01 BMatP= 4.50D-01
 IDIUse=3 WtCom= 7.26D-01 WtEn= 2.74D-01
 Coeff-Com:  0.100D+01
 Coeff-En:   0.100D+01
 Coeff:      0.100D+01
 Gap=     0.496 Goal=   None    Shift=    0.000
 GapD=    0.496 DampG=2.000 DampE=0.500 DampFc=1.0000 IDamp=-1.
 RMSDP=1.68D-03 MaxDP=8.85D-02              OVMax= 1.22D-01

 Cycle   2  Pass 1  IDiag  1:
 E= -279.445955958315     Delta-E=       -0.082334039560 Rises=F Damp=F
 DIIS: error= 1.97D-02 at cycle   2 NSaved=   2.
 NSaved= 2 IEnMin= 2 EnMin= -279.445955958315     IErMin= 2 ErrMin= 1.97D-02
 ErrMax= 1.97D-02  0.00D+00 EMaxC= 1.00D-01 BMatC= 8.53D-02 BMatP= 4.50D-01
 IDIUse=3 WtCom= 8.03D-01 WtEn= 1.97D-01
 Coeff-Com:  0.217D+00 0.783D+00
 Coeff-En:   0.723D-01 0.928D+00
 Coeff:      0.189D+00 0.811D+00
 Gap=     0.563 Goal=   None    Shift=    0.000
 RMSDP=9.68D-04 MaxDP=3.74D-02 DE=-8.23D-02 OVMax= 9.14D-02

 Cycle   3  Pass 1  IDiag  1:
 E= -279.483314202734     Delta-E=       -0.037358244418 Rises=F Damp=F
 DIIS: error= 1.15D-02 at cycle   3 NSaved=   3.
 NSaved= 3 IEnMin= 3 EnMin= -279.483314202734     IErMin= 3 ErrMin= 1.15D-02
 ErrMax= 1.15D-02  0.00D+00 EMaxC= 1.00D-01 BMatC= 3.10D-02 BMatP= 8.53D-02
 IDIUse=3 WtCom= 8.85D-01 WtEn= 1.15D-01
 Coeff-Com: -0.348D-01 0.366D+00 0.669D+00
 Coeff-En:   0.000D+00 0.219D+00 0.781D+00
 Coeff:     -0.308D-01 0.349D+00 0.682D+00
 Gap=     0.542 Goal=   None    Shift=    0.000
 RMSDP=4.12D-04 MaxDP=1.60D-02 DE=-3.74D-02 OVMax= 3.86D-02

 Cycle   4  Pass 1  IDiag  1:
 E= -279.504476159972     Delta-E=       -0.021161957238 Rises=F Damp=F
 DIIS: error= 1.70D-03 at cycle   4 NSaved=   4.
 NSaved= 4 IEnMin= 4 EnMin= -279.504476159972     IErMin= 4 ErrMin= 1.70D-03
 ErrMax= 1.70D-03  0.00D+00 EMaxC= 1.00D-01 BMatC= 6.11D-04 BMatP= 3.10D-02
 IDIUse=3 WtCom= 9.83D-01 WtEn= 1.70D-02
 Coeff-Com: -0.121D-01 0.486D-01 0.157D+00 0.807D+00
 Coeff-En:   0.000D+00 0.000D+00 0.000D+00 0.100D+01
 Coeff:     -0.119D-01 0.477D-01 0.154D+00 0.810D+00
 Gap=     0.529 Goal=   None    Shift=    0.000
 RMSDP=9.89D-05 MaxDP=2.32D-03 DE=-2.12D-02 OVMax= 1.18D-02

 Cycle   5  Pass 1  IDiag  1:
 E= -279.505294081289     Delta-E=       -0.000817921317 Rises=F Damp=F
 DIIS: error= 1.13D-03 at cycle   5 NSaved=   5.
 NSaved= 5 IEnMin= 5 EnMin= -279.505294081289     IErMin= 5 ErrMin= 1.13D-03
 ErrMax= 1.13D-03  0.00D+00 EMaxC= 1.00D-01 BMatC= 1.04D-04 BMatP= 6.11D-04
 IDIUse=3 WtCom= 9.89D-01 WtEn= 1.13D-02
 Coeff-Com:  0.544D-02-0.668D-01-0.112D+00 0.598D-01 0.111D+01
 Coeff-En:   0.000D+00 0.000D+00 0.000D+00 0.000D+00 0.100D+01
 Coeff:      0.538D-02-0.661D-01-0.111D+00 0.592D-01 0.111D+01
 Gap=     0.532 Goal=   None    Shift=    0.000
 RMSDP=8.05D-05 MaxDP=2.12D-03 DE=-8.18D-04 OVMax= 1.30D-02

 Cycle   6  Pass 1  IDiag  1:
 E= -279.505661016994     Delta-E=       -0.000366935705 Rises=F Damp=F
 DIIS: error= 3.44D-04 at cycle   6 NSaved=   6.
 NSaved= 6 IEnMin= 6 EnMin= -279.505661016994     IErMin= 6 ErrMin= 3.44D-04
 ErrMax= 3.44D-04  0.00D+00 EMaxC= 1.00D-01 BMatC= 2.42D-05 BMatP= 1.04D-04
 IDIUse=3 WtCom= 9.97D-01 WtEn= 3.44D-03
 Coeff-Com:  0.189D-02-0.710D-02-0.179D-01-0.182D+00 0.101D-01 0.120D+01
 Coeff-En:   0.000D+00 0.000D+00 0.000D+00 0.000D+00 0.000D+00 0.100D+01
 Coeff:      0.188D-02-0.707D-02-0.179D-01-0.181D+00 0.101D-01 0.119D+01
 Gap=     0.533 Goal=   None    Shift=    0.000
 RMSDP=4.69D-05 MaxDP=1.07D-03 DE=-3.67D-04 OVMax= 6.12D-03

 Cycle   7  Pass 1  IDiag  1:
 E= -279.505747419621     Delta-E=       -0.000086402627 Rises=F Damp=F
 DIIS: error= 1.27D-04 at cycle   7 NSaved=   7.
 NSaved= 7 IEnMin= 7 EnMin= -279.505747419621     IErMin= 7 ErrMin= 1.27D-04
 ErrMax= 1.27D-04  0.00D+00 EMaxC= 1.00D-01 BMatC= 3.57D-06 BMatP= 2.42D-05
 IDIUse=3 WtCom= 9.99D-01 WtEn= 1.27D-03
 Coeff-Com: -0.109D-02 0.115D-01 0.250D-01 0.157D-01-0.179D+00-0.149D+00
 Coeff-Com:  0.128D+01
 Coeff-En:   0.000D+00 0.000D+00 0.000D+00 0.000D+00 0.000D+00 0.000D+00
 Coeff-En:   0.100D+01
 Coeff:     -0.109D-02 0.115D-01 0.249D-01 0.157D-01-0.179D+00-0.149D+00
 Coeff:      0.128D+01
 Gap=     0.533 Goal=   None    Shift=    0.000
 RMSDP=1.75D-05 MaxDP=5.11D-04 DE=-8.64D-05 OVMax= 2.33D-03

 Cycle   8  Pass 1  IDiag  1:
 E= -279.505759421683     Delta-E=       -0.000012002062 Rises=F Damp=F
 DIIS: error= 4.71D-05 at cycle   8 NSaved=   8.
 NSaved= 8 IEnMin= 8 EnMin= -279.505759421683     IErMin= 8 ErrMin= 4.71D-05
 ErrMax= 4.71D-05  0.00D+00 EMaxC= 1.00D-01 BMatC= 6.04D-07 BMatP= 3.57D-06
 IDIUse=1 WtCom= 1.00D+00 WtEn= 0.00D+00
 Coeff-Com: -0.562D-03 0.414D-02 0.973D-02 0.246D-01-0.562D-01-0.193D+00
 Coeff-Com:  0.353D+00 0.858D+00
 Coeff:     -0.562D-03 0.414D-02 0.973D-02 0.246D-01-0.562D-01-0.193D+00
 Coeff:      0.353D+00 0.858D+00
 Gap=     0.533 Goal=   None    Shift=    0.000
 RMSDP=5.48D-06 MaxDP=1.55D-04 DE=-1.20D-05 OVMax= 6.55D-04

 Cycle   9  Pass 1  IDiag  1:
 E= -279.505760813479     Delta-E=       -0.000001391796 Rises=F Damp=F
 DIIS: error= 2.37D-05 at cycle   9 NSaved=   9.
 NSaved= 9 IEnMin= 9 EnMin= -279.505760813479     IErMin= 9 ErrMin= 2.37D-05
 ErrMax= 2.37D-05  0.00D+00 EMaxC= 1.00D-01 BMatC= 1.17D-07 BMatP= 6.04D-07
 IDIUse=1 WtCom= 1.00D+00 WtEn= 0.00D+00
 Coeff-Com:  0.242D-03-0.258D-02-0.536D-02-0.553D-02 0.467D-01 0.492D-01
 Coeff-Com: -0.340D+00 0.310D-01 0.123D+01
 Coeff:      0.242D-03-0.258D-02-0.536D-02-0.553D-02 0.467D-01 0.492D-01
 Coeff:     -0.340D+00 0.310D-01 0.123D+01
 Gap=     0.533 Goal=   None    Shift=    0.000
 RMSDP=2.48D-06 MaxDP=6.80D-05 DE=-1.39D-06 OVMax= 2.59D-04

 Cycle  10  Pass 1  IDiag  1:
 E= -279.505761079766     Delta-E=       -0.000000266287 Rises=F Damp=F
 DIIS: error= 5.86D-06 at cycle  10 NSaved=  10.
 NSaved=10 IEnMin=10 EnMin= -279.505761079766     IErMin=10 ErrMin= 5.86D-06
 ErrMax= 5.86D-06  0.00D+00 EMaxC= 1.00D-01 BMatC= 8.28D-09 BMatP= 1.17D-07
 IDIUse=1 WtCom= 1.00D+00 WtEn= 0.00D+00
 Coeff-Com: -0.371D-04 0.485D-03 0.117D-02-0.191D-02-0.106D-01 0.579D-02
 Coeff-Com:  0.702D-01-0.535D-01-0.427D+00 0.142D+01
 Coeff:     -0.371D-04 0.485D-03 0.117D-02-0.191D-02-0.106D-01 0.579D-02
 Coeff:      0.702D-01-0.535D-01-0.427D+00 0.142D+01
 Gap=     0.533 Goal=   None    Shift=    0.000
 RMSDP=7.06D-07 MaxDP=2.52D-05 DE=-2.66D-07 OVMax= 7.54D-05

 Cycle  11  Pass 1  IDiag  1:
 E= -279.505761104862     Delta-E=       -0.000000025096 Rises=F Damp=F
 DIIS: error= 2.26D-06 at cycle  11 NSaved=  11.
 NSaved=11 IEnMin=11 EnMin= -279.505761104862     IErMin=11 ErrMin= 2.26D-06
 ErrMax= 2.26D-06  0.00D+00 EMaxC= 1.00D-01 BMatC= 8.66D-10 BMatP= 8.28D-09
 IDIUse=1 WtCom= 1.00D+00 WtEn= 0.00D+00
 Coeff-Com: -0.171D-04 0.176D-03 0.367D-03 0.867D-03-0.234D-02-0.727D-02
 Coeff-Com:  0.203D-01 0.190D-01-0.572D-01-0.307D+00 0.133D+01
 Coeff:     -0.171D-04 0.176D-03 0.367D-03 0.867D-03-0.234D-02-0.727D-02
 Coeff:      0.203D-01 0.190D-01-0.572D-01-0.307D+00 0.133D+01
 Gap=     0.533 Goal=   None    Shift=    0.000
 RMSDP=2.46D-07 MaxDP=9.11D-06 DE=-2.51D-08 OVMax= 2.86D-05

 Cycle  12  Pass 1  IDiag  1:
 E= -279.505761107951     Delta-E=       -0.000000003089 Rises=F Damp=F
 DIIS: error= 7.58D-07 at cycle  12 NSaved=  12.
 NSaved=12 IEnMin=12 EnMin= -279.505761107951     IErMin=12 ErrMin= 7.58D-07
 ErrMax= 7.58D-07  0.00D+00 EMaxC= 1.00D-01 BMatC= 9.32D-11 BMatP= 8.66D-10
 IDIUse=1 WtCom= 1.00D+00 WtEn= 0.00D+00
 Coeff-Com:  0.252D-05-0.454D-04-0.985D-04 0.157D-03 0.116D-02-0.911D-03
 Coeff-Com: -0.729D-02 0.697D-02 0.420D-01-0.122D+00-0.172D+00 0.125D+01
 Coeff:      0.252D-05-0.454D-04-0.985D-04 0.157D-03 0.116D-02-0.911D-03
 Coeff:     -0.729D-02 0.697D-02 0.420D-01-0.122D+00-0.172D+00 0.125D+01
 Gap=     0.533 Goal=   None    Shift=    0.000
 RMSDP=8.76D-08 MaxDP=2.87D-06 DE=-3.09D-09 OVMax= 1.02D-05

 Cycle  13  Pass 1  IDiag  1:
 E= -279.505761108279     Delta-E=       -0.000000000329 Rises=F Damp=F
 DIIS: error= 1.72D-07 at cycle  13 NSaved=  13.
 NSaved=13 IEnMin=13 EnMin= -279.505761108279     IErMin=13 ErrMin= 1.72D-07
 ErrMax= 1.72D-07  0.00D+00 EMaxC= 1.00D-01 BMatC= 7.84D-12 BMatP= 9.32D-11
 IDIUse=1 WtCom= 1.00D+00 WtEn= 0.00D+00
 Coeff-Com:  0.137D-05-0.132D-04-0.194D-04-0.121D-03 0.587D-04 0.951D-03
 Coeff-Com: -0.119D-02-0.256D-02-0.136D-02 0.543D-01-0.128D+00-0.155D+00
 Coeff-Com:  0.123D+01
 Coeff:      0.137D-05-0.132D-04-0.194D-04-0.121D-03 0.587D-04 0.951D-03
 Coeff:     -0.119D-02-0.256D-02-0.136D-02 0.543D-01-0.128D+00-0.155D+00
 Coeff:      0.123D+01
 Gap=     0.533 Goal=   None    Shift=    0.000
 RMSDP=2.33D-08 MaxDP=6.99D-07 DE=-3.29D-10 OVMax= 2.17D-06

 Cycle  14  Pass 1  IDiag  1:
 E= -279.505761108300     Delta-E=       -0.000000000021 Rises=F Damp=F
 DIIS: error= 4.17D-08 at cycle  14 NSaved=  14.
 NSaved=14 IEnMin=14 EnMin= -279.505761108300     IErMin=14 ErrMin= 4.17D-08
 ErrMax= 4.17D-08  0.00D+00 EMaxC= 1.00D-01 BMatC= 5.12D-13 BMatP= 7.84D-12
 IDIUse=1 WtCom= 1.00D+00 WtEn= 0.00D+00
 Coeff-Com: -0.295D-06 0.447D-05 0.904D-05-0.533D-05-0.115D-03 0.719D-04
 Coeff-Com:  0.644D-03-0.353D-03-0.365D-02 0.856D-02 0.165D-01-0.895D-01
 Coeff-Com: -0.234D-01 0.109D+01
 Coeff:     -0.295D-06 0.447D-05 0.904D-05-0.533D-05-0.115D-03 0.719D-04
 Coeff:      0.644D-03-0.353D-03-0.365D-02 0.856D-02 0.165D-01-0.895D-01
 Coeff:     -0.234D-01 0.109D+01
 Gap=     0.533 Goal=   None    Shift=    0.000
 RMSDP=4.50D-09 MaxDP=1.12D-07 DE=-2.06D-11 OVMax= 4.90D-07

 SCF Done:  E(RHF) =  -279.505761108     A.U. after   14 cycles
            NFock= 14  Conv=0.45D-08     -V/T= 2.0022
 KE= 2.788948939701D+02 PE=-9.065654928833D+02 EE= 2.253069996124D+02
 Leave Link  502 at Sun Mar  6 19:26:33 2022, MaxMem= 16106127360 cpu:              55.9 elap:               3.7
 (Enter /sw/contrib/gaussian/g16/B01/g16/l801.exe)
 ExpMin= 2.53D-02 ExpMax= 1.53D+04 ExpMxC= 5.22D+02 IAcc=3 IRadAn=         5 AccDes= 0.00D+00
 HarFok:  IExCor=  205 AccDes= 0.00D+00 IRadAn=         5 IDoV=-2 UseB2=F ITyADJ=14
 ICtDFT= 12500011 ScaDFX=  1.000000  1.000000  1.000000  1.000000
 Largest valence mixing into a core orbital is  2.07D-04
 Largest core mixing into a valence orbital is  3.13D-05
 Range of M.O.s used for correlation:     5   207
 NBasis=   207 NAE=    16 NBE=    16 NFC=     4 NFV=     0
 NROrb=    203 NOA=    12 NOB=    12 NVA=   191 NVB=   191

 **** Warning!!: The largest alpha MO coefficient is  0.16815908D+02

 Leave Link  801 at Sun Mar  6 19:26:34 2022, MaxMem= 16106127360 cpu:               2.9 elap:               0.2
 (Enter /sw/contrib/gaussian/g16/B01/g16/l906.exe)
 Frozen-core derivative calculation, NFC=   4 NFV=   0.
 FulOut=F Deriv=T AODrv=T NAtomX=     5
   MMem=           0  MDisk=          12 MDiskD=          12
  W3Min=      811440 MinDsk=     2425030 NBas6D=         245
 NBas2D=       30762    NTT=       30135    LW2=     7400000
    MDV= 16105571532 MDiskM=      328644 NBas2p=       30759
 Disk-based method using ON**2 memory for 12 occupieds at a time.
 Permanent disk used for amplitudes=    11516536 words.
 Estimated scratch disk usage=   321863743 words.
 IMap=   1   2   3   4   5   6   7   8   9  10  11  12  13  14  15  16
 Actual    scratch disk usage=   310892607 words.
 JobTyp=1 Pass  1:  I=   5 to  16 NPSUse= 28 ParTrn=T ParDer=T DoDerP=T.
 (rs|ai) integrals will be sorted in core.
 Spin components of T(2) and E(2):
     alpha-alpha T2 =       0.3484210047D-01 E2=     -0.1246682593D+00
     alpha-beta  T2 =       0.1845753928D+00 E2=     -0.6999578186D+00
     beta-beta   T2 =       0.3484210047D-01 E2=     -0.1246682593D+00
 The integrals were generated   1 times.
 ANorm=    0.1119937317D+01
 E2 =    -0.9492943371D+00 EUMP2 =    -0.28045505544544D+03
 Leave Link  906 at Sun Mar  6 19:28:10 2022, MaxMem= 16106127360 cpu:            2696.4 elap:              96.4
 (Enter /sw/contrib/gaussian/g16/B01/g16/l1101.exe)
 Using compressed Sx but separate Hx and Fx, NAtomX=     5.
 Will process      6 centers per pass.
 Leave Link 1101 at Sun Mar  6 19:28:10 2022, MaxMem= 16106127360 cpu:               5.4 elap:               0.2
 (Enter /sw/contrib/gaussian/g16/B01/g16/l1102.exe)
 Leave Link 1102 at Sun Mar  6 19:28:11 2022, MaxMem= 16106127360 cpu:               1.8 elap:               0.1
 (Enter /sw/contrib/gaussian/g16/B01/g16/l1110.exe)
 Forming Gx(P) for the SCF density, NAtomX=     5.
 Integral derivatives from FoFJK, PRISM(SPDF).
 Do as many integral derivatives as possible in FoFJK.
 G2DrvN: MDV=   16106126844.
 G2DrvN: will do     6 centers at a time, making    1 passes.
 Calling FoFCou, ICntrl=  3107 FMM=F I1Cent=   0 AccDes= 0.00D+00.
 FoFJK:  IHMeth= 1 ICntrl=    3107 DoSepK=F KAlg= 0 I1Cent=           0 FoldK=F
 IRaf=         0 NMat=       1 IRICut=       1 DoRegI=T DoRafI=F ISym2E= 1 IDoP0=0 IntGTp=1.
 FoFCou: FMM=F IPFlag=           0 FMFlag=      100000 FMFlg1=           0
         NFxFlg=           0 DoJE=F BraDBF=F KetDBF=F FulRan=T
         wScrn=  0.000000 ICntrl=      3107 IOpCl=  0 I1Cent=           0 NGrid=           0
         NMat0=    1 NMatS0=      1 NMatT0=    0 NMatD0=    1 NMtDS0=    0 NMtDT0=    0
 Petite list used in FoFCou.
 End of G2Drv F.D. properties file   721 does not exist.
 End of G2Drv F.D. properties file   722 does not exist.
 End of G2Drv F.D. properties file   788 does not exist.
 Leave Link 1110 at Sun Mar  6 19:28:14 2022, MaxMem= 16106127360 cpu:              86.5 elap:               3.1
 (Enter /sw/contrib/gaussian/g16/B01/g16/l1002.exe)
 Minotr:  Closed shell wavefunction.
          IDoAtm=11111
          Frozen-core window.
          Direct CPHF calculation.
          Differentiating once with respect to electric field.
                with respect to dipole field.
          Differentiating once with respect to nuclear coordinates.
          Requested convergence is 1.0D-08 RMS, and 1.0D-07 maximum.
          Secondary convergence is 1.0D-12 RMS, and 1.0D-12 maximum.
          NewPWx=T KeepS1=T KeepF1=T KeepIn=T MapXYZ=F SortEE=F KeepMc=T.
 Keep R1 ints in memory in symmetry-blocked form, NReq=348888983.
 FoFCou: FMM=F IPFlag=           0 FMFlag=           0 FMFlg1=           0
         NFxFlg=           0 DoJE=F BraDBF=F KetDBF=F FulRan=T
         wScrn=  0.000000 ICntrl=       600 IOpCl=  0 I1Cent=           0 NGrid=           0
         NMat0=    1 NMatS0=  21528 NMatT0=    0 NMatD0=    1 NMtDS0=    0 NMtDT0=    0
 Petite list used in FoFCou.
          MDV=   16106127360 using IRadAn=       1.
          Solving linear equations simultaneously, MaxMat=       0.
          There are    18 degrees of freedom in the 1st order CPHF.  IDoFFX=6 NUNeed=    18.
     15 vectors produced by pass  0 Test12= 1.70D-14 5.56D-09 XBig12= 7.89D+00 1.22D+00.
 AX will form    15 AO Fock derivatives at one time.
     15 vectors produced by pass  1 Test12= 1.70D-14 5.56D-09 XBig12= 1.35D+00 2.22D-01.
     15 vectors produced by pass  2 Test12= 1.70D-14 5.56D-09 XBig12= 6.94D-02 5.72D-02.
     15 vectors produced by pass  3 Test12= 1.70D-14 5.56D-09 XBig12= 1.99D-03 1.04D-02.
     15 vectors produced by pass  4 Test12= 1.70D-14 5.56D-09 XBig12= 4.25D-05 1.25D-03.
     15 vectors produced by pass  5 Test12= 1.70D-14 5.56D-09 XBig12= 5.78D-07 1.12D-04.
     15 vectors produced by pass  6 Test12= 1.70D-14 5.56D-09 XBig12= 4.39D-09 1.11D-05.
     13 vectors produced by pass  7 Test12= 1.70D-14 5.56D-09 XBig12= 3.40D-11 7.31D-07.
      3 vectors produced by pass  8 Test12= 1.70D-14 5.56D-09 XBig12= 2.48D-13 6.12D-08.
      1 vectors produced by pass  9 Test12= 1.70D-14 5.56D-09 XBig12= 1.72D-15 7.51D-09.
 InvSVY:  IOpt=1 It=  1 EMax= 8.88D-16
 Solved reduced A of dimension   122 with    15 vectors.
 FullF1:  Do perturbations      1 to      18.
 Saving first derivative matrices.
 End of Minotr F.D. properties file   721 does not exist.
 End of Minotr F.D. properties file   722 does not exist.
 End of Minotr F.D. properties file   788 does not exist.
 Leave Link 1002 at Sun Mar  6 19:28:17 2022, MaxMem= 16106127360 cpu:              77.7 elap:               2.9
 (Enter /sw/contrib/gaussian/g16/B01/g16/l811.exe)
 MDV= 16106127360.
 Form MO integral derivatives with frozen-active canonical formalism.
 MOERI=1 MOERIx=1 NAtoms=     5 NAtomX=     5.
 Discarding MO integrals.
 MO basis two electron integral derivatives will not be stored on disk.
 IAlg= 3 DoFC=T DoPWx=T Debug=F.
 Frozen-core window:  NFC=   4 NFV=   0.
 Reordered first order wavefunction length =     18678272
 In DefCFB: NBatch=  1 ICI= 16 ICA=191 LFMax= 96
            Large arrays: LIAPS=   619940160 LIARS=   288257200 words.
 In StABat: MaxSiz= 55 MinSiz= 25 NAtomB=  5
 DoIAMN: NPSUse= 28.
 Leave Link  811 at Sun Mar  6 19:29:40 2022, MaxMem= 16106127360 cpu:            2317.6 elap:              82.9
 (Enter /sw/contrib/gaussian/g16/B01/g16/l804.exe)
 Frozen-core window:  NFC=   4 NFV=   0.
 Closed-shell transformation, MDV= 16106127360 ITran=4 ISComp=1.
 Semi-Direct transformation.
 ModeAB=           2 MOrb=            16 LenV=   16104919911
 LASXX=     67341636 LTotXX=    67341636 LenRXX=    67341636
 LTotAB=    68301760 MaxLAS=    99807120 LenRXY=    99807120
 NonZer=   134683272 LenScr=   202817536 LnRSAI=           0
 LnScr1=           0 LExtra=           0 Total=    369966292
 MaxDsk=          -1 SrtSym=           F ITran=            4
 DoSDTr:  NPSUse= 28
 JobTyp=0 Pass  1:  I=   1 to  16.
 (rs|ai) integrals will be sorted in core.
 Complete sort for first half transformation.
 First half transformation complete.
 Begin second half transformation for I=  10.
 Begin second half transformation for I=  10.
 Complete sort for second half transformation.
 Second half transformation complete.
 Spin components of T(2) and E(2):
     alpha-alpha T2 =       0.3484210047D-01 E2=     -0.1246682593D+00
     alpha-beta  T2 =       0.1845753928D+00 E2=     -0.6999578186D+00
     beta-beta   T2 =       0.3484210047D-01 E2=     -0.1246682593D+00
 ANorm=    0.1583830543D+01
 E2 =    -0.9492943371D+00 EUMP2 =    -0.28045505544544D+03
 Leave Link  804 at Sun Mar  6 19:29:55 2022, MaxMem= 16106127360 cpu:             430.0 elap:              15.4
 (Enter /sw/contrib/gaussian/g16/B01/g16/l1002.exe)
 Minotr:  Closed shell wavefunction.
          Computing MP2/KS-MP2 derivatives.
          Using Z-Vector for PSCF gradient.
          Skipping F1 and S1 gradient terms here.
          IDoAtm=11111
          Frozen-core window.
          Using MO integrals in the linear equations.
          Forming densities via direct SCF.
          Differentiating once with respect to electric field.
                with respect to dipole field.
          Differentiating once with respect to nuclear coordinates.
          Using symmetry in CPHF.
          Requested convergence is 1.0D-10 RMS, and 1.0D-09 maximum.
          NewPWx=F KeepS1=T KeepF1=T KeepIn=T MapXYZ=F SortEE=F KeepMc=T.
          MDV=   16106127360 using IRadAn=       5.
          Solving linear equations separately, MaxMat=       0.
          There are     1 degrees of freedom in the 1st order CPHF.  IDoFFX=0 NUNeed=     1.
 FoFJK:  IHMeth= 1 ICntrl=       0 DoSepK=F KAlg= 0 I1Cent=           0 FoldK=F
 IRaf=         0 NMat=       1 IRICut=       1 DoRegI=T DoRafI=F ISym2E= 0 IDoP0=0 IntGTp=1.
 FoFCou: FMM=F IPFlag=           0 FMFlag=      100000 FMFlg1=           0
         NFxFlg=           0 DoJE=F BraDBF=F KetDBF=F FulRan=T
         wScrn=  0.000000 ICntrl=         0 IOpCl=  0 I1Cent=           0 NGrid=           0
         NMat0=    1 NMatS0=      1 NMatT0=    0 NMatD0=    1 NMtDS0=    0 NMtDT0=    0
 Symmetry not used in FoFCou.
 LinEq1:  Iter=  0 NonCon=     1 RMS=6.62D-03 Max=1.72D-01 NDo=     1
 LinEq1:  Iter=  1 NonCon=     1 RMS=2.01D-03 Max=3.05D-02 NDo=     1
 LinEq1:  Iter=  2 NonCon=     1 RMS=8.92D-04 Max=1.45D-02 NDo=     1
 LinEq1:  Iter=  3 NonCon=     1 RMS=3.78D-04 Max=8.00D-03 NDo=     1
 LinEq1:  Iter=  4 NonCon=     1 RMS=1.37D-04 Max=1.65D-03 NDo=     1
 LinEq1:  Iter=  5 NonCon=     1 RMS=7.63D-05 Max=1.41D-03 NDo=     1
 LinEq1:  Iter=  6 NonCon=     1 RMS=2.44D-05 Max=2.92D-04 NDo=     1
 LinEq1:  Iter=  7 NonCon=     1 RMS=8.28D-06 Max=1.13D-04 NDo=     1
 LinEq1:  Iter=  8 NonCon=     1 RMS=4.04D-06 Max=6.28D-05 NDo=     1
 LinEq1:  Iter=  9 NonCon=     1 RMS=1.05D-06 Max=1.23D-05 NDo=     1
 LinEq1:  Iter= 10 NonCon=     1 RMS=2.32D-07 Max=3.04D-06 NDo=     1
 LinEq1:  Iter= 11 NonCon=     1 RMS=4.96D-08 Max=8.44D-07 NDo=     1
 LinEq1:  Iter= 12 NonCon=     1 RMS=1.17D-08 Max=1.85D-07 NDo=     1
 LinEq1:  Iter= 13 NonCon=     1 RMS=2.07D-09 Max=2.45D-08 NDo=     1
 LinEq1:  Iter= 14 NonCon=     1 RMS=4.32D-10 Max=5.66D-09 NDo=     1
 LinEq1:  Iter= 15 NonCon=     0 RMS=8.83D-11 Max=9.46D-10 NDo=     1
 Linear equations converged to 1.000D-10 1.000D-09 after    15 iterations.
 End of Minotr F.D. properties file   721 does not exist.
 End of Minotr F.D. properties file   722 does not exist.
 End of Minotr F.D. properties file   788 does not exist.
 Leave Link 1002 at Sun Mar  6 19:29:57 2022, MaxMem= 16106127360 cpu:              64.7 elap:               2.4
 (Enter /sw/contrib/gaussian/g16/B01/g16/l1102.exe)
 Use density number 2.
 Symmetrizing basis deriv contribution to polar:
 IMax=3 JMax=2 DiffMx= 0.00D+00
 Leave Link 1102 at Sun Mar  6 19:29:57 2022, MaxMem= 16106127360 cpu:               1.5 elap:               0.1
 (Enter /sw/contrib/gaussian/g16/B01/g16/l1110.exe)
 Forming Gx(P) for generalized density number  2 NAtomX=     5.
 Integral derivatives from FoFJK, PRISM(SPDF).
 Do as many integral derivatives as possible in FoFJK.
 G2DrvN: MDV=   16106126844.
 G2DrvN: will do     6 centers at a time, making    1 passes.
 Calling FoFCou, ICntrl=  3107 FMM=F I1Cent=   0 AccDes= 0.00D+00.
 FoFJK:  IHMeth= 1 ICntrl=    3107 DoSepK=F KAlg= 0 I1Cent=           0 FoldK=F
 IRaf=         0 NMat=       1 IRICut=       1 DoRegI=T DoRafI=F ISym2E= 1 IDoP0=0 IntGTp=1.
 FoFCou: FMM=F IPFlag=           0 FMFlag=      100000 FMFlg1=           0
         NFxFlg=           0 DoJE=F BraDBF=F KetDBF=F FulRan=T
         wScrn=  0.000000 ICntrl=      3107 IOpCl=  0 I1Cent=           0 NGrid=           0
         NMat0=    1 NMatS0=      1 NMatT0=    0 NMatD0=    1 NMtDS0=    0 NMtDT0=    0
 Petite list used in FoFCou.
 End of G2Drv F.D. properties file   721 does not exist.
 End of G2Drv F.D. properties file   722 does not exist.
 End of G2Drv F.D. properties file   788 does not exist.
 Leave Link 1110 at Sun Mar  6 19:30:01 2022, MaxMem= 16106127360 cpu:              86.9 elap:               3.1
 (Enter /sw/contrib/gaussian/g16/B01/g16/l1112.exe)
 MP22nd: MDV=   16106127360
 This link is doing NAtomX=     5 total of    18 degrees of freedom.
 Using ON3 I/O method in MakUI.
 Frozen-core window:  NFC=   4 NFV=   0.
 Using Ix for Sx.
 Use MO integrals over full window.
 Using OV2 memory method for fx*t*t/D, MaxI=    16 DoOO2=F NP=  28.
 R2 and R3 integrals will be kept in memory, NReq=   915591705.
 FoFCou: FMM=F IPFlag=           0 FMFlag=           0 FMFlg1=           0
         NFxFlg=           0 DoJE=F BraDBF=F KetDBF=F FulRan=T
         wScrn=  0.000000 ICntrl=       600 IOpCl=  0 I1Cent=           0 NGrid=           0
         NMat0=    1 NMatS0=      1 NMatT0=    0 NMatD0=    1 NMtDS0=    0 NMtDT0=    0
 Symmetry not used in FoFCou.
 DD1Dir will call FoFMem   1 times, MxPair=       272
 NAB=   136 NAA=     0 NBB=     0.
 Symmetry is being used.
 FoFJK:  IHMeth= 1 ICntrl=       0 DoSepK=F KAlg= 0 I1Cent=           0 FoldK=F
 IRaf=         0 NMat=      18 IRICut=      45 DoRegI=T DoRafI=T ISym2E= 2 IDoP0=3 IntGTp=3.
 Discarding MO integrals.
 Leave Link 1112 at Sun Mar  6 19:30:35 2022, MaxMem= 16106127360 cpu:             955.9 elap:              34.5
 (Enter /sw/contrib/gaussian/g16/B01/g16/l601.exe)
 Copying SCF densities to generalized density rwf, IOpCl= 0 IROHF=0.

 **********************************************************************

            Population analysis using the MP2 Density.

 **********************************************************************

 Orbital symmetries:
       Occupied  (A') (A') (A') (A') (A') (A') (A') (A') (A') (A')
                 (A") (A') (A") (A') (A') (A")
       Virtual   (A') (A") (A') (A') (A") (A') (A') (A') (A") (A')
                 (A") (A') (A') (A') (A") (A') (A') (A") (A') (A')
                 (A') (A') (A') (A') (A") (A') (A') (A") (A') (A')
                 (A') (A") (A") (A') (A') (A') (A") (A') (A") (A')
                 (A") (A") (A') (A') (A") (A') (A') (A") (A') (A')
                 (A') (A") (A') (A') (A") (A') (A") (A') (A') (A")
                 (A') (A') (A") (A') (A') (A") (A') (A") (A') (A')
                 (A") (A') (A") (A") (A') (A') (A") (A') (A') (A')
                 (A") (A') (A') (A") (A') (A") (A") (A') (A') (A')
                 (A') (A') (A") (A") (A') (A') (A") (A") (A') (A")
                 (A') (A') (A") (A') (A") (A') (A') (A') (A") (A")
                 (A') (A') (A') (A') (A") (A') (A') (A') (A") (A')
                 (A") (A') (A") (A') (A") (A") (A') (A") (A') (A')
                 (A') (A') (A") (A') (A') (A") (A") (A') (A') (A")
                 (A') (A") (A') (A') (A') (A") (A') (A') (A') (A")
                 (A') (A') (A') (A") (A') (A") (A") (A') (A') (A")
                 (A') (A") (A') (A") (A") (A') (A") (A') (A") (A")
                 (A') (A") (A") (A') (A') (A") (A') (A') (A") (A')
                 (A') (A') (A') (A') (A') (A') (A') (A') (A') (A')
                 (A')
 The electronic state is 1-A'.
 Alpha  occ. eigenvalues --  -20.71958 -20.68861 -20.66872 -15.82712  -1.64609
 Alpha  occ. eigenvalues --   -1.50642  -1.29392  -0.96033  -0.83665  -0.75980
 Alpha  occ. eigenvalues --   -0.74083  -0.63824  -0.61932  -0.61881  -0.50614
 Alpha  occ. eigenvalues --   -0.49773
 Alpha virt. eigenvalues --    0.03547   0.05931   0.09499   0.10028   0.11929
 Alpha virt. eigenvalues --    0.12261   0.14930   0.15317   0.17733   0.17963
 Alpha virt. eigenvalues --    0.18959   0.21077   0.21703   0.24219   0.24630
 Alpha virt. eigenvalues --    0.26843   0.31379   0.31816   0.33761   0.34400
 Alpha virt. eigenvalues --    0.34849   0.39284   0.45022   0.49211   0.50578
 Alpha virt. eigenvalues --    0.51803   0.54242   0.56035   0.59676   0.62086
 Alpha virt. eigenvalues --    0.63859   0.69159   0.71590   0.72380   0.74174
 Alpha virt. eigenvalues --    0.76513   0.76697   0.79558   0.80632   0.83713
 Alpha virt. eigenvalues --    0.84323   0.85331   0.88495   0.90837   0.92869
 Alpha virt. eigenvalues --    0.94952   0.95293   1.01978   1.03643   1.06788
 Alpha virt. eigenvalues --    1.07044   1.09735   1.14638   1.15608   1.16971
 Alpha virt. eigenvalues --    1.22131   1.22841   1.24952   1.34718   1.36169
 Alpha virt. eigenvalues --    1.36965   1.46837   1.48420   1.50196   1.54730
 Alpha virt. eigenvalues --    1.59721   1.59811   1.60291   1.62970   1.69400
 Alpha virt. eigenvalues --    1.74990   1.80036   1.82872   1.88752   1.91141
 Alpha virt. eigenvalues --    1.93481   1.97888   1.98796   2.05315   2.12575
 Alpha virt. eigenvalues --    2.13473   2.16999   2.19190   2.24211   2.26081
 Alpha virt. eigenvalues --    2.29818   2.35711   2.36792   2.39064   2.40424
 Alpha virt. eigenvalues --    2.43644   2.46963   2.48066   2.53147   2.54214
 Alpha virt. eigenvalues --    2.54762   2.56137   2.61704   2.63259   2.67200
 Alpha virt. eigenvalues --    2.67544   2.75195   2.80201   2.81146   2.85360
 Alpha virt. eigenvalues --    2.91683   2.98636   3.04793   3.05020   3.11805
 Alpha virt. eigenvalues --    3.12544   3.18047   3.22523   3.31380   3.33150
 Alpha virt. eigenvalues --    3.35685   3.48490   3.67724   3.87127   3.94588
 Alpha virt. eigenvalues --    4.19008   4.22084   4.22735   4.26886   4.36772
 Alpha virt. eigenvalues --    4.49712   4.53130   4.55473   4.61468   4.68941
 Alpha virt. eigenvalues --    4.81319   4.89775   4.91556   4.93635   4.99895
 Alpha virt. eigenvalues --    5.00468   5.10846   5.13358   5.17617   5.25361
 Alpha virt. eigenvalues --    5.25449   5.31825   5.34291   5.38377   5.54554
 Alpha virt. eigenvalues --    5.64426   5.71092   5.89750   5.99552   6.26512
 Alpha virt. eigenvalues --    6.30055   6.35340   6.37400   6.60326   6.65277
 Alpha virt. eigenvalues --    6.66482   6.69286   6.72404   6.79351   6.80864
 Alpha virt. eigenvalues --    6.84987   6.96909   7.03890   7.06644   7.07394
 Alpha virt. eigenvalues --    7.12535   7.17520   7.18118   7.20756   7.24745
 Alpha virt. eigenvalues --    7.25129   7.27350   7.35183   7.40381   7.43813
 Alpha virt. eigenvalues --    7.44114   7.46542   7.55949   7.66306   7.67931
 Alpha virt. eigenvalues --    7.79751   7.89133   7.95221   8.08491   8.32435
 Alpha virt. eigenvalues --    8.49441   8.65199  13.62564  14.79217  15.12334
 Alpha virt. eigenvalues --   15.81810
          Condensed to atoms (all electrons):
               1          2          3          4          5
     1  H    0.585142   0.121272   0.021387   0.001832  -0.001170
     2  O    0.121272   8.393280  -0.228471  -0.001226  -0.009659
     3  O    0.021387  -0.228471   8.371335  -0.170315  -0.032745
     4  N    0.001832  -0.001226  -0.170315   7.138978  -0.126315
     5  O   -0.001170  -0.009659  -0.032745  -0.126315   8.362082
 Mulliken charges:
               1
     1  H    0.271536
     2  O   -0.275196
     3  O    0.038809
     4  N    0.157045
     5  O   -0.192195
 Sum of Mulliken charges =  -0.00000
 Mulliken charges with hydrogens summed into heavy atoms:
               1
     2  O   -0.003659
     3  O    0.038809
     4  N    0.157045
     5  O   -0.192195
 APT charges:
               1
     1  H    0.273259
     2  O   -0.304414
     3  O   -0.307669
     4  N    0.643293
     5  O   -0.304470
 Sum of APT charges =  -0.00000
 APT charges with hydrogens summed into heavy atoms:
               1
     2  O   -0.031155
     3  O   -0.307669
     4  N    0.643293
     5  O   -0.304470
 Electronic spatial extent (au):  <R**2>=            206.9452
 Charge=             -0.0000 electrons
 Dipole moment (field-independent basis, Debye):
    X=             -0.0016    Y=             -1.0749    Z=              0.0000  Tot=              1.0749
 Quadrupole moment (field-independent basis, Debye-Ang):
   XX=            -23.4606   YY=            -22.9508   ZZ=            -21.9249
   XY=             -1.8769   XZ=              0.0000   YZ=              0.0000
 Traceless Quadrupole moment (field-independent basis, Debye-Ang):
   XX=             -0.6819   YY=             -0.1720   ZZ=              0.8539
   XY=             -1.8769   XZ=              0.0000   YZ=              0.0000
 Octapole moment (field-independent basis, Debye-Ang**2):
  XXX=              2.3695  YYY=              0.2902  ZZZ=              0.0000  XYY=              2.3025
  XXY=             -2.6699  XXZ=              0.0000  XZZ=             -0.5856  YZZ=             -0.7050
  YYZ=              0.0000  XYZ=              0.0000
 Hexadecapole moment (field-independent basis, Debye-Ang**3):
 XXXX=           -126.7677 YYYY=            -94.8085 ZZZZ=            -18.0225 XXXY=            -21.3629
 XXXZ=              0.0000 YYYX=            -19.7711 YYYZ=              0.0000 ZZZX=              0.0000
 ZZZY=              0.0000 XXYY=            -35.6180 XXZZ=            -24.2641 YYZZ=            -18.5752
 XXYZ=              0.0000 YYXZ=              0.0000 ZZXY=             -5.9362
 N-N= 1.228578381925D+02 E-N=-9.072529773861D+02  KE= 2.802111444791D+02
 Symmetry A'   KE= 2.663618514143D+02
 Symmetry A"   KE= 1.384929306475D+01
  Exact polarizability:  30.896   4.233  29.816   0.000   0.000  17.583
 Approx polarizability:  24.626   0.620  27.607  -0.000  -0.000  15.492
 No NMR shielding tensors so no spin-rotation constants.
 Leave Link  601 at Sun Mar  6 19:30:35 2022, MaxMem= 16106127360 cpu:               4.3 elap:               0.2
 (Enter /sw/contrib/gaussian/g16/B01/g16/l701.exe)
 ... and contract with generalized density number  2.
 Compute integral second derivatives.
 Leave Link  701 at Sun Mar  6 19:30:36 2022, MaxMem= 16106127360 cpu:               5.9 elap:               0.2
 (Enter /sw/contrib/gaussian/g16/B01/g16/l702.exe)
 L702 exits ... SP integral derivatives will be done elsewhere.
 Leave Link  702 at Sun Mar  6 19:30:36 2022, MaxMem= 16106127360 cpu:               0.9 elap:               0.1
 (Enter /sw/contrib/gaussian/g16/B01/g16/l703.exe)
 Integral derivatives from FoFJK, PRISM(SPDF).
 Compute integral second derivatives, UseDBF=F ICtDFT=           0.
 Calling FoFJK, ICntrl=  10100127 FMM=F ISym2X=1 I1Cent= 0 IOpClX= 0 NMat=1 NMatS=1 NMatT=0.
 FoFJK:  IHMeth= 1 ICntrl=10100127 DoSepK=F KAlg= 0 I1Cent=           0 FoldK=F
 IRaf=         0 NMat=       1 IRICut=       1 DoRegI=T DoRafI=F ISym2E= 1 IDoP0=0 IntGTp=1.
 FoFCou: FMM=F IPFlag=           0 FMFlag=      100000 FMFlg1=         800
         NFxFlg=           0 DoJE=F BraDBF=F KetDBF=F FulRan=T
         wScrn=  0.000000 ICntrl=  10100127 IOpCl=  0 I1Cent=           0 NGrid=           0
         NMat0=    1 NMatS0=      1 NMatT0=    0 NMatD0=    1 NMtDS0=    0 NMtDT0=    0
 Petite list used in FoFCou.
 Leave Link  703 at Sun Mar  6 19:30:52 2022, MaxMem= 16106127360 cpu:             447.3 elap:              16.0
 (Enter /sw/contrib/gaussian/g16/B01/g16/l716.exe)
 Dipole        =-6.37772501D-04-4.22911077D-01 0.00000000D+00
 Polarizability= 3.08956307D+01 4.23273339D+00 2.98158160D+01
                 0.00000000D+00 0.00000000D+00 1.75825597D+01
 Full mass-weighted force constant matrix:
 Low frequencies ---  -82.1115  -28.9935   -0.0017    0.0006    0.0011   29.9097
 Low frequencies ---  376.8298  398.2294  521.1325
 Diagonal vibrational polarizability:
        7.0899558       9.9896009      14.0461605
 Harmonic frequencies (cm**-1), IR intensities (KM/Mole), Raman scattering
 activities (A**4/AMU), depolarization ratios for plane and unpolarized
 incident light, reduced masses (AMU), force constants (mDyne/A),
 and normal coordinates:
                      1                      2                      3
                     A"                     A'                     A"
 Frequencies --    375.4644               398.2181               520.8984
 Red. masses --      1.5465                 7.2565                 2.9231
 Frc consts  --      0.1284                 0.6780                 0.4673
 IR Inten    --     60.8524                 7.9494                24.4978
  Atom  AN      X      Y      Z        X      Y      Z        X      Y      Z
     1   1    -0.00  -0.00   0.98    -0.72  -0.25  -0.00     0.00   0.00   0.93
     2   8     0.00  -0.00  -0.11    -0.33  -0.32   0.00     0.00   0.00   0.06
     3   8    -0.00   0.00   0.11    -0.07   0.08  -0.00    -0.00  -0.00  -0.18
     4   7    -0.00  -0.00  -0.11     0.06   0.10   0.00     0.00   0.00   0.27
     5   8     0.00   0.00   0.03     0.39   0.17  -0.00    -0.00   0.00  -0.17
                      4                      5                      6
                     A'                     A'                     A'
 Frequencies --    713.2960               841.0121               974.4058
 Red. masses --     13.4367                13.2955                 9.8096
 Frc consts  --      4.0279                 5.5406                 5.4876
 IR Inten    --    215.2232                31.9673                12.6633
  Atom  AN      X      Y      Z        X      Y      Z        X      Y      Z
     1   1    -0.35   0.01   0.00     0.37  -0.13  -0.00    -0.63   0.02  -0.00
     2   8    -0.01  -0.08   0.00     0.56  -0.21   0.00     0.19  -0.17   0.00
     3   8     0.38   0.58  -0.00    -0.40  -0.02  -0.00    -0.36   0.41  -0.00
     4   7    -0.42  -0.46   0.00    -0.44  -0.06   0.00     0.38   0.04   0.00
     5   8     0.02  -0.10  -0.00     0.21   0.29  -0.00    -0.13  -0.28  -0.00
                      7                      8                      9
                     A'                     A'                     A'
 Frequencies --   1457.5627              1577.9972              3474.1949
 Red. masses --      1.3871                 4.7100                 1.0635
 Frc consts  --      1.7362                 6.9101                 7.5633
 IR Inten    --     82.4353               150.2954                46.2431
  Atom  AN      X      Y      Z        X      Y      Z        X      Y      Z
     1   1     0.96  -0.22  -0.00     0.83  -0.21  -0.00     0.18   0.98   0.00
     2   8    -0.06  -0.05  -0.00    -0.02  -0.03  -0.00    -0.01  -0.06  -0.00
     3   8    -0.03   0.06   0.00     0.02   0.06   0.00     0.00  -0.00   0.00
     4   7     0.07  -0.07  -0.00    -0.20   0.33  -0.00    -0.00   0.00   0.00
     5   8    -0.03   0.07   0.00     0.12  -0.31   0.00     0.00  -0.00  -0.00

 -------------------
 - Thermochemistry -
 -------------------
 Temperature   298.150 Kelvin.  Pressure   1.00000 Atm.
 Atom     1 has atomic number  1 and mass   1.00783
 Atom     2 has atomic number  8 and mass  15.99491
 Atom     3 has atomic number  8 and mass  15.99491
 Atom     4 has atomic number  7 and mass  14.00307
 Atom     5 has atomic number  8 and mass  15.99491
 Molecular mass:    62.99564 amu.
 Principal axes and moments of inertia in atomic units:
                           1         2         3
     Eigenvalues --    84.28763 222.51929 306.80692
           X            0.79489  -0.60676   0.00000
           Y            0.60676   0.79489   0.00000
           Z            0.00000   0.00000   1.00000
 This molecule is an asymmetric top.
 Rotational symmetry number  1.
 Rotational temperatures (Kelvin)      1.02760     0.38924     0.28231
 Rotational constants (GHZ):          21.41170     8.11049     5.88234
 Zero-point vibrational energy      61805.4 (Joules/Mol)
                                   14.77184 (Kcal/Mol)
 Warning -- explicit consideration of   3 degrees of freedom as
           vibrations may cause significant error
 Vibrational temperatures:    540.21   572.95   749.46  1026.27  1210.03
          (Kelvin)           1401.95  2097.11  2270.39  4998.59
 
 Zero-point correction=                           0.023540 (Hartree/Particle)
 Thermal correction to Energy=                    0.027452
 Thermal correction to Enthalpy=                  0.028396
 Thermal correction to Gibbs Free Energy=        -0.002410
 Sum of electronic and zero-point Energies=           -280.431515
 Sum of electronic and thermal Energies=              -280.427603
 Sum of electronic and thermal Enthalpies=            -280.426659
 Sum of electronic and thermal Free Energies=         -280.457465
 
                     E (Thermal)             CV                S
                      KCal/Mol        Cal/Mol-Kelvin    Cal/Mol-Kelvin
 Total                   17.226             12.101             64.837
 Electronic               0.000              0.000              0.000
 Translational            0.889              2.981             38.341
 Rotational               0.889              2.981             23.269
 Vibrational             15.449              6.139              3.228
 Vibration     1          0.746              1.522              1.057
 Vibration     2          0.764              1.474              0.969
 Vibration     3          0.876              1.204              0.608
                       Q            Log10(Q)             Ln(Q)
 Total Bot       0.128390D+02          1.108531          2.552487
 Total V=0       0.863699D+12         11.936363         27.484491
 Vib (Bot)       0.240584D-10        -10.618732        -24.450535
 Vib (Bot)    1  0.483073D+00         -0.315988         -0.727589
 Vib (Bot)    2  0.448167D+00         -0.348560         -0.802589
 Vib (Bot)    3  0.309620D+00         -0.509171         -1.172410
 Vib (V=0)       0.161845D+01          0.209099          0.481468
 Vib (V=0)    1  0.119524D+01          0.077455          0.178347
 Vib (V=0)    2  0.117146D+01          0.068726          0.158248
 Vib (V=0)    3  0.108810D+01          0.036670          0.084435
 Electronic      0.100000D+01          0.000000          0.000000
 Translational   0.196526D+08          7.293420         16.793719
 Rotational      0.271546D+05          4.433844         10.209303
 
                                                                title
                                                             IR Spectrum
 
     3                                                                     1   1                                                     
     4                                                                     5   4                 9    8   7      5    33             
     7                                                                     7   5                 7    4   1      2    97             
     4                                                                     8   8                 4    1   3      1    85             
 
     X                                                                     X   X                 X    X   X      X    XX             
     X                                                                     X   X                      X   X      X     X             
     X                                                                     X   X                      X   X            X             
     X                                                                     X   X                          X            X             
                                                                           X   X                          X            X             
                                                                           X   X                          X            X             
                                                                           X   X                          X                          
                                                                           X   X                          X                          
                                                                           X                              X                          
                                                                           X                              X                          
                                                                           X                              X                          
                                                                           X                              X                          
                                                                           X                              X                          
                                                                           X                              X                          
                                                                                                          X                          
                                                                                                          X                          
                                                                                                          X                          
                                                                                                          X                          
                                                                                                          X                          
                                                                                                          X                          
 
 ***** Axes restored to original set *****
 -------------------------------------------------------------------
 Center     Atomic                   Forces (Hartrees/Bohr)
 Number     Number              X              Y              Z
 -------------------------------------------------------------------
      1        1          -0.005287100   -0.000000000   -0.001792845
      2        8           0.003363722   -0.000000000   -0.002155308
      3        8           0.002162988   -0.000000000    0.002729847
      4        7           0.000764275   -0.000000000    0.001868109
      5        8          -0.001003885   -0.000000000   -0.000649803
 -------------------------------------------------------------------
 Cartesian Forces:  Max     0.005287100 RMS     0.002077856
 -----------------------------------------------------------------------------------------------
                       Internal Coordinate Forces (Hartree/Bohr or radian)
  Cent   Atom   N1       Length/X         N2         Alpha/Y        N3         Beta/Z          J
 -----------------------------------------------------------------------------------------------
      1  H 
      2  O        1   0.001793(     1)
      3  O        2   0.002483(     2)      1   0.009845(     5)
      4  N        3  -0.001163(     3)      2   0.000078(     6)      1   0.000000(     8)     0
      5  O        4   0.001101(     4)      3  -0.001055(     7)      2   0.000000(     9)     0
 -----------------------------------------------------------------------------------------------
 Internal  Forces:  Max     0.009844887 RMS     0.003495771
 Force constants in Cartesian coordinates: 
                1             2             3             4             5 
      1  0.764483D-01
      2  0.000000D+00  0.617491D-02
      3  0.282584D-01  0.000000D+00  0.432711D+00
      4 -0.485926D-01  0.000000D+00 -0.535301D-02  0.277075D+00
      5  0.000000D+00 -0.420793D-02  0.000000D+00  0.000000D+00  0.154440D-01
      6  0.299242D-01  0.000000D+00 -0.417115D+00 -0.141325D-01  0.000000D+00
      7 -0.302819D-01  0.000000D+00 -0.182457D-01 -0.173732D+00  0.000000D+00
      8  0.000000D+00 -0.232015D-02  0.000000D+00  0.000000D+00 -0.207909D-01
      9 -0.443652D-01  0.000000D+00 -0.224146D-01  0.118484D-01  0.000000D+00
     10 -0.879570D-02  0.000000D+00  0.803020D-02 -0.818847D-01  0.000000D+00
     11  0.000000D+00  0.829703D-02  0.000000D+00  0.000000D+00  0.202570D-01
     12 -0.197501D-01  0.000000D+00  0.146879D-01  0.126930D-01  0.000000D+00
     13  0.112219D-01  0.000000D+00 -0.126899D-01  0.271342D-01  0.000000D+00
     14  0.000000D+00 -0.794387D-02  0.000000D+00  0.000000D+00 -0.107022D-01
     15  0.593275D-02  0.000000D+00 -0.786913D-02 -0.505577D-02  0.000000D+00
                6             7             8             9            10 
      6  0.519352D+00
      7 -0.899647D-01  0.313239D+00
      8  0.000000D+00  0.000000D+00  0.415131D-01
      9 -0.912728D-01  0.852286D-01  0.000000D+00  0.313082D+00
     10  0.416424D-01 -0.143917D+00  0.000000D+00 -0.313216D-01  0.574862D+00
     11  0.000000D+00  0.000000D+00 -0.489454D-01  0.000000D+00  0.000000D+00
     12 -0.136817D-01  0.213149D-01  0.000000D+00 -0.255739D-01  0.239694D+00
     13  0.325307D-01  0.346920D-01  0.000000D+00 -0.213901D-01 -0.340264D+00
     14  0.000000D+00  0.000000D+00  0.305433D-01  0.000000D+00  0.000000D+00
     15  0.271726D-02  0.166677D-02  0.000000D+00 -0.173821D+00 -0.258045D+00
               11            12            13            14            15 
     11  0.579453D-01
     12  0.000000D+00  0.431245D+00
     13  0.000000D+00 -0.253952D+00  0.267216D+00
     14 -0.375540D-01  0.000000D+00  0.000000D+00  0.256567D-01
     15  0.000000D+00 -0.406678D+00  0.255502D+00  0.000000D+00  0.585650D+00
 Force constants in internal coordinates: 
                1             2             3             4             5 
      1  0.432711D+00
      2  0.249482D-01  0.264596D+00
      3  0.824926D-02  0.160335D-01  0.207014D+00
      4 -0.136284D-01  0.229844D-01  0.149558D+00  0.722829D+00
      5  0.473324D-01  0.672249D-01 -0.242835D-01  0.208588D-01  0.268416D+00
      6  0.148136D-01  0.252895D-01  0.910068D-01  0.113907D-01  0.292734D-04
      7  0.137753D-01 -0.762615D-01  0.120550D+00  0.119534D+00 -0.250997D-01
      8  0.000000D+00  0.000000D+00  0.000000D+00  0.000000D+00  0.000000D+00
      9  0.000000D+00  0.000000D+00  0.000000D+00  0.000000D+00  0.000000D+00
                6             7             8             9 
      6  0.534859D+00
      7  0.632594D-01  0.665387D+00
      8  0.000000D+00  0.000000D+00  0.227842D-01
      9  0.000000D+00  0.000000D+00  0.301011D-01  0.111044D+00
 Leave Link  716 at Sun Mar  6 19:30:52 2022, MaxMem= 16106127360 cpu:               1.2 elap:               0.1
 (Enter /sw/contrib/gaussian/g16/B01/g16/l103.exe)

 GradGradGradGradGradGradGradGradGradGradGradGradGradGradGradGradGradGrad
 Berny optimization.
 Search for a local minimum.
 Step number   1 out of a maximum of    2
 All quantities printed in internal units (Hartrees-Bohrs-Radians)
 Second derivative matrix not updated -- analytic derivatives used.
 The second derivative matrix:
                          r1        r2        r3        r4        a1
           r1           0.43271
           r2           0.02495   0.26460
           r3           0.00825   0.01603   0.20701
           r4          -0.01363   0.02298   0.14956   0.72283
           a1           0.04733   0.06722  -0.02428   0.02086   0.26842
           a2           0.01481   0.02529   0.09101   0.01139   0.00003
           a3           0.01378  -0.07626   0.12055   0.11953  -0.02510
           d1           0.00000   0.00000   0.00000   0.00000   0.00000
           d2           0.00000   0.00000   0.00000   0.00000   0.00000
                          a2        a3        d1        d2
           a2           0.53486
           a3           0.06326   0.66539
           d1           0.00000   0.00000   0.02278
           d2           0.00000   0.00000   0.03010   0.11104
 ITU=  0
     Eigenvalues ---    0.01350   0.12033   0.12514   0.20465   0.28913
     Eigenvalues ---    0.44848   0.52993   0.61012   0.88836
 Angle between quadratic step and forces=  18.53 degrees.
 Linear search not attempted -- first point.
 Variable       Old X    -DE/DX   Delta X   Delta X   Delta X     New X
                                 (Linear)    (Quad)   (Total)
    r1        1.86209   0.00179   0.00000   0.00022   0.00022   1.86231
    r2        2.69614   0.00248   0.00000   0.00014   0.00014   2.69628
    r3        2.60992  -0.00116   0.00000  -0.00227  -0.00227   2.60765
    r4        2.25782   0.00110   0.00000   0.00094   0.00094   2.25876
    a1        1.71825   0.00984   0.00000   0.03633   0.03633   1.75458
    a2        1.97463   0.00008   0.00000   0.00050   0.00050   1.97512
    a3        1.99550  -0.00106   0.00000  -0.00001  -0.00001   1.99549
    d1        0.00000   0.00000   0.00000   0.00000   0.00000   0.00000
    d2        0.00000   0.00000   0.00000   0.00000   0.00000   0.00000
         Item               Value     Threshold  Converged?
 Maximum Force            0.009845     0.000450     NO 
 RMS     Force            0.003496     0.000300     NO 
 Maximum Displacement     0.036326     0.001800     NO 
 RMS     Displacement     0.012138     0.001200     NO 
 Predicted change in Energy=-1.810378D-04
                       ----------------------------
                       ! Non-Optimized Parameters !
                       ! (Angstroms and Degrees)  !
 ----------------------                            ----------------------
 !      Name          Value   Derivative information (Atomic Units)     !
 ------------------------------------------------------------------------
 !       r1          0.9855   -DE/DX =    0.0018                        !
 !       r2          1.4268   -DE/DX =    0.0025                        !
 !       r3          1.3799   -DE/DX =   -0.0012                        !
 !       r4          1.1953   -DE/DX =    0.0011                        !
 !       a1        100.53     -DE/DX =    0.0098                        !
 !       a2        113.1663   -DE/DX =    0.0001                        !
 !       a3        114.3334   -DE/DX =   -0.0011                        !
 !       d1          0.0      -DE/DX =    0.0                           !
 !       d2          0.0      -DE/DX =    0.0                           !
 ------------------------------------------------------------------------
 GradGradGradGradGradGradGradGradGradGradGradGradGradGradGradGradGradGrad

 Leave Link  103 at Sun Mar  6 19:30:52 2022, MaxMem= 16106127360 cpu:               2.3 elap:               0.1
 (Enter /sw/contrib/gaussian/g16/B01/g16/l9999.exe)

 ----------------------------------------------------------------------

 Electric dipole moment (input orientation):
 (Debye = 10**-18 statcoulomb cm , SI units = C m)
                  (au)            (Debye)         (10**-30 SI)
   Tot        0.422912D+00      0.107493D+01      0.358559D+01
   x         -0.103270D+00     -0.262487D+00     -0.875562D+00
   y          0.000000D+00      0.000000D+00      0.000000D+00
   z         -0.410109D+00     -0.104239D+01     -0.347705D+01

 Dipole polarizability, Alpha (input orientation).
 (esu units = cm**3 , SI units = C**2 m**2 J**-1)
 Alpha(0;0):
               (au)            (10**-24 esu)      (10**-40 SI)
   iso        0.260980D+02      0.386732D+01      0.430298D+01
   aniso      0.147572D+02      0.218680D+01      0.243314D+01
   xx         0.288146D+02      0.426989D+01      0.475089D+01
   yx         0.000000D+00      0.000000D+00      0.000000D+00
   yy         0.175826D+02      0.260547D+01      0.289897D+01
   zx        -0.397902D+01     -0.589630D+00     -0.656052D+00
   zy         0.000000D+00      0.000000D+00      0.000000D+00
   zz         0.318968D+02      0.472662D+01      0.525907D+01

 ----------------------------------------------------------------------

 Dipole orientation:
     1         -0.00000000          0.00000000          0.00000000
     8         -0.45470218          0.00000000         -1.80572214
     8          2.03471815         -0.00000000         -2.84107987
     7          3.90326277         -0.00000000         -1.01893874
     8          3.13305180          0.00000000          1.10345132

 Electric dipole moment (dipole orientation):
 (Debye = 10**-18 statcoulomb cm , SI units = C m)
                  (au)            (Debye)         (10**-30 SI)
   Tot        0.422912D+00      0.107493D+01      0.358559D+01
   x          0.000000D+00      0.000000D+00      0.000000D+00
   y          0.000000D+00      0.000000D+00      0.000000D+00
   z          0.422912D+00      0.107493D+01      0.358559D+01

 Dipole polarizability, Alpha (dipole orientation).
 (esu units = cm**3 , SI units = C**2 m**2 J**-1)
 Alpha(0;0):
               (au)            (10**-24 esu)      (10**-40 SI)
   iso        0.260980D+02      0.386732D+01      0.430298D+01
   aniso      0.147572D+02      0.218680D+01      0.243314D+01
   xx         0.308829D+02      0.457637D+01      0.509190D+01
   yx         0.000000D+00      0.000000D+00      0.000000D+00
   yy         0.175826D+02      0.260547D+01      0.289897D+01
   zx         0.423434D+01      0.627465D+00      0.698149D+00
   zy         0.000000D+00      0.000000D+00      0.000000D+00
   zz         0.298286D+02      0.442014D+01      0.491807D+01

 ----------------------------------------------------------------------
 1\1\GINC-N2109\Freq\RMP2-FC\Aug-CC-pVTZ\H1N1O3\CGAVINH\06-Mar-2022\1\\
 #p freq mp2/aug-cc-pvtz density=current\\title\\0,1\H\O,1,r1\O,2,r2,1,
 a1\N,3,r3,2,a2,1,d1,0\O,4,r4,3,a3,2,d2,0\\r1=0.98537664\r2=1.42673666\
 r3=1.38110764\r4=1.19478846\a1=98.44867421\a2=113.13777052\a3=114.3339
 2022\d1=0.\d2=0.\\Version=ES64L-G16RevB.01\State=1-A'\HF=-279.5057611\
 MP2=-280.4550554\RMSD=4.505e-09\RMSF=2.078e-03\ZeroPoint=0.0235404\The
 rmal=0.027452\Dipole=-0.1032703,0.,-0.410109\DipoleDeriv=0.3210964,0.,
 0.0291238,0.,0.2929478,0.,-0.0430798,0.,0.2057327,-0.5248573,0.,0.3022
 112,0.,-0.2494324,0.,-0.076292,0.,-0.1389508,0.0374876,0.,0.2928038,0.
 ,-0.0120034,0.,0.3981979,0.,-0.9484899,0.1698656,0.,-0.0767985,0.,0.01
 26389,0.,-0.6007022,0.,1.7473759,-0.0035922,0.,-0.5473403,0.,-0.044150
 9,0.,0.3218761,0.,-0.8656679\Polar=28.8146403,0.,17.5825597,-3.9790193
 ,0.,31.8968064\Quadrupole=0.1804874,0.6348467,-0.815334,0.,1.317253,0.
 \PG=CS [SG(H1N1O3)]\NImag=0\\0.07644826,0.,0.00617491,0.02825840,0.,0.
 43271106,-0.04859259,0.,-0.00535301,0.27707535,0.,-0.00420793,0.,0.,0.
 01544400,0.02992418,0.,-0.41711526,-0.01413255,0.,0.51935250,-0.030281
 88,0.,-0.01824566,-0.17373227,0.,-0.08996467,0.31323937,0.,-0.00232015
 ,0.,0.,-0.02079094,0.,0.,0.04151312,-0.04436525,0.,-0.02241456,0.01184
 835,0.,-0.09127280,0.08522864,0.,0.31308222,-0.00879570,0.,0.00803020,
 -0.08188472,0.,0.04164236,-0.14391720,0.,-0.03132163,0.57486154,0.,0.0
 0829703,0.,0.,0.02025705,0.,0.,-0.04894537,0.,0.,0.05794527,-0.0197501
 0,0.,0.01468789,0.01269297,0.,-0.01368170,0.02131493,0.,-0.02557386,0.
 23969447,0.,0.43124522,0.01122191,0.,-0.01268994,0.02713423,0.,0.03253
 067,0.03469198,0.,-0.02139012,-0.34026392,0.,-0.25395227,0.26721581,0.
 ,-0.00794387,0.,0.,-0.01070218,0.,0.,0.03054334,0.,0.,-0.03755398,0.,0
 .,0.02565668,0.00593275,0.,-0.00786913,-0.00505577,0.,0.00271726,0.001
 66677,0.,-0.17382101,-0.25804540,0.,-0.40667756,0.25550165,0.,0.585650
 44\\0.00528710,0.,0.00179285,-0.00336372,0.,0.00215531,-0.00216299,0.,
 -0.00272985,-0.00076428,0.,-0.00186811,0.00100388,0.,0.00064980\\\@


 There are more things in heaven and earth, Horatio,
 than are dreamt of in your philosophy.
                   -- Hamlet, Act I, Scene 5
 Job cpu time:       0 days  2 hours  1 minutes  8.8 seconds.
 Elapsed time:       0 days  0 hours  4 minutes 22.9 seconds.
 File lengths (MBytes):  RWF=   7239 Int=      0 D2E=      0 Chk=      8 Scr=      1
 Normal termination of Gaussian 16 at Sun Mar  6 19:30:53 2022.
