 Entering Gaussian System, Link 0=g16
 Input=hoono_a1_102p9549.gjf
 Output=hoono_a1_102p9549.log
 Initial command:
 /sw/contrib/gaussian/g16/B01/g16/l1.exe "/scr/Gau-27753.inp" -scrdir="/scr/"
 Entering Link 1 = /sw/contrib/gaussian/g16/B01/g16/l1.exe PID=     27754.
  
 Copyright (c) 1988-2017, Gaussian, Inc.  All Rights Reserved.
  
 This is part of the Gaussian(R) 16 program.  It is based on
 the Gaussian(R) 09 system (copyright 2009, Gaussian, Inc.),
 the Gaussian(R) 03 system (copyright 2003, Gaussian, Inc.),
 the Gaussian(R) 98 system (copyright 1998, Gaussian, Inc.),
 the Gaussian(R) 94 system (copyright 1995, Gaussian, Inc.),
 the Gaussian 92(TM) system (copyright 1992, Gaussian, Inc.),
 the Gaussian 90(TM) system (copyright 1990, Gaussian, Inc.),
 the Gaussian 88(TM) system (copyright 1988, Gaussian, Inc.),
 the Gaussian 86(TM) system (copyright 1986, Carnegie Mellon
 University), and the Gaussian 82(TM) system (copyright 1983,
 Carnegie Mellon University). Gaussian is a federally registered
 trademark of Gaussian, Inc.
  
 This software contains proprietary and confidential information,
 including trade secrets, belonging to Gaussian, Inc.
  
 This software is provided under written license and may be
 used, copied, transmitted, or stored only in accord with that
 written license.
  
 The following legend is applicable only to US Government
 contracts under FAR:
  
                    RESTRICTED RIGHTS LEGEND
  
 Use, reproduction and disclosure by the US Government is
 subject to restrictions as set forth in subparagraphs (a)
 and (c) of the Commercial Computer Software - Restricted
 Rights clause in FAR 52.227-19.
  
 Gaussian, Inc.
 340 Quinnipiac St., Bldg. 40, Wallingford CT 06492
  
  
 ---------------------------------------------------------------
 Warning -- This program may not be used in any manner that
 competes with the business of Gaussian, Inc. or will provide
 assistance to any competitor of Gaussian, Inc.  The licensee
 of this program is prohibited from giving any competitor of
 Gaussian, Inc. access to this program.  By using this program,
 the user acknowledges that Gaussian, Inc. is engaged in the
 business of creating and licensing software in the field of
 computational chemistry and represents and warrants to the
 licensee that it is not a competitor of Gaussian, Inc. and that
 it will not use this program in any manner prohibited above.
 ---------------------------------------------------------------
  

 Cite this work as:
 Gaussian 16, Revision B.01,
 M. J. Frisch, G. W. Trucks, H. B. Schlegel, G. E. Scuseria, 
 M. A. Robb, J. R. Cheeseman, G. Scalmani, V. Barone, 
 G. A. Petersson, H. Nakatsuji, X. Li, M. Caricato, A. V. Marenich, 
 J. Bloino, B. G. Janesko, R. Gomperts, B. Mennucci, H. P. Hratchian, 
 J. V. Ortiz, A. F. Izmaylov, J. L. Sonnenberg, D. Williams-Young, 
 F. Ding, F. Lipparini, F. Egidi, J. Goings, B. Peng, A. Petrone, 
 T. Henderson, D. Ranasinghe, V. G. Zakrzewski, J. Gao, N. Rega, 
 G. Zheng, W. Liang, M. Hada, M. Ehara, K. Toyota, R. Fukuda, 
 J. Hasegawa, M. Ishida, T. Nakajima, Y. Honda, O. Kitao, H. Nakai, 
 T. Vreven, K. Throssell, J. A. Montgomery, Jr., J. E. Peralta, 
 F. Ogliaro, M. J. Bearpark, J. J. Heyd, E. N. Brothers, K. N. Kudin, 
 V. N. Staroverov, T. A. Keith, R. Kobayashi, J. Normand, 
 K. Raghavachari, A. P. Rendell, J. C. Burant, S. S. Iyengar, 
 J. Tomasi, M. Cossi, J. M. Millam, M. Klene, C. Adamo, R. Cammi, 
 J. W. Ochterski, R. L. Martin, K. Morokuma, O. Farkas, 
 J. B. Foresman, and D. J. Fox, Gaussian, Inc., Wallingford CT, 2016.
 
 ******************************************
 Gaussian 16:  ES64L-G16RevB.01 20-Dec-2017
                 6-Mar-2022 
 ******************************************
 %nproc=28
 Will use up to   28 processors via shared memory.
 %mem=120GB
 %chk=hoono_a1_102p9549.chk
 ---------------------------------------
 #p freq mp2/aug-cc-pvtz density=current
 ---------------------------------------
 1/10=4,30=1,38=1/1,3;
 2/12=2,17=6,18=5,40=1/2;
 3/5=16,6=1,7=10,11=9,25=1,30=1,71=2,140=1/1,2,3;
 4//1;
 5/5=2,38=5,98=1/2;
 8/6=3,8=1,10=1,19=11,30=-1/1;
 9/15=3,16=-3/6;
 11/6=1,8=1,15=11,17=12,24=-1,27=1,28=-2,29=300,32=6,42=3/1,2,10;
 10/6=2,21=1/2;
 8/6=4,8=1,10=1,19=11,30=-1/11,4;
 10/5=1,20=4/2;
 11/12=2,14=11,16=1,17=2,28=-2,42=3,76=2/2,10,12;
 6/7=2,8=2,9=2,10=2,22=-1/1;
 7/8=1,10=1,12=2,25=1,44=2/1,2,3,16;
 1/10=4,30=1/3;
 99//99;
 Leave Link    1 at Sun Mar  6 19:22:10 2022, MaxMem= 16106127360 cpu:               2.6 elap:               0.1
 (Enter /sw/contrib/gaussian/g16/B01/g16/l101.exe)
 -----
 title
 -----
 Symbolic Z-matrix:
 Charge =  0 Multiplicity = 1
 H
 O                    1    r1
 O                    2    r2       1    a1
 N                    3    r3       2    a2       1    d1       0
 O                    4    r4       3    a3       2    d2       0
       Variables:
  r1                    0.98538                  
  r2                    1.42674                  
  r3                    1.38111                  
  r4                    1.19479                  
  a1                  102.95499                  
  a2                  113.13777                  
  a3                  114.33392                  
  d1                    0.                       
  d2                    0.                       
 
 ITRead=  0  0  0  0  0
 MicOpt= -1 -1 -1 -1 -1
 NAtoms=      5 NQM=        5 NQMF=       0 NMMI=      0 NMMIF=      0
                NMic=       0 NMicF=      0.
                    Isotopes and Nuclear Properties:
 (Nuclear quadrupole moments (NQMom) in fm**2, nuclear magnetic moments (NMagM)
  in nuclear magnetons)

  Atom         1           2           3           4           5
 IAtWgt=           1          16          16          14          16
 AtmWgt=   1.0078250  15.9949146  15.9949146  14.0030740  15.9949146
 NucSpn=           1           0           0           2           0
 AtZEff=  -0.0000000  -0.0000000  -0.0000000  -0.0000000  -0.0000000
 NQMom=    0.0000000   0.0000000   0.0000000   2.0440000   0.0000000
 NMagM=    2.7928460   0.0000000   0.0000000   0.4037610   0.0000000
 AtZNuc=   1.0000000   8.0000000   8.0000000   7.0000000   8.0000000
 Leave Link  101 at Sun Mar  6 19:22:10 2022, MaxMem= 16106127360 cpu:               2.7 elap:               0.1
 (Enter /sw/contrib/gaussian/g16/B01/g16/l103.exe)

 GradGradGradGradGradGradGradGradGradGradGradGradGradGradGradGradGradGrad
 Berny optimization.
 Initialization pass.
                       ----------------------------
                       !    Initial Parameters    !
                       ! (Angstroms and Degrees)  !
 ----------------------                            ----------------------
 !      Name          Value   Derivative information (Atomic Units)     !
 ------------------------------------------------------------------------
 !       r1          0.9854   calculate D2E/DX2 analytically            !
 !       r2          1.4267   calculate D2E/DX2 analytically            !
 !       r3          1.3811   calculate D2E/DX2 analytically            !
 !       r4          1.1948   calculate D2E/DX2 analytically            !
 !       a1        102.955    calculate D2E/DX2 analytically            !
 !       a2        113.1378   calculate D2E/DX2 analytically            !
 !       a3        114.3339   calculate D2E/DX2 analytically            !
 !       d1          0.0      calculate D2E/DX2 analytically            !
 !       d2          0.0      calculate D2E/DX2 analytically            !
 ------------------------------------------------------------------------
 Trust Radius=3.00D-01 FncErr=1.00D-07 GrdErr=1.00D-07 EigMax=2.50D+02 EigMin=1.00D-04
 Number of steps in this run=      2 maximum allowed number of steps=      2.
 GradGradGradGradGradGradGradGradGradGradGradGradGradGradGradGradGradGrad

 Leave Link  103 at Sun Mar  6 19:22:10 2022, MaxMem= 16106127360 cpu:               0.4 elap:               0.0
 (Enter /sw/contrib/gaussian/g16/B01/g16/l202.exe)
                          Input orientation:                          
 ---------------------------------------------------------------------
 Center     Atomic      Atomic             Coordinates (Angstroms)
 Number     Number       Type             X           Y           Z
 ---------------------------------------------------------------------
      1          1           0        0.000000    0.000000    0.000000
      2          8           0        0.000000    0.000000    0.985377
      3          8           0        1.390421    0.000000    1.305230
      4          7           0        2.204024    0.000000    0.189207
      5          8           0        1.614352    0.000000   -0.849931
 ---------------------------------------------------------------------
                    Distance matrix (angstroms):
                    1          2          3          4          5
     1  H    0.000000
     2  O    0.985377   0.000000
     3  O    1.907065   1.426737   0.000000
     4  N    2.212130   2.343418   1.381108   0.000000
     5  O    1.824421   2.444276   2.166763   1.194788   0.000000
 Stoichiometry    HNO3
 Framework group  CS[SG(HNO3)]
 Deg. of freedom     7
 Full point group                 CS      NOp   2
 Largest Abelian subgroup         CS      NOp   2
 Largest concise Abelian subgroup C1      NOp   1
                         Standard orientation:                         
 ---------------------------------------------------------------------
 Center     Atomic      Atomic             Coordinates (Angstroms)
 Number     Number       Type             X           Y           Z
 ---------------------------------------------------------------------
      1          1           0        1.146322   -0.606862    0.000000
      2          8           0        1.315092    0.363954    0.000000
      3          8           0       -0.000000    0.917226    0.000000
      4          7           0       -0.992727   -0.042957   -0.000000
      5          8           0       -0.589746   -1.167735   -0.000000
 ---------------------------------------------------------------------
 Rotational constants (GHZ):          21.2873168           8.1034514           5.8692150
 Leave Link  202 at Sun Mar  6 19:22:10 2022, MaxMem= 16106127360 cpu:               0.3 elap:               0.0
 (Enter /sw/contrib/gaussian/g16/B01/g16/l301.exe)
 Standard basis: Aug-CC-pVTZ (5D, 7F)
 Ernie: Thresh=  0.10000D-02 Tol=  0.10000D-05 Strict=F.
 Ernie:  12 primitive shells out of 131 were deleted.
 There are   166 symmetry adapted cartesian basis functions of A'  symmetry.
 There are    79 symmetry adapted cartesian basis functions of A"  symmetry.
 There are   136 symmetry adapted basis functions of A'  symmetry.
 There are    71 symmetry adapted basis functions of A"  symmetry.
   207 basis functions,   315 primitive gaussians,   245 cartesian basis functions
    16 alpha electrons       16 beta electrons
       nuclear repulsion energy       122.6397077064 Hartrees.
 IExCor=    0 DFT=F Ex=HF Corr=None ExCW=0 ScaHFX=  1.000000
 ScaDFX=  1.000000  1.000000  1.000000  1.000000 ScalE2=  1.000000  1.000000
 IRadAn=      5 IRanWt=     -1 IRanGd=            0 ICorTp=0 IEmpDi=  4
 NAtoms=    5 NActive=    5 NUniq=    5 SFac= 1.00D+00 NAtFMM=   60 NAOKFM=F Big=F
 Integral buffers will be    131072 words long.
 Raffenetti 1 integral format.
 Two-electron integral symmetry is turned on.
 Leave Link  301 at Sun Mar  6 19:22:10 2022, MaxMem= 16106127360 cpu:               1.5 elap:               0.1
 (Enter /sw/contrib/gaussian/g16/B01/g16/l302.exe)
 NPDir=0 NMtPBC=     1 NCelOv=     1 NCel=       1 NClECP=     1 NCelD=      1
         NCelK=      1 NCelE2=     1 NClLst=     1 CellRange=     0.0.
 One-electron integrals computed using PRISM.
 One-electron integral symmetry used in STVInt
 NBasis=   207 RedAO= T EigKep=  1.32D-04  NBF=   136    71
 NBsUse=   207 1.00D-06 EigRej= -1.00D+00 NBFU=   136    71
 Leave Link  302 at Sun Mar  6 19:22:10 2022, MaxMem= 16106127360 cpu:               4.6 elap:               0.2
 (Enter /sw/contrib/gaussian/g16/B01/g16/l303.exe)
 DipDrv:  MaxL=1.
 Leave Link  303 at Sun Mar  6 19:22:10 2022, MaxMem= 16106127360 cpu:               0.9 elap:               0.1
 (Enter /sw/contrib/gaussian/g16/B01/g16/l401.exe)
 ExpMin= 2.53D-02 ExpMax= 1.53D+04 ExpMxC= 5.22D+02 IAcc=3 IRadAn=         5 AccDes= 0.00D+00
 Harris functional with IExCor=  205 and IRadAn=       5 diagonalized for initial guess.
 HarFok:  IExCor=  205 AccDes= 0.00D+00 IRadAn=         5 IDoV= 1 UseB2=F ITyADJ=14
 ICtDFT=  3500011 ScaDFX=  1.000000  1.000000  1.000000  1.000000
 FoFCou: FMM=F IPFlag=           0 FMFlag=      100000 FMFlg1=           0
         NFxFlg=           0 DoJE=T BraDBF=F KetDBF=T FulRan=T
         wScrn=  0.000000 ICntrl=       500 IOpCl=  0 I1Cent=   200000004 NGrid=           0
         NMat0=    1 NMatS0=      1 NMatT0=    0 NMatD0=    1 NMtDS0=    0 NMtDT0=    0
 Petite list used in FoFCou.
 Harris En= -279.644892439323    
 JPrj=0 DoOrth=F DoCkMO=F.
 Initial guess orbital symmetries:
       Occupied  (A') (A') (A') (A') (A') (A') (A') (A') (A') (A')
                 (A") (A') (A") (A') (A") (A')
       Virtual   (A") (A') (A') (A') (A') (A") (A') (A') (A') (A')
                 (A") (A') (A") (A') (A') (A") (A') (A') (A") (A')
                 (A') (A') (A') (A') (A") (A') (A') (A') (A") (A')
                 (A') (A") (A") (A') (A') (A") (A') (A") (A') (A")
                 (A') (A") (A') (A") (A') (A') (A') (A') (A") (A')
                 (A') (A") (A') (A") (A') (A") (A') (A') (A') (A")
                 (A') (A') (A") (A') (A') (A") (A') (A") (A') (A')
                 (A") (A') (A") (A") (A') (A') (A") (A') (A') (A')
                 (A") (A') (A') (A") (A') (A") (A") (A') (A') (A')
                 (A') (A") (A') (A") (A') (A') (A") (A') (A") (A')
                 (A") (A') (A') (A") (A") (A') (A') (A') (A") (A')
                 (A") (A') (A') (A') (A") (A') (A') (A') (A") (A')
                 (A") (A') (A') (A") (A") (A") (A") (A') (A') (A')
                 (A') (A') (A') (A") (A') (A") (A") (A') (A') (A')
                 (A") (A') (A") (A') (A') (A") (A') (A') (A') (A")
                 (A') (A') (A') (A") (A') (A") (A") (A') (A") (A')
                 (A') (A") (A") (A') (A") (A') (A') (A") (A") (A')
                 (A") (A") (A") (A') (A') (A") (A') (A') (A') (A")
                 (A') (A') (A') (A') (A') (A') (A') (A') (A') (A')
                 (A')
 The electronic state of the initial guess is 1-A'.
 Leave Link  401 at Sun Mar  6 19:22:11 2022, MaxMem= 16106127360 cpu:               7.0 elap:               0.3
 (Enter /sw/contrib/gaussian/g16/B01/g16/l502.exe)
 Keep R1 ints in memory in symmetry-blocked form, NReq=348887737.
 FoFCou: FMM=F IPFlag=           0 FMFlag=           0 FMFlg1=           0
         NFxFlg=           0 DoJE=F BraDBF=F KetDBF=F FulRan=T
         wScrn=  0.000000 ICntrl=       600 IOpCl=  0 I1Cent=           0 NGrid=           0
         NMat0=    1 NMatS0=  21528 NMatT0=    0 NMatD0=    1 NMtDS0=    0 NMtDT0=    0
 Petite list used in FoFCou.
 Closed shell SCF:
 Using DIIS extrapolation, IDIIS=  1040.
 NGot= 16106127360 LenX= 15988850015 LenY= 15988789549
 Requested convergence on RMS density matrix=1.00D-08 within 128 cycles.
 Requested convergence on MAX density matrix=1.00D-06.
 Requested convergence on             energy=1.00D-06.
 No special actions if energy rises.

 Cycle   1  Pass 1  IDiag  1:
 E= -279.364240088038    
 DIIS: error= 2.75D-02 at cycle   1 NSaved=   1.
 NSaved= 1 IEnMin= 1 EnMin= -279.364240088038     IErMin= 1 ErrMin= 2.75D-02
 ErrMax= 2.75D-02  0.00D+00 EMaxC= 1.00D-01 BMatC= 4.51D-01 BMatP= 4.51D-01
 IDIUse=3 WtCom= 7.25D-01 WtEn= 2.75D-01
 Coeff-Com:  0.100D+01
 Coeff-En:   0.100D+01
 Coeff:      0.100D+01
 Gap=     0.500 Goal=   None    Shift=    0.000
 GapD=    0.500 DampG=2.000 DampE=0.500 DampFc=1.0000 IDamp=-1.
 RMSDP=1.68D-03 MaxDP=8.72D-02              OVMax= 1.24D-01

 Cycle   2  Pass 1  IDiag  1:
 E= -279.445964443589     Delta-E=       -0.081724355551 Rises=F Damp=F
 DIIS: error= 1.90D-02 at cycle   2 NSaved=   2.
 NSaved= 2 IEnMin= 2 EnMin= -279.445964443589     IErMin= 2 ErrMin= 1.90D-02
 ErrMax= 1.90D-02  0.00D+00 EMaxC= 1.00D-01 BMatC= 8.69D-02 BMatP= 4.51D-01
 IDIUse=3 WtCom= 8.10D-01 WtEn= 1.90D-01
 Coeff-Com:  0.220D+00 0.780D+00
 Coeff-En:   0.829D-01 0.917D+00
 Coeff:      0.194D+00 0.806D+00
 Gap=     0.560 Goal=   None    Shift=    0.000
 RMSDP=9.67D-04 MaxDP=3.61D-02 DE=-8.17D-02 OVMax= 9.12D-02

 Cycle   3  Pass 1  IDiag  1:
 E= -279.484310701197     Delta-E=       -0.038346257608 Rises=F Damp=F
 DIIS: error= 1.06D-02 at cycle   3 NSaved=   3.
 NSaved= 3 IEnMin= 3 EnMin= -279.484310701197     IErMin= 3 ErrMin= 1.06D-02
 ErrMax= 1.06D-02  0.00D+00 EMaxC= 1.00D-01 BMatC= 3.09D-02 BMatP= 8.69D-02
 IDIUse=3 WtCom= 8.94D-01 WtEn= 1.06D-01
 Coeff-Com: -0.347D-01 0.363D+00 0.672D+00
 Coeff-En:   0.000D+00 0.216D+00 0.784D+00
 Coeff:     -0.310D-01 0.347D+00 0.684D+00
 Gap=     0.540 Goal=   None    Shift=    0.000
 RMSDP=4.09D-04 MaxDP=1.57D-02 DE=-3.83D-02 OVMax= 3.93D-02

 Cycle   4  Pass 1  IDiag  1:
 E= -279.505426780879     Delta-E=       -0.021116079682 Rises=F Damp=F
 DIIS: error= 1.59D-03 at cycle   4 NSaved=   4.
 NSaved= 4 IEnMin= 4 EnMin= -279.505426780879     IErMin= 4 ErrMin= 1.59D-03
 ErrMax= 1.59D-03  0.00D+00 EMaxC= 1.00D-01 BMatC= 5.85D-04 BMatP= 3.09D-02
 IDIUse=3 WtCom= 9.84D-01 WtEn= 1.59D-02
 Coeff-Com: -0.118D-01 0.452D-01 0.150D+00 0.816D+00
 Coeff-En:   0.000D+00 0.000D+00 0.000D+00 0.100D+01
 Coeff:     -0.116D-01 0.445D-01 0.148D+00 0.819D+00
 Gap=     0.527 Goal=   None    Shift=    0.000
 RMSDP=9.87D-05 MaxDP=2.27D-03 DE=-2.11D-02 OVMax= 1.17D-02

 Cycle   5  Pass 1  IDiag  1:
 E= -279.506229246983     Delta-E=       -0.000802466104 Rises=F Damp=F
 DIIS: error= 1.06D-03 at cycle   5 NSaved=   5.
 NSaved= 5 IEnMin= 5 EnMin= -279.506229246983     IErMin= 5 ErrMin= 1.06D-03
 ErrMax= 1.06D-03  0.00D+00 EMaxC= 1.00D-01 BMatC= 1.01D-04 BMatP= 5.85D-04
 IDIUse=3 WtCom= 9.89D-01 WtEn= 1.06D-02
 Coeff-Com:  0.533D-02-0.650D-01-0.110D+00 0.595D-01 0.111D+01
 Coeff-En:   0.000D+00 0.000D+00 0.000D+00 0.000D+00 0.100D+01
 Coeff:      0.527D-02-0.643D-01-0.109D+00 0.589D-01 0.111D+01
 Gap=     0.531 Goal=   None    Shift=    0.000
 RMSDP=7.91D-05 MaxDP=2.11D-03 DE=-8.02D-04 OVMax= 1.28D-02

 Cycle   6  Pass 1  IDiag  1:
 E= -279.506586620127     Delta-E=       -0.000357373143 Rises=F Damp=F
 DIIS: error= 3.20D-04 at cycle   6 NSaved=   6.
 NSaved= 6 IEnMin= 6 EnMin= -279.506586620127     IErMin= 6 ErrMin= 3.20D-04
 ErrMax= 3.20D-04  0.00D+00 EMaxC= 1.00D-01 BMatC= 2.39D-05 BMatP= 1.01D-04
 IDIUse=3 WtCom= 9.97D-01 WtEn= 3.20D-03
 Coeff-Com:  0.187D-02-0.703D-02-0.176D-01-0.184D+00 0.167D-01 0.119D+01
 Coeff-En:   0.000D+00 0.000D+00 0.000D+00 0.000D+00 0.000D+00 0.100D+01
 Coeff:      0.187D-02-0.700D-02-0.175D-01-0.183D+00 0.166D-01 0.119D+01
 Gap=     0.531 Goal=   None    Shift=    0.000
 RMSDP=4.63D-05 MaxDP=1.07D-03 DE=-3.57D-04 OVMax= 6.06D-03

 Cycle   7  Pass 1  IDiag  1:
 E= -279.506671640458     Delta-E=       -0.000085020331 Rises=F Damp=F
 DIIS: error= 1.32D-04 at cycle   7 NSaved=   7.
 NSaved= 7 IEnMin= 7 EnMin= -279.506671640458     IErMin= 7 ErrMin= 1.32D-04
 ErrMax= 1.32D-04  0.00D+00 EMaxC= 1.00D-01 BMatC= 3.55D-06 BMatP= 2.39D-05
 IDIUse=3 WtCom= 9.99D-01 WtEn= 1.32D-03
 Coeff-Com: -0.109D-02 0.113D-01 0.250D-01 0.176D-01-0.183D+00-0.155D+00
 Coeff-Com:  0.129D+01
 Coeff-En:   0.000D+00 0.000D+00 0.000D+00 0.000D+00 0.000D+00 0.000D+00
 Coeff-En:   0.100D+01
 Coeff:     -0.109D-02 0.113D-01 0.250D-01 0.176D-01-0.183D+00-0.155D+00
 Coeff:      0.128D+01
 Gap=     0.532 Goal=   None    Shift=    0.000
 RMSDP=1.75D-05 MaxDP=5.12D-04 DE=-8.50D-05 OVMax= 2.33D-03

 Cycle   8  Pass 1  IDiag  1:
 E= -279.506683564675     Delta-E=       -0.000011924217 Rises=F Damp=F
 DIIS: error= 4.71D-05 at cycle   8 NSaved=   8.
 NSaved= 8 IEnMin= 8 EnMin= -279.506683564675     IErMin= 8 ErrMin= 4.71D-05
 ErrMax= 4.71D-05  0.00D+00 EMaxC= 1.00D-01 BMatC= 5.87D-07 BMatP= 3.55D-06
 IDIUse=1 WtCom= 1.00D+00 WtEn= 0.00D+00
 Coeff-Com: -0.554D-03 0.403D-02 0.963D-02 0.252D-01-0.578D-01-0.191D+00
 Coeff-Com:  0.354D+00 0.857D+00
 Coeff:     -0.554D-03 0.403D-02 0.963D-02 0.252D-01-0.578D-01-0.191D+00
 Coeff:      0.354D+00 0.857D+00
 Gap=     0.532 Goal=   None    Shift=    0.000
 RMSDP=5.35D-06 MaxDP=1.50D-04 DE=-1.19D-05 OVMax= 6.35D-04

 Cycle   9  Pass 1  IDiag  1:
 E= -279.506684906152     Delta-E=       -0.000001341478 Rises=F Damp=F
 DIIS: error= 2.48D-05 at cycle   9 NSaved=   9.
 NSaved= 9 IEnMin= 9 EnMin= -279.506684906152     IErMin= 9 ErrMin= 2.48D-05
 ErrMax= 2.48D-05  0.00D+00 EMaxC= 1.00D-01 BMatC= 1.15D-07 BMatP= 5.87D-07
 IDIUse=1 WtCom= 1.00D+00 WtEn= 0.00D+00
 Coeff-Com:  0.238D-03-0.252D-02-0.526D-02-0.564D-02 0.469D-01 0.485D-01
 Coeff-Com: -0.338D+00 0.360D-01 0.122D+01
 Coeff:      0.238D-03-0.252D-02-0.526D-02-0.564D-02 0.469D-01 0.485D-01
 Coeff:     -0.338D+00 0.360D-01 0.122D+01
 Gap=     0.532 Goal=   None    Shift=    0.000
 RMSDP=2.43D-06 MaxDP=6.52D-05 DE=-1.34D-06 OVMax= 2.57D-04

 Cycle  10  Pass 1  IDiag  1:
 E= -279.506685163895     Delta-E=       -0.000000257742 Rises=F Damp=F
 DIIS: error= 5.49D-06 at cycle  10 NSaved=  10.
 NSaved=10 IEnMin=10 EnMin= -279.506685163895     IErMin=10 ErrMin= 5.49D-06
 ErrMax= 5.49D-06  0.00D+00 EMaxC= 1.00D-01 BMatC= 8.15D-09 BMatP= 1.15D-07
 IDIUse=1 WtCom= 1.00D+00 WtEn= 0.00D+00
 Coeff-Com: -0.383D-04 0.490D-03 0.120D-02-0.181D-02-0.110D-01 0.502D-02
 Coeff-Com:  0.738D-01-0.545D-01-0.440D+00 0.143D+01
 Coeff:     -0.383D-04 0.490D-03 0.120D-02-0.181D-02-0.110D-01 0.502D-02
 Coeff:      0.738D-01-0.545D-01-0.440D+00 0.143D+01
 Gap=     0.532 Goal=   None    Shift=    0.000
 RMSDP=6.95D-07 MaxDP=2.55D-05 DE=-2.58D-07 OVMax= 7.50D-05

 Cycle  11  Pass 1  IDiag  1:
 E= -279.506685188219     Delta-E=       -0.000000024325 Rises=F Damp=F
 DIIS: error= 2.15D-06 at cycle  11 NSaved=  11.
 NSaved=11 IEnMin=11 EnMin= -279.506685188219     IErMin=11 ErrMin= 2.15D-06
 ErrMax= 2.15D-06  0.00D+00 EMaxC= 1.00D-01 BMatC= 8.04D-10 BMatP= 8.15D-09
 IDIUse=1 WtCom= 1.00D+00 WtEn= 0.00D+00
 Coeff-Com: -0.153D-04 0.153D-03 0.317D-03 0.915D-03-0.200D-02-0.706D-02
 Coeff-Com:  0.174D-01 0.195D-01-0.410D-01-0.341D+00 0.135D+01
 Coeff:     -0.153D-04 0.153D-03 0.317D-03 0.915D-03-0.200D-02-0.706D-02
 Coeff:      0.174D-01 0.195D-01-0.410D-01-0.341D+00 0.135D+01
 Gap=     0.532 Goal=   None    Shift=    0.000
 RMSDP=2.39D-07 MaxDP=8.89D-06 DE=-2.43D-08 OVMax= 2.82D-05

 Cycle  12  Pass 1  IDiag  1:
 E= -279.506685191111     Delta-E=       -0.000000002892 Rises=F Damp=F
 DIIS: error= 6.91D-07 at cycle  12 NSaved=  12.
 NSaved=12 IEnMin=12 EnMin= -279.506685191111     IErMin=12 ErrMin= 6.91D-07
 ErrMax= 6.91D-07  0.00D+00 EMaxC= 1.00D-01 BMatC= 8.28D-11 BMatP= 8.04D-10
 IDIUse=1 WtCom= 1.00D+00 WtEn= 0.00D+00
 Coeff-Com:  0.258D-05-0.443D-04-0.961D-04 0.122D-03 0.111D-02-0.668D-03
 Coeff-Com: -0.725D-02 0.629D-02 0.402D-01-0.110D+00-0.181D+00 0.125D+01
 Coeff:      0.258D-05-0.443D-04-0.961D-04 0.122D-03 0.111D-02-0.668D-03
 Coeff:     -0.725D-02 0.629D-02 0.402D-01-0.110D+00-0.181D+00 0.125D+01
 Gap=     0.532 Goal=   None    Shift=    0.000
 RMSDP=8.20D-08 MaxDP=2.67D-06 DE=-2.89D-09 OVMax= 9.53D-06

 Cycle  13  Pass 1  IDiag  1:
 E= -279.506685191400     Delta-E=       -0.000000000289 Rises=F Damp=F
 DIIS: error= 1.52D-07 at cycle  13 NSaved=  13.
 NSaved=13 IEnMin=13 EnMin= -279.506685191400     IErMin=13 ErrMin= 1.52D-07
 ErrMax= 1.52D-07  0.00D+00 EMaxC= 1.00D-01 BMatC= 6.97D-12 BMatP= 8.28D-11
 IDIUse=1 WtCom= 1.00D+00 WtEn= 0.00D+00
 Coeff-Com:  0.126D-05-0.117D-04-0.168D-04-0.122D-03 0.461D-04 0.913D-03
 Coeff-Com: -0.100D-02-0.247D-02-0.235D-02 0.551D-01-0.131D+00-0.144D+00
 Coeff-Com:  0.122D+01
 Coeff:      0.126D-05-0.117D-04-0.168D-04-0.122D-03 0.461D-04 0.913D-03
 Coeff:     -0.100D-02-0.247D-02-0.235D-02 0.551D-01-0.131D+00-0.144D+00
 Coeff:      0.122D+01
 Gap=     0.532 Goal=   None    Shift=    0.000
 RMSDP=2.19D-08 MaxDP=6.42D-07 DE=-2.89D-10 OVMax= 1.96D-06

 Cycle  14  Pass 1  IDiag  1:
 E= -279.506685191419     Delta-E=       -0.000000000020 Rises=F Damp=F
 DIIS: error= 4.09D-08 at cycle  14 NSaved=  14.
 NSaved=14 IEnMin=14 EnMin= -279.506685191419     IErMin=14 ErrMin= 4.09D-08
 ErrMax= 4.09D-08  0.00D+00 EMaxC= 1.00D-01 BMatC= 4.78D-13 BMatP= 6.97D-12
 IDIUse=1 WtCom= 1.00D+00 WtEn= 0.00D+00
 Coeff-Com: -0.300D-06 0.443D-05 0.881D-05-0.347D-05-0.112D-03 0.558D-04
 Coeff-Com:  0.644D-03-0.314D-03-0.356D-02 0.792D-02 0.166D-01-0.898D-01
 Coeff-Com: -0.217D-01 0.109D+01
 Coeff:     -0.300D-06 0.443D-05 0.881D-05-0.347D-05-0.112D-03 0.558D-04
 Coeff:      0.644D-03-0.314D-03-0.356D-02 0.792D-02 0.166D-01-0.898D-01
 Coeff:     -0.217D-01 0.109D+01
 Gap=     0.532 Goal=   None    Shift=    0.000
 RMSDP=4.34D-09 MaxDP=1.09D-07 DE=-1.96D-11 OVMax= 4.24D-07

 SCF Done:  E(RHF) =  -279.506685191     A.U. after   14 cycles
            NFock= 14  Conv=0.43D-08     -V/T= 2.0023
 KE= 2.788756694939D+02 PE=-9.061649755207D+02 EE= 2.251429131290D+02
 Leave Link  502 at Sun Mar  6 19:22:14 2022, MaxMem= 16106127360 cpu:              57.3 elap:               3.8
 (Enter /sw/contrib/gaussian/g16/B01/g16/l801.exe)
 ExpMin= 2.53D-02 ExpMax= 1.53D+04 ExpMxC= 5.22D+02 IAcc=3 IRadAn=         5 AccDes= 0.00D+00
 HarFok:  IExCor=  205 AccDes= 0.00D+00 IRadAn=         5 IDoV=-2 UseB2=F ITyADJ=14
 ICtDFT= 12500011 ScaDFX=  1.000000  1.000000  1.000000  1.000000
 DSYEVD-2 returned Info=          93 IAlg= 4 N=    46 NDim=    46 NE2=   350130240 trying  DSYEV.
 Largest valence mixing into a core orbital is  2.07D-04
 Largest core mixing into a valence orbital is  3.08D-05
 Range of M.O.s used for correlation:     5   207
 NBasis=   207 NAE=    16 NBE=    16 NFC=     4 NFV=     0
 NROrb=    203 NOA=    12 NOB=    12 NVA=   191 NVB=   191

 **** Warning!!: The largest alpha MO coefficient is  0.16225411D+02

 Leave Link  801 at Sun Mar  6 19:22:15 2022, MaxMem= 16106127360 cpu:               2.8 elap:               0.2
 (Enter /sw/contrib/gaussian/g16/B01/g16/l906.exe)
 Frozen-core derivative calculation, NFC=   4 NFV=   0.
 FulOut=F Deriv=T AODrv=T NAtomX=     5
   MMem=           0  MDisk=          12 MDiskD=          12
  W3Min=      811440 MinDsk=     2425030 NBas6D=         245
 NBas2D=       30762    NTT=       30135    LW2=     7400000
    MDV= 16105571560 MDiskM=      328644 NBas2p=       30759
 Disk-based method using ON**2 memory for 12 occupieds at a time.
 Permanent disk used for amplitudes=    11516536 words.
 Estimated scratch disk usage=   321863743 words.
 IMap=   1   2   3   4   5   6   7   8   9  10  11  12  13  14  15  16
 Actual    scratch disk usage=   310892607 words.
 JobTyp=1 Pass  1:  I=   5 to  16 NPSUse= 28 ParTrn=T ParDer=T DoDerP=T.
 (rs|ai) integrals will be sorted in core.
 Spin components of T(2) and E(2):
     alpha-alpha T2 =       0.3475845069D-01 E2=     -0.1244408492D+00
     alpha-beta  T2 =       0.1844448766D+00 E2=     -0.6994712915D+00
     beta-beta   T2 =       0.3475845069D-01 E2=     -0.1244408492D+00
 The integrals were generated   1 times.
 ANorm=    0.1119804348D+01
 E2 =    -0.9483529899D+00 EUMP2 =    -0.28045503818134D+03
 Leave Link  906 at Sun Mar  6 19:23:52 2022, MaxMem= 16106127360 cpu:            2723.7 elap:              97.4
 (Enter /sw/contrib/gaussian/g16/B01/g16/l1101.exe)
 Using compressed Sx but separate Hx and Fx, NAtomX=     5.
 Will process      6 centers per pass.
 Leave Link 1101 at Sun Mar  6 19:23:52 2022, MaxMem= 16106127360 cpu:               6.7 elap:               0.3
 (Enter /sw/contrib/gaussian/g16/B01/g16/l1102.exe)
 Leave Link 1102 at Sun Mar  6 19:23:52 2022, MaxMem= 16106127360 cpu:               0.5 elap:               0.0
 (Enter /sw/contrib/gaussian/g16/B01/g16/l1110.exe)
 Forming Gx(P) for the SCF density, NAtomX=     5.
 Integral derivatives from FoFJK, PRISM(SPDF).
 Do as many integral derivatives as possible in FoFJK.
 G2DrvN: MDV=   16106126844.
 G2DrvN: will do     6 centers at a time, making    1 passes.
 Calling FoFCou, ICntrl=  3107 FMM=F I1Cent=   0 AccDes= 0.00D+00.
 FoFJK:  IHMeth= 1 ICntrl=    3107 DoSepK=F KAlg= 0 I1Cent=           0 FoldK=F
 IRaf=         0 NMat=       1 IRICut=       1 DoRegI=T DoRafI=F ISym2E= 1 IDoP0=0 IntGTp=1.
 FoFCou: FMM=F IPFlag=           0 FMFlag=      100000 FMFlg1=           0
         NFxFlg=           0 DoJE=F BraDBF=F KetDBF=F FulRan=T
         wScrn=  0.000000 ICntrl=      3107 IOpCl=  0 I1Cent=           0 NGrid=           0
         NMat0=    1 NMatS0=      1 NMatT0=    0 NMatD0=    1 NMtDS0=    0 NMtDT0=    0
 Petite list used in FoFCou.
 End of G2Drv F.D. properties file   721 does not exist.
 End of G2Drv F.D. properties file   722 does not exist.
 End of G2Drv F.D. properties file   788 does not exist.
 Leave Link 1110 at Sun Mar  6 19:23:55 2022, MaxMem= 16106127360 cpu:              87.0 elap:               3.1
 (Enter /sw/contrib/gaussian/g16/B01/g16/l1002.exe)
 Minotr:  Closed shell wavefunction.
          IDoAtm=11111
          Frozen-core window.
          Direct CPHF calculation.
          Differentiating once with respect to electric field.
                with respect to dipole field.
          Differentiating once with respect to nuclear coordinates.
          Requested convergence is 1.0D-08 RMS, and 1.0D-07 maximum.
          Secondary convergence is 1.0D-12 RMS, and 1.0D-12 maximum.
          NewPWx=T KeepS1=T KeepF1=T KeepIn=T MapXYZ=F SortEE=F KeepMc=T.
 Keep R1 ints in memory in symmetry-blocked form, NReq=348888983.
 FoFCou: FMM=F IPFlag=           0 FMFlag=           0 FMFlg1=           0
         NFxFlg=           0 DoJE=F BraDBF=F KetDBF=F FulRan=T
         wScrn=  0.000000 ICntrl=       600 IOpCl=  0 I1Cent=           0 NGrid=           0
         NMat0=    1 NMatS0=  21528 NMatT0=    0 NMatD0=    1 NMtDS0=    0 NMtDT0=    0
 Petite list used in FoFCou.
          MDV=   16106127360 using IRadAn=       1.
          Solving linear equations simultaneously, MaxMat=       0.
          There are    18 degrees of freedom in the 1st order CPHF.  IDoFFX=6 NUNeed=    18.
     15 vectors produced by pass  0 Test12= 1.70D-14 5.56D-09 XBig12= 7.93D+00 1.23D+00.
 AX will form    15 AO Fock derivatives at one time.
     15 vectors produced by pass  1 Test12= 1.70D-14 5.56D-09 XBig12= 1.35D+00 2.32D-01.
     15 vectors produced by pass  2 Test12= 1.70D-14 5.56D-09 XBig12= 6.34D-02 5.81D-02.
     15 vectors produced by pass  3 Test12= 1.70D-14 5.56D-09 XBig12= 1.99D-03 1.05D-02.
     15 vectors produced by pass  4 Test12= 1.70D-14 5.56D-09 XBig12= 4.00D-05 1.17D-03.
     15 vectors produced by pass  5 Test12= 1.70D-14 5.56D-09 XBig12= 5.73D-07 1.21D-04.
     15 vectors produced by pass  6 Test12= 1.70D-14 5.56D-09 XBig12= 4.61D-09 1.27D-05.
     14 vectors produced by pass  7 Test12= 1.70D-14 5.56D-09 XBig12= 3.45D-11 8.99D-07.
      3 vectors produced by pass  8 Test12= 1.70D-14 5.56D-09 XBig12= 2.31D-13 6.06D-08.
      2 vectors produced by pass  9 Test12= 1.70D-14 5.56D-09 XBig12= 1.57D-15 6.21D-09.
 InvSVY:  IOpt=1 It=  1 EMax= 8.88D-16
 Solved reduced A of dimension   124 with    15 vectors.
 FullF1:  Do perturbations      1 to      18.
 Saving first derivative matrices.
 End of Minotr F.D. properties file   721 does not exist.
 End of Minotr F.D. properties file   722 does not exist.
 End of Minotr F.D. properties file   788 does not exist.
 Leave Link 1002 at Sun Mar  6 19:23:58 2022, MaxMem= 16106127360 cpu:              79.4 elap:               2.9
 (Enter /sw/contrib/gaussian/g16/B01/g16/l811.exe)
 MDV= 16106127360.
 Form MO integral derivatives with frozen-active canonical formalism.
 MOERI=1 MOERIx=1 NAtoms=     5 NAtomX=     5.
 Discarding MO integrals.
 MO basis two electron integral derivatives will not be stored on disk.
 IAlg= 3 DoFC=T DoPWx=T Debug=F.
 Frozen-core window:  NFC=   4 NFV=   0.
 Reordered first order wavefunction length =     18678272
 In DefCFB: NBatch=  1 ICI= 16 ICA=191 LFMax= 96
            Large arrays: LIAPS=   619940160 LIARS=   288257200 words.
 In StABat: MaxSiz= 55 MinSiz= 25 NAtomB=  5
 DoIAMN: NPSUse= 28.
 Leave Link  811 at Sun Mar  6 19:25:19 2022, MaxMem= 16106127360 cpu:            2250.9 elap:              80.5
 (Enter /sw/contrib/gaussian/g16/B01/g16/l804.exe)
 Frozen-core window:  NFC=   4 NFV=   0.
 Closed-shell transformation, MDV= 16106127360 ITran=4 ISComp=1.
 Semi-Direct transformation.
 ModeAB=           2 MOrb=            16 LenV=   16104919939
 LASXX=     67341636 LTotXX=    67341636 LenRXX=    67341636
 LTotAB=    68301760 MaxLAS=    99807120 LenRXY=    99807120
 NonZer=   134683272 LenScr=   202817536 LnRSAI=           0
 LnScr1=           0 LExtra=           0 Total=    369966292
 MaxDsk=          -1 SrtSym=           F ITran=            4
 DoSDTr:  NPSUse= 28
 JobTyp=0 Pass  1:  I=   1 to  16.
 (rs|ai) integrals will be sorted in core.
 Complete sort for first half transformation.
 First half transformation complete.
 Begin second half transformation for I=  10.
 Begin second half transformation for I=  10.
 Complete sort for second half transformation.
 Second half transformation complete.
 Spin components of T(2) and E(2):
     alpha-alpha T2 =       0.3475845069D-01 E2=     -0.1244408492D+00
     alpha-beta  T2 =       0.1844448766D+00 E2=     -0.6994712915D+00
     beta-beta   T2 =       0.3475845069D-01 E2=     -0.1244408492D+00
 ANorm=    0.1583642496D+01
 E2 =    -0.9483529899D+00 EUMP2 =    -0.28045503818134D+03
 Leave Link  804 at Sun Mar  6 19:25:35 2022, MaxMem= 16106127360 cpu:             441.1 elap:              15.8
 (Enter /sw/contrib/gaussian/g16/B01/g16/l1002.exe)
 Minotr:  Closed shell wavefunction.
          Computing MP2/KS-MP2 derivatives.
          Using Z-Vector for PSCF gradient.
          Skipping F1 and S1 gradient terms here.
          IDoAtm=11111
          Frozen-core window.
          Using MO integrals in the linear equations.
          Forming densities via direct SCF.
          Differentiating once with respect to electric field.
                with respect to dipole field.
          Differentiating once with respect to nuclear coordinates.
          Using symmetry in CPHF.
          Requested convergence is 1.0D-10 RMS, and 1.0D-09 maximum.
          NewPWx=F KeepS1=T KeepF1=T KeepIn=T MapXYZ=F SortEE=F KeepMc=T.
          MDV=   16106127360 using IRadAn=       5.
          Solving linear equations separately, MaxMat=       0.
          There are     1 degrees of freedom in the 1st order CPHF.  IDoFFX=0 NUNeed=     1.
 FoFJK:  IHMeth= 1 ICntrl=       0 DoSepK=F KAlg= 0 I1Cent=           0 FoldK=F
 IRaf=         0 NMat=       1 IRICut=       1 DoRegI=T DoRafI=F ISym2E= 0 IDoP0=0 IntGTp=1.
 FoFCou: FMM=F IPFlag=           0 FMFlag=      100000 FMFlg1=           0
         NFxFlg=           0 DoJE=F BraDBF=F KetDBF=F FulRan=T
         wScrn=  0.000000 ICntrl=         0 IOpCl=  0 I1Cent=           0 NGrid=           0
         NMat0=    1 NMatS0=      1 NMatT0=    0 NMatD0=    1 NMtDS0=    0 NMtDT0=    0
 Symmetry not used in FoFCou.
 LinEq1:  Iter=  0 NonCon=     1 RMS=6.57D-03 Max=1.68D-01 NDo=     1
 LinEq1:  Iter=  1 NonCon=     1 RMS=1.99D-03 Max=3.09D-02 NDo=     1
 LinEq1:  Iter=  2 NonCon=     1 RMS=8.84D-04 Max=1.43D-02 NDo=     1
 LinEq1:  Iter=  3 NonCon=     1 RMS=3.82D-04 Max=8.26D-03 NDo=     1
 LinEq1:  Iter=  4 NonCon=     1 RMS=1.38D-04 Max=1.79D-03 NDo=     1
 LinEq1:  Iter=  5 NonCon=     1 RMS=7.64D-05 Max=1.36D-03 NDo=     1
 LinEq1:  Iter=  6 NonCon=     1 RMS=2.43D-05 Max=3.59D-04 NDo=     1
 LinEq1:  Iter=  7 NonCon=     1 RMS=8.10D-06 Max=1.08D-04 NDo=     1
 LinEq1:  Iter=  8 NonCon=     1 RMS=3.94D-06 Max=6.05D-05 NDo=     1
 LinEq1:  Iter=  9 NonCon=     1 RMS=1.04D-06 Max=1.14D-05 NDo=     1
 LinEq1:  Iter= 10 NonCon=     1 RMS=2.31D-07 Max=2.81D-06 NDo=     1
 LinEq1:  Iter= 11 NonCon=     1 RMS=4.99D-08 Max=7.29D-07 NDo=     1
 LinEq1:  Iter= 12 NonCon=     1 RMS=1.17D-08 Max=1.54D-07 NDo=     1
 LinEq1:  Iter= 13 NonCon=     1 RMS=2.05D-09 Max=2.39D-08 NDo=     1
 LinEq1:  Iter= 14 NonCon=     1 RMS=4.25D-10 Max=5.72D-09 NDo=     1
 LinEq1:  Iter= 15 NonCon=     0 RMS=8.72D-11 Max=7.98D-10 NDo=     1
 Linear equations converged to 1.000D-10 1.000D-09 after    15 iterations.
 End of Minotr F.D. properties file   721 does not exist.
 End of Minotr F.D. properties file   722 does not exist.
 End of Minotr F.D. properties file   788 does not exist.
 Leave Link 1002 at Sun Mar  6 19:25:37 2022, MaxMem= 16106127360 cpu:              65.1 elap:               2.4
 (Enter /sw/contrib/gaussian/g16/B01/g16/l1102.exe)
 Use density number 2.
 Symmetrizing basis deriv contribution to polar:
 IMax=3 JMax=2 DiffMx= 0.00D+00
 Leave Link 1102 at Sun Mar  6 19:25:37 2022, MaxMem= 16106127360 cpu:               1.2 elap:               0.1
 (Enter /sw/contrib/gaussian/g16/B01/g16/l1110.exe)
 Forming Gx(P) for generalized density number  2 NAtomX=     5.
 Integral derivatives from FoFJK, PRISM(SPDF).
 Do as many integral derivatives as possible in FoFJK.
 G2DrvN: MDV=   16106126844.
 G2DrvN: will do     6 centers at a time, making    1 passes.
 Calling FoFCou, ICntrl=  3107 FMM=F I1Cent=   0 AccDes= 0.00D+00.
 FoFJK:  IHMeth= 1 ICntrl=    3107 DoSepK=F KAlg= 0 I1Cent=           0 FoldK=F
 IRaf=         0 NMat=       1 IRICut=       1 DoRegI=T DoRafI=F ISym2E= 1 IDoP0=0 IntGTp=1.
 FoFCou: FMM=F IPFlag=           0 FMFlag=      100000 FMFlg1=           0
         NFxFlg=           0 DoJE=F BraDBF=F KetDBF=F FulRan=T
         wScrn=  0.000000 ICntrl=      3107 IOpCl=  0 I1Cent=           0 NGrid=           0
         NMat0=    1 NMatS0=      1 NMatT0=    0 NMatD0=    1 NMtDS0=    0 NMtDT0=    0
 Petite list used in FoFCou.
 End of G2Drv F.D. properties file   721 does not exist.
 End of G2Drv F.D. properties file   722 does not exist.
 End of G2Drv F.D. properties file   788 does not exist.
 Leave Link 1110 at Sun Mar  6 19:25:40 2022, MaxMem= 16106127360 cpu:              87.2 elap:               3.1
 (Enter /sw/contrib/gaussian/g16/B01/g16/l1112.exe)
 MP22nd: MDV=   16106127360
 This link is doing NAtomX=     5 total of    18 degrees of freedom.
 Using ON3 I/O method in MakUI.
 Frozen-core window:  NFC=   4 NFV=   0.
 Using Ix for Sx.
 Use MO integrals over full window.
 Using OV2 memory method for fx*t*t/D, MaxI=    16 DoOO2=F NP=  28.
 R2 and R3 integrals will be kept in memory, NReq=   915591705.
 FoFCou: FMM=F IPFlag=           0 FMFlag=           0 FMFlg1=           0
         NFxFlg=           0 DoJE=F BraDBF=F KetDBF=F FulRan=T
         wScrn=  0.000000 ICntrl=       600 IOpCl=  0 I1Cent=           0 NGrid=           0
         NMat0=    1 NMatS0=      1 NMatT0=    0 NMatD0=    1 NMtDS0=    0 NMtDT0=    0
 Symmetry not used in FoFCou.
 DD1Dir will call FoFMem   1 times, MxPair=       272
 NAB=   136 NAA=     0 NBB=     0.
 Symmetry is being used.
 FoFJK:  IHMeth= 1 ICntrl=       0 DoSepK=F KAlg= 0 I1Cent=           0 FoldK=F
 IRaf=         0 NMat=      18 IRICut=      45 DoRegI=T DoRafI=T ISym2E= 2 IDoP0=3 IntGTp=3.
 Discarding MO integrals.
 Leave Link 1112 at Sun Mar  6 19:26:24 2022, MaxMem= 16106127360 cpu:            1212.4 elap:              44.0
 (Enter /sw/contrib/gaussian/g16/B01/g16/l601.exe)
 Copying SCF densities to generalized density rwf, IOpCl= 0 IROHF=0.

 **********************************************************************

            Population analysis using the MP2 Density.

 **********************************************************************

 Orbital symmetries:
       Occupied  (A') (A') (A') (A') (A') (A') (A') (A') (A') (A')
                 (A") (A') (A') (A") (A') (A")
       Virtual   (A') (A") (A') (A') (A") (A') (A') (A') (A") (A')
                 (A") (A') (A') (A') (A") (A') (A') (A") (A') (A')
                 (A') (A') (A') (A') (A") (A') (A') (A") (A') (A')
                 (A') (A") (A") (A') (A') (A') (A") (A') (A") (A')
                 (A") (A") (A') (A') (A") (A') (A') (A") (A') (A')
                 (A') (A") (A') (A') (A") (A') (A") (A') (A") (A')
                 (A') (A') (A") (A') (A') (A') (A") (A") (A') (A')
                 (A") (A') (A") (A') (A") (A') (A") (A') (A') (A')
                 (A") (A') (A') (A") (A') (A") (A") (A') (A') (A')
                 (A') (A') (A") (A") (A') (A') (A") (A") (A') (A')
                 (A") (A') (A") (A') (A") (A') (A') (A') (A") (A')
                 (A") (A') (A') (A') (A") (A') (A') (A') (A") (A')
                 (A") (A") (A') (A') (A") (A") (A') (A") (A') (A')
                 (A') (A') (A") (A') (A') (A") (A") (A') (A') (A')
                 (A") (A") (A') (A') (A') (A") (A') (A') (A') (A")
                 (A') (A') (A') (A") (A") (A') (A") (A') (A") (A')
                 (A') (A") (A') (A") (A") (A') (A') (A") (A") (A")
                 (A') (A") (A") (A') (A') (A") (A') (A') (A') (A")
                 (A') (A') (A') (A') (A') (A') (A') (A') (A') (A')
                 (A')
 The electronic state is 1-A'.
 Alpha  occ. eigenvalues --  -20.72013 -20.68591 -20.66766 -15.82491  -1.64253
 Alpha  occ. eigenvalues --   -1.50386  -1.29359  -0.96043  -0.83272  -0.75809
 Alpha  occ. eigenvalues --   -0.73913  -0.63675  -0.61816  -0.61740  -0.50323
 Alpha  occ. eigenvalues --   -0.49726
 Alpha virt. eigenvalues --    0.03463   0.06121   0.09524   0.10045   0.12016
 Alpha virt. eigenvalues --    0.12259   0.14916   0.15096   0.17775   0.18106
 Alpha virt. eigenvalues --    0.18999   0.21132   0.21637   0.24277   0.24641
 Alpha virt. eigenvalues --    0.26964   0.31172   0.31536   0.33845   0.34319
 Alpha virt. eigenvalues --    0.34553   0.39231   0.44740   0.48502   0.50435
 Alpha virt. eigenvalues --    0.51913   0.54771   0.56191   0.60139   0.61987
 Alpha virt. eigenvalues --    0.63900   0.68756   0.71826   0.72443   0.74463
 Alpha virt. eigenvalues --    0.76212   0.76740   0.79621   0.80650   0.84191
 Alpha virt. eigenvalues --    0.84313   0.85006   0.88629   0.90691   0.93257
 Alpha virt. eigenvalues --    0.94597   0.95531   1.01699   1.02797   1.05610
 Alpha virt. eigenvalues --    1.06385   1.09301   1.14113   1.15613   1.16915
 Alpha virt. eigenvalues --    1.22306   1.22625   1.24410   1.34549   1.37173
 Alpha virt. eigenvalues --    1.37615   1.46890   1.48698   1.50804   1.53829
 Alpha virt. eigenvalues --    1.59591   1.59729   1.60819   1.62897   1.69770
 Alpha virt. eigenvalues --    1.73161   1.80179   1.83103   1.87754   1.88907
 Alpha virt. eigenvalues --    1.92522   1.97971   1.99069   2.05110   2.12249
 Alpha virt. eigenvalues --    2.12624   2.16113   2.18457   2.24507   2.25793
 Alpha virt. eigenvalues --    2.28942   2.34721   2.36171   2.38518   2.40019
 Alpha virt. eigenvalues --    2.43086   2.46926   2.47776   2.52734   2.53455
 Alpha virt. eigenvalues --    2.55272   2.55698   2.61489   2.62840   2.67181
 Alpha virt. eigenvalues --    2.67382   2.75892   2.81838   2.82261   2.82618
 Alpha virt. eigenvalues --    2.91875   2.98407   3.04591   3.05148   3.11113
 Alpha virt. eigenvalues --    3.11318   3.16840   3.20087   3.30457   3.33317
 Alpha virt. eigenvalues --    3.36536   3.47385   3.67974   3.86771   3.91371
 Alpha virt. eigenvalues --    4.17889   4.21978   4.22890   4.26722   4.37206
 Alpha virt. eigenvalues --    4.50370   4.51311   4.55732   4.58902   4.69923
 Alpha virt. eigenvalues --    4.80838   4.89964   4.91367   4.94435   5.00488
 Alpha virt. eigenvalues --    5.00653   5.10573   5.13441   5.18290   5.24763
 Alpha virt. eigenvalues --    5.26403   5.31886   5.32056   5.36235   5.54827
 Alpha virt. eigenvalues --    5.64539   5.70222   5.87922   5.99902   6.26508
 Alpha virt. eigenvalues --    6.29066   6.36365   6.38524   6.59182   6.65283
 Alpha virt. eigenvalues --    6.66507   6.68866   6.72764   6.79980   6.80021
 Alpha virt. eigenvalues --    6.85259   6.96672   7.00111   7.06652   7.08700
 Alpha virt. eigenvalues --    7.15279   7.17182   7.17546   7.19905   7.24490
 Alpha virt. eigenvalues --    7.24492   7.26856   7.34662   7.38428   7.41837
 Alpha virt. eigenvalues --    7.44353   7.46179   7.56127   7.65721   7.66426
 Alpha virt. eigenvalues --    7.79110   7.87469   7.95062   8.04735   8.28963
 Alpha virt. eigenvalues --    8.50607   8.65229  13.62240  14.73636  15.08708
 Alpha virt. eigenvalues --   15.71720
          Condensed to atoms (all electrons):
               1          2          3          4          5
     1  H    0.572317   0.126969   0.026666  -0.001956  -0.007623
     2  O    0.126969   8.388850  -0.232893  -0.000471  -0.008893
     3  O    0.026666  -0.232893   8.372013  -0.167757  -0.035042
     4  N   -0.001956  -0.000471  -0.167757   7.131832  -0.113035
     5  O   -0.007623  -0.008893  -0.035042  -0.113035   8.363061
 Mulliken charges:
               1
     1  H    0.283629
     2  O   -0.273561
     3  O    0.037013
     4  N    0.151387
     5  O   -0.198468
 Sum of Mulliken charges =  -0.00000
 Mulliken charges with hydrogens summed into heavy atoms:
               1
     2  O    0.010068
     3  O    0.037013
     4  N    0.151387
     5  O   -0.198468
 APT charges:
               1
     1  H    0.270134
     2  O   -0.301762
     3  O   -0.309822
     4  N    0.642521
     5  O   -0.301071
 Sum of APT charges =  -0.00000
 APT charges with hydrogens summed into heavy atoms:
               1
     2  O   -0.031628
     3  O   -0.309822
     4  N    0.642521
     5  O   -0.301071
 Electronic spatial extent (au):  <R**2>=            207.4849
 Charge=             -0.0000 electrons
 Dipole moment (field-independent basis, Debye):
    X=              0.1078    Y=             -1.1135    Z=             -0.0000  Tot=              1.1187
 Quadrupole moment (field-independent basis, Debye-Ang):
   XX=            -23.2852   YY=            -22.9337   ZZ=            -21.9422
   XY=             -2.0776   XZ=             -0.0000   YZ=             -0.0000
 Traceless Quadrupole moment (field-independent basis, Debye-Ang):
   XX=             -0.5649   YY=             -0.2133   ZZ=              0.7782
   XY=             -2.0776   XZ=             -0.0000   YZ=             -0.0000
 Octapole moment (field-independent basis, Debye-Ang**2):
  XXX=              2.7831  YYY=              0.2632  ZZZ=             -0.0000  XYY=              2.4229
  XXY=             -2.9780  XXZ=              0.0000  XZZ=             -0.5893  YZZ=             -0.7063
  YYZ=              0.0000  XYZ=             -0.0000
 Hexadecapole moment (field-independent basis, Debye-Ang**3):
 XXXX=           -127.3196 YYYY=            -94.7639 ZZZZ=            -18.0653 XXXY=            -21.8557
 XXXZ=             -0.0000 YYYX=            -19.8826 YYYZ=             -0.0000 ZZZX=             -0.0000
 ZZZY=             -0.0000 XXYY=            -35.6484 XXZZ=            -24.4330 YYZZ=            -18.5842
 XXYZ=             -0.0000 YYXZ=             -0.0000 ZZXY=             -5.9074
 N-N= 1.226397077064D+02 E-N=-9.068538976547D+02  KE= 2.801942408762D+02
 Symmetry A'   KE= 2.663423450116D+02
 Symmetry A"   KE= 1.385189586460D+01
  Exact polarizability:  30.955   4.047  29.896   0.000   0.000  17.658
 Approx polarizability:  24.499   0.410  27.714   0.000   0.000  15.538
 No NMR shielding tensors so no spin-rotation constants.
 Leave Link  601 at Sun Mar  6 19:26:25 2022, MaxMem= 16106127360 cpu:               4.2 elap:               0.2
 (Enter /sw/contrib/gaussian/g16/B01/g16/l701.exe)
 ... and contract with generalized density number  2.
 Compute integral second derivatives.
 Leave Link  701 at Sun Mar  6 19:26:25 2022, MaxMem= 16106127360 cpu:               5.5 elap:               0.2
 (Enter /sw/contrib/gaussian/g16/B01/g16/l702.exe)
 L702 exits ... SP integral derivatives will be done elsewhere.
 Leave Link  702 at Sun Mar  6 19:26:25 2022, MaxMem= 16106127360 cpu:               0.8 elap:               0.1
 (Enter /sw/contrib/gaussian/g16/B01/g16/l703.exe)
 Integral derivatives from FoFJK, PRISM(SPDF).
 Compute integral second derivatives, UseDBF=F ICtDFT=           0.
 Calling FoFJK, ICntrl=  10100127 FMM=F ISym2X=1 I1Cent= 0 IOpClX= 0 NMat=1 NMatS=1 NMatT=0.
 FoFJK:  IHMeth= 1 ICntrl=10100127 DoSepK=F KAlg= 0 I1Cent=           0 FoldK=F
 IRaf=         0 NMat=       1 IRICut=       1 DoRegI=T DoRafI=F ISym2E= 1 IDoP0=0 IntGTp=1.
 FoFCou: FMM=F IPFlag=           0 FMFlag=      100000 FMFlg1=         800
         NFxFlg=           0 DoJE=F BraDBF=F KetDBF=F FulRan=T
         wScrn=  0.000000 ICntrl=  10100127 IOpCl=  0 I1Cent=           0 NGrid=           0
         NMat0=    1 NMatS0=      1 NMatT0=    0 NMatD0=    1 NMtDS0=    0 NMtDT0=    0
 Petite list used in FoFCou.
 Leave Link  703 at Sun Mar  6 19:26:41 2022, MaxMem= 16106127360 cpu:             447.6 elap:              16.0
 (Enter /sw/contrib/gaussian/g16/B01/g16/l716.exe)
 Dipole        = 4.24311068D-02-4.38086420D-01-1.98524179D-33
 Polarizability= 3.09554128D+01 4.04666383D+00 2.98963235D+01
                 6.44702475D-31 3.21632096D-31 1.76579911D+01
 Full mass-weighted force constant matrix:
 Low frequencies ---  -36.7394   -0.0015   -0.0008   -0.0004   25.5157   61.3380
 Low frequencies ---  322.6057  396.2245  524.7743
 Diagonal vibrational polarizability:
        7.3627326       9.9566630      19.8577421
 Harmonic frequencies (cm**-1), IR intensities (KM/Mole), Raman scattering
 activities (A**4/AMU), depolarization ratios for plane and unpolarized
 incident light, reduced masses (AMU), force constants (mDyne/A),
 and normal coordinates:
                      1                      2                      3
                     A"                     A'                     A"
 Frequencies --    320.4289               396.2146               524.5271
 Red. masses --      1.5345                 6.8820                 3.0183
 Frc consts  --      0.0928                 0.6365                 0.4893
 IR Inten    --     66.3828                 7.5278                25.1366
  Atom  AN      X      Y      Z        X      Y      Z        X      Y      Z
     1   1    -0.00  -0.00   0.98    -0.74  -0.26  -0.00    -0.00  -0.00   0.92
     2   8    -0.00  -0.00  -0.11    -0.32  -0.31   0.00    -0.00  -0.00   0.06
     3   8    -0.00   0.00   0.11    -0.06   0.09  -0.00     0.00   0.00  -0.19
     4   7     0.00   0.00  -0.10     0.05   0.09  -0.00     0.00   0.00   0.28
     5   8     0.00   0.00   0.03     0.38   0.16   0.00     0.00   0.00  -0.17
                      4                      5                      6
                     A'                     A'                     A'
 Frequencies --    708.9933               831.6680               967.6831
 Red. masses --     13.2027                11.3896                 9.7546
 Frc consts  --      3.9102                 4.6415                 5.3818
 IR Inten    --    218.6882                30.0444                12.7351
  Atom  AN      X      Y      Z        X      Y      Z        X      Y      Z
     1   1    -0.37  -0.00   0.00     0.50  -0.17  -0.00    -0.63  -0.03  -0.00
     2   8    -0.00  -0.07  -0.00     0.50  -0.20   0.00     0.21  -0.17   0.00
     3   8     0.37   0.58   0.00    -0.36  -0.01  -0.00    -0.36   0.40  -0.00
     4   7    -0.40  -0.46  -0.00    -0.42  -0.06   0.00     0.38   0.05   0.00
     5   8     0.01  -0.11   0.00     0.20   0.27  -0.00    -0.13  -0.28  -0.00
                      7                      8                      9
                     A'                     A'                     A'
 Frequencies --   1408.9646              1564.8016              3500.2125
 Red. masses --      1.2691                 8.2123                 1.0641
 Frc consts  --      1.4843                11.8476                 7.6810
 IR Inten    --     77.9379               149.2795                40.5433
  Atom  AN      X      Y      Z        X      Y      Z        X      Y      Z
     1   1     0.97  -0.18   0.00    -0.68   0.13  -0.00     0.13   0.99  -0.00
     2   8    -0.07  -0.05   0.00     0.01   0.02  -0.00    -0.01  -0.06   0.00
     3   8    -0.02   0.06  -0.00    -0.05  -0.06   0.00     0.00  -0.00  -0.00
     4   7     0.06  -0.04   0.00     0.29  -0.46  -0.00    -0.00   0.00  -0.00
     5   8    -0.02   0.03  -0.00    -0.17   0.43   0.00     0.00  -0.00   0.00

 -------------------
 - Thermochemistry -
 -------------------
 Temperature   298.150 Kelvin.  Pressure   1.00000 Atm.
 Atom     1 has atomic number  1 and mass   1.00783
 Atom     2 has atomic number  8 and mass  15.99491
 Atom     3 has atomic number  8 and mass  15.99491
 Atom     4 has atomic number  7 and mass  14.00307
 Atom     5 has atomic number  8 and mass  15.99491
 Molecular mass:    62.99564 amu.
 Principal axes and moments of inertia in atomic units:
                           1         2         3
     Eigenvalues --    84.78012 222.71266 307.49278
           X            0.79787  -0.60283   0.00000
           Y            0.60283   0.79787   0.00000
           Z           -0.00000   0.00000   1.00000
 This molecule is an asymmetric top.
 Rotational symmetry number  1.
 Rotational temperatures (Kelvin)      1.02163     0.38890     0.28168
 Rotational constants (GHZ):          21.28732     8.10345     5.86921
 Zero-point vibrational energy      61150.1 (Joules/Mol)
                                   14.61522 (Kcal/Mol)
 Warning -- explicit consideration of   3 degrees of freedom as
           vibrations may cause significant error
 Vibrational temperatures:    461.03   570.06   754.68  1020.08  1196.58
          (Kelvin)           1392.28  2027.19  2251.40  5036.03
 
 Zero-point correction=                           0.023291 (Hartree/Particle)
 Thermal correction to Energy=                    0.027270
 Thermal correction to Enthalpy=                  0.028214
 Thermal correction to Gibbs Free Energy=        -0.002724
 Sum of electronic and zero-point Energies=           -280.431747
 Sum of electronic and thermal Energies=              -280.427768
 Sum of electronic and thermal Enthalpies=            -280.426824
 Sum of electronic and thermal Free Energies=         -280.457762
 
                     E (Thermal)             CV                S
                      KCal/Mol        Cal/Mol-Kelvin    Cal/Mol-Kelvin
 Total                   17.112             12.258             65.114
 Electronic               0.000              0.000              0.000
 Translational            0.889              2.981             38.341
 Rotational               0.889              2.981             23.278
 Vibrational             15.335              6.297              3.496
 Vibration     1          0.706              1.634              1.308
 Vibration     2          0.763              1.478              0.977
 Vibration     3          0.879              1.196              0.600
                       Q            Log10(Q)             Ln(Q)
 Total Bot       0.178987D+02          1.252823          2.884731
 Total V=0       0.924384D+12         11.965852         27.552393
 Vib (Bot)       0.333903D-10        -10.476379        -24.122755
 Vib (Bot)    1  0.586508D+00         -0.231726         -0.533569
 Vib (Bot)    2  0.451090D+00         -0.345736         -0.796088
 Vib (Bot)    3  0.306452D+00         -0.513637         -1.182693
 Vib (V=0)       0.172445D+01          0.236650          0.544907
 Vib (V=0)    1  0.127071D+01          0.104046          0.239575
 Vib (V=0)    2  0.117341D+01          0.069450          0.159915
 Vib (V=0)    3  0.108644D+01          0.036006          0.082907
 Electronic      0.100000D+01          0.000000          0.000000
 Translational   0.196526D+08          7.293420         16.793719
 Rotational      0.272761D+05          4.435783         10.213767
 
                                                                title
                                                             IR Spectrum
 
     3                                                                      1    1                                                   
     5                                                                      5    4               9    8    7     5    3  3           
     0                                                                      6    0               6    3    0     2    9  2           
     0                                                                      5    9               8    2    9     5    6  0           
 
     X                                                                      X    X               X    X    X     X    X  X           
     X                                                                      X    X                    X    X     X       X           
     X                                                                      X    X                    X    X             X           
     X                                                                      X    X                         X             X           
                                                                            X    X                         X             X           
                                                                            X    X                         X             X           
                                                                            X    X                         X                         
                                                                            X                              X                         
                                                                            X                              X                         
                                                                            X                              X                         
                                                                            X                              X                         
                                                                            X                              X                         
                                                                            X                              X                         
                                                                            X                              X                         
                                                                                                           X                         
                                                                                                           X                         
                                                                                                           X                         
                                                                                                           X                         
                                                                                                           X                         
                                                                                                           X                         
 
 ***** Axes restored to original set *****
 -------------------------------------------------------------------
 Center     Atomic                   Forces (Hartrees/Bohr)
 Number     Number              X              Y              Z
 -------------------------------------------------------------------
      1        1           0.005271738    0.000000000    0.001740735
      2        8          -0.004261256   -0.000000000    0.002522237
      3        8          -0.001459840   -0.000000000   -0.003685141
      4        7          -0.000106025   -0.000000000   -0.000915490
      5        8           0.000555382    0.000000000    0.000337659
 -------------------------------------------------------------------
 Cartesian Forces:  Max     0.005271738 RMS     0.002195823
 -----------------------------------------------------------------------------------------------
                       Internal Coordinate Forces (Hartree/Bohr or radian)
  Cent   Atom   N1       Length/X         N2         Alpha/Y        N3         Beta/Z          J
 -----------------------------------------------------------------------------------------------
      1  H 
      2  O        1  -0.001741(     1)
      3  O        2  -0.001940(     2)      1  -0.009817(     5)
      4  N        3   0.000732(     3)      2   0.000774(     6)      1   0.000000(     8)     0
      5  O        4  -0.000568(     4)      3   0.000714(     7)      2   0.000000(     9)     0
 -----------------------------------------------------------------------------------------------
 Internal  Forces:  Max     0.009816639 RMS     0.003417737
 Force constants in Cartesian coordinates: 
                1             2             3             4             5 
      1  0.680545D-01
      2  0.000000D+00  0.575743D-02
      3  0.197352D-01  0.000000D+00  0.440335D+00
      4 -0.550863D-01  0.000000D+00 -0.385703D-02  0.284436D+00
      5  0.000000D+00 -0.308780D-03  0.000000D+00  0.000000D+00  0.843402D-02
      6  0.341484D-01  0.000000D+00 -0.423853D+00 -0.105703D-01  0.000000D+00
      7 -0.198442D-01  0.000000D+00 -0.137134D-01 -0.167276D+00  0.000000D+00
      8  0.000000D+00 -0.620937D-02  0.000000D+00  0.000000D+00 -0.171153D-01
      9 -0.433196D-01  0.000000D+00 -0.173938D-01  0.935587D-02  0.000000D+00
     10 -0.284540D-02  0.000000D+00  0.521130D-02 -0.864543D-01  0.000000D+00
     11  0.000000D+00  0.782797D-02  0.000000D+00  0.000000D+00  0.195690D-01
     12 -0.182733D-01  0.000000D+00  0.928957D-02  0.848228D-02  0.000000D+00
     13  0.972143D-02  0.000000D+00 -0.737611D-02  0.243809D-01  0.000000D+00
     14  0.000000D+00 -0.706725D-02  0.000000D+00  0.000000D+00 -0.105790D-01
     15  0.770925D-02  0.000000D+00 -0.837737D-02 -0.341084D-02  0.000000D+00
                6             7             8             9            10 
      6  0.525640D+00
      7 -0.916927D-01  0.293950D+00
      8  0.000000D+00  0.000000D+00  0.406442D-01
      9 -0.101795D+00  0.772654D-01  0.000000D+00  0.319658D+00
     10  0.384989D-01 -0.143177D+00  0.000000D+00 -0.402642D-01  0.532804D+00
     11  0.000000D+00  0.000000D+00 -0.471115D-01  0.000000D+00  0.000000D+00
     12 -0.712618D-02  0.102557D-01  0.000000D+00 -0.254840D-01  0.246002D+00
     13  0.296157D-01  0.363484D-01  0.000000D+00 -0.303747D-02 -0.300327D+00
     14  0.000000D+00  0.000000D+00  0.297920D-01  0.000000D+00  0.000000D+00
     15  0.713358D-02  0.178850D-01  0.000000D+00 -0.174985D+00 -0.249448D+00
               11            12            13            14            15 
     11  0.572101D-01
     12  0.000000D+00  0.467398D+00
     13  0.000000D+00 -0.246467D+00  0.229877D+00
     14 -0.374955D-01  0.000000D+00  0.000000D+00  0.253497D-01
     15  0.000000D+00 -0.444077D+00  0.227265D+00  0.000000D+00  0.620306D+00
 Force constants in internal coordinates: 
                1             2             3             4             5 
      1  0.440335D+00
      2  0.191690D-01  0.253324D+00
      3  0.201239D-02  0.188202D-01  0.208090D+00
      4 -0.109264D-01  0.222638D-01  0.148043D+00  0.720309D+00
      5  0.420206D-01  0.460273D-01 -0.234383D-01  0.214193D-01  0.232729D+00
      6  0.831234D-02  0.194838D-01  0.936613D-01  0.785460D-02 -0.163098D-01
      7  0.514930D-02 -0.706950D-01  0.122219D+00  0.114917D+00 -0.195511D-01
      8  0.000000D+00  0.000000D+00  0.000000D+00  0.000000D+00  0.000000D+00
      9  0.000000D+00  0.000000D+00  0.000000D+00  0.000000D+00  0.000000D+00
                6             7             8             9 
      6  0.509133D+00
      7  0.612569D-01  0.660785D+00
      8  0.000000D+00  0.000000D+00  0.180260D-01
      9  0.000000D+00  0.000000D+00  0.263839D-01  0.105953D+00
 Leave Link  716 at Sun Mar  6 19:26:41 2022, MaxMem= 16106127360 cpu:               0.7 elap:               0.0
 (Enter /sw/contrib/gaussian/g16/B01/g16/l103.exe)

 GradGradGradGradGradGradGradGradGradGradGradGradGradGradGradGradGradGrad
 Berny optimization.
 Search for a local minimum.
 Step number   1 out of a maximum of    2
 All quantities printed in internal units (Hartrees-Bohrs-Radians)
 Second derivative matrix not updated -- analytic derivatives used.
 The second derivative matrix:
                          r1        r2        r3        r4        a1
           r1           0.44033
           r2           0.01917   0.25332
           r3           0.00201   0.01882   0.20809
           r4          -0.01093   0.02226   0.14804   0.72031
           a1           0.04202   0.04603  -0.02344   0.02142   0.23273
           a2           0.00831   0.01948   0.09366   0.00785  -0.01631
           a3           0.00515  -0.07070   0.12222   0.11492  -0.01955
           d1           0.00000   0.00000   0.00000  -0.00000  -0.00000
           d2           0.00000  -0.00000  -0.00000  -0.00000  -0.00000
                          a2        a3        d1        d2
           a2           0.50913
           a3           0.06126   0.66078
           d1           0.00000   0.00000   0.01803
           d2          -0.00000   0.00000   0.02638   0.10595
 ITU=  0
     Eigenvalues ---    0.01072   0.11326   0.12356   0.20084   0.26145
     Eigenvalues ---    0.45046   0.50333   0.60598   0.87910
 Angle between quadratic step and forces=  18.00 degrees.
 Linear search not attempted -- first point.
 Variable       Old X    -DE/DX   Delta X   Delta X   Delta X     New X
                                 (Linear)    (Quad)   (Total)
    r1        1.86209  -0.00174   0.00000   0.00012   0.00012   1.86221
    r2        2.69614  -0.00194   0.00000   0.00010   0.00010   2.69624
    r3        2.60992   0.00073   0.00000  -0.00219  -0.00219   2.60773
    r4        2.25782  -0.00057   0.00000   0.00091   0.00091   2.25874
    a1        1.79690  -0.00982   0.00000  -0.04249  -0.04249   1.75442
    a2        1.97463   0.00077   0.00000   0.00054   0.00054   1.97516
    a3        1.99550   0.00071   0.00000   0.00003   0.00003   1.99553
    d1        0.00000   0.00000   0.00000  -0.00000  -0.00000  -0.00000
    d2        0.00000   0.00000   0.00000   0.00000   0.00000   0.00000
         Item               Value     Threshold  Converged?
 Maximum Force            0.009817     0.000450     NO 
 RMS     Force            0.003418     0.000300     NO 
 Maximum Displacement     0.042486     0.001800     NO 
 RMS     Displacement     0.014185     0.001200     NO 
 Predicted change in Energy=-2.074936D-04
                       ----------------------------
                       ! Non-Optimized Parameters !
                       ! (Angstroms and Degrees)  !
 ----------------------                            ----------------------
 !      Name          Value   Derivative information (Atomic Units)     !
 ------------------------------------------------------------------------
 !       r1          0.9854   -DE/DX =   -0.0017                        !
 !       r2          1.4268   -DE/DX =   -0.0019                        !
 !       r3          1.3799   -DE/DX =    0.0007                        !
 !       r4          1.1953   -DE/DX =   -0.0006                        !
 !       a1        100.5207   -DE/DX =   -0.0098                        !
 !       a2        113.1686   -DE/DX =    0.0008                        !
 !       a3        114.3356   -DE/DX =    0.0007                        !
 !       d1          0.0      -DE/DX =    0.0                           !
 !       d2          0.0      -DE/DX =    0.0                           !
 ------------------------------------------------------------------------
 GradGradGradGradGradGradGradGradGradGradGradGradGradGradGradGradGradGrad

 Leave Link  103 at Sun Mar  6 19:26:41 2022, MaxMem= 16106127360 cpu:               0.6 elap:               0.0
 (Enter /sw/contrib/gaussian/g16/B01/g16/l9999.exe)

 ----------------------------------------------------------------------

 Electric dipole moment (input orientation):
 (Debye = 10**-18 statcoulomb cm , SI units = C m)
                  (au)            (Debye)         (10**-30 SI)
   Tot        0.440136D+00      0.111872D+01      0.373163D+01
   x         -0.116837D+00     -0.296971D+00     -0.990588D+00
   y          0.000000D+00      0.000000D+00      0.000000D+00
   z         -0.424346D+00     -0.107858D+01     -0.359775D+01

 Dipole polarizability, Alpha (input orientation).
 (esu units = cm**3 , SI units = C**2 m**2 J**-1)
 Alpha(0;0):
               (au)            (10**-24 esu)      (10**-40 SI)
   iso        0.261699D+02      0.387798D+01      0.431484D+01
   aniso      0.145941D+02      0.216262D+01      0.240623D+01
   xx         0.295586D+02      0.438014D+01      0.487356D+01
   yx         0.000000D+00      0.000000D+00      0.000000D+00
   yy         0.176580D+02      0.261664D+01      0.291141D+01
   zx        -0.398796D+01     -0.590955D+00     -0.657526D+00
   zy         0.000000D+00      0.000000D+00      0.000000D+00
   zz         0.312931D+02      0.463716D+01      0.515953D+01

 ----------------------------------------------------------------------

 Dipole orientation:
     1         -0.00000000          0.00000000          0.00000000
     8         -0.49430543          0.00000000         -1.79528512
     8          1.87848983          0.00000000         -3.07552801
     7          3.92065847         -0.00000000         -1.45034970
     8          3.36759222         -0.00000000          0.73868713

 Electric dipole moment (dipole orientation):
 (Debye = 10**-18 statcoulomb cm , SI units = C m)
                  (au)            (Debye)         (10**-30 SI)
   Tot        0.440136D+00      0.111872D+01      0.373163D+01
   x          0.000000D+00      0.000000D+00      0.000000D+00
   y          0.000000D+00      0.000000D+00      0.000000D+00
   z          0.440136D+00      0.111872D+01      0.373163D+01

 Dipole polarizability, Alpha (dipole orientation).
 (esu units = cm**3 , SI units = C**2 m**2 J**-1)
 Alpha(0;0):
               (au)            (10**-24 esu)      (10**-40 SI)
   iso        0.261699D+02      0.387798D+01      0.431484D+01
   aniso      0.145941D+02      0.216262D+01      0.240623D+01
   xx         0.317222D+02      0.470074D+01      0.523028D+01
   yx         0.000000D+00      0.000000D+00      0.000000D+00
   yy         0.176580D+02      0.261664D+01      0.291141D+01
   zx         0.386982D+01      0.573448D+00      0.638047D+00
   zy         0.000000D+00      0.000000D+00      0.000000D+00
   zz         0.291296D+02      0.431656D+01      0.480282D+01

 ----------------------------------------------------------------------
 1\1\GINC-N2110\Freq\RMP2-FC\Aug-CC-pVTZ\H1N1O3\CGAVINH\06-Mar-2022\1\\
 #p freq mp2/aug-cc-pvtz density=current\\title\\0,1\H\O,1,r1\O,2,r2,1,
 a1\N,3,r3,2,a2,1,d1,0\O,4,r4,3,a3,2,d2,0\\r1=0.98537664\r2=1.42673666\
 r3=1.38110764\r4=1.19478846\a1=102.95499077\a2=113.13777052\a3=114.333
 92022\d1=0.\d2=0.\\Version=ES64L-G16RevB.01\State=1-A'\HF=-279.5066852
 \MP2=-280.4550382\RMSD=4.336e-09\RMSF=2.196e-03\ZeroPoint=0.0232908\Th
 ermal=0.0272697\Dipole=-0.1168373,0.,-0.4243456\DipoleDeriv=0.3110885,
 0.,0.0462971,0.,0.3035131,0.,-0.0041428,0.,0.1958011,-0.5309305,0.,0.2
 596077,0.,-0.2596865,0.,-0.1365196,0.,-0.1146701,-0.0336735,0.,0.37794
 39,0.,-0.0084871,0.,0.4844848,0.,-0.8873042,0.2358677,0.,-0.2023499,0.
 ,0.0119103,0.,-0.7318015,0.,1.6797836,0.0176478,0.,-0.4814987,0.,-0.04
 72499,0.,0.387979,0.,-0.8736105\Polar=29.5586436,0.,17.6579911,-3.9879
 603,0.,31.2930926\Quadrupole=0.1090014,0.5785566,-0.6875579,0.,1.49814
 68,0.\PG=CS [SG(H1N1O3)]\NImag=0\\0.06805451,0.,0.00575743,0.01973523,
 0.,0.44033457,-0.05508632,0.,-0.00385703,0.28443601,0.,-0.00030878,0.,
 0.,0.00843402,0.03414838,0.,-0.42385300,-0.01057028,0.,0.52564046,-0.0
 1984421,0.,-0.01371339,-0.16727626,0.,-0.09169273,0.29394953,0.,-0.006
 20937,0.,0.,-0.01711529,0.,0.,0.04064418,-0.04331957,0.,-0.01739378,0.
 00935587,0.,-0.10179486,0.07726539,0.,0.31965790,-0.00284540,0.,0.0052
 1130,-0.08645429,0.,0.03849888,-0.14317743,0.,-0.04026422,0.53280441,0
 .,0.00782797,0.,0.,0.01956904,0.,0.,-0.04711154,0.,0.,0.05721007,-0.01
 827329,0.,0.00928957,0.00848228,0.,-0.00712618,0.01025572,0.,-0.025484
 04,0.24600238,0.,0.46739769,0.00972143,0.,-0.00737611,0.02438086,0.,0.
 02961574,0.03634837,0.,-0.00303747,-0.30032729,0.,-0.24646709,0.229876
 63,0.,-0.00706725,0.,0.,-0.01057899,0.,0.,0.02979202,0.,0.,-0.03749553
 ,0.,0.,0.02534975,0.00770925,0.,-0.00837737,-0.00341084,0.,0.00713358,
 0.01788501,0.,-0.17498522,-0.24944834,0.,-0.44407704,0.22726493,0.,0.6
 2030605\\-0.00527174,0.,-0.00174073,0.00426126,0.,-0.00252224,0.001459
 84,0.,0.00368514,0.00010602,0.,0.00091549,-0.00055538,0.,-0.00033766\\
 \@


 REVOLUTIONS HAVE NEVER LIGHTENED THE BURDEN OF TYRANNY:
 THEY HAVE MERELY SHIFTED IT TO OTHER SHOULDERS.
                                   -- G. B. SHAW (1903)
 Job cpu time:       0 days  2 hours  4 minutes 57.4 seconds.
 Elapsed time:       0 days  0 hours  4 minutes 31.2 seconds.
 File lengths (MBytes):  RWF=   7239 Int=      0 D2E=      0 Chk=      8 Scr=      1
 Normal termination of Gaussian 16 at Sun Mar  6 19:26:42 2022.
